Currently Loaded Modulefiles:
  1) miniconda3/miniconda3-4.3.30   2) gaussian/gaussian-16-A.03
### Starting Gaussian ###
 Entering Gaussian System, Link 0=g16
 Initial command:
 /cluster/software/gaussian/gaussian-16-A.03/avx2/g16/l1.exe "/local/scratch/ks29c/Gau-18117.inp" -scrdir="/local/scratch/ks29c/"
 Entering Link 1 = /cluster/software/gaussian/gaussian-16-A.03/avx2/g16/l1.exe PID=     18118.
  
 Copyright (c) 1988,1990,1992,1993,1995,1998,2003,2009,2016,
            Gaussian, Inc.  All Rights Reserved.
  
 This is part of the Gaussian(R) 16 program.  It is based on
 the Gaussian(R) 09 system (copyright 2009, Gaussian, Inc.),
 the Gaussian(R) 03 system (copyright 2003, Gaussian, Inc.),
 the Gaussian(R) 98 system (copyright 1998, Gaussian, Inc.),
 the Gaussian(R) 94 system (copyright 1995, Gaussian, Inc.),
 the Gaussian 92(TM) system (copyright 1992, Gaussian, Inc.),
 the Gaussian 90(TM) system (copyright 1990, Gaussian, Inc.),
 the Gaussian 88(TM) system (copyright 1988, Gaussian, Inc.),
 the Gaussian 86(TM) system (copyright 1986, Carnegie Mellon
 University), and the Gaussian 82(TM) system (copyright 1983,
 Carnegie Mellon University). Gaussian is a federally registered
 trademark of Gaussian, Inc.
  
 This software contains proprietary and confidential information,
 including trade secrets, belonging to Gaussian, Inc.
  
 This software is provided under written license and may be
 used, copied, transmitted, or stored only in accord with that
 written license.
  
 The following legend is applicable only to US Government
 contracts under FAR:
  
                    RESTRICTED RIGHTS LEGEND
  
 Use, reproduction and disclosure by the US Government is
 subject to restrictions as set forth in subparagraphs (a)
 and (c) of the Commercial Computer Software - Restricted
 Rights clause in FAR 52.227-19.
  
 Gaussian, Inc.
 340 Quinnipiac St., Bldg. 40, Wallingford CT 06492
  
  
 ---------------------------------------------------------------
 Warning -- This program may not be used in any manner that
 competes with the business of Gaussian, Inc. or will provide
 assistance to any competitor of Gaussian, Inc.  The licensee
 of this program is prohibited from giving any competitor of
 Gaussian, Inc. access to this program.  By using this program,
 the user acknowledges that Gaussian, Inc. is engaged in the
 business of creating and licensing software in the field of
 computational chemistry and represents and warrants to the
 licensee that it is not a competitor of Gaussian, Inc. and that
 it will not use this program in any manner prohibited above.
 ---------------------------------------------------------------
  

 Cite this work as:
 Gaussian 16, Revision A.03,
 M. J. Frisch, G. W. Trucks, H. B. Schlegel, G. E. Scuseria, 
 M. A. Robb, J. R. Cheeseman, G. Scalmani, V. Barone, 
 G. A. Petersson, H. Nakatsuji, X. Li, M. Caricato, A. V. Marenich, 
 J. Bloino, B. G. Janesko, R. Gomperts, B. Mennucci, H. P. Hratchian, 
 J. V. Ortiz, A. F. Izmaylov, J. L. Sonnenberg, D. Williams-Young, 
 F. Ding, F. Lipparini, F. Egidi, J. Goings, B. Peng, A. Petrone, 
 T. Henderson, D. Ranasinghe, V. G. Zakrzewski, J. Gao, N. Rega, 
 G. Zheng, W. Liang, M. Hada, M. Ehara, K. Toyota, R. Fukuda, 
 J. Hasegawa, M. Ishida, T. Nakajima, Y. Honda, O. Kitao, H. Nakai, 
 T. Vreven, K. Throssell, J. A. Montgomery, Jr., J. E. Peralta, 
 F. Ogliaro, M. J. Bearpark, J. J. Heyd, E. N. Brothers, K. N. Kudin, 
 V. N. Staroverov, T. A. Keith, R. Kobayashi, J. Normand, 
 K. Raghavachari, A. P. Rendell, J. C. Burant, S. S. Iyengar, 
 J. Tomasi, M. Cossi, J. M. Millam, M. Klene, C. Adamo, R. Cammi, 
 J. W. Ochterski, R. L. Martin, K. Morokuma, O. Farkas, 
 J. B. Foresman, and D. J. Fox, Gaussian, Inc., Wallingford CT, 2016.
 
 ******************************************
 Gaussian 16:  ES64L-G16RevA.03 25-Dec-2016
                18-Feb-2021 
 ******************************************
 %NProcShared=20
 Will use up to   20 processors via shared memory.
 %Chk=CCCC12NC3C1OC32.chk
 -----------------------------
 # opt freq b3lyp/6-31g(2df,p)
 -----------------------------
 1/18=20,19=15,26=3,38=1/1,3;
 2/9=110,12=2,17=6,18=5,40=1/2;
 3/5=1,6=6,7=104,11=2,25=1,30=1,71=1,74=-5/1,2,3;
 4//1;
 5/5=2,38=5/2;
 6/7=2,8=2,9=2,10=2,28=1/1;
 7//1,2,3,16;
 1/18=20,19=15,26=3/3(2);
 2/9=110/2;
 99//99;
 2/9=110/2;
 3/5=1,6=6,7=104,11=2,25=1,30=1,71=1,74=-5/1,2,3;
 4/5=5,16=3,69=1/1;
 5/5=2,38=5/2;
 7//1,2,3,16;
 1/18=20,19=15,26=3/3(-5);
 2/9=110/2;
 6/7=2,8=2,9=2,10=2,19=2,28=1/1;
 99/9=1/99;
 -----
 Title
 -----
 Symbolic Z-matrix:
 Charge =  0 Multiplicity = 1
 C                    -6.17563  -1.18466   0.19582 
 C                    -4.99865  -0.53449  -0.52495 
 C                    -3.88701  -0.16025   0.45905 
 C                    -2.71229   0.48868  -0.2717 
 N                    -2.80039   1.71873  -1.04395 
 C                    -1.41223   1.2579   -1.08812 
 C                    -1.70525  -0.23151  -1.12364 
 O                    -0.84328  -0.58181  -0.07444 
 C                    -1.33838   0.67196   0.31161 
 H                    -6.96416  -1.44709  -0.54064 
 H                    -6.60546  -0.48409   0.94315 
 H                    -5.84767  -2.11254   0.71128 
 H                    -5.35755   0.37814  -1.04896 
 H                    -4.60234  -1.24741  -1.28065 
 H                    -3.52936  -1.07294   0.98354 
 H                    -4.2755    0.55649   1.21415 
 H                    -2.87711   2.53794  -0.39488 
 H                    -0.55927   1.75178  -1.60284 
 H                    -1.94139  -0.81064  -2.04273 
 H                    -1.10451   1.25291   1.23015 
 

 GradGradGradGradGradGradGradGradGradGradGradGradGradGradGradGradGradGrad
 Berny optimization.
 Initialization pass.
                           ----------------------------
                           !    Initial Parameters    !
                           ! (Angstroms and Degrees)  !
 --------------------------                            --------------------------
 ! Name  Definition              Value          Derivative Info.                !
 --------------------------------------------------------------------------------
 ! R1    R(1,2)                  1.5256         estimate D2E/DX2                !
 ! R2    R(1,10)                 1.1104         estimate D2E/DX2                !
 ! R3    R(1,11)                 1.1109         estimate D2E/DX2                !
 ! R4    R(1,12)                 1.111          estimate D2E/DX2                !
 ! R5    R(2,3)                  1.531          estimate D2E/DX2                !
 ! R6    R(2,13)                 1.1119         estimate D2E/DX2                !
 ! R7    R(2,14)                 1.1119         estimate D2E/DX2                !
 ! R8    R(3,4)                  1.5281         estimate D2E/DX2                !
 ! R9    R(3,15)                 1.1118         estimate D2E/DX2                !
 ! R10   R(3,16)                 1.1112         estimate D2E/DX2                !
 ! R11   R(4,5)                  1.455          estimate D2E/DX2                !
 ! R12   R(4,6)                  1.7171         estimate D2E/DX2                !
 ! R13   R(4,7)                  1.5029         estimate D2E/DX2                !
 ! R14   R(4,9)                  1.5038         estimate D2E/DX2                !
 ! R15   R(5,6)                  1.4633         estimate D2E/DX2                !
 ! R16   R(5,17)                 1.048          estimate D2E/DX2                !
 ! R17   R(6,7)                  1.5184         estimate D2E/DX2                !
 ! R18   R(6,9)                  1.5192         estimate D2E/DX2                !
 ! R19   R(6,18)                 1.1119         estimate D2E/DX2                !
 ! R20   R(7,8)                  1.4023         estimate D2E/DX2                !
 ! R21   R(7,9)                  1.7352         estimate D2E/DX2                !
 ! R22   R(7,19)                 1.1117         estimate D2E/DX2                !
 ! R23   R(8,9)                  1.4022         estimate D2E/DX2                !
 ! R24   R(9,20)                 1.1117         estimate D2E/DX2                !
 ! A1    A(2,1,10)             109.586          estimate D2E/DX2                !
 ! A2    A(2,1,11)             110.3391         estimate D2E/DX2                !
 ! A3    A(2,1,12)             110.3284         estimate D2E/DX2                !
 ! A4    A(10,1,11)            108.6905         estimate D2E/DX2                !
 ! A5    A(10,1,12)            108.661          estimate D2E/DX2                !
 ! A6    A(11,1,12)            109.1964         estimate D2E/DX2                !
 ! A7    A(1,2,3)              111.1418         estimate D2E/DX2                !
 ! A8    A(1,2,13)             108.8704         estimate D2E/DX2                !
 ! A9    A(1,2,14)             108.8331         estimate D2E/DX2                !
 ! A10   A(3,2,13)             109.6715         estimate D2E/DX2                !
 ! A11   A(3,2,14)             109.5565         estimate D2E/DX2                !
 ! A12   A(13,2,14)            108.7238         estimate D2E/DX2                !
 ! A13   A(2,3,4)              110.7704         estimate D2E/DX2                !
 ! A14   A(2,3,15)             109.6403         estimate D2E/DX2                !
 ! A15   A(2,3,16)             109.9106         estimate D2E/DX2                !
 ! A16   A(4,3,15)             109.0823         estimate D2E/DX2                !
 ! A17   A(4,3,16)             108.651          estimate D2E/DX2                !
 ! A18   A(15,3,16)            108.7477         estimate D2E/DX2                !
 ! A19   A(3,4,5)              124.4897         estimate D2E/DX2                !
 ! A20   A(3,4,7)              125.641          estimate D2E/DX2                !
 ! A21   A(3,4,9)              124.653          estimate D2E/DX2                !
 ! A22   A(5,4,7)               98.3268         estimate D2E/DX2                !
 ! A23   A(5,4,9)               99.0997         estimate D2E/DX2                !
 ! A24   A(4,5,17)             109.6664         estimate D2E/DX2                !
 ! A25   A(6,5,17)             109.5308         estimate D2E/DX2                !
 ! A26   A(5,6,7)               97.2702         estimate D2E/DX2                !
 ! A27   A(5,6,9)               98.0342         estimate D2E/DX2                !
 ! A28   A(5,6,18)             126.9984         estimate D2E/DX2                !
 ! A29   A(7,6,18)             124.9525         estimate D2E/DX2                !
 ! A30   A(9,6,18)             124.0915         estimate D2E/DX2                !
 ! A31   A(4,7,8)               96.1687         estimate D2E/DX2                !
 ! A32   A(4,7,19)             125.1674         estimate D2E/DX2                !
 ! A33   A(6,7,8)               96.2525         estimate D2E/DX2                !
 ! A34   A(6,7,19)             124.8434         estimate D2E/DX2                !
 ! A35   A(8,7,19)             128.2424         estimate D2E/DX2                !
 ! A36   A(4,9,8)               96.1321         estimate D2E/DX2                !
 ! A37   A(4,9,20)             125.1956         estimate D2E/DX2                !
 ! A38   A(6,9,8)               96.2208         estimate D2E/DX2                !
 ! A39   A(6,9,20)             124.7453         estimate D2E/DX2                !
 ! A40   A(8,9,20)             128.3499         estimate D2E/DX2                !
 ! A41   L(3,4,6,19,-1)        181.1694         estimate D2E/DX2                !
 ! A42   L(4,6,18,19,-1)       180.2477         estimate D2E/DX2                !
 ! A43   L(9,7,19,1,-1)        179.9375         estimate D2E/DX2                !
 ! A44   L(7,9,20,3,-1)        179.9774         estimate D2E/DX2                !
 ! A45   L(3,4,6,19,-2)        178.9868         estimate D2E/DX2                !
 ! A46   L(4,6,18,19,-2)       180.9833         estimate D2E/DX2                !
 ! A47   L(9,7,19,1,-2)        180.0055         estimate D2E/DX2                !
 ! A48   L(7,9,20,3,-2)        180.1402         estimate D2E/DX2                !
 ! D1    D(10,1,2,3)          -179.8764         estimate D2E/DX2                !
 ! D2    D(10,1,2,13)           59.2198         estimate D2E/DX2                !
 ! D3    D(10,1,2,14)          -59.14           estimate D2E/DX2                !
 ! D4    D(11,1,2,3)            60.477          estimate D2E/DX2                !
 ! D5    D(11,1,2,13)          -60.4267         estimate D2E/DX2                !
 ! D6    D(11,1,2,14)         -178.7865         estimate D2E/DX2                !
 ! D7    D(12,1,2,3)           -60.273          estimate D2E/DX2                !
 ! D8    D(12,1,2,13)          178.8233         estimate D2E/DX2                !
 ! D9    D(12,1,2,14)           60.4635         estimate D2E/DX2                !
 ! D10   D(1,2,3,4)            179.9413         estimate D2E/DX2                !
 ! D11   D(1,2,3,15)            59.5035         estimate D2E/DX2                !
 ! D12   D(1,2,3,16)           -59.9826         estimate D2E/DX2                !
 ! D13   D(13,2,3,4)           -59.6273         estimate D2E/DX2                !
 ! D14   D(13,2,3,15)          179.935          estimate D2E/DX2                !
 ! D15   D(13,2,3,16)           60.4489         estimate D2E/DX2                !
 ! D16   D(14,2,3,4)            59.632          estimate D2E/DX2                !
 ! D17   D(14,2,3,15)          -60.8058         estimate D2E/DX2                !
 ! D18   D(14,2,3,16)          179.7081         estimate D2E/DX2                !
 ! D19   D(2,3,4,5)             60.5214         estimate D2E/DX2                !
 ! D20   D(2,3,4,7)            -74.6158         estimate D2E/DX2                !
 ! D21   D(2,3,4,9)           -164.3949         estimate D2E/DX2                !
 ! D22   D(15,3,4,5)          -178.7093         estimate D2E/DX2                !
 ! D23   D(15,3,4,7)            46.1534         estimate D2E/DX2                !
 ! D24   D(15,3,4,9)           -43.6257         estimate D2E/DX2                !
 ! D25   D(16,3,4,5)           -60.3043         estimate D2E/DX2                !
 ! D26   D(16,3,4,7)           164.5584         estimate D2E/DX2                !
 ! D27   D(16,3,4,9)            74.7794         estimate D2E/DX2                !
 ! D28   D(3,4,5,17)            74.2203         estimate D2E/DX2                !
 ! D29   D(7,4,5,17)          -141.187          estimate D2E/DX2                !
 ! D30   D(9,4,5,17)           -69.7485         estimate D2E/DX2                !
 ! D31   D(3,4,7,8)            -86.1708         estimate D2E/DX2                !
 ! D32   D(3,4,7,19)            60.7336         estimate D2E/DX2                !
 ! D33   D(5,4,7,8)            129.817          estimate D2E/DX2                !
 ! D34   D(5,4,7,19)           -83.2786         estimate D2E/DX2                !
 ! D35   D(3,4,9,8)             87.3822         estimate D2E/DX2                !
 ! D36   D(3,4,9,20)           -59.6956         estimate D2E/DX2                !
 ! D37   D(5,4,9,8)           -128.731          estimate D2E/DX2                !
 ! D38   D(5,4,9,20)            84.1912         estimate D2E/DX2                !
 ! D39   D(17,5,6,7)           140.8344         estimate D2E/DX2                !
 ! D40   D(17,5,6,9)            70.4479         estimate D2E/DX2                !
 ! D41   D(17,5,6,18)          -74.1535         estimate D2E/DX2                !
 ! D42   D(5,6,7,8)           -129.3638         estimate D2E/DX2                !
 ! D43   D(5,6,7,19)            84.0215         estimate D2E/DX2                !
 ! D44   D(18,6,7,8)            84.6042         estimate D2E/DX2                !
 ! D45   D(18,6,7,19)          -62.0105         estimate D2E/DX2                !
 ! D46   D(5,6,9,8)            128.2727         estimate D2E/DX2                !
 ! D47   D(5,6,9,20)           -85.0928         estimate D2E/DX2                !
 ! D48   D(18,6,9,8)           -85.6887         estimate D2E/DX2                !
 ! D49   D(18,6,9,20)           60.9459         estimate D2E/DX2                !
 --------------------------------------------------------------------------------
 Trust Radius=3.00D-01 FncErr=1.00D-07 GrdErr=1.00D-06 EigMax=2.50D+02 EigMin=1.00D-04
 Number of steps in this run=    120 maximum allowed number of steps=    120.
 GradGradGradGradGradGradGradGradGradGradGradGradGradGradGradGradGradGrad

                          Input orientation:                          
 ---------------------------------------------------------------------
 Center     Atomic      Atomic             Coordinates (Angstroms)
 Number     Number       Type             X           Y           Z
 ---------------------------------------------------------------------
      1          6           0       -6.175630   -1.184660    0.195820
      2          6           0       -4.998650   -0.534490   -0.524950
      3          6           0       -3.887010   -0.160250    0.459050
      4          6           0       -2.712290    0.488680   -0.271700
      5          7           0       -2.800390    1.718730   -1.043950
      6          6           0       -1.412230    1.257900   -1.088120
      7          6           0       -1.705250   -0.231510   -1.123640
      8          8           0       -0.843280   -0.581810   -0.074440
      9          6           0       -1.338380    0.671960    0.311610
     10          1           0       -6.964160   -1.447090   -0.540640
     11          1           0       -6.605460   -0.484090    0.943150
     12          1           0       -5.847670   -2.112540    0.711280
     13          1           0       -5.357550    0.378140   -1.048960
     14          1           0       -4.602340   -1.247410   -1.280650
     15          1           0       -3.529360   -1.072940    0.983540
     16          1           0       -4.275500    0.556490    1.214150
     17          1           0       -2.877110    2.537940   -0.394880
     18          1           0       -0.559270    1.751780   -1.602840
     19          1           0       -1.941390   -0.810640   -2.042730
     20          1           0       -1.104510    1.252910    1.230150
 ---------------------------------------------------------------------
                    Distance matrix (angstroms):
                    1          2          3          4          5
     1  C    0.000000
     2  C    1.525619   0.000000
     3  C    2.521208   1.531031   0.000000
     4  C    3.874708   2.517629   1.528094   0.000000
     5  N    4.621574   3.190409   2.640136   1.455045   0.000000
     6  C    5.504960   4.048732   3.244907   1.717090   1.463319
     7  C    4.757496   3.361058   2.696305   1.502866   2.238106
     8  O    5.373121   4.179988   3.118752   2.162882   3.172178
     9  C    5.182609   3.943720   2.685112   1.503819   2.251831
    10  H    1.110415   2.167098   3.481981   4.679523   5.254780
    11  H    1.110880   2.177084   2.780143   4.192722   4.824888
    12  H    1.110954   2.177003   2.778353   4.190848   5.200517
    13  H    2.158953   1.111885   2.174039   2.759303   2.887261
    14  H    2.158505   1.111935   2.172595   2.757585   3.478655
    15  H    2.763282   2.173542   1.111758   2.163767   3.526405
    16  H    2.771118   2.176615   1.111223   2.157771   2.936966
    17  H    5.008684   3.735997   3.004883   2.059564   1.047990
    18  H    6.587971   5.108520   4.356731   2.828931   2.309993
    19  H    4.804143   3.424435   3.235328   2.327889   2.851869
    20  H    5.720825   4.630281   3.214642   2.329068   2.874809
                    6          7          8          9         10
     6  C    0.000000
     7  C    1.518376   0.000000
     8  O    2.176186   1.402328   0.000000
     9  C    1.519218   1.735164   1.402176   0.000000
    10  H    6.200051   5.428965   6.199292   6.071746   0.000000
    11  H    5.842108   5.324235   5.852158   5.429312   1.804901
    12  H    5.854130   4.905594   5.291919   5.314779   1.804627
    13  H    4.042408   3.703585   4.716972   4.253376   2.484160
    14  H    4.060843   3.074058   4.003561   4.107640   2.483079
    15  H    3.769195   2.911287   2.928405   2.880375   3.776369
    16  H    3.740420   3.562638   3.838792   3.074831   3.784510
    17  H    2.065177   3.094220   3.737912   2.519663   5.710139
    18  H    1.111933   2.340159   2.803981   2.331983   7.237655
    19  H    2.338835   1.111701   2.265474   2.846865   5.281057
    20  H    2.338609   2.846879   2.266361   1.111717   6.690381
                   11         12         13         14         15
    11  H    0.000000
    12  H    1.811038   0.000000
    13  H    2.503841   3.089037   0.000000
    14  H    3.088759   2.503414   1.807328   0.000000
    15  H    3.132214   2.555280   3.094991   2.511629   0.000000
    16  H    2.566118   3.138203   2.514818   3.095950   1.806917
    17  H    4.982327   5.628035   3.353377   4.253220   3.919684
    18  H    6.930916   6.946603   5.021669   5.044340   4.846632
    19  H    5.547582   4.953639   3.751123   2.802176   3.427646
    20  H    5.775811   5.838925   4.903867   4.979009   3.369019
                   16         17         18         19         20
    16  H    0.000000
    17  H    2.910432   0.000000
    18  H    4.813992   2.729395   0.000000
    19  H    4.233720   3.847593   2.944445   0.000000
    20  H    3.246604   2.726561   2.927796   3.958579   0.000000
 Stoichiometry    C7H11NO
 Framework group  C1[X(C7H11NO)]
 Deg. of freedom    54
 Full point group                 C1      NOp   1
 Largest Abelian subgroup         C1      NOp   1
 Largest concise Abelian subgroup C1      NOp   1
                         Standard orientation:                         
 ---------------------------------------------------------------------
 Center     Atomic      Atomic             Coordinates (Angstroms)
 Number     Number       Type             X           Y           Z
 ---------------------------------------------------------------------
      1          6           0       -3.475670   -0.216818   -0.005548
      2          6           0       -2.070240    0.205690   -0.422400
      3          6           0       -1.032065   -0.230212    0.615018
      4          6           0        0.372115    0.195786    0.188548
      5          7           0        0.784715    1.574144   -0.028354
      6          6           0        1.943573    0.713975   -0.270143
      7          6           0        1.192603   -0.449694   -0.892543
      8          8           0        1.754491   -1.445705   -0.080898
      9          6           0        1.645632   -0.343571    0.779071
     10          1           0       -4.206215    0.109525   -0.775500
     11          1           0       -3.747813    0.251247    0.964457
     12          1           0       -3.533113   -1.321880    0.093230
     13          1           0       -2.045650    1.311617   -0.534702
     14          1           0       -1.832457   -0.258194   -1.404576
     15          1           0       -1.057909   -1.335938    0.727753
     16          1           0       -1.261205    0.234467    1.598067
     17          1           0        0.894546    2.058779    0.894332
     18          1           0        2.968447    1.036776   -0.556199
     19          1           0        0.901178   -0.517728   -1.963208
     20          1           0        1.935585   -0.272980    1.849986
 ---------------------------------------------------------------------
 Rotational constants (GHZ):           3.8387059           1.0701865           0.9657930
 Standard basis: 6-31G(2df,p) (6D, 7F)
 There are   334 symmetry adapted cartesian basis functions of A   symmetry.
 There are   307 symmetry adapted basis functions of A   symmetry.
   307 basis functions,   473 primitive gaussians,   334 cartesian basis functions
    34 alpha electrons       34 beta electrons
       nuclear repulsion energy       467.7125745771 Hartrees.
 NAtoms=   20 NActive=   20 NUniq=   20 SFac= 1.00D+00 NAtFMM=   60 NAOKFM=F Big=F
 Integral buffers will be    131072 words long.
 Raffenetti 2 integral format.
 Two-electron integral symmetry is turned on.
 One-electron integrals computed using PRISM.
 PrsmSu:  requested number of processors reduced to:  13 ShMem   1 Linda.
 NBasis=   307 RedAO= T EigKep=  2.02D-04  NBF=   307
 NBsUse=   307 1.00D-06 EigRej= -1.00D+00 NBFU=   307
 ExpMin= 1.61D-01 ExpMax= 5.48D+03 ExpMxC= 8.25D+02 IAcc=3 IRadAn=         5 AccDes= 0.00D+00
 Harris functional with IExCor=  402 and IRadAn=       5 diagonalized for initial guess.
 HarFok:  IExCor=  402 AccDes= 0.00D+00 IRadAn=         5 IDoV= 1 UseB2=F ITyADJ=14
 ICtDFT=  3500011 ScaDFX=  1.000000  1.000000  1.000000  1.000000
 FoFCou: FMM=F IPFlag=           0 FMFlag=      100000 FMFlg1=           0
         NFxFlg=           0 DoJE=T BraDBF=F KetDBF=T FulRan=T
         wScrn=  0.000000 ICntrl=       500 IOpCl=  0 I1Cent=   200000004 NGrid=           0
         NMat0=    1 NMatS0=      1 NMatT0=    0 NMatD0=    1 NMtDS0=    0 NMtDT0=    0
 Petite list used in FoFCou.
 Requested convergence on RMS density matrix=1.00D-08 within 128 cycles.
 Requested convergence on MAX density matrix=1.00D-06.
 Requested convergence on             energy=1.00D-06.
 No special actions if energy rises.
 Integral accuracy reduced to 1.0D-05 until final iterations.
 Initial convergence to 1.0D-05 achieved.  Increase integral accuracy.
 SCF Done:  E(RB3LYP) =  -403.180009566     A.U. after   12 cycles
            NFock= 12  Conv=0.57D-08     -V/T= 2.0067

 **********************************************************************

            Population analysis using the SCF density.

 **********************************************************************

 Orbital symmetries:
       Occupied  (A) (A) (A) (A) (A) (A) (A) (A) (A) (A) (A) (A)
                 (A) (A) (A) (A) (A) (A) (A) (A) (A) (A) (A) (A)
                 (A) (A) (A) (A) (A) (A) (A) (A) (A) (A)
       Virtual   (A) (A) (A) (A) (A) (A) (A) (A) (A) (A) (A) (A)
                 (A) (A) (A) (A) (A) (A) (A) (A) (A) (A) (A) (A)
                 (A) (A) (A) (A) (A) (A) (A) (A) (A) (A) (A) (A)
                 (A) (A) (A) (A) (A) (A) (A) (A) (A) (A) (A) (A)
                 (A) (A) (A) (A) (A) (A) (A) (A) (A) (A) (A) (A)
                 (A) (A) (A) (A) (A) (A) (A) (A) (A) (A) (A) (A)
                 (A) (A) (A) (A) (A) (A) (A) (A) (A) (A) (A) (A)
                 (A) (A) (A) (A) (A) (A) (A) (A) (A) (A) (A) (A)
                 (A) (A) (A) (A) (A) (A) (A) (A) (A) (A) (A) (A)
                 (A) (A) (A) (A) (A) (A) (A) (A) (A) (A) (A) (A)
                 (A) (A) (A) (A) (A) (A) (A) (A) (A) (A) (A) (A)
                 (A) (A) (A) (A) (A) (A) (A) (A) (A) (A) (A) (A)
                 (A) (A) (A) (A) (A) (A) (A) (A) (A) (A) (A) (A)
                 (A) (A) (A) (A) (A) (A) (A) (A) (A) (A) (A) (A)
                 (A) (A) (A) (A) (A) (A) (A) (A) (A) (A) (A) (A)
                 (A) (A) (A) (A) (A) (A) (A) (A) (A) (A) (A) (A)
                 (A) (A) (A) (A) (A) (A) (A) (A) (A) (A) (A) (A)
                 (A) (A) (A) (A) (A) (A) (A) (A) (A) (A) (A) (A)
                 (A) (A) (A) (A) (A) (A) (A) (A) (A) (A) (A) (A)
                 (A) (A) (A) (A) (A) (A) (A) (A) (A) (A) (A) (A)
                 (A) (A) (A) (A) (A) (A) (A) (A) (A) (A) (A) (A)
                 (A) (A) (A) (A) (A) (A) (A) (A) (A) (A) (A) (A)
                 (A) (A) (A) (A) (A) (A) (A) (A) (A)
 The electronic state is 1-A.
 Alpha  occ. eigenvalues --  -19.14728 -14.32787 -10.24544 -10.24049 -10.22586
 Alpha  occ. eigenvalues --  -10.22439 -10.18390 -10.18086 -10.17553  -1.12114
 Alpha  occ. eigenvalues --   -0.97267  -0.78918  -0.74859  -0.70515  -0.67161
 Alpha  occ. eigenvalues --   -0.62082  -0.57719  -0.53086  -0.51410  -0.47978
 Alpha  occ. eigenvalues --   -0.47433  -0.46510  -0.44535  -0.40945  -0.38551
 Alpha  occ. eigenvalues --   -0.38083  -0.36266  -0.34216  -0.33912  -0.32692
 Alpha  occ. eigenvalues --   -0.32208  -0.29969  -0.24366  -0.23130
 Alpha virt. eigenvalues --    0.06266   0.09120   0.10783   0.11419   0.12344
 Alpha virt. eigenvalues --    0.12643   0.13486   0.13753   0.15105   0.16461
 Alpha virt. eigenvalues --    0.17277   0.18019   0.19135   0.19457   0.21315
 Alpha virt. eigenvalues --    0.21822   0.23929   0.25386   0.26364   0.28269
 Alpha virt. eigenvalues --    0.31506   0.37838   0.41212   0.43346   0.45168
 Alpha virt. eigenvalues --    0.46915   0.47328   0.47603   0.48434   0.51259
 Alpha virt. eigenvalues --    0.51709   0.53315   0.56074   0.57095   0.57904
 Alpha virt. eigenvalues --    0.59276   0.60880   0.62375   0.63554   0.66947
 Alpha virt. eigenvalues --    0.68086   0.69591   0.70710   0.72196   0.72682
 Alpha virt. eigenvalues --    0.73154   0.73842   0.74840   0.76336   0.76860
 Alpha virt. eigenvalues --    0.79080   0.80360   0.81088   0.81527   0.84870
 Alpha virt. eigenvalues --    0.85245   0.86938   0.87568   0.90241   0.90604
 Alpha virt. eigenvalues --    0.91595   0.92924   1.00477   1.02427   1.07345
 Alpha virt. eigenvalues --    1.10027   1.12376   1.13509   1.15745   1.19640
 Alpha virt. eigenvalues --    1.21842   1.23576   1.25115   1.26225   1.29373
 Alpha virt. eigenvalues --    1.31097   1.33225   1.35448   1.36815   1.38987
 Alpha virt. eigenvalues --    1.40738   1.41929   1.42756   1.46455   1.48369
 Alpha virt. eigenvalues --    1.48909   1.50798   1.52490   1.53936   1.56171
 Alpha virt. eigenvalues --    1.56793   1.57410   1.58399   1.60861   1.62107
 Alpha virt. eigenvalues --    1.66473   1.69074   1.71048   1.75639   1.76410
 Alpha virt. eigenvalues --    1.79575   1.81857   1.83123   1.86478   1.88508
 Alpha virt. eigenvalues --    1.90703   1.92636   1.93754   1.95899   1.97589
 Alpha virt. eigenvalues --    2.11126   2.11385   2.14639   2.18305   2.21133
 Alpha virt. eigenvalues --    2.24416   2.26779   2.28712   2.32584   2.34249
 Alpha virt. eigenvalues --    2.36421   2.38248   2.41136   2.43769   2.48809
 Alpha virt. eigenvalues --    2.50875   2.55372   2.56087   2.60555   2.62909
 Alpha virt. eigenvalues --    2.66939   2.70311   2.72618   2.73696   2.75362
 Alpha virt. eigenvalues --    2.76642   2.79106   2.82144   2.82569   2.84200
 Alpha virt. eigenvalues --    2.86539   2.88773   2.89722   2.91644   2.92304
 Alpha virt. eigenvalues --    2.93941   2.95167   2.95419   2.96250   2.97507
 Alpha virt. eigenvalues --    3.00563   3.02525   3.04872   3.10436   3.11155
 Alpha virt. eigenvalues --    3.12696   3.13503   3.19829   3.23029   3.29215
 Alpha virt. eigenvalues --    3.33082   3.33948   3.37114   3.38813   3.39629
 Alpha virt. eigenvalues --    3.41486   3.45147   3.45662   3.49632   3.54301
 Alpha virt. eigenvalues --    3.56178   3.60807   3.61827   3.62359   3.64062
 Alpha virt. eigenvalues --    3.66187   3.67943   3.71615   3.72727   3.74809
 Alpha virt. eigenvalues --    3.76372   3.78761   3.84003   3.85328   3.92204
 Alpha virt. eigenvalues --    3.92931   3.97778   4.01836   4.03625   4.07093
 Alpha virt. eigenvalues --    4.10262   4.18982   4.19994   4.23291   4.28558
 Alpha virt. eigenvalues --    4.30096   4.32659   4.33823   4.34442   4.35356
 Alpha virt. eigenvalues --    4.38148   4.40681   4.42504   4.44246   4.45175
 Alpha virt. eigenvalues --    4.46171   4.49862   4.50101   4.53236   4.55042
 Alpha virt. eigenvalues --    4.55685   4.58380   4.58863   4.60772   4.61455
 Alpha virt. eigenvalues --    4.64448   4.65581   4.66842   4.67960   4.70152
 Alpha virt. eigenvalues --    4.71665   4.72734   4.74572   4.75211   4.77916
 Alpha virt. eigenvalues --    4.79781   4.80507   4.83985   4.87167   4.88686
 Alpha virt. eigenvalues --    4.89110   4.91333   4.92403   4.94949   4.99627
 Alpha virt. eigenvalues --    5.03071   5.03667   5.06268   5.13827   5.15017
 Alpha virt. eigenvalues --    5.23439   5.30953   5.34381   5.35199   5.37528
 Alpha virt. eigenvalues --    5.38864   5.43513   5.44623   5.48529   5.50814
 Alpha virt. eigenvalues --    5.56904   5.62635   5.73718   5.76188   5.85786
 Alpha virt. eigenvalues --    5.92988   5.96229   5.99756   6.14170   6.15243
 Alpha virt. eigenvalues --    6.34038   6.96230   7.61878  10.47409  11.25494
 Alpha virt. eigenvalues --   11.36880  11.72906  11.84255  12.06654  12.33597
 Alpha virt. eigenvalues --   12.69090  13.61071  17.12865
          Condensed to atoms (all electrons):
               1          2          3          4          5          6
     1  C    4.986221   0.391258  -0.038105  -0.000455   0.000143  -0.000012
     2  C    0.391258   4.770896   0.411298  -0.018138  -0.003176   0.000096
     3  C   -0.038105   0.411298   5.174503   0.305814  -0.036855   0.023917
     4  C   -0.000455  -0.018138   0.305814   4.816517   0.324195  -0.278542
     5  N    0.000143  -0.003176  -0.036855   0.324195   6.563987   0.334716
     6  C   -0.000012   0.000096   0.023917  -0.278542   0.334716   5.236473
     7  C    0.000089  -0.006509  -0.055648   0.286366  -0.007867   0.269720
     8  O    0.000003  -0.000224   0.006662  -0.069489   0.008722  -0.065633
     9  C   -0.000193   0.004307  -0.046227   0.400356  -0.121333   0.365124
    10  H    0.370386  -0.022288   0.003434  -0.000120   0.000001  -0.000000
    11  H    0.375650  -0.028809  -0.004652   0.000408  -0.000000   0.000000
    12  H    0.374345  -0.028270  -0.003977   0.000389  -0.000001   0.000001
    13  H   -0.037255   0.374906  -0.035652  -0.000609   0.005763   0.000138
    14  H   -0.037065   0.370827  -0.040257  -0.000401  -0.000028  -0.000275
    15  H   -0.003222  -0.032776   0.349099  -0.012989   0.003423   0.001837
    16  H   -0.003938  -0.033630   0.334537  -0.007098  -0.002705  -0.000911
    17  H   -0.000016  -0.000239  -0.000493  -0.061248   0.334238  -0.055552
    18  H   -0.000000   0.000029  -0.001448   0.023601  -0.028764   0.330960
    19  H   -0.000015   0.001028  -0.000438  -0.024653  -0.000012  -0.030136
    20  H   -0.000000  -0.000086  -0.000562  -0.042173   0.008708  -0.044407
               7          8          9         10         11         12
     1  C    0.000089   0.000003  -0.000193   0.370386   0.375650   0.374345
     2  C   -0.006509  -0.000224   0.004307  -0.022288  -0.028809  -0.028270
     3  C   -0.055648   0.006662  -0.046227   0.003434  -0.004652  -0.003977
     4  C    0.286366  -0.069489   0.400356  -0.000120   0.000408   0.000389
     5  N   -0.007867   0.008722  -0.121333   0.000001  -0.000000  -0.000001
     6  C    0.269720  -0.065633   0.365124  -0.000000   0.000000   0.000001
     7  C    5.010644   0.333152  -0.229781  -0.000001   0.000006   0.000005
     8  O    0.333152   7.803476   0.308008  -0.000000  -0.000000  -0.000001
     9  C   -0.229781   0.308008   5.017158   0.000002   0.000005  -0.000000
    10  H   -0.000001  -0.000000   0.000002   0.606228  -0.030523  -0.030675
    11  H    0.000006  -0.000000   0.000005  -0.030523   0.602932  -0.031604
    12  H    0.000005  -0.000001  -0.000000  -0.030675  -0.031604   0.602824
    13  H   -0.000548  -0.000008   0.000168  -0.002154  -0.004068   0.005249
    14  H    0.004354  -0.000059   0.000290  -0.002260   0.005460  -0.004139
    15  H   -0.004521   0.005776  -0.003911  -0.000098  -0.000378   0.004817
    16  H    0.005579  -0.000132  -0.002689  -0.000060   0.004995  -0.000299
    17  H    0.018420  -0.000522  -0.018048  -0.000000   0.000000   0.000000
    18  H   -0.032057   0.005528  -0.034605   0.000000   0.000000   0.000000
    19  H    0.342605  -0.018860   0.013316   0.000001   0.000000  -0.000001
    20  H    0.022031  -0.018536   0.338130  -0.000000   0.000000   0.000000
              13         14         15         16         17         18
     1  C   -0.037255  -0.037065  -0.003222  -0.003938  -0.000016  -0.000000
     2  C    0.374906   0.370827  -0.032776  -0.033630  -0.000239   0.000029
     3  C   -0.035652  -0.040257   0.349099   0.334537  -0.000493  -0.001448
     4  C   -0.000609  -0.000401  -0.012989  -0.007098  -0.061248   0.023601
     5  N    0.005763  -0.000028   0.003423  -0.002705   0.334238  -0.028764
     6  C    0.000138  -0.000275   0.001837  -0.000911  -0.055552   0.330960
     7  C   -0.000548   0.004354  -0.004521   0.005579   0.018420  -0.032057
     8  O   -0.000008  -0.000059   0.005776  -0.000132  -0.000522   0.005528
     9  C    0.000168   0.000290  -0.003911  -0.002689  -0.018048  -0.034605
    10  H   -0.002154  -0.002260  -0.000098  -0.000060  -0.000000   0.000000
    11  H   -0.004068   0.005460  -0.000378   0.004995   0.000000   0.000000
    12  H    0.005249  -0.004139   0.004817  -0.000299   0.000000   0.000000
    13  H    0.617744  -0.035395   0.005405  -0.004732  -0.000333   0.000007
    14  H   -0.035395   0.643191  -0.005370   0.006072  -0.000001   0.000007
    15  H    0.005405  -0.005370   0.621025  -0.037869  -0.000087   0.000004
    16  H   -0.004732   0.006072  -0.037869   0.650528   0.002254   0.000030
    17  H   -0.000333  -0.000001  -0.000087   0.002254   0.564032  -0.000197
    18  H    0.000007   0.000007   0.000004   0.000030  -0.000197   0.657040
    19  H    0.000072   0.001532  -0.000040  -0.000089  -0.000733  -0.000007
    20  H   -0.000008   0.000000  -0.000011   0.001446   0.007148  -0.000151
              19         20
     1  C   -0.000015  -0.000000
     2  C    0.001028  -0.000086
     3  C   -0.000438  -0.000562
     4  C   -0.024653  -0.042173
     5  N   -0.000012   0.008708
     6  C   -0.030136  -0.044407
     7  C    0.342605   0.022031
     8  O   -0.018860  -0.018536
     9  C    0.013316   0.338130
    10  H    0.000001  -0.000000
    11  H    0.000000   0.000000
    12  H   -0.000001   0.000000
    13  H    0.000072  -0.000008
    14  H    0.001532   0.000000
    15  H   -0.000040  -0.000011
    16  H   -0.000089   0.001446
    17  H   -0.000733   0.007148
    18  H   -0.000007  -0.000151
    19  H    0.608443  -0.001053
    20  H   -0.001053   0.633787
 Mulliken charges:
               1
     1  C   -0.377820
     2  C   -0.150499
     3  C   -0.344948
     4  C    0.358268
     5  N   -0.383155
     6  C   -0.087514
     7  C    0.043963
     8  O   -0.297863
     9  C    0.009925
    10  H    0.108128
    11  H    0.110577
    12  H    0.111337
    13  H    0.111310
    14  H    0.093517
    15  H    0.109886
    16  H    0.088709
    17  H    0.211377
    18  H    0.080023
    19  H    0.109040
    20  H    0.095738
 Sum of Mulliken charges =  -0.00000
 Mulliken charges with hydrogens summed into heavy atoms:
               1
     1  C   -0.047777
     2  C    0.054329
     3  C   -0.146353
     4  C    0.358268
     5  N   -0.171778
     6  C   -0.007491
     7  C    0.153002
     8  O   -0.297863
     9  C    0.105662
 Electronic spatial extent (au):  <R**2>=           1298.8721
 Charge=             -0.0000 electrons
 Dipole moment (field-independent basis, Debye):
    X=             -0.2203    Y=              0.7528    Z=              1.0510  Tot=              1.3115
 Quadrupole moment (field-independent basis, Debye-Ang):
   XX=            -54.9734   YY=            -58.9861   ZZ=            -50.7915
   XY=              3.4122   XZ=              1.4907   YZ=              2.9571
 Traceless Quadrupole moment (field-independent basis, Debye-Ang):
   XX=             -0.0564   YY=             -4.0691   ZZ=              4.1255
   XY=              3.4122   XZ=              1.4907   YZ=              2.9571
 Octapole moment (field-independent basis, Debye-Ang**2):
  XXX=             13.6273  YYY=             -1.2764  ZZZ=              0.1029  XYY=             -3.8754
  XXY=              8.8748  XXZ=              0.9355  XZZ=              6.7594  YZZ=             -1.3462
  YYZ=              6.2411  XYZ=              0.7061
 Hexadecapole moment (field-independent basis, Debye-Ang**3):
 XXXX=          -1296.2310 YYYY=           -292.5263 ZZZZ=           -172.7340 XXXY=              2.3105
 XXXZ=              8.7212 YYYX=              5.3835 YYYZ=             13.7463 ZZZX=              3.3664
 ZZZY=              7.1854 XXYY=           -265.3821 XXZZ=           -233.4674 YYZZ=            -74.1555
 XXYZ=             -0.4498 YYXZ=              4.6121 ZZXY=             -5.6636
 N-N= 4.677125745771D+02 E-N=-1.873313829410D+03  KE= 4.005031572676D+02
 PrsmSu:  requested number of processors reduced to:  13 ShMem   1 Linda.
 Calling FoFJK, ICntrl=      2127 FMM=F ISym2X=0 I1Cent= 0 IOpClX= 0 NMat=1 NMatS=1 NMatT=0.
 ***** Axes restored to original set *****
 -------------------------------------------------------------------
 Center     Atomic                   Forces (Hartrees/Bohr)
 Number     Number              X              Y              Z
 -------------------------------------------------------------------
      1        6          -0.008054056   -0.004052783   -0.001509884
      2        6          -0.004203960    0.000604211   -0.001212045
      3        6           0.002783912    0.006585040   -0.006897874
      4        6          -0.077811854   -0.046752085    0.062835393
      5        7          -0.005201483    0.020741307   -0.002817827
      6        6           0.076453365    0.036570371   -0.035405266
      7        6          -0.030292434   -0.001323781   -0.067668194
      8        8           0.030611342   -0.039774854    0.015150557
      9        6           0.001810880    0.057162714    0.037388327
     10        1           0.004427125    0.000778403    0.009511785
     11        1           0.002271316   -0.008376185   -0.005434842
     12        1          -0.005518235    0.008093993   -0.002927544
     13        1           0.006273095   -0.009067598    0.001550081
     14        1          -0.002675436    0.008777387    0.004049405
     15        1          -0.000828836    0.009736834   -0.002839228
     16        1           0.002571287   -0.007253816   -0.003257133
     17        1           0.001184501   -0.013926266   -0.011114631
     18        1          -0.011345584    0.001176525    0.000322067
     19        1           0.011714721   -0.003282956    0.015434058
     20        1           0.005830333   -0.016416461   -0.005157205
 -------------------------------------------------------------------
 Cartesian Forces:  Max     0.077811854 RMS     0.024525811

 GradGradGradGradGradGradGradGradGradGradGradGradGradGradGradGradGradGrad
 Berny optimization.
 FormGI is forming the generalized inverse of G from B-inverse, IUseBI=4.
 Internal  Forces:  Max     0.042703482 RMS     0.008361899
 Search for a local minimum.
 Step number   1 out of a maximum of  120
 All quantities printed in internal units (Hartrees-Bohrs-Radians)
 Mixed Optimization -- RFO/linear search
 Second derivative matrix not updated -- first step.
 ITU=  0
     Eigenvalues ---    0.00355   0.00394   0.00427   0.02311   0.02665
     Eigenvalues ---    0.03128   0.03186   0.03375   0.03774   0.03796
     Eigenvalues ---    0.04535   0.04618   0.04781   0.04940   0.04944
     Eigenvalues ---    0.05676   0.05686   0.05786   0.07081   0.07961
     Eigenvalues ---    0.08029   0.08467   0.09853   0.11919   0.11969
     Eigenvalues ---    0.16000   0.16000   0.16000   0.16475   0.18106
     Eigenvalues ---    0.20001   0.21951   0.21959   0.25513   0.26190
     Eigenvalues ---    0.26649   0.29328   0.29600   0.29832   0.31218
     Eigenvalues ---    0.32396   0.32396   0.32401   0.32415   0.32419
     Eigenvalues ---    0.32420   0.32471   0.32499   0.32507   0.32556
     Eigenvalues ---    0.34019   0.36775   0.40156   0.40517
 RFO step:  Lambda=-3.26425837D-02 EMin= 3.55470582D-03
 Linear search not attempted -- first point.
 Maximum step size (   0.300) exceeded in Quadratic search.
    -- Step size scaled by   0.891
 Iteration  1 RMS(Cart)=  0.03800860 RMS(Int)=  0.00071012
 Iteration  2 RMS(Cart)=  0.00066769 RMS(Int)=  0.00045625
 Iteration  3 RMS(Cart)=  0.00000029 RMS(Int)=  0.00045625
 Variable       Old X    -DE/DX   Delta X   Delta X   Delta X     New X
                                 (Linear)    (Quad)   (Total)
    R1        2.88300   0.00665   0.00000   0.01790   0.01790   2.90090
    R2        2.09838  -0.00964   0.00000  -0.02397  -0.02397   2.07441
    R3        2.09926  -0.00982   0.00000  -0.02446  -0.02446   2.07480
    R4        2.09940  -0.00975   0.00000  -0.02429  -0.02429   2.07511
    R5        2.89323   0.00364   0.00000   0.00994   0.00994   2.90317
    R6        2.10116  -0.01020   0.00000  -0.02548  -0.02548   2.07568
    R7        2.10125  -0.00933   0.00000  -0.02332  -0.02332   2.07793
    R8        2.88768  -0.00449   0.00000  -0.01218  -0.01218   2.87550
    R9        2.10092  -0.00960   0.00000  -0.02398  -0.02398   2.07694
   R10        2.09991  -0.00779   0.00000  -0.01943  -0.01943   2.08048
   R11        2.74964   0.01726   0.00000   0.04065   0.04095   2.79059
   R12        3.24483   0.04270   0.00000   0.16989   0.16933   3.41416
   R13        2.84000   0.01978   0.00000   0.05745   0.05804   2.89804
   R14        2.84181   0.02201   0.00000   0.06276   0.06344   2.90524
   R15        2.76527   0.01402   0.00000   0.03227   0.03195   2.79722
   R16        1.98041  -0.01786   0.00000  -0.03665  -0.03665   1.94376
   R17        2.86931   0.01150   0.00000   0.03518   0.03529   2.90461
   R18        2.87091   0.01343   0.00000   0.03999   0.03999   2.91090
   R19        2.10125  -0.00833   0.00000  -0.02082  -0.02082   2.08043
   R20        2.65002   0.03016   0.00000   0.05641   0.05646   2.70648
   R21        3.27898   0.01540   0.00000   0.03514   0.03444   3.31343
   R22        2.10081  -0.01354   0.00000  -0.03381  -0.03381   2.06700
   R23        2.64973   0.02982   0.00000   0.05752   0.05757   2.70730
   R24        2.10084  -0.01161   0.00000  -0.02900  -0.02900   2.07184
    A1        1.91264   0.00524   0.00000   0.02596   0.02575   1.93839
    A2        1.92578   0.00239   0.00000   0.01003   0.00993   1.93571
    A3        1.92559   0.00271   0.00000   0.01179   0.01168   1.93727
    A4        1.89701  -0.00354   0.00000  -0.01495  -0.01512   1.88188
    A5        1.89649  -0.00356   0.00000  -0.01452  -0.01474   1.88176
    A6        1.90584  -0.00344   0.00000  -0.01923  -0.01923   1.88661
    A7        1.93979   0.00610   0.00000   0.02711   0.02699   1.96678
    A8        1.90015  -0.00000   0.00000   0.00896   0.00898   1.90913
    A9        1.89950  -0.00053   0.00000   0.00482   0.00487   1.90436
   A10        1.91413  -0.00243   0.00000  -0.01006  -0.01039   1.90374
   A11        1.91212  -0.00219   0.00000  -0.00974  -0.00999   1.90213
   A12        1.89759  -0.00106   0.00000  -0.02194  -0.02210   1.87549
   A13        1.93331   0.00858   0.00000   0.03477   0.03466   1.96797
   A14        1.91358  -0.00016   0.00000   0.00610   0.00630   1.91988
   A15        1.91830  -0.00290   0.00000  -0.00687  -0.00707   1.91123
   A16        1.90384  -0.00473   0.00000  -0.02279  -0.02297   1.88087
   A17        1.89632  -0.00101   0.00000   0.00232   0.00214   1.89846
   A18        1.89800   0.00006   0.00000  -0.01459  -0.01469   1.88332
   A19        2.17276   0.00681   0.00000   0.02575   0.02587   2.19862
   A20        2.19285   0.00717   0.00000   0.03263   0.03173   2.22458
   A21        2.17561   0.00676   0.00000   0.03595   0.03481   2.21042
   A22        1.71613  -0.01340   0.00000  -0.06931  -0.06864   1.64749
   A23        1.72962  -0.01105   0.00000  -0.04087  -0.04075   1.68887
   A24        1.91404  -0.00297   0.00000  -0.00925  -0.00927   1.90477
   A25        1.91167  -0.00315   0.00000  -0.01013  -0.01011   1.90156
   A26        1.69769  -0.00836   0.00000  -0.05529  -0.05519   1.64250
   A27        1.71102  -0.00586   0.00000  -0.02699  -0.02699   1.68403
   A28        2.21654   0.00278   0.00000   0.00671   0.00689   2.22343
   A29        2.18083   0.00402   0.00000   0.02797   0.02706   2.20789
   A30        2.16580   0.00425   0.00000   0.03689   0.03621   2.20201
   A31        1.67846   0.00209   0.00000  -0.00540  -0.00554   1.67292
   A32        2.18458  -0.00060   0.00000   0.02506   0.02338   2.20797
   A33        1.67992   0.00273   0.00000   0.00171   0.00165   1.68157
   A34        2.17893  -0.00012   0.00000   0.02497   0.02342   2.20234
   A35        2.23825  -0.00650   0.00000  -0.05153  -0.05110   2.18715
   A36        1.67782   0.00130   0.00000  -0.00804  -0.00814   1.66968
   A37        2.18508  -0.00055   0.00000   0.02193   0.02051   2.20559
   A38        1.67937   0.00206   0.00000  -0.00073  -0.00069   1.67868
   A39        2.17722  -0.00007   0.00000   0.02428   0.02297   2.20018
   A40        2.24013  -0.00527   0.00000  -0.04473  -0.04439   2.19574
   A41        3.16200  -0.00020   0.00000  -0.00055  -0.00043   3.16157
   A42        3.14592   0.00018   0.00000   0.00097   0.00092   3.14683
   A43        3.14050   0.00164   0.00000   0.01884   0.01829   3.15880
   A44        3.14120   0.00105   0.00000   0.01520   0.01467   3.15587
   A45        3.12391   0.00040   0.00000  -0.00662  -0.00621   3.11770
   A46        3.15875  -0.00204   0.00000  -0.02257  -0.02210   3.13665
   A47        3.14169   0.00084   0.00000   0.03872   0.03853   3.18022
   A48        3.14404   0.00046   0.00000  -0.03507  -0.03506   3.10897
    D1       -3.13944  -0.00003   0.00000   0.00040   0.00042  -3.13902
    D2        1.03358  -0.00084   0.00000  -0.01004  -0.01015   1.02344
    D3       -1.03219   0.00073   0.00000   0.00845   0.00851  -1.02367
    D4        1.05552  -0.00044   0.00000  -0.00370  -0.00372   1.05180
    D5       -1.05465  -0.00125   0.00000  -0.01414  -0.01429  -1.06893
    D6       -3.12041   0.00031   0.00000   0.00434   0.00437  -3.11604
    D7       -1.05196   0.00055   0.00000   0.00611   0.00619  -1.04578
    D8        3.12105  -0.00027   0.00000  -0.00433  -0.00438   3.11668
    D9        1.05529   0.00130   0.00000   0.01415   0.01428   1.06957
   D10        3.14057  -0.00102   0.00000  -0.00667  -0.00658   3.13399
   D11        1.03853  -0.00049   0.00000  -0.00441  -0.00450   1.03403
   D12       -1.04689   0.00131   0.00000   0.01396   0.01397  -1.03292
   D13       -1.04069   0.00129   0.00000   0.01530   0.01528  -1.02541
   D14        3.14046   0.00182   0.00000   0.01756   0.01736  -3.12537
   D15        1.05503   0.00362   0.00000   0.03593   0.03583   1.09087
   D16        1.04077  -0.00281   0.00000  -0.02358  -0.02340   1.01737
   D17       -1.06126  -0.00228   0.00000  -0.02133  -0.02132  -1.08258
   D18        3.13650  -0.00048   0.00000  -0.00296  -0.00285   3.13365
   D19        1.05630  -0.00173   0.00000  -0.02160  -0.02172   1.03458
   D20       -1.30229   0.00256   0.00000   0.02430   0.02462  -1.27767
   D21       -2.86923  -0.00190   0.00000  -0.00305  -0.00280  -2.87203
   D22       -3.11907   0.00041   0.00000  -0.00693  -0.00733  -3.12640
   D23        0.80553   0.00470   0.00000   0.03897   0.03901   0.84454
   D24       -0.76141   0.00023   0.00000   0.01162   0.01159  -0.74983
   D25       -1.05251  -0.00280   0.00000  -0.03614  -0.03643  -1.08894
   D26        2.87209   0.00149   0.00000   0.00976   0.00991   2.88200
   D27        1.30515  -0.00298   0.00000  -0.01759  -0.01751   1.28763
   D28        1.29539  -0.00045   0.00000  -0.00451  -0.00475   1.29064
   D29       -2.46418   0.00154   0.00000  -0.01345  -0.01430  -2.47847
   D30       -1.21734  -0.00501   0.00000  -0.04088  -0.03978  -1.25712
   D31       -1.50396   0.00323   0.00000  -0.00031  -0.00032  -1.50428
   D32        1.06000  -0.00598   0.00000  -0.06734  -0.06819   0.99181
   D33        2.26573   0.00154   0.00000   0.01296   0.01335   2.27908
   D34       -1.45349  -0.00767   0.00000  -0.05406  -0.05453  -1.50801
   D35        1.52511  -0.00274   0.00000  -0.00338  -0.00306   1.52205
   D36       -1.04188   0.00542   0.00000   0.05961   0.06045  -0.98144
   D37       -2.24678   0.00184   0.00000   0.02788   0.02751  -2.21927
   D38        1.46941   0.01000   0.00000   0.09086   0.09102   1.56043
   D39        2.45802   0.00148   0.00000   0.02227   0.02250   2.48052
   D40        1.22955   0.00235   0.00000   0.03369   0.03322   1.26277
   D41       -1.29422  -0.00016   0.00000  -0.00128  -0.00101  -1.29524
   D42       -2.25782  -0.00215   0.00000  -0.00711  -0.00743  -2.26525
   D43        1.46645   0.00547   0.00000   0.04926   0.05006   1.51651
   D44        1.47662  -0.00008   0.00000   0.02532   0.02536   1.50198
   D45       -1.08229   0.00753   0.00000   0.08169   0.08285  -0.99944
   D46        2.23878  -0.00140   0.00000  -0.03396  -0.03375   2.20503
   D47       -1.48515  -0.00776   0.00000  -0.08269  -0.08346  -1.56861
   D48       -1.49555   0.00046   0.00000  -0.01423  -0.01415  -1.50970
   D49        1.06371  -0.00590   0.00000  -0.06296  -0.06386   0.99985
         Item               Value     Threshold  Converged?
 Maximum Force            0.042703     0.000450     NO 
 RMS     Force            0.008362     0.000300     NO 
 Maximum Displacement     0.124241     0.001800     NO 
 RMS     Displacement     0.038090     0.001200     NO 
 Predicted change in Energy=-1.851698D-02
 GradGradGradGradGradGradGradGradGradGradGradGradGradGradGradGradGradGrad

                          Input orientation:                          
 ---------------------------------------------------------------------
 Center     Atomic      Atomic             Coordinates (Angstroms)
 Number     Number       Type             X           Y           Z
 ---------------------------------------------------------------------
      1          6           0       -6.223865   -1.205589    0.203641
      2          6           0       -5.036537   -0.545510   -0.511240
      3          6           0       -3.905005   -0.158363    0.453096
      4          6           0       -2.722760    0.486505   -0.255323
      5          7           0       -2.764591    1.721161   -1.064373
      6          6           0       -1.346485    1.298230   -1.098602
      7          6           0       -1.679939   -0.201506   -1.144716
      8          8           0       -0.809783   -0.590125   -0.075594
      9          6           0       -1.311104    0.693082    0.317491
     10          1           0       -7.014415   -1.473233   -0.509385
     11          1           0       -6.659118   -0.526833    0.948834
     12          1           0       -5.911792   -2.123416    0.719421
     13          1           0       -5.382533    0.353946   -1.038261
     14          1           0       -4.640674   -1.239007   -1.267188
     15          1           0       -3.535701   -1.051125    0.977067
     16          1           0       -4.290337    0.542817    1.209362
     17          1           0       -2.856389    2.531818   -0.437940
     18          1           0       -0.511507    1.799552   -1.611932
     19          1           0       -1.879154   -0.791407   -2.044021
     20          1           0       -1.055741    1.226101    1.240911
 ---------------------------------------------------------------------
                    Distance matrix (angstroms):
                    1          2          3          4          5
     1  C    0.000000
     2  C    1.535092   0.000000
     3  C    2.556564   1.536291   0.000000
     4  C    3.915554   2.546392   1.521649   0.000000
     5  N    4.705348   3.256608   2.671304   1.476715   0.000000
     6  C    5.635049   4.166636   3.327980   1.806696   1.480226
     7  C    4.844947   3.433130   2.739669   1.533576   2.208976
     8  O    5.456102   4.249379   3.169595   2.202480   3.184494
     9  C    5.268124   4.012450   2.733436   1.537389   2.253690
    10  H    1.097729   2.184645   3.510510   4.724767   5.345388
    11  H    1.097938   2.182873   2.822528   4.239312   4.926847
    12  H    1.098100   2.184120   2.821268   4.234588   5.278974
    13  H    2.163864   1.098402   2.160947   2.775779   2.953570
    14  H    2.161238   1.099592   2.160642   2.771219   3.510473
    15  H    2.801476   2.173295   1.099070   2.131658   3.528124
    16  H    2.794088   2.168350   1.100942   2.146106   2.980984
    17  H    5.071462   3.772050   3.021690   2.057792   1.028596
    18  H    6.705088   5.214090   4.428725   2.907597   2.319990
    19  H    4.909179   3.518373   3.277256   2.354607   2.838434
    20  H    5.805045   4.696315   3.264307   2.358956   2.911973
                    6          7          8          9         10
     6  C    0.000000
     7  C    1.537051   0.000000
     8  O    2.213702   1.432207   0.000000
     9  C    1.540381   1.753390   1.432640   0.000000
    10  H    6.336688   5.520650   6.282158   6.156655   0.000000
    11  H    5.978873   5.411194   5.938702   5.521598   1.774349
    12  H    5.987895   5.007726   5.386420   5.409301   1.774396
    13  H    4.145479   3.745539   4.767393   4.304603   2.506259
    14  H    4.161451   3.139643   4.064070   4.162957   2.502753
    15  H    3.823681   2.944091   2.958251   2.902780   3.806464
    16  H    3.816230   3.593033   3.879295   3.113494   3.799888
    17  H    2.058647   3.058534   3.750522   2.517843   5.773622
    18  H    1.100918   2.363844   2.856546   2.363536   7.363053
    19  H    2.354599   1.093810   2.249172   2.846600   5.402860
    20  H    2.358613   2.849369   2.256626   1.096369   6.771687
                   11         12         13         14         15
    11  H    0.000000
    12  H    1.777696   0.000000
    13  H    2.520712   3.083323   0.000000
    14  H    3.080919   2.518835   1.772079   0.000000
    15  H    3.167241   2.619541   3.073525   2.508574   0.000000
    16  H    2.612116   3.158790   2.506067   3.070983   1.778788
    17  H    5.073385   5.687369   3.388939   4.253287   3.911673
    18  H    7.054269   7.070216   5.113293   5.138260   4.896430
    19  H    5.645816   5.066855   3.820608   2.903413   3.455225
    20  H    5.878429   5.922199   4.967535   5.021859   3.377214
                   16         17         18         19         20
    16  H    0.000000
    17  H    2.953969   0.000000
    18  H    4.880435   2.722672   0.000000
    19  H    4.263621   3.818156   2.961457   0.000000
    20  H    3.306129   2.786713   2.960364   3.941971   0.000000
 Stoichiometry    C7H11NO
 Framework group  C1[X(C7H11NO)]
 Deg. of freedom    54
 Full point group                 C1      NOp   1
 Largest Abelian subgroup         C1      NOp   1
 Largest concise Abelian subgroup C1      NOp   1
                         Standard orientation:                         
 ---------------------------------------------------------------------
 Center     Atomic      Atomic             Coordinates (Angstroms)
 Number     Number       Type             X           Y           Z
 ---------------------------------------------------------------------
      1          6           0       -3.537155   -0.211225   -0.014888
      2          6           0       -2.117626    0.215670   -0.413892
      3          6           0       -1.057050   -0.227371    0.605462
      4          6           0        0.351938    0.185822    0.206164
      5          7           0        0.818763    1.568165   -0.021631
      6          6           0        2.014402    0.726055   -0.250470
      7          6           0        1.220951   -0.416242   -0.904778
      8          8           0        1.771120   -1.469438   -0.105209
      9          6           0        1.667146   -0.355617    0.789805
     10          1           0       -4.272109    0.116097   -0.761690
     11          1           0       -3.821254    0.227124    0.950827
     12          1           0       -3.609833   -1.303485    0.071770
     13          1           0       -2.081235    1.308540   -0.517799
     14          1           0       -1.873822   -0.217259   -1.394828
     15          1           0       -1.069035   -1.321491    0.708963
     16          1           0       -1.288535    0.208297    1.589678
     17          1           0        0.914684    2.045290    0.884548
     18          1           0        3.026106    1.062021   -0.525425
     19          1           0        0.959519   -0.496981   -1.963813
     20          1           0        1.959575   -0.352358    1.846450
 ---------------------------------------------------------------------
 Rotational constants (GHZ):           3.8178341           1.0320695           0.9336259
 Standard basis: 6-31G(2df,p) (6D, 7F)
 There are   334 symmetry adapted cartesian basis functions of A   symmetry.
 There are   307 symmetry adapted basis functions of A   symmetry.
   307 basis functions,   473 primitive gaussians,   334 cartesian basis functions
    34 alpha electrons       34 beta electrons
       nuclear repulsion energy       462.4399095149 Hartrees.
 NAtoms=   20 NActive=   20 NUniq=   20 SFac= 1.00D+00 NAtFMM=   60 NAOKFM=F Big=F
 Integral buffers will be    131072 words long.
 Raffenetti 2 integral format.
 Two-electron integral symmetry is turned on.
 One-electron integrals computed using PRISM.
 PrsmSu:  requested number of processors reduced to:  13 ShMem   1 Linda.
 NBasis=   307 RedAO= T EigKep=  1.99D-04  NBF=   307
 NBsUse=   307 1.00D-06 EigRej= -1.00D+00 NBFU=   307
 Initial guess from the checkpoint file:  "CCCC12NC3C1OC32.chk"
 B after Tr=     0.000000   -0.000000   -0.000000
         Rot=    0.999970   -0.007472    0.000910    0.001664 Ang=  -0.88 deg.
 ExpMin= 1.61D-01 ExpMax= 5.48D+03 ExpMxC= 8.25D+02 IAcc=2 IRadAn=         4 AccDes= 0.00D+00
 Harris functional with IExCor=  402 and IRadAn=       4 diagonalized for initial guess.
 HarFok:  IExCor=  402 AccDes= 0.00D+00 IRadAn=         4 IDoV= 1 UseB2=F ITyADJ=14
 ICtDFT=  3500011 ScaDFX=  1.000000  1.000000  1.000000  1.000000
 FoFCou: FMM=F IPFlag=           0 FMFlag=      100000 FMFlg1=           0
         NFxFlg=           0 DoJE=T BraDBF=F KetDBF=T FulRan=T
         wScrn=  0.000000 ICntrl=       500 IOpCl=  0 I1Cent=   200000004 NGrid=           0
         NMat0=    1 NMatS0=      1 NMatT0=    0 NMatD0=    1 NMtDS0=    0 NMtDT0=    0
 Petite list used in FoFCou.
 Requested convergence on RMS density matrix=1.00D-08 within 128 cycles.
 Requested convergence on MAX density matrix=1.00D-06.
 Requested convergence on             energy=1.00D-06.
 No special actions if energy rises.
 Integral accuracy reduced to 1.0D-05 until final iterations.
 Initial convergence to 1.0D-05 achieved.  Increase integral accuracy.
 SCF Done:  E(RB3LYP) =  -403.200169174     A.U. after   11 cycles
            NFock= 11  Conv=0.33D-08     -V/T= 2.0072
 PrsmSu:  requested number of processors reduced to:  13 ShMem   1 Linda.
 Calling FoFJK, ICntrl=      2127 FMM=F ISym2X=0 I1Cent= 0 IOpClX= 0 NMat=1 NMatS=1 NMatT=0.
 ***** Axes restored to original set *****
 -------------------------------------------------------------------
 Center     Atomic                   Forces (Hartrees/Bohr)
 Number     Number              X              Y              Z
 -------------------------------------------------------------------
      1        6           0.000460428    0.000287228   -0.001305328
      2        6          -0.002481130   -0.001187325    0.002015253
      3        6           0.002028248    0.006309568   -0.007824325
      4        6          -0.032371025   -0.026359078    0.028186935
      5        7          -0.002975806    0.011221691   -0.003607588
      6        6           0.035025163    0.007528054   -0.012175408
      7        6          -0.016469252    0.000730522   -0.034111149
      8        8           0.011677094   -0.013870804    0.005396023
      9        6          -0.002086215    0.030989659    0.018888646
     10        1           0.001317326    0.000441882    0.001679060
     11        1           0.000325245   -0.001635675   -0.000535860
     12        1          -0.001034076    0.001512542   -0.000135391
     13        1           0.001841290   -0.002091376   -0.000909098
     14        1          -0.000688297    0.002497525   -0.000098459
     15        1           0.000466410    0.002280199    0.000390550
     16        1           0.000832582   -0.002301175    0.000467624
     17        1          -0.001228325   -0.001671534   -0.003278509
     18        1          -0.007934983    0.001489818   -0.000029124
     19        1           0.007079496   -0.006429336    0.005400933
     20        1           0.006215827   -0.009742388    0.001585214
 -------------------------------------------------------------------
 Cartesian Forces:  Max     0.035025163 RMS     0.011347054

 GradGradGradGradGradGradGradGradGradGradGradGradGradGradGradGradGradGrad
 Berny optimization.
 Using GEDIIS/GDIIS optimizer.
 FormGI is forming the generalized inverse of G from B-inverse, IUseBI=4.
 Internal  Forces:  Max     0.014691468 RMS     0.003407785
 Search for a local minimum.
 Step number   2 out of a maximum of  120
 All quantities printed in internal units (Hartrees-Bohrs-Radians)
 Mixed Optimization -- RFO/linear search
 Update second derivatives using D2CorX and points    1    2
 DE= -2.02D-02 DEPred=-1.85D-02 R= 1.09D+00
 TightC=F SS=  1.41D+00  RLast= 3.79D-01 DXNew= 5.0454D-01 1.1357D+00
 Trust test= 1.09D+00 RLast= 3.79D-01 DXMaxT set to 5.05D-01
 ITU=  1  0
 Use linear search instead of GDIIS.
     Eigenvalues ---    0.00355   0.00394   0.00427   0.02348   0.02673
     Eigenvalues ---    0.03100   0.03421   0.03582   0.03585   0.03676
     Eigenvalues ---    0.03972   0.04818   0.04849   0.04871   0.04903
     Eigenvalues ---    0.05259   0.05564   0.05572   0.06679   0.08303
     Eigenvalues ---    0.08323   0.08463   0.09671   0.12171   0.12191
     Eigenvalues ---    0.15937   0.16000   0.16032   0.16245   0.18367
     Eigenvalues ---    0.20586   0.21933   0.22326   0.24443   0.26002
     Eigenvalues ---    0.26178   0.29260   0.29395   0.29993   0.31303
     Eigenvalues ---    0.31575   0.32398   0.32405   0.32416   0.32420
     Eigenvalues ---    0.32462   0.32484   0.32503   0.32541   0.32594
     Eigenvalues ---    0.33858   0.36716   0.39961   0.40558
 RFO step:  Lambda=-5.31794060D-03 EMin= 3.55470469D-03
 Quartic linear search produced a step of  0.69358.
 Iteration  1 RMS(Cart)=  0.02788823 RMS(Int)=  0.00183570
 Iteration  2 RMS(Cart)=  0.00101336 RMS(Int)=  0.00145004
 Iteration  3 RMS(Cart)=  0.00000115 RMS(Int)=  0.00145004
 Iteration  4 RMS(Cart)=  0.00000000 RMS(Int)=  0.00145004
 Variable       Old X    -DE/DX   Delta X   Delta X   Delta X     New X
                                 (Linear)    (Quad)   (Total)
    R1        2.90090  -0.00123   0.01242  -0.01963  -0.00721   2.89369
    R2        2.07441  -0.00215  -0.01663   0.00620  -0.01043   2.06398
    R3        2.07480  -0.00150  -0.01696   0.00980  -0.00716   2.06764
    R4        2.07511  -0.00162  -0.01685   0.00908  -0.00777   2.06734
    R5        2.90317  -0.00021   0.00689  -0.00833  -0.00144   2.90173
    R6        2.07568  -0.00186  -0.01767   0.00871  -0.00896   2.06672
    R7        2.07793  -0.00176  -0.01618   0.00769  -0.00849   2.06944
    R8        2.87550  -0.00788  -0.00845  -0.03521  -0.04367   2.83183
    R9        2.07694  -0.00151  -0.01663   0.00941  -0.00722   2.06972
   R10        2.08048  -0.00144  -0.01347   0.00655  -0.00692   2.07356
   R11        2.79059   0.01101   0.02840   0.02186   0.05098   2.84157
   R12        3.41416   0.01469   0.11745  -0.00047   0.11440   3.52856
   R13        2.89804   0.00900   0.04025   0.01335   0.05430   2.95234
   R14        2.90524   0.01009   0.04400   0.01319   0.05821   2.96345
   R15        2.79722   0.00849   0.02216   0.01352   0.03531   2.83253
   R16        1.94376  -0.00320  -0.02542   0.01258  -0.01284   1.93093
   R17        2.90461   0.00481   0.02448   0.00486   0.02953   2.93414
   R18        2.91090   0.00648   0.02774   0.00999   0.03832   2.94922
   R19        2.08043  -0.00533  -0.01444  -0.01232  -0.02675   2.05368
   R20        2.70648   0.01140   0.03916   0.00203   0.04147   2.74795
   R21        3.31343   0.01023   0.02389   0.05158   0.07521   3.38863
   R22        2.06700  -0.00226  -0.02345   0.01259  -0.01086   2.05614
   R23        2.70730   0.01115   0.03993   0.00071   0.04095   2.74825
   R24        2.07184  -0.00195  -0.02012   0.01074  -0.00938   2.06246
    A1        1.93839   0.00029   0.01786  -0.01561   0.00210   1.94049
    A2        1.93571   0.00083   0.00689   0.00041   0.00722   1.94293
    A3        1.93727   0.00072   0.00810  -0.00190   0.00611   1.94339
    A4        1.88188  -0.00050  -0.01049   0.00739  -0.00324   1.87865
    A5        1.88176  -0.00041  -0.01022   0.00828  -0.00210   1.87966
    A6        1.88661  -0.00104  -0.01334   0.00233  -0.01102   1.87559
    A7        1.96678  -0.00043   0.01872  -0.01811   0.00050   1.96728
    A8        1.90913   0.00081   0.00623   0.00569   0.01194   1.92107
    A9        1.90436   0.00063   0.00338   0.00689   0.01029   1.91466
   A10        1.90374  -0.00004  -0.00721   0.00616  -0.00131   1.90243
   A11        1.90213   0.00014  -0.00693   0.00854   0.00140   1.90353
   A12        1.87549  -0.00116  -0.01533  -0.00887  -0.02433   1.85116
   A13        1.96797   0.00122   0.02404  -0.01155   0.01233   1.98030
   A14        1.91988   0.00074   0.00437   0.00701   0.01160   1.93149
   A15        1.91123  -0.00026  -0.00491   0.01025   0.00507   1.91630
   A16        1.88087  -0.00132  -0.01593  -0.00101  -0.01713   1.86374
   A17        1.89846   0.00021   0.00148   0.00573   0.00693   1.90538
   A18        1.88332  -0.00069  -0.01019  -0.01074  -0.02101   1.86230
   A19        2.19862   0.00187   0.01794  -0.01397   0.00396   2.20259
   A20        2.22458   0.00161   0.02201   0.00207   0.02165   2.24623
   A21        2.21042   0.00174   0.02414   0.00982   0.03166   2.24208
   A22        1.64749  -0.00370  -0.04760  -0.00056  -0.04620   1.60129
   A23        1.68887  -0.00311  -0.02826  -0.00120  -0.02796   1.66091
   A24        1.90477   0.00061  -0.00643   0.02272   0.01593   1.92070
   A25        1.90156   0.00072  -0.00701   0.02547   0.01830   1.91986
   A26        1.64250  -0.00112  -0.03828   0.00582  -0.03138   1.61112
   A27        1.68403  -0.00066  -0.01872   0.00333  -0.01425   1.66978
   A28        2.22343  -0.00080   0.00478  -0.03484  -0.02940   2.19403
   A29        2.20789   0.00060   0.01877   0.01017   0.02532   2.23321
   A30        2.20201   0.00113   0.02511   0.02069   0.04363   2.24565
   A31        1.67292  -0.00022  -0.00384  -0.01182  -0.01501   1.65791
   A32        2.20797   0.00148   0.01622   0.04319   0.05389   2.26186
   A33        1.68157  -0.00037   0.00115  -0.02218  -0.02065   1.66092
   A34        2.20234   0.00172   0.01624   0.04275   0.05394   2.25628
   A35        2.18715  -0.00322  -0.03545  -0.03972  -0.07303   2.11412
   A36        1.66968  -0.00055  -0.00564  -0.01121  -0.01626   1.65342
   A37        2.20559   0.00204   0.01423   0.04774   0.05649   2.26207
   A38        1.67868  -0.00094  -0.00048  -0.02370  -0.02383   1.65485
   A39        2.20018   0.00252   0.01593   0.05191   0.06255   2.26273
   A40        2.19574  -0.00331  -0.03079  -0.04841  -0.07680   2.11894
   A41        3.16157  -0.00066  -0.00030  -0.00140  -0.00164   3.15993
   A42        3.14683  -0.00013   0.00064   0.00540   0.00573   3.15257
   A43        3.15880   0.00118   0.01269   0.01847   0.03039   3.18918
   A44        3.15587   0.00123   0.01018   0.01985   0.02813   3.18400
   A45        3.11770   0.00045  -0.00431  -0.01324  -0.01668   3.10102
   A46        3.13665  -0.00104  -0.01533  -0.03029  -0.04403   3.09262
   A47        3.18022   0.00218   0.02672   0.04828   0.07284   3.25306
   A48        3.10897  -0.00227  -0.02432  -0.05976  -0.08284   3.02614
    D1       -3.13902  -0.00004   0.00029  -0.00154  -0.00124  -3.14026
    D2        1.02344  -0.00028  -0.00704  -0.00129  -0.00842   1.01502
    D3       -1.02367   0.00028   0.00590   0.00218   0.00814  -1.01553
    D4        1.05180  -0.00016  -0.00258  -0.00078  -0.00338   1.04842
    D5       -1.06893  -0.00040  -0.00991  -0.00053  -0.01056  -1.07949
    D6       -3.11604   0.00017   0.00303   0.00294   0.00601  -3.11004
    D7       -1.04578   0.00012   0.00429  -0.00273   0.00161  -1.04416
    D8        3.11668  -0.00012  -0.00304  -0.00248  -0.00556   3.11111
    D9        1.06957   0.00044   0.00990   0.00099   0.01100   1.08057
   D10        3.13399  -0.00036  -0.00456   0.00944   0.00495   3.13893
   D11        1.03403  -0.00000  -0.00312   0.01353   0.01032   1.04435
   D12       -1.03292   0.00055   0.00969   0.01624   0.02598  -1.00695
   D13       -1.02541   0.00036   0.01060   0.00898   0.01956  -1.00585
   D14       -3.12537   0.00071   0.01204   0.01307   0.02493  -3.10044
   D15        1.09087   0.00127   0.02485   0.01578   0.04059   1.13145
   D16        1.01737  -0.00097  -0.01623   0.00663  -0.00945   1.00792
   D17       -1.08258  -0.00061  -0.01479   0.01073  -0.00408  -1.08666
   D18        3.13365  -0.00006  -0.00198   0.01344   0.01158  -3.13796
   D19        1.03458  -0.00060  -0.01506  -0.00201  -0.01719   1.01739
   D20       -1.27767   0.00129   0.01708   0.01947   0.03661  -1.24106
   D21       -2.87203  -0.00088  -0.00194  -0.01233  -0.01372  -2.88575
   D22       -3.12640   0.00019  -0.00509  -0.00123  -0.00673  -3.13313
   D23        0.84454   0.00208   0.02706   0.02025   0.04706   0.89160
   D24       -0.74983  -0.00009   0.00804  -0.01154  -0.00326  -0.75309
   D25       -1.08894  -0.00123  -0.02527  -0.01144  -0.03700  -1.12594
   D26        2.88200   0.00067   0.00687   0.01005   0.01679   2.89878
   D27        1.28763  -0.00150  -0.01215  -0.02175  -0.03353   1.25410
   D28        1.29064  -0.00047  -0.00330  -0.01234  -0.01610   1.27454
   D29       -2.47847  -0.00063  -0.00992  -0.02542  -0.03628  -2.51475
   D30       -1.25712  -0.00140  -0.02759  -0.01011  -0.03650  -1.29362
   D31       -1.50428   0.00003  -0.00022  -0.03592  -0.03599  -1.54027
   D32        0.99181  -0.00402  -0.04730  -0.06965  -0.11969   0.87212
   D33        2.27908   0.00009   0.00926  -0.01367  -0.00409   2.27500
   D34       -1.50801  -0.00395  -0.03782  -0.04740  -0.08778  -1.59580
   D35        1.52205  -0.00024  -0.00212   0.02554   0.02350   1.54555
   D36       -0.98144   0.00378   0.04192   0.06779   0.11232  -0.86912
   D37       -2.21927   0.00074   0.01908   0.01136   0.02991  -2.18936
   D38        1.56043   0.00476   0.06313   0.05361   0.11872   1.67916
   D39        2.48052   0.00172   0.01560   0.02451   0.04024   2.52076
   D40        1.26277   0.00024   0.02304   0.00567   0.02822   1.29099
   D41       -1.29524   0.00027  -0.00070   0.00958   0.00960  -1.28563
   D42       -2.26525  -0.00113  -0.00515  -0.00291  -0.00835  -2.27361
   D43        1.51651   0.00284   0.03472   0.04527   0.08253   1.59905
   D44        1.50198   0.00105   0.01759   0.03643   0.05438   1.55636
   D45       -0.99944   0.00502   0.05747   0.08461   0.14526  -0.85417
   D46        2.20503   0.00059  -0.02341   0.00792  -0.01508   2.18995
   D47       -1.56861  -0.00341  -0.05789  -0.04635  -0.10735  -1.67595
   D48       -1.50970  -0.00036  -0.00981  -0.02284  -0.03245  -1.54215
   D49        0.99985  -0.00436  -0.04429  -0.07711  -0.12471   0.87514
         Item               Value     Threshold  Converged?
 Maximum Force            0.014691     0.000450     NO 
 RMS     Force            0.003408     0.000300     NO 
 Maximum Displacement     0.128154     0.001800     NO 
 RMS     Displacement     0.027640     0.001200     NO 
 Predicted change in Energy=-6.425567D-03
 GradGradGradGradGradGradGradGradGradGradGradGradGradGradGradGradGradGrad

                          Input orientation:                          
 ---------------------------------------------------------------------
 Center     Atomic      Atomic             Coordinates (Angstroms)
 Number     Number       Type             X           Y           Z
 ---------------------------------------------------------------------
      1          6           0       -6.235596   -1.199353    0.203527
      2          6           0       -5.046890   -0.550081   -0.510779
      3          6           0       -3.916029   -0.161936    0.452727
      4          6           0       -2.742087    0.471992   -0.229630
      5          7           0       -2.769806    1.719604   -1.068553
      6          6           0       -1.325769    1.319221   -1.103015
      7          6           0       -1.681019   -0.190989   -1.165261
      8          8           0       -0.786873   -0.580336   -0.086617
      9          6           0       -1.299240    0.713733    0.335154
     10          1           0       -7.023512   -1.466207   -0.504219
     11          1           0       -6.671374   -0.523518    0.945489
     12          1           0       -5.935626   -2.112003    0.726886
     13          1           0       -5.375631    0.341784   -1.051704
     14          1           0       -4.652058   -1.235470   -1.268141
     15          1           0       -3.537119   -1.044285    0.979473
     16          1           0       -4.299813    0.522554    1.219674
     17          1           0       -2.890776    2.540272   -0.471937
     18          1           0       -0.535011    1.842281   -1.634201
     19          1           0       -1.825276   -0.829399   -2.034458
     20          1           0       -0.987925    1.169235    1.276838
 ---------------------------------------------------------------------
                    Distance matrix (angstroms):
                    1          2          3          4          5
     1  C    0.000000
     2  C    1.531277   0.000000
     3  C    2.553180   1.535529   0.000000
     4  C    3.896874   2.536888   1.498538   0.000000
     5  N    4.706400   3.263081   2.677370   1.503694   0.000000
     6  C    5.670685   4.206160   3.365057   1.867232   1.498912
     7  C    4.861538   3.447664   2.759347   1.562310   2.201176
     8  O    5.491443   4.281189   3.202744   2.225019   3.191543
     9  C    5.295738   4.044468   2.761921   1.568193   2.268201
    10  H    1.092212   2.178615   3.503330   4.707719   5.344332
    11  H    1.094150   2.181827   2.822318   4.220336   4.930536
    12  H    1.093991   2.182033   2.820763   4.217896   5.284622
    13  H    2.165698   1.093661   2.155803   2.761941   2.947711
    14  H    2.162106   1.095101   2.157684   2.764402   3.509297
    15  H    2.812102   2.178187   1.095251   2.095973   3.524523
    16  H    2.782943   2.168672   1.097280   2.128274   3.001638
    17  H    5.062496   3.768371   3.034481   2.087727   1.021803
    18  H    6.717548   5.229008   4.450105   2.953252   2.308531
    19  H    4.959472   3.574691   3.317054   2.406567   2.884878
    20  H    5.856642   4.756766   3.320386   2.415093   2.996475
                    6          7          8          9         10
     6  C    0.000000
     7  C    1.552679   0.000000
     8  O    2.220764   1.454153   0.000000
     9  C    1.560657   1.793188   1.454312   0.000000
    10  H    6.370357   5.532214   6.313068   6.182555   0.000000
    11  H    6.013946   5.428580   5.974598   5.546451   1.764743
    12  H    6.030972   5.037082   5.432997   5.443742   1.765267
    13  H    4.166462   3.734555   4.778954   4.321885   2.506807
    14  H    4.197369   3.150967   4.094491   4.196586   2.502121
    15  H    3.848765   2.961943   2.985909   2.917855   3.812387
    16  H    3.856748   3.613190   3.906855   3.134066   3.787547
    17  H    2.082900   3.066594   3.783262   2.553552   5.756077
    18  H    1.086760   2.380636   2.885745   2.395000   7.370454
    19  H    2.394506   1.088063   2.221350   2.876288   5.456081
    20  H    2.408389   2.880006   2.227202   1.091406   6.822465
                   11         12         13         14         15
    11  H    0.000000
    12  H    1.764199   0.000000
    13  H    2.533076   3.081890   0.000000
    14  H    3.079719   2.529029   1.748751   0.000000
    15  H    3.177406   2.637548   3.070342   2.516229   0.000000
    16  H    2.606481   3.140003   2.519766   3.066585   1.759086
[...]
 41,0.00017334,-0.00013387,0.00112509,0.00060950,0.00060995,-0.05189415
 ,0.05524627,-0.02311672,-0.00427974,0.01447653,-0.00462663,0.00072901,
 0.01670008,-0.01267887,-0.10624005,0.02550294,-0.04190115,0.23344324,0
 .00024107,0.00033150,0.00058826,0.00105081,0.00039810,-0.00141113,0.00
 292148,-0.00101573,0.00311558,0.03024544,-0.02240413,-0.00248346,0.016
 10497,-0.00658983,0.00884369,0.04310651,-0.05643953,0.01673473,0.01793
 143,-0.07300441,0.02052018,-0.14091667,0.29232568,0.00011382,0.0001557
 1,0.00019612,0.00059025,0.00034056,-0.00048110,-0.00086968,0.00348377,
 0.00319541,-0.00822314,-0.00867791,-0.00599153,-0.00377020,0.00765059,
 0.01032732,-0.02898838,0.02361010,-0.01729621,-0.04859515,0.03222644,-
 0.10882155,0.07614816,-0.02667993,0.18951420,0.00012736,0.00005202,-0.
 00047707,0.00075747,0.00029960,0.00231162,-0.00683740,-0.00415884,-0.0
 0590787,-0.11275597,-0.02101206,-0.02601866,-0.03882717,0.01494103,-0.
 03236686,-0.04304760,-0.00925242,0.00176886,0.02369224,-0.01288443,-0.
 03160026,-0.07881742,0.03856352,0.01563016,0.33428218,-0.00068787,-0.0
 0004850,-0.00105371,-0.00221541,-0.00109333,0.00321754,-0.00656571,-0.
 00347443,-0.01036982,-0.02349111,-0.04511666,-0.00344577,0.03051139,-0
 .01718161,0.03861443,-0.00159854,-0.05352251,0.03293791,-0.02496777,-0
 .01934566,-0.09432688,0.03211698,-0.13945116,-0.02387486,0.02194236,0.
 37525648,0.00063324,0.00043720,0.00097085,0.00158871,0.00092386,-0.002
 53162,0.01352610,0.00022969,0.00959695,-0.02153902,-0.01154102,-0.0554
 1252,-0.01702949,0.01573467,-0.01965207,0.00430734,0.03152054,-0.13279
 984,-0.04350574,-0.07526102,-0.10721201,0.00872938,-0.01257415,-0.0643
 6886,0.13416165,0.13971749,0.62547685,-0.17794059,-0.04438695,-0.12363
 953,-0.01829315,-0.00554431,-0.01820623,-0.00336370,-0.00216202,0.0047
 2893,-0.00059893,0.00000581,-0.00197700,-0.00006261,-0.00010617,0.0002
 0478,-0.00015308,-0.00006330,0.00000142,0.00005229,-0.00013536,-0.0001
 7350,-0.00010708,0.00025912,0.00006952,0.00004205,-0.00036709,0.000391
 71,0.19473887,-0.04424781,-0.06204783,-0.04185644,-0.00864684,-0.00419
 243,-0.00933725,-0.00189366,-0.00070509,0.00215017,-0.00062798,0.00058
 516,-0.00086790,0.00008212,-0.00005554,0.00007608,-0.00009825,-0.00000
 921,-0.00000165,0.00000841,-0.00013343,-0.00006939,-0.00003308,0.00013
 056,-0.00000484,0.00001185,-0.00018477,0.00022070,0.05093438,0.0637660
 5,-0.12493612,-0.04246970,-0.16355267,0.01306628,0.00432880,0.01178290
 ,0.00242042,0.00120228,-0.00142156,0.00073320,0.00024271,0.00088641,-0
 .00011814,-0.00001474,-0.00000745,0.00004409,-0.00002375,0.00004595,-0
 .00001633,-0.00007028,0.00006961,-0.00004396,-0.00005976,-0.00004871,0
 .00014809,0.00020731,-0.00014326,0.13464850,0.04541692,0.17565216,-0.0
 8513379,0.06520817,0.06379337,-0.01168101,0.01803162,0.01763920,0.0014
 2400,0.00169200,0.00095747,0.00014621,-0.00034671,0.00006707,-0.000001
 77,0.00000213,-0.00002742,0.00001190,0.00000940,-0.00005174,0.00014393
 ,0.00009843,-0.00003507,-0.00002984,-0.00009638,-0.00004088,-0.0000523
 9,-0.00000830,-0.00005720,0.00966446,-0.01584164,-0.01465742,0.0925718
 0,0.06581873,-0.15893842,-0.11049006,-0.00601244,0.00951540,0.00948755
 ,0.00046724,0.00067560,0.00048676,0.00004871,0.00017180,0.00034696,0.0
 0004193,-0.00000947,-0.00002225,-0.00002301,0.00001829,0.00003221,0.00
 001443,-0.00009793,-0.00002810,-0.00001388,-0.00002744,-0.00002711,0.0
 0001157,0.00002679,-0.00007399,0.00278637,-0.00540138,-0.00367187,-0.0
 7055626,0.17038819,0.06408487,-0.10993262,-0.15598402,0.00648919,-0.01
 045226,-0.01153588,-0.00107423,0.00010246,0.00052017,-0.00016693,0.000
 13968,0.00008480,0.00001123,0.00004438,-0.00003720,-0.00000120,-0.0000
 0472,0.00004577,-0.00013342,-0.00010492,-0.00005678,0.00002611,0.00004
 787,0.00001997,0.00002418,0.00003993,-0.00000283,0.00886015,-0.0141595
 5,-0.01394357,-0.07412654,0.12098705,0.16897096,-0.06497805,0.05689028
 ,-0.03455305,0.00675717,-0.02418348,0.01393623,0.00215206,-0.00029276,
 0.00067029,0.00017871,0.00007014,0.00038237,-0.00018418,0.00007103,-0.
 00009567,0.00001875,-0.00004909,-0.00007193,0.00002492,0.00000013,0.00
 004282,0.00000024,0.00005724,-0.00004316,-0.00003242,0.00001028,-0.000
 01991,-0.00615040,0.01958437,-0.01008936,-0.00405083,0.00929589,-0.006
 67308,0.06959519,0.05614351,-0.22412869,0.10605411,0.00300088,-0.01123
 485,0.00645258,0.00115326,0.00026344,0.00005309,-0.00023063,0.00021622
 ,0.00000017,-0.00004895,0.00004825,-0.00006482,0.00004921,0.00000515,-
 0.00008856,0.00005810,-0.00002034,0.00003759,-0.00003506,0.00009706,-0
 .00006179,-0.00002699,-0.00006333,0.00002547,-0.00193795,0.00733455,-0
 .00453571,0.00558919,-0.01738135,0.01100362,-0.06006674,0.24333012,-0.
 03401538,0.10582834,-0.11137302,-0.00405137,0.01377716,-0.00908297,-0.
 00058131,-0.00089601,0.00044835,-0.00004375,-0.00016798,-0.00011050,0.
 00012443,-0.00000980,-0.00001694,-0.00004981,0.00001968,0.00006369,-0.
 00003735,0.00006183,0.00000305,0.00006321,-0.00009927,0.00002354,0.000
 01244,0.00004037,-0.00001866,-0.00523633,0.01834277,-0.01083256,0.0056
 3490,-0.01811912,0.01141071,0.03503890,-0.11941373,0.11925460,0.006493
 44,-0.02393897,0.01477988,-0.06614235,0.05834322,-0.03520197,-0.009661
 98,0.01997384,-0.01311574,0.00072225,0.00206109,-0.00122186,0.00058514
 ,-0.00068412,0.00009914,-0.00034560,0.00029015,0.00055265,-0.00011023,
 -0.00002598,-0.00010526,0.00009482,-0.00045779,0.00017037,0.00028652,0
 .00009381,0.00003452,0.00116670,0.00040439,-0.00073269,0.00118521,0.00
 071675,-0.00053889,-0.00424635,-0.00255135,0.00311077,0.07584088,0.002
 66411,-0.01055794,0.00611305,0.05958232,-0.22017171,0.10546613,-0.0024
 6728,0.00755462,-0.00497613,0.00011788,0.00033017,0.00064281,-0.000466
 83,-0.00055130,-0.00021159,0.00014115,0.00003966,-0.00010861,0.0000219
 9,0.00005548,0.00003667,-0.00005995,0.00001669,-0.00000461,0.00010641,
 0.00012824,-0.00009952,-0.00009654,0.00004882,-0.00040915,-0.00018860,
 0.00097645,-0.00005916,-0.00255636,0.00063275,0.00087654,-0.06131167,0
 .23803917,-0.00340771,0.01297631,-0.00828510,-0.03564565,0.10464889,-0
 .11454789,-0.00854405,0.01749228,-0.01217224,0.00091779,0.00080142,-0.
 00011358,0.00050747,-0.00035833,0.00019499,-0.00005836,0.00006885,0.00
 021492,-0.00002086,-0.00006456,-0.00003680,-0.00002552,-0.00023515,0.0
 0006193,0.00002890,0.00007763,-0.00005179,0.00007890,-0.00044432,0.000
 69751,-0.00064870,-0.00024489,0.00014636,0.00266825,0.00110464,-0.0005
 3105,0.04066635,-0.11683446,0.12502279,-0.01161562,0.01772265,0.018453
 03,-0.07945960,0.06124654,0.05963876,0.00716107,-0.01756962,-0.0174657
 2,0.00184317,-0.00029595,-0.00069170,-0.00009147,-0.00004383,0.0000259
 4,0.00020894,-0.00007177,0.00002629,-0.00039159,0.00035506,0.00036884,
 -0.00000281,0.00009704,0.00008377,0.00017921,0.00021146,0.00003543,0.0
 0064565,0.00045422,-0.00072574,-0.00392412,-0.00300055,0.00268219,0.00
 123329,-0.00029802,-0.00055046,-0.00370056,0.00615832,0.00617402,0.090
 60394,-0.00597916,0.00917641,0.01006728,0.06099101,-0.15927965,-0.1095
 4667,0.00209722,-0.00617671,-0.00538848,0.00103977,0.00001338,-0.00089
 948,-0.00042991,0.00014109,0.00028023,0.00001739,-0.00019057,0.0000562
 1,-0.00052200,-0.00021704,-0.00018021,0.00007003,0.00028930,0.00025697
 ,0.00006031,-0.00001265,0.00017040,0.00083283,0.00050361,-0.00033712,-
 0.00279462,0.00008446,0.00197616,0.00065173,0.00093656,-0.00027558,0.0
 0967654,-0.01800775,-0.01778388,-0.06353236,0.17049549,0.00652822,-0.0
 0988271,-0.01064179,0.05903425,-0.10845091,-0.15666295,0.00609982,-0.0
 1571757,-0.01620100,0.00130888,0.00058001,-0.00014386,-0.00016987,-0.0
 0008747,0.00008085,0.00000214,-0.00002798,0.00007954,-0.00040064,-0.00
 019154,0.00028591,0.00001065,0.00030815,0.00011907,0.00006156,0.000037
 90,0.00015057,-0.00010646,0.00028643,0.00079233,0.00249341,0.00158025,
 -0.00047136,-0.00063211,-0.00013928,0.00010835,-0.00579205,0.01058693,
 0.01112442,-0.06540886,0.12155285,0.17273858,0.00129420,0.00153608,-0.
 00015904,-0.00927231,0.01998759,-0.01226643,-0.07386887,0.06725248,-0.
 03799157,0.01072309,-0.02387474,0.01266340,-0.00390129,-0.00112400,0.0
 0237105,0.00131241,-0.00044093,-0.00002557,0.00049203,0.00076201,0.000
 68488,0.00010879,0.00077046,-0.00048951,0.00012656,-0.00044424,-0.0011
 0229,0.00035122,-0.00031915,0.00017024,-0.00007240,-0.00002966,0.00001
 470,-0.00023567,-0.00082079,0.00045350,-0.00327334,-0.00208855,-0.0031
 7487,0.00111290,-0.00043690,0.00065733,0.08044395,0.00027309,0.0007655
 5,-0.00043779,-0.00335644,0.00742416,-0.00448139,0.06694920,-0.2153697
 8,0.09811441,0.00461634,-0.01508724,0.00749968,-0.00252132,0.00137222,
 0.00062662,0.00086302,-0.00072002,0.00031188,0.00016969,0.00024371,0.0
 0059269,-0.00050875,0.00107805,-0.00069665,0.00023510,-0.00037230,-0.0
 0029958,0.00012934,0.00016843,-0.00011508,-0.00002313,-0.00008075,0.00
 005653,0.00050156,0.00008610,0.00007333,-0.00207186,0.00077483,-0.0013
 3724,0.00039685,0.00086815,0.00044119,-0.07100751,0.23519620,0.0012186
 6,0.00006266,0.00058156,-0.00830918,0.01773833,-0.01198411,-0.03756639
 ,0.09746134,-0.10356158,-0.00570425,0.01457376,-0.00991567,0.00227640,
 0.00023091,0.00038921,-0.00062818,0.00044917,0.00010260,-0.00073060,-0
 .00010920,-0.00034285,0.00012821,-0.00104273,0.00030958,0.00035870,0.0
 0050131,0.00073306,0.00023820,-0.00018996,-0.00002576,-0.00003876,-0.0
 0011287,0.00006857,-0.00039429,-0.00040933,0.00056471,-0.00340953,-0.0
 0143678,-0.00214533,0.00079711,0.00025778,0.00051638,0.04419251,-0.109
 42832,0.11435052,0.00196278,-0.00022880,-0.00069884,0.00745679,-0.0167
 9141,-0.01735986,-0.07824495,0.05673106,0.06172840,-0.01396368,0.01952
 563,0.01986708,0.00119592,-0.00067176,-0.00061309,-0.00075597,0.000501
 13,0.00043053,-0.00005542,-0.00376996,0.00114047,0.00000424,-0.0002722
 7,-0.00122776,0.00082274,0.00121859,0.00017680,0.00020032,0.00028567,0
 .00005586,-0.00023464,0.00041028,0.00046697,-0.00008806,-0.00001290,0.
 00010489,0.00094909,0.00047020,0.00076376,-0.00351648,-0.00169211,-0.0
 0355753,-0.00417950,0.00609996,0.00668196,0.08919401,0.00089725,0.0000
 9316,-0.00007725,0.00260587,-0.00608145,-0.00610609,0.05651029,-0.1469
 1233,-0.10626605,-0.00596031,0.00983746,0.01149254,0.00097030,0.000904
 53,-0.00057048,-0.00029057,0.00087091,0.00020369,-0.00175881,-0.001249
 22,0.00190159,-0.00002138,-0.00005805,-0.00086726,0.00034733,0.0005776
 1,-0.00025357,-0.00011731,0.00022394,0.00030463,-0.00071793,0.00009087
 ,0.00025842,0.00002209,-0.00010764,-0.00004519,-0.00044793,0.00075575,
 0.00024771,-0.00189668,0.00100141,-0.00104396,0.00976905,-0.01677483,-
 0.01847275,-0.06010298,0.15725151,0.00117137,0.00074777,0.00075923,0.0
 0663581,-0.01528592,-0.01654445,0.06127106,-0.10694072,-0.16255041,0.0
 0839022,-0.01114411,-0.01333026,-0.00095252,0.00031124,0.00045659,0.00
 056950,-0.00027256,-0.00003283,-0.00115547,0.00205578,0.00025042,0.000
 23035,0.00015801,0.00126898,0.00045312,0.00010004,0.00037288,-0.000018
 45,0.00038884,0.00012662,-0.00077118,-0.00009819,0.00066785,-0.0001144
 2,0.00000863,0.00008498,0.00052380,0.00046602,0.00045027,-0.00357447,-
 0.00071899,-0.00215840,-0.00579451,0.00930142,0.01067159,-0.06777743,0
 .11969808,0.17967666,-0.00001685,0.00000011,-0.00004867,-0.00005917,-0
 .00010669,0.00025313,0.00069676,-0.00092923,-0.00053437,-0.00266496,-0
 .00046527,-0.00688809,-0.04613623,0.00518131,0.01944894,-0.00473086,0.
 03184891,0.02018675,-0.00483388,0.00214876,0.00049866,-0.00003305,0.00
 132742,-0.00206330,0.00081369,0.00052156,0.00394036,-0.00002566,-0.000
 00938,0.00000728,-0.00004075,-0.00001321,0.00005702,-0.00000076,0.0000
 2868,-0.00000374,0.00001849,-0.00008812,-0.00023995,0.00001589,0.00019
 511,0.00000544,-0.00023189,0.00008428,0.00026818,-0.00005441,0.0001197
 0,0.00033096,0.05657608,0.00000104,-0.00002930,0.00002435,-0.00011903,
 -0.00002930,0.00008590,-0.00000984,-0.00011498,-0.00036114,0.00556513,
 -0.02124584,-0.02148726,0.03259970,-0.25896003,-0.15138529,-0.00088693
 ,-0.00290162,-0.00069557,0.00130185,-0.00411270,0.00297411,0.00177975,
 0.00096694,0.00127657,-0.00045000,0.00000769,0.00058743,0.00001113,0.0
 0001031,0.00000253,-0.00003166,-0.00000535,0.00001670,-0.00001625,0.00
 000842,-0.00000608,0.00005003,-0.00003360,-0.00008540,0.00007497,0.000
 12374,0.00007222,-0.00004045,0.00028971,0.00025197,-0.00067518,-0.0000
 4266,0.00059689,-0.04034947,0.28635800,0.00004108,0.00001330,-0.000016
 00,-0.00002360,-0.00019795,0.00012690,-0.00048906,-0.00036706,0.000558
 26,-0.00529631,0.02073352,0.00954131,0.04587764,-0.19213857,-0.1742073
 1,-0.00732275,-0.00090444,-0.00591727,-0.00011493,0.00321950,-0.000012
 86,-0.00179131,0.00099093,0.00017677,0.00303904,0.00227864,0.00557490,
 -0.00003234,-0.00001910,-0.00000538,-0.00001982,-0.00000505,0.00004454
 ,-0.00001312,0.00000361,0.00001142,0.00009245,-0.00005956,-0.00011326,
 -0.00005267,0.00012316,-0.00003973,0.00003146,-0.00009428,-0.00020784,
 0.00017563,-0.00029124,-0.00014654,-0.03484507,0.16843452,0.16447053,0
 .00002630,-0.00000546,-0.00004332,0.00032498,0.00018447,0.00003312,0.0
 0183685,-0.00147915,0.00115158,-0.00692777,-0.00026458,0.00153335,-0.0
 0649533,-0.01440312,0.00936829,-0.17859469,-0.09362740,0.09196589,-0.0
 0142746,0.00084559,-0.00132637,0.00026207,-0.00124943,0.00161957,0.005
 53534,0.00333749,-0.00101751,-0.00004612,-0.00000587,-0.00001601,0.000
 00569,0.00000309,0.00001137,-0.00000250,0.00000692,0.00001250,0.000088
 69,0.00004376,-0.00000776,-0.00001864,-0.00004907,-0.00003644,-0.00059
 906,-0.00042874,0.00036588,0.00003437,0.00012330,-0.00002247,-0.000084
 16,-0.00018819,0.00082676,0.18574757,-0.00007200,0.00000074,-0.0001544
 7,0.00001981,-0.00009006,0.00029762,-0.00098951,0.00288825,0.00010617,
 -0.00329858,-0.00612075,0.00341168,0.00576861,0.00778773,-0.00614647,-
 0.09686000,-0.13063076,0.07664137,-0.01438406,0.00484298,0.01254352,0.
 00519514,-0.00094176,0.00190895,-0.00254585,-0.00127220,-0.00593724,-0
 .00006195,-0.00004705,0.00000610,0.00001455,-0.00000500,0.00000344,0.0
 0001813,-0.00000279,0.00000791,-0.00012185,0.00000275,-0.00002666,0.00
 004532,0.00002205,-0.00001876,0.00039622,0.00017278,-0.00022676,-0.000
 68492,-0.00026058,0.00042942,-0.00023440,0.00020539,-0.00058853,0.1073
 3160,0.12259474,0.00016880,0.00003370,0.00026752,0.00041075,0.00023810
 ,-0.00059096,0.00087147,0.00014291,0.00252261,0.00278355,0.00341654,-0
 .00423413,-0.00294430,-0.00315276,0.00161516,0.09509464,0.07695652,-0.
 12083318,-0.00774573,-0.00246128,0.00219305,-0.00189826,0.00353440,0.0
 0298510,0.01778003,0.00312824,0.00142271,0.00010485,0.00004804,-0.0000
 3662,-0.00001220,-0.00001571,-0.00000965,-0.00002242,-0.00000295,-0.00
 000379,0.00006316,-0.00000239,0.00003453,0.00003448,0.00004157,0.00003
 105,-0.00018682,-0.00008368,0.00001810,-0.00020332,-0.00008764,0.00004
 690,0.00029788,-0.00001311,-0.00032471,-0.10462392,-0.08188395,0.11458
 401,-0.00004309,-0.00016870,-0.00018569,0.00005268,0.00007004,0.000279
 12,0.00086071,0.00018445,-0.00037819,0.01227020,0.00803309,0.00905998,
 0.00064022,-0.00085283,-0.00085683,-0.00198122,-0.00224398,-0.00393156
 ,-0.05291120,-0.01067623,-0.01871781,-0.00052036,-0.01319635,-0.013228
 88,-0.00413959,0.00294997,0.00002196,-0.00005271,-0.00001344,0.0000198
 3,0.00009264,0.00003066,-0.00003159,0.00000679,0.00001813,0.00000401,0
 .00000186,-0.00000953,-0.00004138,-0.00035817,-0.00023979,-0.00016248,
 -0.00017106,-0.00016531,0.00011166,-0.00032508,-0.00014388,0.00018835,
 0.00017386,0.00055098,-0.00077456,0.00012386,0.00014961,-0.00014074,0.
 04332459,0.00005827,0.00006069,0.00009474,0.00007786,-0.00015446,-0.00
 033147,0.00022266,0.00042451,0.00026257,-0.00564066,-0.00150929,0.0012
 8941,0.00157773,-0.00002381,0.00150871,0.00127725,0.00171791,-0.017802
 69,-0.01486472,-0.15980548,-0.13658181,0.00015570,0.00967289,0.0105756
 2,0.00056386,-0.00710327,-0.00371497,0.00003645,0.00001303,-0.00001064
 ,-0.00002662,-0.00000388,0.00002797,-0.00000832,-0.00001034,0.00000619
 ,-0.00000857,-0.00004003,-0.00001244,-0.00007320,0.00019005,0.00008146
 ,0.00010846,0.00004516,-0.00004051,-0.00010900,-0.00010538,0.00010999,
 0.00075637,-0.00006236,0.00010263,-0.00011820,0.00055689,0.00036087,0.
 01674290,0.15378353,0.00009565,0.00015428,0.00021956,0.00015845,-0.000
 27289,-0.00057804,-0.00020656,-0.00011390,0.00047305,-0.00618430,-0.00
 231831,-0.00329412,0.00146127,-0.00205672,0.00062926,0.00100360,0.0036
 4029,0.00676741,-0.02356360,-0.13133694,-0.21747954,0.00078294,-0.0105
 2942,-0.01050248,-0.00228290,-0.00028031,-0.00649569,0.00005573,0.0000
 1821,-0.00002730,-0.00008326,-0.00001641,0.00005017,-0.00000702,-0.000
 01269,-0.00001310,-0.00002754,0.00003043,0.00004252,0.00013706,0.00030
 672,0.00027132,0.00000544,0.00003332,-0.00011220,0.00009756,0.00007785
 ,-0.00006137,-0.00047139,-0.00037783,-0.00014622,-0.00001017,-0.000411
 66,0.00027970,0.02941464,0.14558016,0.22984864,-0.00006536,0.00002813,
 -0.00014899,-0.00022770,-0.00009276,0.00038656,0.00118077,0.00031710,-
 0.00054075,0.00988586,-0.00783416,-0.01428311,-0.00048210,0.00303622,-
 0.00144066,-0.00077764,0.00058078,0.00469450,-0.00469348,0.00009725,-0
 .00369812,0.00558234,0.00351238,0.01311442,-0.08215541,-0.03256786,-0.
 08327605,-0.00006754,-0.00002831,0.00002197,-0.00002430,0.00000337,0.0
 0001791,0.00000212,-0.00001851,0.00000994,0.00004734,0.00002729,0.0000
 0936,0.00007502,0.00004396,0.00006475,-0.00015974,-0.00023539,0.000143
 74,-0.00040207,0.00009260,0.00041635,0.00061787,0.00083242,0.00069147,
 0.00021001,0.00031414,0.00016810,0.00295505,-0.00072821,-0.00037560,0.
 06849898,-0.00001328,0.00001758,-0.00003417,-0.00003721,-0.00010999,0.
 00008109,0.00003315,0.00018192,-0.00016770,-0.00038100,-0.00123592,-0.
 00019882,0.00029166,0.00026261,-0.00158568,0.00392299,0.01143543,0.005
 25769,0.00215145,-0.00581315,0.00039002,-0.01050286,-0.00537473,-0.020
 59032,-0.02680437,-0.08775445,-0.07981236,-0.00001650,-0.00000774,0.00
 000654,-0.00001366,0.00000310,0.00000904,0.00000014,-0.00000932,-0.000
 00135,0.00001028,0.00000695,0.00000959,0.00001956,0.00003867,0.0000328
 1,0.00004456,-0.00008013,-0.00005800,-0.00023122,-0.00001504,0.0000883
 5,-0.00001645,-0.00043245,-0.00123403,-0.00005701,0.00029664,-0.000197
 44,-0.00101979,0.00235367,-0.00211418,0.03261957,0.08623634,0.00004903
 ,0.00000055,0.00004076,0.00007071,0.00006450,-0.00015768,-0.00042002,0
 .00002886,0.00059409,0.00432182,0.00200087,0.00097194,-0.00424420,0.00
 247982,-0.00130261,-0.00388870,-0.01312226,-0.00127287,-0.00140889,-0.
 00275498,-0.00720508,-0.00048682,0.00027322,-0.00068757,-0.07712473,-0
 .08754738,-0.25560965,0.00000716,0.00000225,-0.00000866,-0.00001522,0.
 00000487,0.00001142,-0.00000931,-0.00001465,0.00000920,0.00005243,-0.0
 0001661,0.00000680,0.00001270,0.00004108,0.00002075,-0.00005388,-0.000
 07706,-0.00001053,-0.00025208,-0.00010302,-0.00000872,-0.00020003,0.00
 008849,0.00063249,0.00021566,0.00003832,0.00003261,-0.00064983,-0.0015
 0581,0.00012843,0.08402421,0.10011893,0.26381488\\-0.00001178,-0.00000
 679,0.00001202,0.00001322,0.00001430,-0.00002839,-0.00001499,-0.000034
 58,0.00004571,0.00010388,0.00008598,-0.00010388,0.00003432,-0.00005901
 ,0.00005790,-0.00000122,-0.00009254,0.00003481,-0.00000381,0.00004155,
 0.00003939,-0.00004894,0.00003200,0.00001861,-0.00004076,-0.00001361,-
 0.00005651,0.00000138,-0.00000083,0.00000032,0.00000231,-0.00000326,-0
 .00000399,-0.00000077,0.00000340,-0.00000405,0.00000058,-0.00000822,0.
 00001053,-0.00000218,0.00000173,0.00000830,-0.00000188,0.00000783,-0.0
 0001070,0.00000469,0.00000009,-0.00000965,0.00000098,-0.00000308,-0.00
 000060,-0.00003521,0.00003312,-0.00000793,-0.00000450,0.00000479,-0.00
 000108,0.00000470,-0.00000287,-0.00000079\\\@


  DISAPPOINTMENT IS THE NURSE OF WISDOM.               
                              SIR BOYLE ROCHE                 
 Job cpu time:       0 days  2 hours  7 minutes 30.9 seconds.
 Elapsed time:       0 days  0 hours 31 minutes 58.5 seconds.
 File lengths (MBytes):  RWF=    145 Int=      0 D2E=      0 Chk=      9 Scr=      1
 Normal termination of Gaussian 16 at Thu Feb 18 12:50:38 2021.
### All Done ###
