Currently Loaded Modulefiles:
  1) miniconda3/miniconda3-4.3.30   2) gaussian/gaussian-16-A.03
### Starting Gaussian ###
 Entering Gaussian System, Link 0=g16
 Initial command:
 /cluster/software/gaussian/gaussian-16-A.03/avx2/g16/l1.exe "/local/scratch/ks29c/Gau-20489.inp" -scrdir="/local/scratch/ks29c/"
 Entering Link 1 = /cluster/software/gaussian/gaussian-16-A.03/avx2/g16/l1.exe PID=     20490.
  
 Copyright (c) 1988,1990,1992,1993,1995,1998,2003,2009,2016,
            Gaussian, Inc.  All Rights Reserved.
  
 This is part of the Gaussian(R) 16 program.  It is based on
 the Gaussian(R) 09 system (copyright 2009, Gaussian, Inc.),
 the Gaussian(R) 03 system (copyright 2003, Gaussian, Inc.),
 the Gaussian(R) 98 system (copyright 1998, Gaussian, Inc.),
 the Gaussian(R) 94 system (copyright 1995, Gaussian, Inc.),
 the Gaussian 92(TM) system (copyright 1992, Gaussian, Inc.),
 the Gaussian 90(TM) system (copyright 1990, Gaussian, Inc.),
 the Gaussian 88(TM) system (copyright 1988, Gaussian, Inc.),
 the Gaussian 86(TM) system (copyright 1986, Carnegie Mellon
 University), and the Gaussian 82(TM) system (copyright 1983,
 Carnegie Mellon University). Gaussian is a federally registered
 trademark of Gaussian, Inc.
  
 This software contains proprietary and confidential information,
 including trade secrets, belonging to Gaussian, Inc.
  
 This software is provided under written license and may be
 used, copied, transmitted, or stored only in accord with that
 written license.
  
 The following legend is applicable only to US Government
 contracts under FAR:
  
                    RESTRICTED RIGHTS LEGEND
  
 Use, reproduction and disclosure by the US Government is
 subject to restrictions as set forth in subparagraphs (a)
 and (c) of the Commercial Computer Software - Restricted
 Rights clause in FAR 52.227-19.
  
 Gaussian, Inc.
 340 Quinnipiac St., Bldg. 40, Wallingford CT 06492
  
  
 ---------------------------------------------------------------
 Warning -- This program may not be used in any manner that
 competes with the business of Gaussian, Inc. or will provide
 assistance to any competitor of Gaussian, Inc.  The licensee
 of this program is prohibited from giving any competitor of
 Gaussian, Inc. access to this program.  By using this program,
 the user acknowledges that Gaussian, Inc. is engaged in the
 business of creating and licensing software in the field of
 computational chemistry and represents and warrants to the
 licensee that it is not a competitor of Gaussian, Inc. and that
 it will not use this program in any manner prohibited above.
 ---------------------------------------------------------------
  

 Cite this work as:
 Gaussian 16, Revision A.03,
 M. J. Frisch, G. W. Trucks, H. B. Schlegel, G. E. Scuseria, 
 M. A. Robb, J. R. Cheeseman, G. Scalmani, V. Barone, 
 G. A. Petersson, H. Nakatsuji, X. Li, M. Caricato, A. V. Marenich, 
 J. Bloino, B. G. Janesko, R. Gomperts, B. Mennucci, H. P. Hratchian, 
 J. V. Ortiz, A. F. Izmaylov, J. L. Sonnenberg, D. Williams-Young, 
 F. Ding, F. Lipparini, F. Egidi, J. Goings, B. Peng, A. Petrone, 
 T. Henderson, D. Ranasinghe, V. G. Zakrzewski, J. Gao, N. Rega, 
 G. Zheng, W. Liang, M. Hada, M. Ehara, K. Toyota, R. Fukuda, 
 J. Hasegawa, M. Ishida, T. Nakajima, Y. Honda, O. Kitao, H. Nakai, 
 T. Vreven, K. Throssell, J. A. Montgomery, Jr., J. E. Peralta, 
 F. Ogliaro, M. J. Bearpark, J. J. Heyd, E. N. Brothers, K. N. Kudin, 
 V. N. Staroverov, T. A. Keith, R. Kobayashi, J. Normand, 
 K. Raghavachari, A. P. Rendell, J. C. Burant, S. S. Iyengar, 
 J. Tomasi, M. Cossi, J. M. Millam, M. Klene, C. Adamo, R. Cammi, 
 J. W. Ochterski, R. L. Martin, K. Morokuma, O. Farkas, 
 J. B. Foresman, and D. J. Fox, Gaussian, Inc., Wallingford CT, 2016.
 
 ******************************************
 Gaussian 16:  ES64L-G16RevA.03 25-Dec-2016
                28-Feb-2021 
 ******************************************
 %NProcShared=20
 Will use up to   20 processors via shared memory.
 %Chk=CCCpCCpOCpCpC.chk
 -----------------------------
 # opt freq b3lyp/6-31g(2df,p)
 -----------------------------
 1/18=20,19=15,26=3,38=1/1,3;
 2/9=110,12=2,17=6,18=5,40=1/2;
 3/5=1,6=6,7=104,11=2,25=1,30=1,71=1,74=-5/1,2,3;
 4//1;
 5/5=2,38=5/2;
 6/7=2,8=2,9=2,10=2,28=1/1;
 7//1,2,3,16;
 1/18=20,19=15,26=3/3(2);
 2/9=110/2;
 99//99;
 2/9=110/2;
 3/5=1,6=6,7=104,11=2,25=1,30=1,71=1,74=-5/1,2,3;
 4/5=5,16=3,69=1/1;
 5/5=2,38=5/2;
 7//1,2,3,16;
 1/18=20,19=15,26=3/3(-5);
 2/9=110/2;
 6/7=2,8=2,9=2,10=2,19=2,28=1/1;
 99/9=1/99;
 -----
 Title
 -----
 Symbolic Z-matrix:
 Charge =  0 Multiplicity = 1
 C                    -4.19208   3.15436   0.55147 
 C                    -5.00492   2.04943  -0.12653 
 C                    -4.49173   0.61835   0.1422 
 C                    -3.0682    0.40716  -0.42337 
 C                    -2.50588  -0.98339  -0.14139 
 O                    -5.42136  -0.25527  -0.48768 
 C                    -5.8318   -1.4302    0.21395 
 C                    -6.07284  -1.29051   1.73355 
 C                    -7.1466   -1.87561  -0.43218 
 H                    -4.17036   2.9971    1.65046 
 H                    -4.66813   4.13613   0.3442 
 H                    -3.15602   3.19823   0.16107 
 H                    -6.04506   2.11937   0.26156 
 H                    -5.03548   2.2383   -1.22232 
 H                    -4.44928   0.52046   1.23908 
 H                    -3.06199   0.58464  -1.52058 
 H                    -2.3731    1.12719   0.05472 
 H                    -3.08453  -1.76079  -0.6749 
 H                    -2.50936  -1.18816   0.95085 
 H                    -1.45953  -1.03889  -0.50866 
 H                    -5.10265  -2.24716   0.04529 
 H                    -6.78128  -0.46286   1.94759 
 H                    -5.12774  -1.14382   2.29393 
 H                    -6.49517  -2.23681   2.13507 
 H                    -7.92852  -1.0978   -0.29001 
 H                    -7.50367  -2.82977   0.01143 
 H                    -7.00114  -2.03311  -1.52213 
 

 GradGradGradGradGradGradGradGradGradGradGradGradGradGradGradGradGradGrad
 Berny optimization.
 Initialization pass.
                           ----------------------------
                           !    Initial Parameters    !
                           ! (Angstroms and Degrees)  !
 --------------------------                            --------------------------
 ! Name  Definition              Value          Derivative Info.                !
 --------------------------------------------------------------------------------
 ! R1    R(1,2)                  1.5301         estimate D2E/DX2                !
 ! R2    R(1,10)                 1.1104         estimate D2E/DX2                !
 ! R3    R(1,11)                 1.1106         estimate D2E/DX2                !
 ! R4    R(1,12)                 1.108          estimate D2E/DX2                !
 ! R5    R(2,3)                  1.5439         estimate D2E/DX2                !
 ! R6    R(2,13)                 1.1124         estimate D2E/DX2                !
 ! R7    R(2,14)                 1.1124         estimate D2E/DX2                !
 ! R8    R(3,4)                  1.5463         estimate D2E/DX2                !
 ! R9    R(3,6)                  1.4227         estimate D2E/DX2                !
 ! R10   R(3,15)                 1.1021         estimate D2E/DX2                !
 ! R11   R(4,5)                  1.5262         estimate D2E/DX2                !
 ! R12   R(4,16)                 1.1115         estimate D2E/DX2                !
 ! R13   R(4,17)                 1.1091         estimate D2E/DX2                !
 ! R14   R(5,18)                 1.1063         estimate D2E/DX2                !
 ! R15   R(5,19)                 1.1113         estimate D2E/DX2                !
 ! R16   R(5,20)                 1.1103         estimate D2E/DX2                !
 ! R17   R(6,7)                  1.4287         estimate D2E/DX2                !
 ! R18   R(7,8)                  1.5449         estimate D2E/DX2                !
 ! R19   R(7,9)                  1.5312         estimate D2E/DX2                !
 ! R20   R(7,21)                 1.1079         estimate D2E/DX2                !
 ! R21   R(8,22)                 1.1103         estimate D2E/DX2                !
 ! R22   R(8,23)                 1.1085         estimate D2E/DX2                !
 ! R23   R(8,24)                 1.1113         estimate D2E/DX2                !
 ! R24   R(9,25)                 1.112          estimate D2E/DX2                !
 ! R25   R(9,26)                 1.1112         estimate D2E/DX2                !
 ! R26   R(9,27)                 1.1108         estimate D2E/DX2                !
 ! A1    A(2,1,10)             110.2839         estimate D2E/DX2                !
 ! A2    A(2,1,11)             109.1443         estimate D2E/DX2                !
 ! A3    A(2,1,12)             111.6655         estimate D2E/DX2                !
 ! A4    A(10,1,11)            108.5595         estimate D2E/DX2                !
 ! A5    A(10,1,12)            109.6353         estimate D2E/DX2                !
 ! A6    A(11,1,12)            107.4599         estimate D2E/DX2                !
 ! A7    A(1,2,3)              114.5604         estimate D2E/DX2                !
 ! A8    A(1,2,13)             107.2615         estimate D2E/DX2                !
 ! A9    A(1,2,14)             109.1768         estimate D2E/DX2                !
 ! A10   A(3,2,13)             107.9609         estimate D2E/DX2                !
 ! A11   A(3,2,14)             109.7541         estimate D2E/DX2                !
 ! A12   A(13,2,14)            107.8977         estimate D2E/DX2                !
 ! A13   A(2,3,4)              111.6513         estimate D2E/DX2                !
 ! A14   A(2,3,6)              105.9574         estimate D2E/DX2                !
 ! A15   A(2,3,15)             105.568          estimate D2E/DX2                !
 ! A16   A(4,3,6)              110.8393         estimate D2E/DX2                !
 ! A17   A(4,3,15)             108.4487         estimate D2E/DX2                !
 ! A18   A(6,3,15)             114.2847         estimate D2E/DX2                !
 ! A19   A(3,4,5)              113.332          estimate D2E/DX2                !
 ! A20   A(3,4,16)             110.1454         estimate D2E/DX2                !
 ! A21   A(3,4,17)             109.3073         estimate D2E/DX2                !
 ! A22   A(5,4,16)             109.0146         estimate D2E/DX2                !
 ! A23   A(5,4,17)             106.3159         estimate D2E/DX2                !
 ! A24   A(16,4,17)            108.5631         estimate D2E/DX2                !
 ! A25   A(4,5,18)             111.0043         estimate D2E/DX2                !
 ! A26   A(4,5,19)             110.3849         estimate D2E/DX2                !
 ! A27   A(4,5,20)             109.3684         estimate D2E/DX2                !
 ! A28   A(18,5,19)            110.0522         estimate D2E/DX2                !
 ! A29   A(18,5,20)            107.3544         estimate D2E/DX2                !
 ! A30   A(19,5,20)            108.5935         estimate D2E/DX2                !
 ! A31   A(3,6,7)              118.3766         estimate D2E/DX2                !
 ! A32   A(6,7,8)              116.9689         estimate D2E/DX2                !
 ! A33   A(6,7,9)              106.1808         estimate D2E/DX2                !
 ! A34   A(6,7,21)             110.0335         estimate D2E/DX2                !
 ! A35   A(8,7,9)              107.902          estimate D2E/DX2                !
 ! A36   A(8,7,21)             108.6075         estimate D2E/DX2                !
 ! A37   A(9,7,21)             106.641          estimate D2E/DX2                !
 ! A38   A(7,8,22)             110.8901         estimate D2E/DX2                !
 ! A39   A(7,8,23)             112.0978         estimate D2E/DX2                !
 ! A40   A(7,8,24)             109.7351         estimate D2E/DX2                !
 ! A41   A(22,8,23)            110.3601         estimate D2E/DX2                !
 ! A42   A(22,8,24)            108.8211         estimate D2E/DX2                !
 ! A43   A(23,8,24)            104.7167         estimate D2E/DX2                !
 ! A44   A(7,9,25)             110.265          estimate D2E/DX2                !
 ! A45   A(7,9,26)             110.9315         estimate D2E/DX2                !
 ! A46   A(7,9,27)             110.0504         estimate D2E/DX2                !
 ! A47   A(25,9,26)            108.8822         estimate D2E/DX2                !
 ! A48   A(25,9,27)            108.4629         estimate D2E/DX2                !
 ! A49   A(26,9,27)            108.1827         estimate D2E/DX2                !
 ! D1    D(10,1,2,3)           -57.8366         estimate D2E/DX2                !
 ! D2    D(10,1,2,13)           61.9676         estimate D2E/DX2                !
 ! D3    D(10,1,2,14)          178.6333         estimate D2E/DX2                !
 ! D4    D(11,1,2,3)          -177.013          estimate D2E/DX2                !
 ! D5    D(11,1,2,13)          -57.2089         estimate D2E/DX2                !
 ! D6    D(11,1,2,14)           59.4569         estimate D2E/DX2                !
 ! D7    D(12,1,2,3)            64.3244         estimate D2E/DX2                !
 ! D8    D(12,1,2,13)         -175.8714         estimate D2E/DX2                !
 ! D9    D(12,1,2,14)          -59.2057         estimate D2E/DX2                !
 ! D10   D(1,2,3,4)            -63.1568         estimate D2E/DX2                !
 ! D11   D(1,2,3,6)            176.0727         estimate D2E/DX2                !
 ! D12   D(1,2,3,15)            54.4913         estimate D2E/DX2                !
 ! D13   D(13,2,3,4)           177.4297         estimate D2E/DX2                !
 ! D14   D(13,2,3,6)            56.6592         estimate D2E/DX2                !
 ! D15   D(13,2,3,15)          -64.9222         estimate D2E/DX2                !
 ! D16   D(14,2,3,4)            60.0635         estimate D2E/DX2                !
 ! D17   D(14,2,3,6)           -60.707          estimate D2E/DX2                !
 ! D18   D(14,2,3,15)          177.7116         estimate D2E/DX2                !
 ! D19   D(2,3,4,5)            178.2423         estimate D2E/DX2                !
 ! D20   D(2,3,4,16)           -59.3338         estimate D2E/DX2                !
 ! D21   D(2,3,4,17)            59.8637         estimate D2E/DX2                !
 ! D22   D(6,3,4,5)            -63.8791         estimate D2E/DX2                !
 ! D23   D(6,3,4,16)            58.5448         estimate D2E/DX2                !
 ! D24   D(6,3,4,17)           177.7423         estimate D2E/DX2                !
 ! D25   D(15,3,4,5)            62.3407         estimate D2E/DX2                !
 ! D26   D(15,3,4,16)         -175.2354         estimate D2E/DX2                !
 ! D27   D(15,3,4,17)          -56.0379         estimate D2E/DX2                !
 ! D28   D(2,3,6,7)           -137.2921         estimate D2E/DX2                !
 ! D29   D(4,3,6,7)            101.4127         estimate D2E/DX2                !
 ! D30   D(15,3,6,7)           -21.4908         estimate D2E/DX2                !
 ! D31   D(3,4,5,18)            65.8185         estimate D2E/DX2                !
 ! D32   D(3,4,5,19)           -56.4911         estimate D2E/DX2                !
 ! D33   D(3,4,5,20)          -175.9099         estimate D2E/DX2                !
 ! D34   D(16,4,5,18)          -57.231          estimate D2E/DX2                !
 ! D35   D(16,4,5,19)         -179.5406         estimate D2E/DX2                !
 ! D36   D(16,4,5,20)           61.0406         estimate D2E/DX2                !
 ! D37   D(17,4,5,18)         -174.0856         estimate D2E/DX2                !
 ! D38   D(17,4,5,19)           63.6049         estimate D2E/DX2                !
 ! D39   D(17,4,5,20)          -55.814          estimate D2E/DX2                !
 ! D40   D(3,6,7,8)             39.5574         estimate D2E/DX2                !
 ! D41   D(3,6,7,9)            160.0063         estimate D2E/DX2                !
 ! D42   D(3,6,7,21)           -84.9572         estimate D2E/DX2                !
 ! D43   D(6,7,8,22)            53.3736         estimate D2E/DX2                !
 ! D44   D(6,7,8,23)           -70.4669         estimate D2E/DX2                !
 ! D45   D(6,7,8,24)           173.6241         estimate D2E/DX2                !
 ! D46   D(9,7,8,22)           -66.1612         estimate D2E/DX2                !
 ! D47   D(9,7,8,23)           169.9983         estimate D2E/DX2                !
 ! D48   D(9,7,8,24)            54.0893         estimate D2E/DX2                !
 ! D49   D(21,7,8,22)          178.6056         estimate D2E/DX2                !
 ! D50   D(21,7,8,23)           54.7651         estimate D2E/DX2                !
 ! D51   D(21,7,8,24)          -61.1439         estimate D2E/DX2                !
 ! D52   D(6,7,9,25)           -63.1478         estimate D2E/DX2                !
 ! D53   D(6,7,9,26)           176.1501         estimate D2E/DX2                !
 ! D54   D(6,7,9,27)            56.4639         estimate D2E/DX2                !
 ! D55   D(8,7,9,25)            63.0071         estimate D2E/DX2                !
 ! D56   D(8,7,9,26)           -57.695          estimate D2E/DX2                !
 ! D57   D(8,7,9,27)          -177.3811         estimate D2E/DX2                !
 ! D58   D(21,7,9,25)          179.5283         estimate D2E/DX2                !
 ! D59   D(21,7,9,26)           58.8262         estimate D2E/DX2                !
 ! D60   D(21,7,9,27)          -60.86           estimate D2E/DX2                !
 --------------------------------------------------------------------------------
 Trust Radius=3.00D-01 FncErr=1.00D-07 GrdErr=1.00D-06 EigMax=2.50D+02 EigMin=1.00D-04
 Number of steps in this run=    145 maximum allowed number of steps=    162.
 GradGradGradGradGradGradGradGradGradGradGradGradGradGradGradGradGradGrad

                          Input orientation:                          
 ---------------------------------------------------------------------
 Center     Atomic      Atomic             Coordinates (Angstroms)
 Number     Number       Type             X           Y           Z
 ---------------------------------------------------------------------
      1          6           0       -4.192080    3.154360    0.551470
      2          6           0       -5.004920    2.049430   -0.126530
      3          6           0       -4.491730    0.618350    0.142200
      4          6           0       -3.068200    0.407160   -0.423370
      5          6           0       -2.505880   -0.983390   -0.141390
      6          8           0       -5.421360   -0.255270   -0.487680
      7          6           0       -5.831800   -1.430200    0.213950
      8          6           0       -6.072840   -1.290510    1.733550
      9          6           0       -7.146600   -1.875610   -0.432180
     10          1           0       -4.170360    2.997100    1.650460
     11          1           0       -4.668130    4.136130    0.344200
     12          1           0       -3.156020    3.198230    0.161070
     13          1           0       -6.045060    2.119370    0.261560
     14          1           0       -5.035480    2.238300   -1.222320
     15          1           0       -4.449280    0.520460    1.239080
     16          1           0       -3.061990    0.584640   -1.520580
     17          1           0       -2.373100    1.127190    0.054720
     18          1           0       -3.084530   -1.760790   -0.674900
     19          1           0       -2.509360   -1.188160    0.950850
     20          1           0       -1.459530   -1.038890   -0.508660
     21          1           0       -5.102650   -2.247160    0.045290
     22          1           0       -6.781280   -0.462860    1.947590
     23          1           0       -5.127740   -1.143820    2.293930
     24          1           0       -6.495170   -2.236810    2.135070
     25          1           0       -7.928520   -1.097800   -0.290010
     26          1           0       -7.503670   -2.829770    0.011430
     27          1           0       -7.001140   -2.033110   -1.522130
 ---------------------------------------------------------------------
                    Distance matrix (angstroms):
                    1          2          3          4          5
     1  C    0.000000
     2  C    1.530119   0.000000
     3  C    2.586240   1.543881   0.000000
     4  C    3.124184   2.556570   1.546256   0.000000
     5  C    4.521537   3.929812   2.567021   1.526219   0.000000
     6  O    3.770483   2.369703   1.422734   2.445467   3.024913
     7  C    4.880655   3.592698   2.448978   3.379283   3.374559
     8  C    4.969048   3.969326   2.945514   4.069674   4.041402
     9  C    5.915856   4.481758   3.687558   4.673806   4.734649
    10  H    1.110397   2.179968   2.834886   3.496186   4.671779
    11  H    1.110611   2.165486   3.527988   4.129668   5.578585
    12  H    1.108042   2.195652   2.905212   2.852955   4.242654
    13  H    2.142145   1.112383   2.163364   3.501783   4.723906
    14  H    2.167215   1.112368   2.186737   2.803852   4.236339
    15  H    2.734299   2.124000   1.102057   2.164246   2.818522
    16  H    3.489120   2.804276   2.193201   1.111489   2.161051
    17  H    2.768550   2.794612   2.180634   1.109134   2.123826
    18  H    5.185494   4.301905   2.882390   2.182554   1.106264
    19  H    4.674241   4.227358   2.801283   2.178492   1.111275
    20  H    5.116058   4.717365   3.516291   2.164753   1.110322
    21  H    5.501070   4.301135   2.931512   3.376987   2.893990
    22  H    4.662337   3.710664   3.109741   4.490585   4.786840
    23  H    4.731382   4.008810   2.853015   3.745793   3.581993
    24  H    6.072621   5.070260   4.017119   5.027953   4.761068
    25  H    5.722756   4.298746   3.865683   5.089735   5.425883
    26  H    6.860618   5.483555   4.580220   5.508190   5.330139
    27  H    6.253038   4.753917   4.012153   4.757122   4.818269
                    6          7          8          9         10
     6  O    0.000000
     7  C    1.428708   0.000000
     8  C    2.535747   1.544926   0.000000
     9  C    2.367496   1.531200   2.487105   0.000000
    10  H    4.088344   4.942158   4.691475   6.077721   0.000000
    11  H    4.532524   5.688156   5.775113   6.548786   1.803186
    12  H    4.180826   5.346490   5.579365   6.482324   1.813180
    13  H    2.566959   3.556289   3.714136   4.201729   2.492780
    14  H    2.628020   4.019315   4.718663   4.690992   3.094685
    15  H    2.128003   2.601409   2.481947   3.976153   2.526020
    16  H    2.709051   3.839274   4.813602   4.890959   4.135691
    17  H    3.390764   4.304440   4.727771   5.660405   3.045175
    18  H    2.786111   2.906344   3.866755   4.070935   5.405908
    19  H    3.379260   3.411776   3.649861   4.887674   4.556838
    20  H    4.038638   4.448824   5.135508   5.748801   5.319738
    21  H    2.086446   1.107939   2.169486   2.131609   5.563093
    22  H    2.796965   2.200629   1.110272   2.791528   4.344711
    23  H    2.934806   2.214505   1.108493   3.470301   4.298587
    24  H    3.458090   2.186637   1.111335   2.673125   5.747469
    25  H    2.652316   2.181903   2.752359   1.112025   5.887053
    26  H    3.348608   2.189740   2.717038   1.111175   6.910122
    27  H    2.593551   2.178263   3.465927   1.110836   6.586475
                   11         12         13         14         15
    11  H    0.000000
    12  H    1.788762   0.000000
    13  H    2.443376   3.085545   0.000000
    14  H    2.488110   2.523411   1.798693   0.000000
    15  H    3.731190   3.163081   2.461417   3.058283   0.000000
    16  H    4.320899   3.109283   3.798701   2.591952   3.089404
    17  H    3.795350   2.216637   3.809264   3.154943   2.466040
    18  H    6.190317   5.029497   4.969642   4.483146   3.275662
    19  H    5.777229   4.503592   4.890404   4.779600   2.601105
    20  H    6.148440   4.613004   5.620937   4.902724   3.797996
    21  H    6.405041   5.784034   4.472303   4.661620   3.084112
    22  H    5.309140   5.453232   3.170588   4.515796   2.628142
    23  H    5.647173   5.223999   3.952267   4.879678   2.083949
    24  H    6.867289   6.677294   4.763291   5.781814   3.548380
    25  H    6.198902   6.437088   3.768532   4.513141   4.130616
    26  H    7.528266   7.433790   5.165665   5.770566   4.696857
    27  H    6.854608   6.707088   4.619386   4.711544   4.544996
                   16         17         18         19         20
    16  H    0.000000
    17  H    1.802914   0.000000
    18  H    2.493336   3.062500   0.000000
    19  H    3.091308   2.486456   1.817082   0.000000
    20  H    2.495538   2.417418   1.785889   1.804049   0.000000
    21  H    3.825615   4.340135   2.197280   2.943921   3.878028
    22  H    5.192165   5.054035   4.714662   4.446218   5.889482
    23  H    4.669623   4.214213   3.656407   2.943084   4.617498
    24  H    5.754223   5.712776   4.444659   4.288208   5.812228
    25  H    5.294150   5.994340   4.904277   5.560143   6.472952
    26  H    5.808078   6.479364   4.598105   5.340461   6.325296
    27  H    4.729643   5.821744   4.016440   5.196697   5.720580
                   21         22         23         24         25
    21  H    0.000000
    22  H    3.101656   0.000000
    23  H    2.504869   1.821497   0.000000
    24  H    2.511255   1.806628   1.757762   0.000000
    25  H    3.069038   2.593485   3.810936   3.038560   0.000000
    26  H    2.470927   3.142105   3.700983   2.424566   1.808614
    27  H    2.471212   3.814837   4.343130   3.697649   1.803596
                   26         27
    26  H    0.000000
    27  H    1.799725   0.000000
 Stoichiometry    C8H18O
 Framework group  C1[X(C8H18O)]
 Deg. of freedom    75
 Full point group                 C1      NOp   1
 Largest Abelian subgroup         C1      NOp   1
 Largest concise Abelian subgroup C1      NOp   1
                         Standard orientation:                         
 ---------------------------------------------------------------------
 Center     Atomic      Atomic             Coordinates (Angstroms)
 Number     Number       Type             X           Y           Z
 ---------------------------------------------------------------------
      1          6           0       -2.908981   -1.326127    0.320334
      2          6           0       -1.566999   -1.233857   -0.408936
      3          6           0       -0.683384   -0.043187    0.021295
      4          6           0       -1.354823    1.311647   -0.301976
      5          6           0       -0.532047    2.516305    0.146557
      6          8           0        0.539093   -0.185309   -0.692514
      7          6           0        1.763873    0.047202    0.005381
      8          6           0        1.852101   -0.471903    1.457808
      9          6           0        2.858084   -0.647384   -0.809986
     10          1           0       -2.747310   -1.395843    1.416684
     11          1           0       -3.444686   -2.238742   -0.016727
     12          1           0       -3.558046   -0.457026    0.094206
     13          1           0       -1.008576   -2.171257   -0.192505
     14          1           0       -1.749244   -1.189914   -1.505392
     15          1           0       -0.582207   -0.130046    1.115256
     16          1           0       -1.549017    1.391865   -1.393425
     17          1           0       -2.323126    1.378373    0.234786
     18          1           0        0.413675    2.584927   -0.423286
     19          1           0       -0.317358    2.454761    1.235158
     20          1           0       -1.104967    3.447027   -0.049238
     21          1           0        2.003542    1.128901    0.001387
     22          1           0        1.593665   -1.550458    1.509136
     23          1           0        1.211164    0.111567    2.148837
     24          1           0        2.884601   -0.331834    1.844317
     25          1           0        2.679672   -1.744646   -0.837999
     26          1           0        3.861152   -0.457238   -0.371342
     27          1           0        2.857382   -0.264128   -1.852613
 ---------------------------------------------------------------------
 Rotational constants (GHZ):           1.9205503           0.9989714           0.8023826
 Standard basis: 6-31G(2df,p) (6D, 7F)
 There are   369 symmetry adapted cartesian basis functions of A   symmetry.
 There are   342 symmetry adapted basis functions of A   symmetry.
   342 basis functions,   522 primitive gaussians,   369 cartesian basis functions
    37 alpha electrons       37 beta electrons
       nuclear repulsion energy       501.7346625719 Hartrees.
 NAtoms=   27 NActive=   27 NUniq=   27 SFac= 1.00D+00 NAtFMM=   60 NAOKFM=F Big=F
 Integral buffers will be    131072 words long.
 Raffenetti 2 integral format.
 Two-electron integral symmetry is turned on.
 One-electron integrals computed using PRISM.
 PrsmSu:  requested number of processors reduced to:  13 ShMem   1 Linda.
 NBasis=   342 RedAO= T EigKep=  7.35D-04  NBF=   342
 NBsUse=   342 1.00D-06 EigRej= -1.00D+00 NBFU=   342
 ExpMin= 1.61D-01 ExpMax= 5.48D+03 ExpMxC= 8.25D+02 IAcc=3 IRadAn=         5 AccDes= 0.00D+00
 Harris functional with IExCor=  402 and IRadAn=       5 diagonalized for initial guess.
 HarFok:  IExCor=  402 AccDes= 0.00D+00 IRadAn=         5 IDoV= 1 UseB2=F ITyADJ=14
 ICtDFT=  3500011 ScaDFX=  1.000000  1.000000  1.000000  1.000000
 FoFCou: FMM=F IPFlag=           0 FMFlag=      100000 FMFlg1=           0
         NFxFlg=           0 DoJE=T BraDBF=F KetDBF=T FulRan=T
         wScrn=  0.000000 ICntrl=       500 IOpCl=  0 I1Cent=   200000004 NGrid=           0
         NMat0=    1 NMatS0=      1 NMatT0=    0 NMatD0=    1 NMtDS0=    0 NMtDT0=    0
 Petite list used in FoFCou.
 Requested convergence on RMS density matrix=1.00D-08 within 128 cycles.
 Requested convergence on MAX density matrix=1.00D-06.
 Requested convergence on             energy=1.00D-06.
 No special actions if energy rises.
 Integral accuracy reduced to 1.0D-05 until final iterations.
 Initial convergence to 1.0D-05 achieved.  Increase integral accuracy.
 SCF Done:  E(RB3LYP) =  -390.943460326     A.U. after   12 cycles
            NFock= 12  Conv=0.46D-08     -V/T= 2.0094

 **********************************************************************

            Population analysis using the SCF density.

 **********************************************************************

 Orbital symmetries:
       Occupied  (A) (A) (A) (A) (A) (A) (A) (A) (A) (A) (A) (A)
                 (A) (A) (A) (A) (A) (A) (A) (A) (A) (A) (A) (A)
                 (A) (A) (A) (A) (A) (A) (A) (A) (A) (A) (A) (A)
                 (A)
       Virtual   (A) (A) (A) (A) (A) (A) (A) (A) (A) (A) (A) (A)
                 (A) (A) (A) (A) (A) (A) (A) (A) (A) (A) (A) (A)
                 (A) (A) (A) (A) (A) (A) (A) (A) (A) (A) (A) (A)
                 (A) (A) (A) (A) (A) (A) (A) (A) (A) (A) (A) (A)
                 (A) (A) (A) (A) (A) (A) (A) (A) (A) (A) (A) (A)
                 (A) (A) (A) (A) (A) (A) (A) (A) (A) (A) (A) (A)
                 (A) (A) (A) (A) (A) (A) (A) (A) (A) (A) (A) (A)
                 (A) (A) (A) (A) (A) (A) (A) (A) (A) (A) (A) (A)
                 (A) (A) (A) (A) (A) (A) (A) (A) (A) (A) (A) (A)
                 (A) (A) (A) (A) (A) (A) (A) (A) (A) (A) (A) (A)
                 (A) (A) (A) (A) (A) (A) (A) (A) (A) (A) (A) (A)
                 (A) (A) (A) (A) (A) (A) (A) (A) (A) (A) (A) (A)
                 (A) (A) (A) (A) (A) (A) (A) (A) (A) (A) (A) (A)
                 (A) (A) (A) (A) (A) (A) (A) (A) (A) (A) (A) (A)
                 (A) (A) (A) (A) (A) (A) (A) (A) (A) (A) (A) (A)
                 (A) (A) (A) (A) (A) (A) (A) (A) (A) (A) (A) (A)
                 (A) (A) (A) (A) (A) (A) (A) (A) (A) (A) (A) (A)
                 (A) (A) (A) (A) (A) (A) (A) (A) (A) (A) (A) (A)
                 (A) (A) (A) (A) (A) (A) (A) (A) (A) (A) (A) (A)
                 (A) (A) (A) (A) (A) (A) (A) (A) (A) (A) (A) (A)
                 (A) (A) (A) (A) (A) (A) (A) (A) (A) (A) (A) (A)
                 (A) (A) (A) (A) (A) (A) (A) (A) (A) (A) (A) (A)
                 (A) (A) (A) (A) (A) (A) (A) (A) (A) (A) (A) (A)
                 (A) (A) (A) (A) (A) (A) (A) (A) (A) (A) (A) (A)
                 (A) (A) (A) (A) (A) (A) (A) (A) (A) (A) (A) (A)
                 (A) (A) (A) (A) (A)
 The electronic state is 1-A.
 Alpha  occ. eigenvalues --  -19.13019 -10.23054 -10.22292 -10.18019 -10.17528
 Alpha  occ. eigenvalues --  -10.17501 -10.17380 -10.17337 -10.17160  -1.01858
 Alpha  occ. eigenvalues --   -0.79818  -0.75833  -0.74398  -0.68295  -0.66094
 Alpha  occ. eigenvalues --   -0.60182  -0.57580  -0.55042  -0.50208  -0.45574
 Alpha  occ. eigenvalues --   -0.44544  -0.43607  -0.43028  -0.41965  -0.39103
 Alpha  occ. eigenvalues --   -0.38684  -0.38126  -0.36652  -0.36016  -0.35054
 Alpha  occ. eigenvalues --   -0.34532  -0.34246  -0.33346  -0.31687  -0.31533
 Alpha  occ. eigenvalues --   -0.29380  -0.24067
 Alpha virt. eigenvalues --    0.07760   0.09377   0.10495   0.11404   0.12204
 Alpha virt. eigenvalues --    0.13482   0.14195   0.15466   0.15971   0.16415
 Alpha virt. eigenvalues --    0.16841   0.17462   0.18139   0.18537   0.19005
 Alpha virt. eigenvalues --    0.19860   0.20739   0.21792   0.22604   0.22758
 Alpha virt. eigenvalues --    0.24573   0.25048   0.25979   0.26395   0.27020
 Alpha virt. eigenvalues --    0.30728   0.44651   0.44960   0.46593   0.47469
 Alpha virt. eigenvalues --    0.48017   0.49932   0.51333   0.53004   0.53371
 Alpha virt. eigenvalues --    0.53736   0.55086   0.56045   0.57554   0.58356
 Alpha virt. eigenvalues --    0.59439   0.59780   0.61557   0.62008   0.65172
 Alpha virt. eigenvalues --    0.66573   0.69441   0.69679   0.70869   0.72153
 Alpha virt. eigenvalues --    0.72773   0.73520   0.73894   0.74518   0.74632
 Alpha virt. eigenvalues --    0.74966   0.75725   0.77229   0.77299   0.77902
 Alpha virt. eigenvalues --    0.78922   0.80152   0.81723   0.82417   0.83547
 Alpha virt. eigenvalues --    0.86186   0.86946   0.87239   0.87854   0.89251
 Alpha virt. eigenvalues --    0.91123   0.92271   0.94609   0.97620   0.98537
 Alpha virt. eigenvalues --    1.05427   1.08657   1.10761   1.12780   1.14779
 Alpha virt. eigenvalues --    1.15094   1.18817   1.20832   1.22745   1.24826
 Alpha virt. eigenvalues --    1.26748   1.29914   1.33000   1.35309   1.36908
 Alpha virt. eigenvalues --    1.39239   1.40356   1.42386   1.44287   1.45832
 Alpha virt. eigenvalues --    1.47976   1.49492   1.49964   1.52371   1.53905
 Alpha virt. eigenvalues --    1.55600   1.56663   1.57990   1.59117   1.61607
 Alpha virt. eigenvalues --    1.63809   1.65330   1.66633   1.68920   1.72566
 Alpha virt. eigenvalues --    1.73475   1.75773   1.77594   1.77853   1.81565
 Alpha virt. eigenvalues --    1.83589   1.83935   1.86906   1.88492   1.90332
 Alpha virt. eigenvalues --    1.93461   1.94908   1.95401   1.95728   1.96300
 Alpha virt. eigenvalues --    1.97439   1.98899   2.04351   2.15184   2.17636
 Alpha virt. eigenvalues --    2.18537   2.22075   2.23315   2.25321   2.26525
 Alpha virt. eigenvalues --    2.27310   2.29763   2.32632   2.35490   2.36931
 Alpha virt. eigenvalues --    2.37916   2.40395   2.42710   2.43860   2.48377
 Alpha virt. eigenvalues --    2.51789   2.54173   2.56382   2.62565   2.65257
 Alpha virt. eigenvalues --    2.66907   2.69998   2.71251   2.73320   2.74347
 Alpha virt. eigenvalues --    2.75713   2.75828   2.77173   2.78718   2.80422
 Alpha virt. eigenvalues --    2.81031   2.82182   2.82616   2.83278   2.85742
 Alpha virt. eigenvalues --    2.87039   2.88429   2.88897   2.89206   2.90456
 Alpha virt. eigenvalues --    2.91526   2.92546   2.94464   2.95597   2.96259
 Alpha virt. eigenvalues --    2.97857   2.99780   3.01414   3.04341   3.06306
 Alpha virt. eigenvalues --    3.09760   3.11042   3.12155   3.15588   3.17129
 Alpha virt. eigenvalues --    3.18770   3.22617   3.25203   3.28345   3.30821
 Alpha virt. eigenvalues --    3.34534   3.35676   3.37987   3.41122   3.43183
 Alpha virt. eigenvalues --    3.44555   3.46050   3.49054   3.49718   3.53032
 Alpha virt. eigenvalues --    3.55326   3.57562   3.58607   3.59079   3.60838
 Alpha virt. eigenvalues --    3.61385   3.63790   3.65286   3.67711   3.68271
 Alpha virt. eigenvalues --    3.71338   3.73112   3.74180   3.78780   3.81167
 Alpha virt. eigenvalues --    3.82291   3.85007   3.86912   3.90720   3.91994
 Alpha virt. eigenvalues --    3.93191   3.97573   3.99446   4.00987   4.03198
 Alpha virt. eigenvalues --    4.05720   4.18878   4.21827   4.31446   4.34260
 Alpha virt. eigenvalues --    4.36676   4.39124   4.41845   4.42165   4.43559
 Alpha virt. eigenvalues --    4.44125   4.45570   4.47191   4.47784   4.49147
 Alpha virt. eigenvalues --    4.49957   4.52438   4.54427   4.57145   4.57927
 Alpha virt. eigenvalues --    4.59699   4.60305   4.62511   4.63510   4.63852
 Alpha virt. eigenvalues --    4.66400   4.66996   4.67395   4.68447   4.69043
 Alpha virt. eigenvalues --    4.70477   4.72864   4.73938   4.74527   4.75987
 Alpha virt. eigenvalues --    4.77029   4.79300   4.81144   4.81487   4.82358
 Alpha virt. eigenvalues --    4.83180   4.84765   4.86141   4.88385   4.91081
 Alpha virt. eigenvalues --    4.91570   4.93156   4.99012   5.00200   5.04416
 Alpha virt. eigenvalues --    5.08313   5.15159   5.26536   5.27182   5.32299
 Alpha virt. eigenvalues --    5.35926   5.38369   5.40519   5.44391   5.47984
 Alpha virt. eigenvalues --    5.48972   5.58368   5.62240   5.74537   5.83398
 Alpha virt. eigenvalues --    5.97370   6.00582   6.18498   6.22763   6.33146
 Alpha virt. eigenvalues --    7.26299  11.14993  11.29756  11.48556  11.80270
 Alpha virt. eigenvalues --   11.96166  12.20240  12.26046  12.61132  13.77744
          Condensed to atoms (all electrons):
               1          2          3          4          5          6
     1  C    5.017821   0.349220  -0.034528   0.002770   0.000090   0.002627
     2  C    0.349220   4.879248   0.424679  -0.040916   0.003677  -0.029334
     3  C   -0.034528   0.424679   4.611460   0.389828  -0.026701   0.341606
     4  C    0.002770  -0.040916   0.389828   4.891134   0.393639  -0.036000
     5  C    0.000090   0.003677  -0.026701   0.393639   4.975970   0.000168
     6  O    0.002627  -0.029334   0.341606  -0.036000   0.000168   7.751343
     7  C   -0.000233   0.005046  -0.075744   0.001045  -0.000171   0.373965
     8  C   -0.000041   0.000951  -0.009379  -0.000952  -0.000171  -0.034547
     9  C    0.000001  -0.000396   0.003956  -0.000096   0.000035  -0.033709
    10  H    0.375006  -0.030259  -0.005056  -0.000521  -0.000028   0.000032
    11  H    0.369493  -0.018644   0.002631   0.000011  -0.000003  -0.000044
    12  H    0.376515  -0.028054  -0.004393   0.000520  -0.000183   0.000006
    13  H   -0.032347   0.350875  -0.024309   0.004905  -0.000196   0.003635
    14  H   -0.036842   0.362691  -0.025097  -0.009556   0.000052   0.000564
    15  H   -0.000634  -0.044925   0.346182  -0.061250  -0.005042  -0.029358
    16  H    0.000032  -0.005104  -0.022149   0.357953  -0.038035  -0.001023
    17  H   -0.002016  -0.002339  -0.021136   0.351157  -0.035424   0.002429
    18  H   -0.000008   0.000008  -0.004331  -0.027775   0.377243   0.004365
    19  H   -0.000013   0.000127  -0.004212  -0.030506   0.374485  -0.000204
    20  H    0.000006  -0.000137   0.002966  -0.022771   0.369052   0.000053
    21  H    0.000021  -0.000146   0.001026   0.002141  -0.000090  -0.038389
    22  H    0.000046  -0.000396   0.000275   0.000160  -0.000015   0.000035
    23  H   -0.000004  -0.000056  -0.002854  -0.000055   0.000228  -0.000704
    24  H   -0.000000  -0.000007   0.000312  -0.000013   0.000015   0.001826
    25  H    0.000004   0.000014  -0.000052   0.000011  -0.000003   0.002133
    26  H    0.000000   0.000004  -0.000173   0.000008   0.000001   0.002355
    27  H   -0.000000   0.000012   0.000035  -0.000025   0.000006   0.001259
               7          8          9         10         11         12
     1  C   -0.000233  -0.000041   0.000001   0.375006   0.369493   0.376515
     2  C    0.005046   0.000951  -0.000396  -0.030259  -0.018644  -0.028054
     3  C   -0.075744  -0.009379   0.003956  -0.005056   0.002631  -0.004393
     4  C    0.001045  -0.000952  -0.000096  -0.000521   0.000011   0.000520
     5  C   -0.000171  -0.000171   0.000035  -0.000028  -0.000003  -0.000183
     6  O    0.373965  -0.034547  -0.033709   0.000032  -0.000044   0.000006
     7  C    4.544779   0.367817   0.403733   0.000010   0.000001   0.000003
     8  C    0.367817   5.104114  -0.037535  -0.000020   0.000001  -0.000000
     9  C    0.403733  -0.037535   5.010343   0.000000  -0.000000   0.000000
    10  H    0.000010  -0.000020   0.000000   0.605707  -0.030201  -0.032321
    11  H    0.000001   0.000001  -0.000000  -0.030201   0.601660  -0.030375
    12  H    0.000003  -0.000000   0.000000  -0.032321  -0.030375   0.594078
    13  H    0.000889  -0.000422  -0.000090  -0.003955  -0.004240   0.005467
    14  H   -0.000160   0.000033   0.000019   0.005438  -0.002115  -0.003878
    15  H   -0.015777   0.010161   0.000522   0.006120  -0.000121  -0.000142
    16  H   -0.000292   0.000027   0.000001   0.000076  -0.000030   0.000560
    17  H   -0.000080   0.000036   0.000005   0.000770   0.000024   0.004281
    18  H   -0.000956   0.000250   0.000162   0.000000   0.000000   0.000002
    19  H   -0.000195  -0.000157   0.000018   0.000003  -0.000000   0.000013
    20  H    0.000030   0.000000  -0.000002  -0.000000  -0.000000   0.000010
    21  H    0.354482  -0.070937  -0.053466   0.000000  -0.000000  -0.000000
    22  H   -0.017973   0.360782  -0.006705   0.000004  -0.000001   0.000000
    23  H   -0.022439   0.367069   0.004879  -0.000008  -0.000000   0.000000
    24  H   -0.017945   0.362102  -0.004579   0.000000  -0.000000   0.000000
    25  H   -0.023130  -0.008514   0.364368   0.000000  -0.000000   0.000000
    26  H   -0.021574  -0.003281   0.360773   0.000000   0.000000  -0.000000
    27  H   -0.019891   0.005547   0.365454  -0.000000   0.000000   0.000000
              13         14         15         16         17         18
     1  C   -0.032347  -0.036842  -0.000634   0.000032  -0.002016  -0.000008
     2  C    0.350875   0.362691  -0.044925  -0.005104  -0.002339   0.000008
     3  C   -0.024309  -0.025097   0.346182  -0.022149  -0.021136  -0.004331
     4  C    0.004905  -0.009556  -0.061250   0.357953   0.351157  -0.027775
     5  C   -0.000196   0.000052  -0.005042  -0.038035  -0.035424   0.377243
     6  O    0.003635   0.000564  -0.029358  -0.001023   0.002429   0.004365
     7  C    0.000889  -0.000160  -0.015777  -0.000292  -0.000080  -0.000956
     8  C   -0.000422   0.000033   0.010161   0.000027   0.000036   0.000250
     9  C   -0.000090   0.000019   0.000522   0.000001   0.000005   0.000162
    10  H   -0.003955   0.005438   0.006120   0.000076   0.000770   0.000000
    11  H   -0.004240  -0.002115  -0.000121  -0.000030   0.000024   0.000000
    12  H    0.005467  -0.003878  -0.000142   0.000560   0.004281   0.000002
    13  H    0.648764  -0.035634  -0.004953  -0.000040  -0.000057  -0.000004
    14  H   -0.035634   0.633902   0.006784   0.005582   0.000267   0.000009
    15  H   -0.004953   0.006784   0.705279   0.006411   0.000334   0.000346
    16  H   -0.000040   0.005582   0.006411   0.634945  -0.035253  -0.004041
    17  H   -0.000057   0.000267   0.000334  -0.035253   0.645753   0.005618
    18  H   -0.000004   0.000009   0.000346  -0.004041   0.005618   0.582989
    19  H    0.000002   0.000011   0.004842   0.005484  -0.003345  -0.032237
    20  H    0.000003  -0.000001  -0.000093  -0.001958  -0.004493  -0.030496
    21  H    0.000057   0.000001  -0.000338   0.000026  -0.000091   0.001538
    22  H    0.001056  -0.000005   0.000728   0.000000  -0.000005  -0.000001
    23  H   -0.000006  -0.000003   0.002991  -0.000004   0.000011  -0.000020
    24  H   -0.000003   0.000000  -0.000432   0.000000  -0.000001  -0.000016
    25  H    0.000200   0.000001  -0.000010   0.000000  -0.000000  -0.000003
    26  H    0.000003   0.000000   0.000005   0.000000  -0.000000  -0.000015
    27  H   -0.000006   0.000007   0.000023   0.000008   0.000000   0.000045
              19         20         21         22         23         24
     1  C   -0.000013   0.000006   0.000021   0.000046  -0.000004  -0.000000
     2  C    0.000127  -0.000137  -0.000146  -0.000396  -0.000056  -0.000007
     3  C   -0.004212   0.002966   0.001026   0.000275  -0.002854   0.000312
     4  C   -0.030506  -0.022771   0.002141   0.000160  -0.000055  -0.000013
     5  C    0.374485   0.369052  -0.000090  -0.000015   0.000228   0.000015
     6  O   -0.000204   0.000053  -0.038389   0.000035  -0.000704   0.001826
     7  C   -0.000195   0.000030   0.354482  -0.017973  -0.022439  -0.017945
     8  C   -0.000157   0.000000  -0.070937   0.360782   0.367069   0.362102
     9  C    0.000018  -0.000002  -0.053466  -0.006705   0.004879  -0.004579
    10  H    0.000003  -0.000000   0.000000   0.000004  -0.000008   0.000000
    11  H   -0.000000  -0.000000  -0.000000  -0.000001  -0.000000  -0.000000
    12  H    0.000013   0.000010  -0.000000   0.000000   0.000000   0.000000
    13  H    0.000002   0.000003   0.000057   0.001056  -0.000006  -0.000003
    14  H    0.000011  -0.000001   0.000001  -0.000005  -0.000003   0.000000
    15  H    0.004842  -0.000093  -0.000338   0.000728   0.002991  -0.000432
    16  H    0.005484  -0.001958   0.000026   0.000000  -0.000004   0.000000
    17  H   -0.003345  -0.004493  -0.000091  -0.000005   0.000011  -0.000001
    18  H   -0.032237  -0.030496   0.001538  -0.000001  -0.000020  -0.000016
    19  H    0.608921  -0.030653   0.000291  -0.000007   0.001299  -0.000003
    20  H   -0.030653   0.611914   0.000001   0.000000  -0.000011   0.000000
    21  H    0.000291   0.000001   0.728393   0.006103  -0.003958   0.001236
    22  H   -0.000007   0.000000   0.006103   0.588872  -0.031881  -0.027079
    23  H    0.001299  -0.000011  -0.003958  -0.031881   0.598425  -0.030853
    24  H   -0.000003   0.000000   0.001236  -0.027079  -0.030853   0.595966
    25  H   -0.000000   0.000000   0.006534   0.005176  -0.000047   0.000340
    26  H   -0.000000   0.000000   0.001745   0.000386  -0.000053   0.002151
    27  H   -0.000000  -0.000000  -0.004480  -0.000099  -0.000217  -0.000008
              25         26         27
     1  C    0.000004   0.000000  -0.000000
     2  C    0.000014   0.000004   0.000012
     3  C   -0.000052  -0.000173   0.000035
     4  C    0.000011   0.000008  -0.000025
     5  C   -0.000003   0.000001   0.000006
     6  O    0.002133   0.002355   0.001259
     7  C   -0.023130  -0.021574  -0.019891
     8  C   -0.008514  -0.003281   0.005547
     9  C    0.364368   0.360773   0.365454
    10  H    0.000000   0.000000  -0.000000
    11  H   -0.000000   0.000000   0.000000
    12  H    0.000000  -0.000000   0.000000
    13  H    0.000200   0.000003  -0.000006
    14  H    0.000001   0.000000   0.000007
    15  H   -0.000010   0.000005   0.000023
    16  H    0.000000   0.000000   0.000008
    17  H   -0.000000  -0.000000   0.000000
    18  H   -0.000003  -0.000015   0.000045
    19  H   -0.000000  -0.000000  -0.000000
    20  H    0.000000   0.000000  -0.000000
    21  H    0.006534   0.001745  -0.004480
    22  H    0.005176   0.000386  -0.000099
    23  H   -0.000047  -0.000053  -0.000217
    24  H    0.000340   0.002151  -0.000008
    25  H    0.596246  -0.028138  -0.030201
    26  H   -0.028138   0.608517  -0.029559
    27  H   -0.030201  -0.029559   0.596107
 Mulliken charges:
               1
     1  C   -0.386985
     2  C   -0.175838
     3  C    0.135156
     4  C   -0.164845
     5  C   -0.388600
     6  O   -0.285092
     7  C    0.164761
     8  C   -0.412933
     9  C   -0.377690
    10  H    0.109203
    11  H    0.111954
    12  H    0.117891
    13  H    0.090408
    14  H    0.097930
    15  H    0.072347
    16  H    0.096826
    17  H    0.093556
    18  H    0.127328
    19  H    0.106036
    20  H    0.106581
    21  H    0.068300
    22  H    0.120545
    23  H    0.118269
    24  H    0.116991
    25  H    0.115071
    26  H    0.106847
    27  H    0.115982
 Sum of Mulliken charges =  -0.00000
 Mulliken charges with hydrogens summed into heavy atoms:
               1
     1  C   -0.047936
     2  C    0.012499
     3  C    0.207503
     4  C    0.025537
     5  C   -0.048655
     6  O   -0.285092
     7  C    0.233061
     8  C   -0.057129
     9  C   -0.039790
 Electronic spatial extent (au):  <R**2>=           1673.5662
 Charge=             -0.0000 electrons
 Dipole moment (field-independent basis, Debye):
    X=              0.0582    Y=              0.1977    Z=              1.0217  Tot=              1.0422
 Quadrupole moment (field-independent basis, Debye-Ang):
   XX=            -57.8680   YY=            -59.6228   ZZ=            -60.1895
   XY=             -0.0068   XZ=              1.2104   YZ=             -0.6398
 Traceless Quadrupole moment (field-independent basis, Debye-Ang):
   XX=              1.3587   YY=             -0.3960   ZZ=             -0.9627
   XY=             -0.0068   XZ=              1.2104   YZ=             -0.6398
 Octapole moment (field-independent basis, Debye-Ang**2):
  XXX=              9.8566  YYY=             -4.7205  ZZZ=             -3.2330  XYY=             -0.5982
  XXY=              1.8033  XXZ=             -1.4404  XZZ=             -0.0486  YZZ=              1.1778
  YYZ=             -2.1201  XYZ=             -1.1114
 Hexadecapole moment (field-independent basis, Debye-Ang**3):
 XXXX=          -1366.9447 YYYY=           -658.9608 ZZZZ=           -281.5393 XXXY=             -0.7498
 XXXZ=             14.6050 YYYX=             -3.7778 YYYZ=             -4.1758 ZZZX=             -2.2372
 ZZZY=              1.0377 XXYY=           -336.2700 XXZZ=           -275.2527 YYZZ=           -158.6977
 XXYZ=              1.7407 YYXZ=              1.1306 ZZXY=              1.8790
 N-N= 5.017346625719D+02 E-N=-1.910228569363D+03  KE= 3.873029943706D+02
 PrsmSu:  requested number of processors reduced to:  13 ShMem   1 Linda.
 Calling FoFJK, ICntrl=      2127 FMM=F ISym2X=0 I1Cent= 0 IOpClX= 0 NMat=1 NMatS=1 NMatT=0.
 ***** Axes restored to original set *****
 -------------------------------------------------------------------
 Center     Atomic                   Forces (Hartrees/Bohr)
 Number     Number              X              Y              Z
 -------------------------------------------------------------------
      1        6           0.001904498    0.006203621    0.000109500
      2        6          -0.006911667    0.002954911   -0.002553519
      3        6           0.008566621    0.018376001   -0.010594595
      4        6           0.002314042    0.001570730    0.001831688
      5        6           0.005959625   -0.006923943   -0.002211050
      6        8          -0.001578465   -0.005223745    0.015424884
      7        6          -0.010900821   -0.012591341    0.002177035
      8        6           0.007578931   -0.000289082    0.005671057
      9        6          -0.006199791   -0.001332699   -0.010211832
     10        1           0.002513676    0.003597570   -0.008786226
     11        1           0.005522406   -0.007739705    0.004230848
     12        1          -0.007656040    0.000648802    0.005821603
     13        1           0.007661917   -0.003376793   -0.007135228
     14        1          -0.001965423   -0.004041479    0.009248258
     15        1          -0.002358313   -0.006873354   -0.004030291
     16        1          -0.001726887    0.001635267    0.009738553
     17        1          -0.007408684   -0.001159607   -0.006144540
     18        1           0.004715879    0.004177575    0.006517081
     19        1           0.000660905   -0.001552784   -0.010381138
     20        1          -0.008288156   -0.001901114    0.005092005
     21        1           0.000082673    0.005152763    0.002946098
     22        1           0.007265583   -0.007033073   -0.000395356
     23        1          -0.009083423    0.002814501   -0.003402282
     24        1           0.001429104    0.009125277   -0.006721747
     25        1           0.007092175   -0.007840211   -0.001761295
     26        1           0.003726072    0.009403917   -0.004235694
     27        1          -0.002916437    0.002217996    0.009756183
 -------------------------------------------------------------------
 Cartesian Forces:  Max     0.018376001 RMS     0.006387526

 GradGradGradGradGradGradGradGradGradGradGradGradGradGradGradGradGradGrad
 Berny optimization.
 FormGI is forming the generalized inverse of G from B-inverse, IUseBI=4.
 Internal  Forces:  Max     0.015474071 RMS     0.004265917
 Search for a local minimum.
 Step number   1 out of a maximum of  145
 All quantities printed in internal units (Hartrees-Bohrs-Radians)
 Mixed Optimization -- RFO/linear search
 Second derivative matrix not updated -- first step.
 ITU=  0
     Eigenvalues ---    0.00230   0.00230   0.00230   0.00353   0.00368
     Eigenvalues ---    0.00419   0.01312   0.01391   0.03348   0.03503
     Eigenvalues ---    0.04449   0.04565   0.04799   0.04841   0.04877
     Eigenvalues ---    0.04916   0.05241   0.05485   0.05565   0.05569
     Eigenvalues ---    0.05639   0.05674   0.05788   0.05819   0.06879
     Eigenvalues ---    0.06974   0.08362   0.08563   0.12224   0.12384
     Eigenvalues ---    0.15868   0.16000   0.16000   0.16000   0.16000
     Eigenvalues ---    0.16000   0.16000   0.16000   0.16000   0.16000
     Eigenvalues ---    0.16000   0.16000   0.16000   0.16325   0.19691
     Eigenvalues ---    0.20334   0.22004   0.22008   0.25000   0.27972
     Eigenvalues ---    0.28087   0.28178   0.29313   0.29412   0.29775
     Eigenvalues ---    0.32349   0.32351   0.32387   0.32443   0.32459
     Eigenvalues ---    0.32465   0.32476   0.32512   0.32535   0.32558
     Eigenvalues ---    0.32566   0.32571   0.32692   0.32760   0.32808
     Eigenvalues ---    0.32819   0.32999   0.33456   0.41176   0.42051
 RFO step:  Lambda=-1.14169754D-02 EMin= 2.30000000D-03
 Linear search not attempted -- first point.
 Iteration  1 RMS(Cart)=  0.08921870 RMS(Int)=  0.00241217
 Iteration  2 RMS(Cart)=  0.00471088 RMS(Int)=  0.00025960
 Iteration  3 RMS(Cart)=  0.00000906 RMS(Int)=  0.00025955
 Iteration  4 RMS(Cart)=  0.00000000 RMS(Int)=  0.00025955
 Variable       Old X    -DE/DX   Delta X   Delta X   Delta X     New X
                                 (Linear)    (Quad)   (Total)
    R1        2.89151   0.00378   0.00000   0.01237   0.01237   2.90387
    R2        2.09835  -0.00916   0.00000  -0.02717  -0.02717   2.07117
    R3        2.09875  -0.01000   0.00000  -0.02969  -0.02969   2.06906
    R4        2.09390  -0.00918   0.00000  -0.02705  -0.02705   2.06684
    R5        2.91751  -0.00214   0.00000  -0.00730  -0.00730   2.91021
    R6        2.10210  -0.00987   0.00000  -0.02946  -0.02946   2.07264
    R7        2.10207  -0.00974   0.00000  -0.02909  -0.02909   2.07298
    R8        2.92200  -0.00453   0.00000  -0.01557  -0.01557   2.90643
    R9        2.68858   0.00163   0.00000   0.00378   0.00378   2.69236
   R10        2.08259  -0.00349   0.00000  -0.01009  -0.01009   2.07249
   R11        2.88414   0.00659   0.00000   0.02132   0.02132   2.90545
   R12        2.10041  -0.00936   0.00000  -0.02788  -0.02788   2.07253
   R13        2.09596  -0.00804   0.00000  -0.02378  -0.02378   2.07218
   R14        2.09054  -0.00855   0.00000  -0.02503  -0.02503   2.06550
   R15        2.10000  -0.00992   0.00000  -0.02951  -0.02951   2.07049
   R16        2.09821  -0.00940   0.00000  -0.02789  -0.02789   2.07032
   R17        2.69987  -0.00217   0.00000  -0.00514  -0.00514   2.69473
   R18        2.91949  -0.00547   0.00000  -0.01872  -0.01872   2.90076
   R19        2.89355   0.00055   0.00000   0.00180   0.00180   2.89535
   R20        2.09370  -0.00419   0.00000  -0.01235  -0.01235   2.08135
   R21        2.09811  -0.00995   0.00000  -0.02953  -0.02953   2.06858
   R22        2.09475  -0.00909   0.00000  -0.02682  -0.02682   2.06793
   R23        2.10012  -0.01074   0.00000  -0.03197  -0.03197   2.06815
   R24        2.10142  -0.01070   0.00000  -0.03190  -0.03190   2.06952
   R25        2.09982  -0.01096   0.00000  -0.03261  -0.03261   2.06721
   R26        2.09918  -0.01027   0.00000  -0.03051  -0.03051   2.06866
    A1        1.92482   0.00350   0.00000   0.01779   0.01768   1.94250
    A2        1.90493   0.00294   0.00000   0.01993   0.01971   1.92464
    A3        1.94893   0.00229   0.00000   0.01315   0.01302   1.96195
    A4        1.89472  -0.00317   0.00000  -0.01815  -0.01834   1.87639
    A5        1.91350  -0.00387   0.00000  -0.02767  -0.02769   1.88581
    A6        1.87553  -0.00195   0.00000  -0.00635  -0.00658   1.86895
    A7        1.99946   0.00123   0.00000   0.01074   0.01075   2.01020
    A8        1.87207   0.00243   0.00000   0.02922   0.02925   1.90132
    A9        1.90549   0.00135   0.00000   0.01642   0.01651   1.92200
   A10        1.88427  -0.00209   0.00000  -0.01628  -0.01667   1.86760
   A11        1.91557  -0.00176   0.00000  -0.01765  -0.01787   1.89770
   A12        1.88317  -0.00125   0.00000  -0.02417  -0.02475   1.85842
   A13        1.94868   0.00064   0.00000   0.01704   0.01676   1.96544
   A14        1.84931   0.00010   0.00000   0.00597   0.00597   1.85528
   A15        1.84251   0.00233   0.00000   0.03200   0.03187   1.87438
   A16        1.93451   0.00083   0.00000   0.00369   0.00343   1.93794
   A17        1.89279  -0.00026   0.00000   0.00048  -0.00034   1.89245
   A18        1.99464  -0.00352   0.00000  -0.05686  -0.05685   1.93780
   A19        1.97802   0.00432   0.00000   0.02528   0.02517   2.00318
   A20        1.92240  -0.00335   0.00000  -0.03289  -0.03319   1.88921
   A21        1.90777  -0.00289   0.00000  -0.01606  -0.01721   1.89057
   A22        1.90266   0.00031   0.00000   0.00910   0.00948   1.91214
   A23        1.85556   0.00223   0.00000   0.03843   0.03838   1.89395
   A24        1.89478  -0.00060   0.00000  -0.02355  -0.02443   1.87036
   A25        1.93739   0.00198   0.00000   0.01122   0.01108   1.94847
   A26        1.92658   0.00340   0.00000   0.01661   0.01651   1.94309
   A27        1.90884   0.00344   0.00000   0.02349   0.02324   1.93208
   A28        1.92077  -0.00381   0.00000  -0.02860  -0.02859   1.89218
   A29        1.87369  -0.00182   0.00000  -0.00434  -0.00461   1.86907
   A30        1.89531  -0.00339   0.00000  -0.01932  -0.01953   1.87579
   A31        2.06606   0.01547   0.00000   0.05919   0.05919   2.12525
   A32        2.04149  -0.00379   0.00000  -0.02655  -0.02647   2.01503
   A33        1.85320  -0.00454   0.00000  -0.02068  -0.02014   1.83306
   A34        1.92045   0.00179   0.00000  -0.00921  -0.00942   1.91103
   A35        1.88325   0.00940   0.00000   0.04916   0.04894   1.93218
   A36        1.89556  -0.00220   0.00000  -0.00827  -0.00952   1.88604
   A37        1.86124  -0.00020   0.00000   0.02156   0.02125   1.88249
   A38        1.93540   0.00134   0.00000   0.00070   0.00064   1.93604
   A39        1.95648   0.00327   0.00000   0.02330   0.02333   1.97980
   A40        1.91524  -0.00400   0.00000  -0.02056  -0.02062   1.89462
   A41        1.92615  -0.00328   0.00000  -0.02393  -0.02391   1.90224
   A42        1.89929   0.00017   0.00000  -0.00754  -0.00769   1.89160
   A43        1.82765   0.00241   0.00000   0.02835   0.02837   1.85603
   A44        1.92449   0.00061   0.00000   0.00219   0.00219   1.92668
   A45        1.93612  -0.00075   0.00000  -0.00394  -0.00394   1.93218
   A46        1.92074   0.00195   0.00000   0.01233   0.01232   1.93306
   A47        1.90035  -0.00018   0.00000  -0.00280  -0.00280   1.89756
   A48        1.89304  -0.00143   0.00000  -0.00920  -0.00921   1.88383
   A49        1.88814  -0.00026   0.00000   0.00109   0.00109   1.88923
    D1       -1.00944   0.00039   0.00000   0.01159   0.01159  -0.99785
    D2        1.08154   0.00023   0.00000   0.01830   0.01840   1.09994
    D3        3.11774   0.00077   0.00000   0.01427   0.01430   3.13204
    D4       -3.08946   0.00036   0.00000   0.01079   0.01075  -3.07871
    D5       -0.99848   0.00019   0.00000   0.01749   0.01756  -0.98092
    D6        1.03772   0.00074   0.00000   0.01346   0.01346   1.05118
    D7        1.12267  -0.00052   0.00000  -0.00222  -0.00232   1.12035
    D8       -3.06954  -0.00068   0.00000   0.00449   0.00449  -3.06504
    D9       -1.03333  -0.00014   0.00000   0.00046   0.00039  -1.03294
   D10       -1.10229   0.00023   0.00000  -0.00840  -0.00854  -1.11083
   D11        3.07305  -0.00121   0.00000  -0.02637  -0.02645   3.04659
   D12        0.95105   0.00163   0.00000   0.02009   0.02025   0.97130
   D13        3.09673  -0.00214   0.00000  -0.04067  -0.04058   3.05615
   D14        0.98889  -0.00358   0.00000  -0.05864  -0.05849   0.93040
   D15       -1.13311  -0.00074   0.00000  -0.01218  -0.01179  -1.14490
   D16        1.04831   0.00152   0.00000   0.00730   0.00698   1.05529
   D17       -1.05954   0.00008   0.00000  -0.01068  -0.01093  -1.07047
   D18        3.10165   0.00292   0.00000   0.03579   0.03577   3.13743
   D19        3.11091   0.00160   0.00000   0.03135   0.03130  -3.14097
   D20       -1.03557   0.00257   0.00000   0.03662   0.03623  -0.99934
   D21        1.04482  -0.00197   0.00000  -0.02207  -0.02170   1.02312
   D22       -1.11490   0.00268   0.00000   0.05214   0.05214  -1.06276
   D23        1.02180   0.00365   0.00000   0.05742   0.05706   1.07886
   D24        3.10219  -0.00089   0.00000  -0.00128  -0.00086   3.10133
   D25        1.08805  -0.00143   0.00000  -0.01741  -0.01743   1.07062
   D26       -3.05843  -0.00046   0.00000  -0.01214  -0.01251  -3.07094
   D27       -0.97805  -0.00500   0.00000  -0.07084  -0.07044  -1.04848
   D28       -2.39620   0.00129   0.00000   0.05194   0.05198  -2.34422
   D29        1.76999  -0.00001   0.00000   0.02552   0.02579   1.79578
   D30       -0.37508   0.00231   0.00000   0.06437   0.06406  -0.31103
   D31        1.14875  -0.00125   0.00000  -0.02249  -0.02279   1.12596
   D32       -0.98596  -0.00009   0.00000  -0.00527  -0.00544  -0.99139
   D33       -3.07021  -0.00015   0.00000  -0.00635  -0.00656  -3.07677
   D34       -0.99887  -0.00014   0.00000  -0.00427  -0.00440  -1.00327
   D35       -3.13357   0.00101   0.00000   0.01295   0.01295  -3.12062
   D36        1.06536   0.00096   0.00000   0.01186   0.01183   1.07719
   D37       -3.03837  -0.00079   0.00000  -0.00181  -0.00161  -3.03997
   D38        1.11011   0.00036   0.00000   0.01541   0.01575   1.12586
   D39       -0.97414   0.00031   0.00000   0.01432   0.01462  -0.95952
   D40        0.69041  -0.00128   0.00000   0.06965   0.06954   0.75995
   D41        2.79264   0.00497   0.00000   0.10044   0.10050   2.89314
   D42       -1.48278   0.00318   0.00000   0.11005   0.11009  -1.37269
   D43        0.93155   0.00059   0.00000   0.01273   0.01245   0.94400
   D44       -1.22988   0.00147   0.00000   0.02637   0.02614  -1.20374
   D45        3.03031  -0.00095   0.00000  -0.00960  -0.00978   3.02053
   D46       -1.15473   0.00179   0.00000   0.01940   0.01942  -1.13531
   D47        2.96703   0.00267   0.00000   0.03305   0.03312   3.00015
   D48        0.94404   0.00025   0.00000  -0.00292  -0.00281   0.94123
   D49        3.11726  -0.00178   0.00000  -0.02743  -0.02732   3.08994
   D50        0.95583  -0.00090   0.00000  -0.01378  -0.01363   0.94220
   D51       -1.06716  -0.00332   0.00000  -0.04976  -0.04955  -1.11671
   D52       -1.10214   0.00021   0.00000  -0.01531  -0.01534  -1.11748
   D53        3.07440   0.00052   0.00000  -0.01067  -0.01070   3.06370
   D54        0.98548   0.00006   0.00000  -0.01751  -0.01755   0.96794
   D55        1.09968  -0.00155   0.00000  -0.03076  -0.03110   1.06858
   D56       -1.00697  -0.00124   0.00000  -0.02613  -0.02646  -1.03343
   D57       -3.09588  -0.00170   0.00000  -0.03297  -0.03330  -3.12919
   D58        3.13336   0.00045   0.00000  -0.00503  -0.00467   3.12869
   D59        1.02671   0.00076   0.00000  -0.00039  -0.00002   1.02669
   D60       -1.06221   0.00030   0.00000  -0.00724  -0.00687  -1.06907
         Item               Value     Threshold  Converged?
 Maximum Force            0.015474     0.000450     NO 
 RMS     Force            0.004266     0.000300     NO 
 Maximum Displacement     0.322571     0.001800     NO 
 RMS     Displacement     0.089489     0.001200     NO 
 Predicted change in Energy=-6.325542D-03
 GradGradGradGradGradGradGradGradGradGradGradGradGradGradGradGradGradGrad

                          Input orientation:                          
 ---------------------------------------------------------------------
 Center     Atomic      Atomic             Coordinates (Angstroms)
 Number     Number       Type             X           Y           Z
 ---------------------------------------------------------------------
      1          6           0       -4.187572    3.168520    0.568300
      2          6           0       -4.998278    2.036570   -0.081915
      3          6           0       -4.454718    0.616775    0.163796
      4          6           0       -3.060398    0.403092   -0.449160
      5          6           0       -2.470037   -1.000098   -0.233670
      6          8           0       -5.405767   -0.279318   -0.403996
      7          6           0       -5.852911   -1.440140    0.293142
      8          6           0       -6.175689   -1.233524    1.779549
      9          6           0       -7.095579   -1.908400   -0.471057
     10          1           0       -4.105693    3.027701    1.652146
     11          1           0       -4.677586    4.132632    0.397474
     12          1           0       -3.176149    3.245219    0.159182
     13          1           0       -6.021909    2.060653    0.311223
     14          1           0       -5.076406    2.201541   -1.163596
     15          1           0       -4.381465    0.477023    1.249103
     16          1           0       -3.121566    0.614640   -1.523562
     17          1           0       -2.375424    1.139842   -0.012770
     18          1           0       -3.061366   -1.768108   -0.738821
     19          1           0       -2.415494   -1.250238    0.831656
     20          1           0       -1.453443   -1.058776   -0.637845
     21          1           0       -5.090798   -2.231546    0.215987
     22          1           0       -6.892923   -0.417615    1.914151
     23          1           0       -5.291698   -1.035460    2.393411
     24          1           0       -6.622023   -2.153308    2.170104
     25          1           0       -7.887706   -1.154659   -0.409830
     26          1           0       -7.472579   -2.848352   -0.057515
     27          1           0       -6.863242   -2.068096   -1.528818
 ---------------------------------------------------------------------
                    Distance matrix (angstroms):
                    1          2          3          4          5
     1  C    0.000000
     2  C    1.536664   0.000000
     3  C    2.597382   1.540016   0.000000
     4  C    3.154891   2.560956   1.538019   0.000000
     5  C    4.579352   3.954287   2.590601   1.537500   0.000000
     6  O    3.783774   2.373420   1.424733   2.443047   3.027713
     7  C    4.908035   3.599802   2.490496   3.427338   3.451812
     8  C    4.979731   3.942696   2.999334   4.165416   4.223670
     9  C    5.942380   4.484739   3.708597   4.650394   4.719852
    10  H    1.096018   2.187696   2.854745   3.520895   4.738654
    11  H    1.094901   2.173968   3.530656   4.152296   5.622859
    12  H    1.093726   2.199799   2.922923   2.908808   4.321533
    13  H    2.158298   1.096794   2.136026   3.477965   4.720265
    14  H    2.173600   1.096975   2.158691   2.794481   4.231833
    15  H    2.783028   2.141087   1.096717   2.152854   2.834442
    16  H    3.469086   2.760847   2.150459   1.096737   2.166955
    17  H    2.781557   2.772772   2.151334   1.096552   2.153391
    18  H    5.229456   4.319575   2.905824   2.190437   1.093018
    19  H    4.768128   4.278842   2.844329   2.188582   1.095657
    20  H    5.176899   4.738784   3.529554   2.180588   1.095565
    21  H    5.486407   4.279500   2.918948   3.392088   2.930366
    22  H    4.689414   3.687408   3.174673   4.576795   4.951196
    23  H    4.714189   3.956097   2.898552   3.889517   3.855461
    24  H    6.067469   5.026252   4.049177   5.106945   4.934268
    25  H    5.773873   4.317437   3.905436   5.072576   5.422735
    26  H    6.883725   5.475876   4.600388   5.494781   5.335963
    27  H    6.243337   4.734966   3.984277   4.661979   4.703007
                    6          7          8          9         10
     6  O    0.000000
     7  C    1.425989   0.000000
     8  C    2.504228   1.535018   0.000000
     9  C    2.348163   1.532153   2.523268   0.000000
    10  H    4.105398   4.986107   4.739109   6.149187   0.000000
    11  H    4.542897   5.696320   5.740216   6.564686   1.766956
    12  H    4.208412   5.397739   5.628674   6.505300   1.772091
    13  H    2.523220   3.504916   3.609880   4.185465   2.530837
    14  H    2.615364   3.998360   4.655125   4.631229   3.090829
    15  H    2.086620   2.598947   2.535070   4.001950   2.597009
    16  H    2.696324   3.870760   4.863529   4.823513   4.108100
    17  H    3.368983   4.340830   4.825690   5.637523   3.054470
    18  H    2.797288   2.994201   4.040665   4.045523   5.459591
    19  H    3.378054   3.484522   3.877866   4.902391   4.672338
    20  H    4.035232   4.513036   5.307912   5.708185   5.383102
    21  H    2.072385   1.101405   2.148897   2.143735   5.540096
    22  H    2.757638   2.180563   1.094647   2.820058   4.439313
    23  H    2.900043   2.211302   1.094301   3.495882   4.297135
    24  H    3.408387   2.150146   1.094417   2.694432   5.782997
    25  H    2.631782   2.171648   2.780396   1.095143   6.003957
    26  H    3.315373   2.174706   2.768465   1.093918   6.984760
    27  H    2.566941   2.175922   3.480594   1.094688   6.609823
                   11         12         13         14         15
    11  H    0.000000
    12  H    1.760284   0.000000
    13  H    2.471384   3.086206   0.000000
    14  H    2.514978   2.539682   1.757532   0.000000
    15  H    3.765161   3.209926   2.465474   3.045984   0.000000
    16  H    4.299750   3.123228   3.724162   2.543468   3.048599
    17  H    3.798032   2.259058   3.774880   3.122004   2.460864
    18  H    6.222707   5.094412   4.952457   4.472017   3.276449
    19  H    5.854987   4.608682   4.923320   4.793356   2.650045
    20  H    6.198202   4.703971   5.612704   4.902238   3.806910
    21  H    6.380161   5.802074   4.393064   4.642813   2.984431
    22  H    5.283254   5.505514   3.077313   4.430828   2.747742
    23  H    5.574054   5.271769   3.801925   4.814232   2.103704
    24  H    6.814403   6.712819   4.644679   5.697999   3.575889
    25  H    6.237953   6.471590   3.786733   4.442482   4.208107
    26  H    7.533468   7.459081   5.132129   5.697936   4.724442
    27  H    6.851038   6.683960   4.597844   4.642840   4.511507
                   16         17         18         19         20
    16  H    0.000000
    17  H    1.764952   0.000000
    18  H    2.509369   3.074710   0.000000
    19  H    3.085994   2.535181   1.775313   0.000000
    20  H    2.523381   2.464688   1.760330   1.766814   0.000000
    21  H    3.873588   4.334956   2.290203   2.915350   3.915963
    22  H    5.206396   5.152329   4.852105   4.681071   6.042492
    23  H    4.772314   4.361915   3.914337   3.279902   4.890936
    24  H    5.792918   5.800290   4.613946   4.505758   5.983042
    25  H    5.204508   5.983948   4.876280   5.612087   6.439015
    26  H    5.750907   6.472147   4.592375   5.377611   6.306295
    27  H    4.604046   5.720994   3.894656   5.101293   5.574807
                   21         22         23         24         25
    21  H    0.000000
    22  H    3.069489   0.000000
    23  H    2.492420   1.781950   0.000000
    24  H    2.483816   1.775255   1.751917   0.000000
    25  H    3.061703   2.633195   3.822515   3.042254   0.000000
    26  H    2.475507   3.183073   3.748314   2.483711   1.779059
    27  H    2.492513   3.818247   4.349709   3.707758   1.770884
                   26         27
    26  H    0.000000
    27  H    1.773365   0.000000
 Stoichiometry    C8H18O
 Framework group  C1[X(C8H18O)]
 Deg. of freedom    75
 Full point group                 C1      NOp   1
 Largest Abelian subgroup         C1      NOp   1
 Largest concise Abelian subgroup C1      NOp   1
                         Standard orientation:                         
 ---------------------------------------------------------------------
 Center     Atomic      Atomic             Coordinates (Angstroms)
 Number     Number       Type             X           Y           Z
 ---------------------------------------------------------------------
      1          6           0       -2.911475   -1.378863    0.240578
      2          6           0       -1.550060   -1.215909   -0.453202
      3          6           0       -0.703384   -0.026415    0.036586
      4          6           0       -1.370035    1.330353   -0.246713
      5          6           0       -0.565468    2.553867    0.221891
      6          8           0        0.552122   -0.128253   -0.629146
      7          6           0        1.786244    0.031865    0.067094
      8          6           0        1.873986   -0.677105    1.425749
      9          6           0        2.855536   -0.501087   -0.892107
     10          1           0       -2.795767   -1.478725    1.325887
     11          1           0       -3.416154   -2.280633   -0.121248
     12          1           0       -3.581478   -0.536256    0.047327
     13          1           0       -0.955457   -2.122570   -0.287761
     14          1           0       -1.687455   -1.127511   -1.537942
     15          1           0       -0.583450   -0.133997    1.121404
     16          1           0       -1.554780    1.403577   -1.325296
     17          1           0       -2.347182    1.344835    0.250682
     18          1           0        0.379376    2.646499   -0.319751
     19          1           0       -0.345958    2.499737    1.293968
     20          1           0       -1.128398    3.477439    0.047565
     21          1           0        1.981014    1.103889    0.228100
     22          1           0        1.635791   -1.741013    1.327697
     23          1           0        1.226101   -0.236051    2.189432
     24          1           0        2.898131   -0.585877    1.800654
     25          1           0        2.708096   -1.571365   -1.071281
     26          1           0        3.856699   -0.348994   -0.478348
     27          1           0        2.801835    0.012806   -1.857184
 ---------------------------------------------------------------------
 Rotational constants (GHZ):           1.8871861           0.9950851           0.7918271
 Standard basis: 6-31G(2df,p) (6D, 7F)
 There are   369 symmetry adapted cartesian basis functions of A   symmetry.
 There are   342 symmetry adapted basis functions of A   symmetry.
   342 basis functions,   522 primitive gaussians,   369 cartesian basis functions
    37 alpha electrons       37 beta electrons
       nuclear repulsion energy       501.1371659435 Hartrees.
 NAtoms=   27 NActive=   27 NUniq=   27 SFac= 1.00D+00 NAtFMM=   60 NAOKFM=F Big=F
 Integral buffers will be    131072 words long.
 Raffenetti 2 integral format.
 Two-electron integral symmetry is turned on.
 One-electron integrals computed using PRISM.
 PrsmSu:  requested number of processors reduced to:  13 ShMem   1 Linda.
 NBasis=   342 RedAO= T EigKep=  7.49D-04  NBF=   342
 NBsUse=   342 1.00D-06 EigRej= -1.00D+00 NBFU=   342
 Initial guess from the checkpoint file:  "CCCpCCpOCpCpC.chk"
 B after Tr=    -0.000000    0.000000    0.000000
         Rot=    0.999485   -0.031900   -0.000219   -0.003611 Ang=  -3.68 deg.
 ExpMin= 1.61D-01 ExpMax= 5.48D+03 ExpMxC= 8.25D+02 IAcc=2 IRadAn=         4 AccDes= 0.00D+00
 Harris functional with IExCor=  402 and IRadAn=       4 diagonalized for initial guess.
 HarFok:  IExCor=  402 AccDes= 0.00D+00 IRadAn=         4 IDoV= 1 UseB2=F ITyADJ=14
 ICtDFT=  3500011 ScaDFX=  1.000000  1.000000  1.000000  1.000000
 FoFCou: FMM=F IPFlag=           0 FMFlag=      100000 FMFlg1=           0
         NFxFlg=           0 DoJE=T BraDBF=F KetDBF=T FulRan=T
         wScrn=  0.000000 ICntrl=       500 IOpCl=  0 I1Cent=   200000004 NGrid=           0
         NMat0=    1 NMatS0=      1 NMatT0=    0 NMatD0=    1 NMtDS0=    0 NMtDT0=    0
 Petite list used in FoFCou.
 Requested convergence on RMS density matrix=1.00D-08 within 128 cycles.
 Requested convergence on MAX density matrix=1.00D-06.
 Requested convergence on             energy=1.00D-06.
 No special actions if energy rises.
 Integral accuracy reduced to 1.0D-05 until final iterations.
 Initial convergence to 1.0D-05 achieved.  Increase integral accuracy.
 SCF Done:  E(RB3LYP) =  -390.949716936     A.U. after   11 cycles
            NFock= 11  Conv=0.32D-08     -V/T= 2.0087
 PrsmSu:  requested number of processors reduced to:  13 ShMem   1 Linda.
 Calling FoFJK, ICntrl=      2127 FMM=F ISym2X=0 I1Cent= 0 IOpClX= 0 NMat=1 NMatS=1 NMatT=0.
 ***** Axes restored to original set *****
 -------------------------------------------------------------------
 Center     Atomic                   Forces (Hartrees/Bohr)
 Number     Number              X              Y              Z
 -------------------------------------------------------------------
      1        6          -0.001683740   -0.001146554   -0.001597510
      2        6           0.000672138    0.000849669    0.002048124
      3        6           0.003085493    0.002237057   -0.000440809
      4        6          -0.000064482   -0.003405635    0.001078685
      5        6          -0.000162947    0.002496180   -0.001373704
      6        8          -0.002629772    0.001290424    0.000411984
      7        6          -0.001288411   -0.002095915   -0.000472111
      8        6           0.000949555   -0.000572816   -0.000895270
      9        6           0.001284243    0.000283474   -0.000907716
     10        1           0.000532231   -0.000084047   -0.000082968
     11        1          -0.000057402   -0.000217222    0.000408239
     12        1           0.000290289   -0.000407536    0.000186312
     13        1           0.000313493   -0.000368827   -0.001126861
     14        1          -0.000039378   -0.000499171    0.000035188
     15        1          -0.000173600   -0.001952461    0.001121861
     16        1           0.000273953    0.000337518   -0.000300892
     17        1          -0.000393011    0.000527306   -0.000848403
     18        1          -0.001017296    0.000236231    0.000513090
     19        1          -0.000267840   -0.000452262    0.000095386
     20        1          -0.000280992    0.000445952    0.000469649
     21        1           0.001052278    0.000269315    0.000978148
     22        1          -0.000048702    0.000339724    0.000390415
     23        1          -0.000360271    0.001174134   -0.001344350
     24        1          -0.000972936    0.000199410   -0.000016016
     25        1           0.000342153   -0.000114133    0.000424667
     26        1          -0.000010365   -0.000127231    0.000284702
     27        1           0.000655320    0.000757417    0.000960162
[...]
 00001454,0.00018651,0.00021318,0.00022128,-0.00063767,-0.00066205,0.00
 041927,-0.00130041,0.00029530,-0.00033107,0.12767486,-0.00445232,-0.14
 533858,-0.00003725,0.00040047,0.00034594,-0.00016388,0.00021445,-0.000
 31076,0.00004138,-0.00002728,0.00004856,0.00004919,-0.00007089,-0.0000
 2251,-0.00000887,0.00001252,0.00000066,-0.00000746,-0.00002092,-0.0000
 0382,-0.00001299,0.00000448,0.00001425,0.00002971,-0.00003810,-0.00000
 884,0.00004535,-0.00008948,0.00000292,-0.00026203,0.00002773,0.0005276
 5,-0.00012719,-0.00043657,0.00062516,-0.00000233,-0.00026764,-0.000141
 99,-0.00932259,0.00088341,0.00693640,0.02400801,-0.00063728,-0.0179391
 7,-0.14033904,0.00467660,0.15482571,0.00003330,-0.00000816,-0.00006817
 ,-0.00015186,-0.00006538,0.00009282,0.00243125,-0.00092831,0.00126288,
 0.00053074,0.00019678,0.00052649,-0.00022786,0.00017106,-0.00006782,0.
 01079919,-0.00963662,0.00796190,-0.19270727,0.08143709,-0.08208720,-0.
 01662385,0.01027658,-0.00863157,-0.01257031,0.00674657,-0.00777522,-0.
 00000596,0.00000985,0.00001408,-0.00000549,-0.00002961,0.00000778,0.00
 002217,0.00001539,0.00000784,0.00002559,-0.00007898,-0.00005374,-0.000
 02476,-0.00014949,-0.00010523,0.00046343,0.00070827,0.00020740,-0.0001
 3527,-0.00003940,0.00005493,0.00015433,-0.00002349,-0.00011963,-0.0000
 8740,0.00001028,-0.00005937,0.00002698,-0.00000164,0.00023592,-0.00002
 553,-0.00005934,0.00010602,0.20794704,0.00009291,-0.00017125,0.0000079
 6,-0.00030661,-0.00029892,-0.00080571,0.00504505,0.00312810,0.00416625
 ,-0.00026553,-0.00019568,0.00001321,0.00018444,-0.00018617,0.00012641,
 0.00686914,-0.02427277,0.02360916,0.07969556,-0.09322289,0.04103279,0.
 01442560,-0.00555796,0.00435565,-0.01769465,0.00974033,-0.01164618,-0.
 00002100,-0.00003625,-0.00005264,-0.00004455,-0.00007083,-0.00004396,-
 0.00004419,-0.00002487,-0.00000469,-0.00004053,0.00007770,0.00006254,-
 0.00013113,0.00026275,-0.00011403,-0.00080770,-0.00022722,-0.00158669,
 0.00007407,0.00007874,-0.00016651,-0.00014553,0.00002014,0.00003955,0.
 00009077,-0.00002451,0.00009340,-0.00022657,0.00004248,-0.00017557,-0.
 00000819,0.00011940,-0.00012001,-0.08650216,0.11130001,-0.00015124,0.0
 0014128,0.00002479,0.00043453,0.00019884,0.00027988,-0.00287227,-0.003
 91651,-0.00086701,0.00017557,0.00043586,0.00025946,-0.00012370,0.00034
 935,0.00012885,-0.00907214,0.02434919,-0.01962257,-0.07855341,0.042792
 85,-0.09251288,0.01855157,-0.01174181,0.00920181,-0.01623236,0.0065590
 6,-0.00908641,0.00002831,0.00001251,0.00002704,0.00005396,0.00009258,0
 .00003812,0.00002636,0.00000943,-0.00000704,0.00002501,-0.00003207,-0.
 00002663,-0.00000693,-0.00021152,0.00004191,0.00074374,0.00009415,0.00
 097779,-0.00008657,-0.00013675,0.00009517,0.00022354,-0.00008114,-0.00
 010775,-0.00010392,-0.00009266,-0.00040980,0.00025317,0.00002228,0.000
 20411,-0.00006114,-0.00026744,0.00007274,0.08599674,-0.05506688,0.1127
 5229,0.00012528,-0.00008467,-0.00016543,-0.00047757,0.00012503,0.00037
 274,-0.00041489,0.00034382,-0.00045503,0.00013690,-0.00007532,0.000097
 54,0.00000694,0.00005432,-0.00003040,0.00246438,-0.00177414,-0.0005382
 6,-0.01804709,0.01199028,-0.01020444,-0.19626077,0.09332985,-0.0895125
 9,0.00057077,-0.00116477,-0.00070533,0.00003132,0.00002762,0.00005707,
 -0.00001596,-0.00002409,0.00000744,0.00008003,0.00006063,0.00004827,0.
 00003937,-0.00026266,-0.00030092,0.00004560,-0.00005719,0.00000536,0.0
 0022104,0.00001972,0.00024111,-0.00004382,-0.00001348,0.00006522,-0.00
 000268,-0.00001040,-0.00001085,-0.00001071,-0.00001786,-0.00005992,0.0
 0006662,-0.00000382,0.00004281,-0.00000750,-0.00004995,0.00002659,-0.0
 0170327,0.00172576,0.00363726,0.21359313,0.00000363,0.00001108,-0.0000
 6913,-0.00011723,0.00004027,0.00002993,-0.00058598,-0.00002898,-0.0002
 7211,0.00003719,-0.00011713,0.00010097,0.00003324,-0.00002872,-0.00001
 092,-0.00111957,0.00172457,-0.00055150,0.01096327,-0.00900868,0.007722
 73,0.09390502,-0.10573727,0.05500366,0.00039091,0.00032337,0.00124070,
 0.00002106,0.00000956,0.00002468,-0.00000160,0.00000207,0.00001150,0.0
 0002906,0.00001027,0.00002236,-0.00010700,-0.00014199,-0.00007964,0.00
 003067,-0.00000135,-0.00000718,0.00013063,-0.00009426,0.00009584,-0.00
 002882,0.00000881,0.00002784,-0.00000134,0.00000870,-0.00000010,0.0000
 0314,0.00001291,0.00003938,-0.00002999,-0.00000556,-0.00002993,0.00002
 076,0.00001796,-0.00001666,0.00154745,-0.00027300,-0.00251598,-0.10580
 335,0.11286161,0.00007838,-0.00001158,-0.00010392,-0.00017347,0.000148
 23,0.00020051,0.00005239,0.00045572,-0.00016930,0.00000381,-0.00012643
 ,0.00003348,0.00001679,-0.00003812,-0.00003559,-0.00237651,-0.00012103
 ,0.00207761,0.01891928,-0.01246489,0.01006314,-0.09040196,0.05626697,-
 0.09992446,0.00069556,0.00056069,0.00155240,0.00001045,0.00001260,0.00
 002145,-0.00001097,-0.00003031,0.00000524,0.00003260,0.00002094,0.0000
 2409,0.00014228,0.00000358,-0.00009502,0.00003272,-0.00000169,-0.00001
 817,-0.00004713,-0.00011855,0.00004582,-0.00000604,0.00001900,0.000014
 85,-0.00004328,0.00000784,0.00001006,0.00003478,0.00000294,0.00004893,
 -0.00002913,-0.00001159,-0.00002335,0.00000766,0.00003223,-0.00000620,
 0.00337779,-0.00219126,-0.00273429,0.09731406,-0.05952078,0.10592261,-
 0.00010545,0.00001822,0.00016048,0.00023332,-0.00044488,-0.00002408,0.
 00001367,-0.00064619,0.00083140,-0.00013859,0.00015983,-0.00002520,-0.
 00000194,0.00001407,0.00002700,0.00098518,-0.00027423,-0.00204393,0.01
 160658,0.01500665,0.01243220,-0.11261401,-0.08507448,-0.07641218,-0.00
 260484,0.00098607,0.00272188,0.00000165,-0.00003366,-0.00004939,0.0000
 1157,0.00004750,-0.00002131,-0.00006071,-0.00002999,-0.00003797,-0.000
 33983,-0.00002778,0.00018559,-0.00011417,0.00006294,0.00004316,-0.0006
 5766,0.00005650,0.00008670,0.00003079,0.00000599,-0.00004445,0.0000521
 9,0.00000634,-0.00001036,-0.00000451,0.00001390,0.00000246,-0.00001475
 ,0.00000327,-0.00000429,0.00000645,0.00000001,-0.00000876,0.00110192,-
 0.00058977,-0.00085591,-0.01185939,-0.01666478,-0.01258121,0.12044512,
 -0.00003859,0.00001827,-0.00000107,-0.00013185,-0.00021841,0.00048158,
 -0.00073000,0.00027896,-0.00073135,0.00017358,-0.00005497,0.00022915,-
 0.00003620,-0.00004941,-0.00005902,0.00072376,0.00094682,0.00087179,-0
 .00815112,-0.01015116,-0.00603018,-0.08408749,-0.15694029,-0.09905727,
 0.00289862,-0.00027170,-0.00166869,-0.00000820,0.00000914,0.00000353,0
 .00000567,-0.00000219,0.00001862,0.00001124,0.00001050,-0.00001355,-0.
 00025234,-0.00036643,0.00049336,0.00004218,-0.00006659,0.00000645,0.00
 028016,-0.00004991,0.00037982,-0.00009719,0.00000605,0.00006885,0.0000
 3294,0.00001868,-0.00002216,-0.00000653,0.00002317,0.00002412,0.000028
 02,-0.00000677,0.00000671,0.00001095,0.00001169,0.00001695,-0.00006703
 ,0.00018831,0.00040639,0.00788768,0.01072091,0.00953709,0.09323301,0.1
 7047816,-0.00004847,0.00017108,0.00015200,0.00085375,0.00026294,-0.000
 11153,-0.00035456,-0.00021173,-0.00107507,0.00032431,0.00009674,0.0002
 3267,-0.00008706,-0.00011588,0.00001929,-0.00016733,0.00110926,0.00183
 768,-0.01372894,-0.01489874,-0.01340333,-0.07555397,-0.09780438,-0.133
 82962,0.00446592,-0.00116794,-0.00250669,0.00003440,0.00002690,-0.0000
 0215,0.00001442,-0.00002408,0.00000386,-0.00010313,-0.00007515,-0.0000
 3119,-0.00044751,0.00061988,-0.00022454,-0.00025024,-0.00013602,0.0001
 9079,0.00061707,-0.00021004,0.00039366,-0.00014184,0.00001141,0.000095
 36,0.00003727,0.00000675,-0.00002936,0.00000787,0.00003945,0.00003364,
 0.00000420,0.00000704,-0.00001931,-0.00002231,0.00007203,0.00001577,0.
 00031227,0.00073642,0.00089614,-0.00650857,-0.00957867,-0.00837824,0.0
 8148281,0.10971574,0.14404407,0.00009241,-0.00003660,-0.00000793,-0.00
 001944,0.00012936,0.00006710,0.00115747,0.00116203,0.00047499,-0.00004
 700,-0.00013104,-0.00005401,0.00000794,-0.00005577,0.00002985,-0.00327
 088,0.00038206,0.00482573,-0.00613504,-0.01656211,0.00836326,-0.082650
 04,-0.06838462,0.05704442,0.00041069,-0.00058664,-0.00061908,0.0000119
 1,0.00001704,0.00001386,-0.00001571,-0.00005110,-0.00001244,0.00000185
 ,0.00001066,0.00000941,-0.00008812,-0.00001596,-0.00007219,-0.00004233
 ,-0.00002925,0.00004838,0.00014774,-0.00012610,-0.00012648,-0.00002392
 ,0.00003658,-0.00001228,-0.00012366,0.00000388,0.00001209,0.00004823,-
 0.00004599,0.00000351,-0.00002089,0.00000022,-0.00002781,-0.00003146,0
 .00002379,0.00000139,0.00012190,0.00021825,-0.00095688,0.01045961,0.01
 797093,-0.01446282,-0.00662428,-0.01115562,0.00980926,0.08625802,-0.00
 009878,0.00008851,0.00013809,0.00057261,-0.00013136,-0.00019511,-0.000
 12606,-0.00048748,-0.00050733,0.00009620,0.00015003,0.00006259,-0.0000
 2951,-0.00001413,0.00004131,0.00232299,0.00123732,-0.00335440,0.003909
 41,0.00912800,-0.00687347,-0.06934162,-0.18324505,0.11149656,-0.000242
 29,-0.00012372,0.00000831,0.00001447,0.00000875,-0.00001563,0.00001277
 ,-0.00001112,0.00000017,-0.00007752,-0.00006542,-0.00003046,-0.0004182
 8,0.00017643,0.00018229,-0.00013305,-0.00003954,0.00008924,0.00011001,
 -0.00005879,0.00014415,-0.00003963,0.00000186,0.00002507,0.00005868,-0
 .00000048,-0.00001143,0.00000033,0.00000861,-0.00000862,0.00000208,0.0
 0000314,-0.00000798,-0.00001979,0.00001737,0.00000829,-0.00051232,0.00
 039634,0.00073435,-0.00625538,-0.01047067,0.00721592,-0.00671526,-0.01
 473341,0.01253640,0.07671917,0.19781498,-0.00008250,0.00006624,0.00001
 210,0.00010064,-0.00007414,0.00007590,-0.00120420,-0.00155389,-0.00104
 584,0.00030629,0.00025934,0.00031204,-0.00001572,0.00005846,-0.0000210
 8,0.00549974,-0.00070720,-0.00442891,0.00404038,0.01866643,-0.01099707
 ,0.05693862,0.10968222,-0.13583265,-0.00038419,0.00090169,0.00042714,0
 .00003434,0.00000653,0.00001564,0.00001316,0.00004360,0.00002146,-0.00
 001143,-0.00002654,0.00000115,-0.00016615,0.00010481,-0.00004845,-0.00
 006135,-0.00004149,0.00005635,0.00026649,-0.00000943,0.00027690,-0.000
 08750,-0.00002670,0.00005159,0.00020659,0.00000037,-0.00006829,-0.0000
 5699,0.00006782,0.00001244,0.00001731,-0.00000317,0.00002162,0.0000335
 0,-0.00000925,-0.00000217,0.00009505,-0.00046303,0.00087286,0.00582017
 ,0.00923538,-0.00842524,-0.00705803,-0.01383270,0.01178624,-0.06405335
 ,-0.12116474,0.14681485,0.00000457,-0.00001180,0.00000498,-0.00000740,
 0.00000275,0.00004529,-0.00000490,-0.00023685,0.00008602,-0.00000387,0
 .00005453,-0.00001036,0.00003121,0.00010514,0.00003678,0.00155333,0.00
 064516,0.00068163,-0.01470858,0.00804022,-0.00949093,0.00061503,0.0002
 7673,0.00128925,-0.19273347,0.08975191,-0.09430028,0.00000872,0.000008
 62,0.00001407,0.00000201,-0.00000414,-0.00000403,0.00000662,0.00000790
 ,0.00000057,0.00000318,-0.00000334,-0.00002914,-0.00000907,-0.00005820
 ,0.00003099,0.00018909,0.00009033,0.00021973,-0.00001462,-0.00003759,0
 .00003799,0.00002830,-0.00003089,-0.00000758,0.00002486,0.00000346,-0.
 00010202,0.00003798,-0.00001152,0.00003495,-0.00003522,-0.00005187,0.0
 0001105,-0.00051737,-0.00289262,-0.00171195,0.00076162,-0.00033393,-0.
 00039448,0.00009144,-0.00017413,0.00020525,0.00007363,-0.00006514,0.00
 006016,0.20882573,-0.00001510,0.00003445,-0.00000652,0.00006276,0.0000
 1406,0.00014931,-0.00027018,-0.00015136,-0.00042770,0.00007437,0.00003
 551,0.00006421,-0.00005096,-0.00001849,-0.00003796,0.00173600,0.001981
 23,-0.00009926,-0.01813686,0.00988052,-0.01196181,-0.00075126,0.001332
 71,0.00080049,0.09100512,-0.10170988,0.05839447,0.00000244,0.00000477,
 0.00000636,0.00000454,0.00001426,0.00000725,0.00000648,0.00000035,0.00
 000131,0.00000474,-0.00000400,-0.00001448,0.00000738,-0.00004682,0.000
 00637,0.00006753,-0.00012305,0.00028374,-0.00002531,-0.00000188,0.0000
 1474,0.00002935,0.00001414,-0.00001815,-0.00000781,0.00000579,0.000006
 53,0.00002991,0.00000199,0.00001534,0.00001428,-0.00000357,0.00001413,
 -0.00255344,-0.00245367,-0.00257295,0.00033304,-0.00004676,0.00013054,
 -0.00000885,0.00003160,0.00026181,0.00011806,-0.00001708,-0.00003975,-
 0.09813532,0.10773300,0.00002704,-0.00000774,-0.00001271,-0.00007088,-
 0.00001569,0.00008848,0.00026526,0.00001691,0.00000534,0.00008908,0.00
 001816,0.00006431,-0.00008025,-0.00005297,-0.00005316,0.00143270,0.000
 16765,0.00115270,-0.01610964,0.01032070,-0.01219903,-0.00054348,0.0014
 9990,0.00073783,-0.09418284,0.05684539,-0.10817128,-0.00000268,0.00000
 598,0.00000381,-0.00000580,-0.00001641,-0.00000313,0.00000505,0.000005
 99,0.00000330,0.00001312,-0.00001260,-0.00002473,0.00000387,-0.0000323
 0,0.00000259,0.00009432,0.00010003,0.00009527,-0.00001733,-0.00000079,
 0.00001056,-0.00001359,0.00001500,-0.00001619,-0.00003275,-0.00001825,
 0.00000767,0.00005025,0.00001390,0.00003159,0.00000510,-0.00000322,0.0
 0002910,-0.00176426,-0.00331328,-0.00149699,0.00055972,-0.00074988,-0.
 00017120,0.00036248,-0.00015638,0.00037652,-0.00003227,-0.00005500,-0.
 00007290,0.10688118,-0.06144722,0.11694309,0.00012630,-0.00014047,0.00
 004015,-0.00044442,-0.00018478,-0.00020602,0.00118074,-0.00050213,0.00
 068395,0.00000430,-0.00003997,-0.00007713,0.00005617,0.00003627,0.0000
 7223,-0.00276888,-0.00368192,-0.00240503,-0.00599664,-0.00893372,0.011
 53935,0.00016032,0.00043323,0.00052474,-0.08386119,-0.07354027,0.05469
 734,-0.00000355,0.00001060,-0.00000583,-0.00003533,-0.00006450,-0.0000
 3410,-0.00000746,0.00000675,0.00000267,0.00001699,-0.00000116,-0.00001
 199,0.00000208,0.00000519,0.00001899,-0.00005209,-0.00000375,-0.000100
 08,0.00000747,0.00002211,0.00000558,-0.00006213,-0.00000644,0.00001829
 ,0.00008823,-0.00003801,-0.00000738,-0.00003537,-0.00002025,-0.0000397
 1,-0.00004891,-0.00000380,-0.00000686,0.00001087,0.00069034,0.00015717
 ,0.00006560,0.00009068,-0.00009596,-0.00011536,0.00020131,-0.00010161,
 0.00044804,0.00019492,-0.00014875,0.01050776,0.01837397,-0.01358870,0.
 08835350,0.00013139,-0.00011307,0.00003529,-0.00040379,-0.00009781,-0.
 00011534,0.00086767,0.00013619,0.00100154,-0.00012520,-0.00024984,-0.0
 0020461,0.00000048,-0.00006627,0.00001235,-0.00467523,-0.00383057,-0.0
 0320273,-0.00406718,-0.01339092,0.01560307,0.00014607,0.00021542,0.000
 91125,-0.07344366,-0.19000219,0.10700553,-0.00001451,0.00000963,-0.000
 01150,-0.00003391,-0.00006752,-0.00003004,-0.00001012,0.00000873,0.000
 00079,0.00004522,-0.00001136,0.00000500,0.00002821,0.00000386,0.000000
 76,-0.00013245,-0.00002484,-0.00016565,0.00002049,0.00001960,0.0000132
 1,-0.00013849,0.00001764,0.00008279,0.00000935,-0.00000529,-0.00000940
 ,0.00000016,0.00000817,-0.00001071,-0.00002258,0.00003178,0.00001168,-
 0.00017731,0.00084088,-0.00027717,-0.00004254,-0.00005032,-0.00003740,
 0.00010450,0.00047877,-0.00015174,0.00031254,0.00010844,-0.00100611,-0
 .00588223,-0.01042393,0.00707441,0.08259587,0.20585630,0.00006611,-0.0
 0007213,-0.00000673,-0.00023842,-0.00002417,-0.00007842,-0.00006199,-0
 .00083261,0.00087467,-0.00007483,-0.00015763,-0.00014623,-0.00004452,-
 0.00008116,-0.00001885,-0.00302072,-0.00355691,-0.00118721,-0.00544942
 ,-0.01287532,0.01119972,0.00023737,0.00019028,0.00004962,0.05627578,0.
 10976603,-0.13116338,-0.00000016,0.00000166,0.00000081,-0.00001887,-0.
 00002269,-0.00001593,0.00000097,0.00000667,0.00000362,0.00003279,-0.00
 000105,-0.00001981,-0.00000500,-0.00000103,0.00001344,0.00004804,0.000
 09043,-0.00001453,-0.00000195,-0.00002086,0.00001711,-0.00006144,0.000
 02258,0.00005504,-0.00003752,0.00005018,-0.00000782,0.00002249,0.00001
 867,0.00002262,0.00001638,0.00002951,0.00000523,0.00038543,0.00079573,
 0.00064146,0.00006877,-0.00002875,-0.00003911,-0.00013063,0.00020337,0
 .00027058,0.00000310,-0.00061457,-0.00024917,0.00682185,0.01003520,-0.
 00876596,-0.06111834,-0.11911291,0.14005781,-0.00001062,0.00001974,-0.
 00000929,0.00005010,0.00002055,0.00001351,0.00005043,0.00014823,-0.000
 17962,0.00007190,0.00004727,0.00008744,-0.00014211,-0.00017953,-0.0001
 3450,0.00095059,0.00124134,-0.00030212,0.01036684,-0.00772311,-0.01215
 476,-0.00126035,-0.00225913,-0.00117210,-0.15391590,0.06694061,0.11363
 396,0.00000375,-0.00000171,0.00000221,0.00000149,0.00001071,0.00000662
 ,0.00000245,-0.00000391,0.00000120,-0.00000934,0.00001319,-0.00001521,
 -0.00001177,0.00000757,0.00000141,0.00000238,-0.00000694,-0.00002533,-
 0.00000622,0.00001723,-0.00001448,0.00000783,0.00003111,-0.00002182,-0
 .00008624,0.00004435,0.00011288,-0.00000040,0.00000887,0.00000342,0.00
 003793,0.00004209,0.00001405,0.00111748,0.00060883,0.00048150,0.000175
 46,-0.00038402,-0.00009560,0.00067562,-0.00059284,-0.00065324,-0.00014
 667,0.00006098,-0.00010229,-0.01473056,0.00808509,0.01665530,-0.007597
 01,0.00490725,0.00628474,0.16440292,-0.00004499,0.00006630,-0.00000794
 ,0.00017835,0.00005985,0.00002688,-0.00018468,0.00005732,-0.00008198,0
 .00001236,-0.00003174,0.00000210,-0.00015133,-0.00028163,-0.00014886,0
 .00065738,0.00196939,0.00089681,0.01524978,-0.00980413,-0.01479927,-0.
 00352849,-0.00276178,-0.00186425,0.06522247,-0.08647529,-0.06856016,0.
 00001537,-0.00000192,0.00000811,0.00000751,0.00002832,0.00001245,-0.00
 001825,-0.00002159,0.00000323,-0.00005902,0.00005759,0.00001940,-0.000
 01159,-0.00002318,0.00001823,0.00012029,0.00004542,0.00011032,-0.00002
 900,-0.00003445,0.00002917,0.00001760,0.00004760,0.00002107,-0.0002608
 6,0.00018959,0.00005440,0.00007773,0.00004281,0.00006267,0.00006789,0.
 00006469,0.00003771,-0.00028664,0.00082081,0.00071479,-0.00025812,0.00
 025260,0.00025936,0.00079104,-0.00030980,-0.00129946,0.00007625,0.0002
 5848,-0.00013473,0.00894283,-0.00608387,-0.01020228,-0.01550004,0.0105
 9852,0.01619150,-0.07110382,0.09127009,-0.00003014,0.00005112,-0.00000
 367,0.00013694,0.00004506,0.00001762,-0.00011714,0.00023294,0.00000523
 ,0.00006054,-0.00010402,0.00003380,-0.00014154,-0.00017632,-0.00014743
 ,-0.00004150,0.00164084,0.00168763,0.01401340,-0.00682260,-0.01507738,
 -0.00350876,-0.00266123,-0.00156153,0.11140113,-0.06990201,-0.16572788
 ,0.00001459,-0.00000036,0.00000448,0.00000428,0.00001160,0.00000720,-0
 .00002251,-0.00002065,0.00000555,-0.00006624,0.00006261,0.00000593,-0.
 00001993,-0.00001149,0.00002007,0.00006982,-0.00002428,0.00003409,-0.0
 0003001,0.00002113,0.00000302,-0.00003724,0.00006001,0.00001027,-0.000
 03564,0.00000663,0.00018370,0.00001246,0.00000894,0.00000162,0.0000621
 2,0.00008715,0.00002901,0.00008688,0.00071139,0.00035694,0.00012760,-0
 .00012371,0.00010392,0.00097154,-0.00089114,-0.00073725,-0.00026884,0.
 00015599,0.00043348,-0.01041094,0.00643402,0.01143512,0.01018704,-0.00
 742235,-0.01149857,-0.12241791,0.07863073,0.18037504\\0.00000156,-0.00
 000084,0.00000078,0.00000061,0.00001141,-0.00000024,-0.00001548,-0.000
 01899,-0.00002606,-0.00000712,0.00000300,0.00000527,0.00000277,-0.0000
 0448,-0.00000282,0.00001720,-0.00000441,0.00002101,0.00000535,0.000020
 06,-0.00001112,-0.00000811,-0.00000813,0.00000790,-0.00000375,-0.00000
 642,-0.00000097,-0.00000042,0.00000109,0.00000011,-0.00000151,-0.00000
 117,-0.00000443,0.00000162,0.00000036,-0.00000026,0.00000325,0.0000016
 5,-0.00000178,0.00000045,-0.00000188,-0.00000251,0.00000349,0.00000181
 ,0.00000440,0.00000165,-0.00000135,-0.00000036,0.00000075,0.00000480,0
 .00000046,0.00000049,-0.00000184,0.00000090,-0.00000190,-0.00000069,0.
 00000059,0.00000015,0.00000079,0.00000177,-0.00000198,-0.00000013,0.00
 000210,-0.00000057,0.00000168,0.00000062,-0.00000070,-0.00000360,0.000
 00097,-0.00000271,0.00000082,0.00000139,0.00000221,0.00000574,0.000001
 29,0.00000308,0.00000355,0.00000108,-0.00000036,-0.00000281,-0.0000000
 8\\\@


 BUT 'GLORY' DOESN'T MEAN 'A NICE KNOCK DOWN ARGUMENT', ALICE OBJECTED.
 WHEN I USE A WORD, HUMPTY DUMPTY SAID, IN A RATHER SCORNFUL TONE,
 IT MEANS JUST WHAT I CHOOSE IT TO MEAN....
 NEITHER MORE NOR LESS....
 THE QUESTION IS, SAID ALICE,
 WHETHER YOU CAN MAKE WORDS MEAN SO MANY DIFFERENT THINGS...
 THE QUESTION IS, SAID HUMPTY DUMPTY,
 WHICH IS TO BE MASTER....
 THAT IS ALL.....

 ALICE THROUGH THE LOOKING GLASS
 Job cpu time:       0 days  2 hours 49 minutes  6.7 seconds.
 Elapsed time:       0 days  0 hours 42 minutes 17.5 seconds.
 File lengths (MBytes):  RWF=    230 Int=      0 D2E=      0 Chk=     11 Scr=      1
 Normal termination of Gaussian 16 at Sun Feb 28 02:09:00 2021.
### All Done ###
