Currently Loaded Modulefiles:
  1) miniconda3/miniconda3-4.3.30   2) gaussian/gaussian-16-A.03
### Starting Gaussian ###
 Entering Gaussian System, Link 0=g16
 Initial command:
 /cluster/software/gaussian/gaussian-16-A.03/avx2/g16/l1.exe "/local/scratch/ks29c/Gau-15733.inp" -scrdir="/local/scratch/ks29c/"
 Entering Link 1 = /cluster/software/gaussian/gaussian-16-A.03/avx2/g16/l1.exe PID=     15734.
  
 Copyright (c) 1988,1990,1992,1993,1995,1998,2003,2009,2016,
            Gaussian, Inc.  All Rights Reserved.
  
 This is part of the Gaussian(R) 16 program.  It is based on
 the Gaussian(R) 09 system (copyright 2009, Gaussian, Inc.),
 the Gaussian(R) 03 system (copyright 2003, Gaussian, Inc.),
 the Gaussian(R) 98 system (copyright 1998, Gaussian, Inc.),
 the Gaussian(R) 94 system (copyright 1995, Gaussian, Inc.),
 the Gaussian 92(TM) system (copyright 1992, Gaussian, Inc.),
 the Gaussian 90(TM) system (copyright 1990, Gaussian, Inc.),
 the Gaussian 88(TM) system (copyright 1988, Gaussian, Inc.),
 the Gaussian 86(TM) system (copyright 1986, Carnegie Mellon
 University), and the Gaussian 82(TM) system (copyright 1983,
 Carnegie Mellon University). Gaussian is a federally registered
 trademark of Gaussian, Inc.
  
 This software contains proprietary and confidential information,
 including trade secrets, belonging to Gaussian, Inc.
  
 This software is provided under written license and may be
 used, copied, transmitted, or stored only in accord with that
 written license.
  
 The following legend is applicable only to US Government
 contracts under FAR:
  
                    RESTRICTED RIGHTS LEGEND
  
 Use, reproduction and disclosure by the US Government is
 subject to restrictions as set forth in subparagraphs (a)
 and (c) of the Commercial Computer Software - Restricted
 Rights clause in FAR 52.227-19.
  
 Gaussian, Inc.
 340 Quinnipiac St., Bldg. 40, Wallingford CT 06492
  
  
 ---------------------------------------------------------------
 Warning -- This program may not be used in any manner that
 competes with the business of Gaussian, Inc. or will provide
 assistance to any competitor of Gaussian, Inc.  The licensee
 of this program is prohibited from giving any competitor of
 Gaussian, Inc. access to this program.  By using this program,
 the user acknowledges that Gaussian, Inc. is engaged in the
 business of creating and licensing software in the field of
 computational chemistry and represents and warrants to the
 licensee that it is not a competitor of Gaussian, Inc. and that
 it will not use this program in any manner prohibited above.
 ---------------------------------------------------------------
  

 Cite this work as:
 Gaussian 16, Revision A.03,
 M. J. Frisch, G. W. Trucks, H. B. Schlegel, G. E. Scuseria, 
 M. A. Robb, J. R. Cheeseman, G. Scalmani, V. Barone, 
 G. A. Petersson, H. Nakatsuji, X. Li, M. Caricato, A. V. Marenich, 
 J. Bloino, B. G. Janesko, R. Gomperts, B. Mennucci, H. P. Hratchian, 
 J. V. Ortiz, A. F. Izmaylov, J. L. Sonnenberg, D. Williams-Young, 
 F. Ding, F. Lipparini, F. Egidi, J. Goings, B. Peng, A. Petrone, 
 T. Henderson, D. Ranasinghe, V. G. Zakrzewski, J. Gao, N. Rega, 
 G. Zheng, W. Liang, M. Hada, M. Ehara, K. Toyota, R. Fukuda, 
 J. Hasegawa, M. Ishida, T. Nakajima, Y. Honda, O. Kitao, H. Nakai, 
 T. Vreven, K. Throssell, J. A. Montgomery, Jr., J. E. Peralta, 
 F. Ogliaro, M. J. Bearpark, J. J. Heyd, E. N. Brothers, K. N. Kudin, 
 V. N. Staroverov, T. A. Keith, R. Kobayashi, J. Normand, 
 K. Raghavachari, A. P. Rendell, J. C. Burant, S. S. Iyengar, 
 J. Tomasi, M. Cossi, J. M. Millam, M. Klene, C. Adamo, R. Cammi, 
 J. W. Ochterski, R. L. Martin, K. Morokuma, O. Farkas, 
 J. B. Foresman, and D. J. Fox, Gaussian, Inc., Wallingford CT, 2016.
 
 ******************************************
 Gaussian 16:  ES64L-G16RevA.03 25-Dec-2016
                17-Feb-2021 
 ******************************************
 %chk=CCpdOpCpOppCdOpCdO.chk
 -----------------------------------------------
 # opt freq b3lyp/6-31g(2df,p) geom=connectivity
 -----------------------------------------------
 1/18=20,19=15,26=3,38=1,57=2/1,3;
 2/9=110,12=2,17=6,18=5,40=1/2;
 3/5=1,6=6,7=104,11=2,25=1,30=1,71=1,74=-5/1,2,3;
 4//1;
 5/5=2,38=5/2;
 6/7=2,8=2,9=2,10=2,28=1/1;
 7//1,2,3,16;
 1/18=20,19=15,26=3/3(2);
 2/9=110/2;
 99//99;
 2/9=110/2;
 3/5=1,6=6,7=104,11=2,25=1,30=1,71=1,74=-5/1,2,3;
 4/5=5,16=3,69=1/1;
 5/5=2,38=5/2;
 7//1,2,3,16;
 1/18=20,19=15,26=3/3(-5);
 2/9=110/2;
 6/7=2,8=2,9=2,10=2,19=2,28=1/1;
 99/9=1/99;
 -------------------
 Title Card Required
 -------------------
 Symbolic Z-matrix:
 Charge =  0 Multiplicity = 1
 C                    -2.42633   4.96071   0. 
 H                    -2.06965   5.46511   0.87365 
 H                    -2.06965   5.46511  -0.87365 
 H                    -3.49633   4.96072   0. 
 C                    -1.91301   3.50878   0. 
 O                    -2.38968   2.83467   1.16759 
 C                    -2.42635   2.78282  -1.2574 
 C                    -1.91531   3.5104   -2.51481 
 H                    -0.93658   3.90046  -2.32815 
 C                    -1.91074   1.3317   -1.25881 
 H                    -0.87837   1.31974  -0.9778 
 O                    -3.85635   2.78057  -1.2561 
 H                    -4.17674   2.29641  -2.02064 
 O                    -2.05472   0.77595  -2.56851 
 O                    -1.86138   2.59096  -3.60871 
 

 GradGradGradGradGradGradGradGradGradGradGradGradGradGradGradGradGradGrad
 Berny optimization.
 Initialization pass.
                           ----------------------------
                           !    Initial Parameters    !
                           ! (Angstroms and Degrees)  !
 --------------------------                            --------------------------
 ! Name  Definition              Value          Derivative Info.                !
 --------------------------------------------------------------------------------
 ! R1    R(1,2)                  1.07           estimate D2E/DX2                !
 ! R2    R(1,3)                  1.07           estimate D2E/DX2                !
 ! R3    R(1,4)                  1.07           estimate D2E/DX2                !
 ! R4    R(1,5)                  1.54           estimate D2E/DX2                !
 ! R5    R(5,6)                  1.43           estimate D2E/DX2                !
 ! R6    R(5,7)                  1.54           estimate D2E/DX2                !
 ! R7    R(7,8)                  1.54           estimate D2E/DX2                !
 ! R8    R(7,10)                 1.54           estimate D2E/DX2                !
 ! R9    R(7,12)                 1.43           estimate D2E/DX2                !
 ! R10   R(8,9)                  1.07           estimate D2E/DX2                !
 ! R11   R(8,15)                 1.43           estimate D2E/DX2                !
 ! R12   R(10,11)                1.07           estimate D2E/DX2                !
 ! R13   R(10,14)                1.43           estimate D2E/DX2                !
 ! R14   R(12,13)                0.96           estimate D2E/DX2                !
 ! A1    A(2,1,3)              109.4713         estimate D2E/DX2                !
 ! A2    A(2,1,4)              109.4712         estimate D2E/DX2                !
 ! A3    A(2,1,5)              109.4712         estimate D2E/DX2                !
 ! A4    A(3,1,4)              109.4712         estimate D2E/DX2                !
 ! A5    A(3,1,5)              109.4712         estimate D2E/DX2                !
 ! A6    A(4,1,5)              109.4712         estimate D2E/DX2                !
 ! A7    A(1,5,6)              109.4712         estimate D2E/DX2                !
 ! A8    A(1,5,7)              109.4712         estimate D2E/DX2                !
 ! A9    A(6,5,7)              109.4712         estimate D2E/DX2                !
 ! A10   A(5,7,8)              109.4712         estimate D2E/DX2                !
 ! A11   A(5,7,10)             109.4712         estimate D2E/DX2                !
 ! A12   A(5,7,12)             109.4712         estimate D2E/DX2                !
 ! A13   A(8,7,10)             109.4713         estimate D2E/DX2                !
 ! A14   A(8,7,12)             109.4712         estimate D2E/DX2                !
 ! A15   A(10,7,12)            109.4712         estimate D2E/DX2                !
 ! A16   A(7,8,9)              109.4712         estimate D2E/DX2                !
 ! A17   A(7,8,15)             109.4712         estimate D2E/DX2                !
 ! A18   A(9,8,15)             109.4712         estimate D2E/DX2                !
 ! A19   A(7,10,11)            109.4712         estimate D2E/DX2                !
 ! A20   A(7,10,14)            109.4712         estimate D2E/DX2                !
 ! A21   A(11,10,14)           109.4712         estimate D2E/DX2                !
 ! A22   A(7,12,13)            109.5            estimate D2E/DX2                !
 ! D1    D(2,1,5,6)             60.0            estimate D2E/DX2                !
 ! D2    D(2,1,5,7)            180.0            estimate D2E/DX2                !
 ! D3    D(3,1,5,6)            180.0            estimate D2E/DX2                !
 ! D4    D(3,1,5,7)            -60.0            estimate D2E/DX2                !
 ! D5    D(4,1,5,6)            -60.0            estimate D2E/DX2                !
 ! D6    D(4,1,5,7)             60.0            estimate D2E/DX2                !
 ! D7    D(1,5,7,8)             59.8889         estimate D2E/DX2                !
 ! D8    D(1,5,7,10)           179.8889         estimate D2E/DX2                !
 ! D9    D(1,5,7,12)           -60.1111         estimate D2E/DX2                !
 ! D10   D(6,5,7,8)            179.8888         estimate D2E/DX2                !
 ! D11   D(6,5,7,10)           -60.1112         estimate D2E/DX2                !
 ! D12   D(6,5,7,12)            59.8888         estimate D2E/DX2                !
 ! D13   D(5,7,8,9)             34.7564         estimate D2E/DX2                !
 ! D14   D(5,7,8,15)           154.7564         estimate D2E/DX2                !
 ! D15   D(10,7,8,9)           -85.2436         estimate D2E/DX2                !
 ! D16   D(10,7,8,15)           34.7564         estimate D2E/DX2                !
 ! D17   D(12,7,8,9)           154.7564         estimate D2E/DX2                !
 ! D18   D(12,7,8,15)          -85.2436         estimate D2E/DX2                !
 ! D19   D(5,7,10,11)          -43.7696         estimate D2E/DX2                !
 ! D20   D(5,7,10,14)         -163.7696         estimate D2E/DX2                !
 ! D21   D(8,7,10,11)           76.2304         estimate D2E/DX2                !
 ! D22   D(8,7,10,14)          -43.7696         estimate D2E/DX2                !
 ! D23   D(12,7,10,11)        -163.7696         estimate D2E/DX2                !
 ! D24   D(12,7,10,14)          76.2304         estimate D2E/DX2                !
 ! D25   D(5,7,12,13)         -177.6551         estimate D2E/DX2                !
 ! D26   D(8,7,12,13)           62.3449         estimate D2E/DX2                !
 ! D27   D(10,7,12,13)         -57.6551         estimate D2E/DX2                !
 --------------------------------------------------------------------------------
 Trust Radius=3.00D-01 FncErr=1.00D-07 GrdErr=1.00D-06 EigMax=2.50D+02 EigMin=1.00D-04
 Number of steps in this run=     73 maximum allowed number of steps=    100.
 GradGradGradGradGradGradGradGradGradGradGradGradGradGradGradGradGradGrad

                          Input orientation:                          
 ---------------------------------------------------------------------
 Center     Atomic      Atomic             Coordinates (Angstroms)
 Number     Number       Type             X           Y           Z
 ---------------------------------------------------------------------
      1          6           0       -2.426326    4.960707    0.000000
      2          1           0       -2.069653    5.465105    0.873652
      3          1           0       -2.069653    5.465105   -0.873652
      4          1           0       -3.496326    4.960720    0.000000
      5          6           0       -1.913010    3.508775    0.000000
      6          8           0       -2.389685    2.834673    1.167591
      7          6           0       -2.426353    2.782818   -1.257404
      8          6           0       -1.915313    3.510399   -2.514808
      9          1           0       -0.936582    3.900458   -2.328151
     10          6           0       -1.910739    1.331701   -1.258812
     11          1           0       -0.878368    1.319740   -0.977802
     12          8           0       -3.856351    2.780570   -1.256097
     13          1           0       -4.176744    2.296406   -2.020645
     14          8           0       -2.054721    0.775949   -2.568510
     15          8           0       -1.861378    2.590956   -3.608707
 ---------------------------------------------------------------------
                    Distance matrix (angstroms):
                    1          2          3          4          5
     1  C    0.000000
     2  H    1.070000   0.000000
     3  H    1.070000   1.747303   0.000000
     4  H    1.070000   1.747303   1.747303   0.000000
     5  C    1.540000   2.148263   2.148263   2.148263   0.000000
     6  O    2.425826   2.666082   3.344886   2.666083   1.430000
     7  C    2.514810   3.444314   2.732978   2.732978   1.540000
     8  C    2.947675   3.914889   2.556969   3.305646   2.514809
     9  H    2.960363   3.739453   2.418169   3.618941   2.554821
    10  C    3.875581   4.653782   4.154351   4.155536   2.514809
    11  H    4.075404   4.693729   4.314402   4.589830   2.611218
    12  O    2.894089   3.864563   3.247350   2.541742   2.425826
    13  H    3.774317   4.780945   3.974428   3.412411   3.267619
    14  O    4.924179   5.816949   4.986077   5.117400   3.753088
    15  O    4.354039   5.328757   3.972989   4.616449   3.723953
                    6          7          8          9         10
     6  O    0.000000
     7  C    2.425826   0.000000
     8  C    3.773817   1.540000   0.000000
     9  H    3.932888   2.148263   1.070000   0.000000
    10  C    2.894088   1.540000   2.514810   2.948046   0.000000
    11  H    3.030151   2.148263   2.869952   2.913234   1.070000
    12  O    2.833425   1.430000   2.425826   3.305828   2.425826
    13  H    3.694341   1.970533   2.613818   3.628524   2.577949
    14  O    4.278901   2.425826   2.738528   3.327245   1.430000
    15  O    4.811603   2.425826   1.430000   2.051796   2.666489
                   11         12         13         14         15
    11  H    0.000000
    12  O    3.328641   0.000000
    13  H    3.594535   0.960000   0.000000
    14  O    2.051796   2.997800   2.667383   0.000000
    15  O    3.082848   3.090412   2.823052   2.100867   0.000000
 Stoichiometry    C5H6O4
 Framework group  C1[X(C5H6O4)]
 Deg. of freedom    39
 Full point group                 C1      NOp   1
 Largest Abelian subgroup         C1      NOp   1
 Largest concise Abelian subgroup C1      NOp   1
                         Standard orientation:                         
 ---------------------------------------------------------------------
 Center     Atomic      Atomic             Coordinates (Angstroms)
 Number     Number       Type             X           Y           Z
 ---------------------------------------------------------------------
      1          6           0        2.243670    1.063576   -0.090246
      2          1           0        3.205210    1.012658   -0.556882
      3          1           0        1.770509    1.987941   -0.348256
      4          1           0        2.359228    1.006350    0.971955
      5          6           0        1.374453   -0.111171   -0.576076
      6          8           0        2.006809   -1.346536   -0.231261
      7          6           0       -0.009446   -0.037888    0.095530
      8          6           0       -0.689283    1.293727   -0.273552
      9          1           0       -0.423093    1.564867   -1.273815
     10          6           0       -0.879610   -1.211051   -0.392426
     11          1           0       -0.767065   -1.322580   -1.450630
     12          8           0        0.144795   -0.116974    1.514986
     13          1           0       -0.719738   -0.108259    1.932248
     14          8           0       -2.250938   -0.947892   -0.084029
     15          8           0       -2.108635    1.145885   -0.181447
 ---------------------------------------------------------------------
 Rotational constants (GHZ):           2.8112940           1.2969852           1.0954441
 Standard basis: 6-31G(2df,p) (6D, 7F)
 There are   309 symmetry adapted cartesian basis functions of A   symmetry.
 There are   282 symmetry adapted basis functions of A   symmetry.
   282 basis functions,   438 primitive gaussians,   309 cartesian basis functions
    34 alpha electrons       34 beta electrons
       nuclear repulsion energy       448.2836889013 Hartrees.
 NAtoms=   15 NActive=   15 NUniq=   15 SFac= 1.00D+00 NAtFMM=   60 NAOKFM=F Big=F
 Integral buffers will be    131072 words long.
 Raffenetti 2 integral format.
 Two-electron integral symmetry is turned on.
 One-electron integrals computed using PRISM.
 NBasis=   282 RedAO= T EigKep=  6.62D-04  NBF=   282
 NBsUse=   282 1.00D-06 EigRej= -1.00D+00 NBFU=   282
 ExpMin= 1.61D-01 ExpMax= 5.48D+03 ExpMxC= 8.25D+02 IAcc=3 IRadAn=         5 AccDes= 0.00D+00
 Harris functional with IExCor=  402 and IRadAn=       5 diagonalized for initial guess.
 HarFok:  IExCor=  402 AccDes= 0.00D+00 IRadAn=         5 IDoV= 1 UseB2=F ITyADJ=14
 ICtDFT=  3500011 ScaDFX=  1.000000  1.000000  1.000000  1.000000
 FoFCou: FMM=F IPFlag=           0 FMFlag=      100000 FMFlg1=           0
         NFxFlg=           0 DoJE=T BraDBF=F KetDBF=T FulRan=T
         wScrn=  0.000000 ICntrl=       500 IOpCl=  0 I1Cent=   200000004 NGrid=           0
         NMat0=    1 NMatS0=      1 NMatT0=    0 NMatD0=    1 NMtDS0=    0 NMtDT0=    0
 Petite list used in FoFCou.
 Requested convergence on RMS density matrix=1.00D-08 within 128 cycles.
 Requested convergence on MAX density matrix=1.00D-06.
 Requested convergence on             energy=1.00D-06.
 No special actions if energy rises.
 Integral accuracy reduced to 1.0D-05 until final iterations.
 EnCoef did     2 forward-backward iterations
 EnCoef did   100 forward-backward iterations
 Problem detected with inexpensive integrals.
 Switching to full accuracy and repeating last cycle.
 EnCoef did     2 forward-backward iterations
 EnCoef did   100 forward-backward iterations
 EnCoef did     3 forward-backward iterations
 EnCoef did     3 forward-backward iterations
 EnCoef did     4 forward-backward iterations
 Restarting incremental Fock formation.
 SCF Done:  E(RB3LYP) =  -494.713818782     A.U. after   25 cycles
            NFock= 25  Conv=0.91D-08     -V/T= 2.0083

 **********************************************************************

            Population analysis using the SCF density.

 **********************************************************************

 Orbital symmetries:
       Occupied  (A) (A) (A) (A) (A) (A) (A) (A) (A) (A) (A) (A)
                 (A) (A) (A) (A) (A) (A) (A) (A) (A) (A) (A) (A)
                 (A) (A) (A) (A) (A) (A) (A) (A) (A) (A)
       Virtual   (A) (A) (A) (A) (A) (A) (A) (A) (A) (A) (A) (A)
                 (A) (A) (A) (A) (A) (A) (A) (A) (A) (A) (A) (A)
                 (A) (A) (A) (A) (A) (A) (A) (A) (A) (A) (A) (A)
                 (A) (A) (A) (A) (A) (A) (A) (A) (A) (A) (A) (A)
                 (A) (A) (A) (A) (A) (A) (A) (A) (A) (A) (A) (A)
                 (A) (A) (A) (A) (A) (A) (A) (A) (A) (A) (A) (A)
                 (A) (A) (A) (A) (A) (A) (A) (A) (A) (A) (A) (A)
                 (A) (A) (A) (A) (A) (A) (A) (A) (A) (A) (A) (A)
                 (A) (A) (A) (A) (A) (A) (A) (A) (A) (A) (A) (A)
                 (A) (A) (A) (A) (A) (A) (A) (A) (A) (A) (A) (A)
                 (A) (A) (A) (A) (A) (A) (A) (A) (A) (A) (A) (A)
                 (A) (A) (A) (A) (A) (A) (A) (A) (A) (A) (A) (A)
                 (A) (A) (A) (A) (A) (A) (A) (A) (A) (A) (A) (A)
                 (A) (A) (A) (A) (A) (A) (A) (A) (A) (A) (A) (A)
                 (A) (A) (A) (A) (A) (A) (A) (A) (A) (A) (A) (A)
                 (A) (A) (A) (A) (A) (A) (A) (A) (A) (A) (A) (A)
                 (A) (A) (A) (A) (A) (A) (A) (A) (A) (A) (A) (A)
                 (A) (A) (A) (A) (A) (A) (A) (A) (A) (A) (A) (A)
                 (A) (A) (A) (A) (A) (A) (A) (A) (A) (A) (A) (A)
                 (A) (A) (A) (A) (A) (A) (A) (A) (A) (A) (A) (A)
                 (A) (A) (A) (A) (A) (A) (A) (A)
 The electronic state is 1-A.
 Alpha  occ. eigenvalues --  -19.19473 -19.19051 -19.17505 -19.17099 -10.32283
 Alpha  occ. eigenvalues --  -10.31018 -10.30443 -10.29199 -10.21598  -1.06259
 Alpha  occ. eigenvalues --   -1.00144  -0.98809  -0.95795  -0.81507  -0.75633
 Alpha  occ. eigenvalues --   -0.66324  -0.63049  -0.57725  -0.52818  -0.49159
 Alpha  occ. eigenvalues --   -0.48951  -0.45975  -0.44632  -0.43406  -0.40944
 Alpha  occ. eigenvalues --   -0.40217  -0.39825  -0.35860  -0.34877  -0.31972
 Alpha  occ. eigenvalues --   -0.31489  -0.30813  -0.27971  -0.24718
 Alpha virt. eigenvalues --   -0.17600  -0.14264  -0.09253   0.07153   0.09791
 Alpha virt. eigenvalues --    0.11019   0.12009   0.13428   0.14375   0.15864
 Alpha virt. eigenvalues --    0.16133   0.17897   0.21229   0.22777   0.23694
 Alpha virt. eigenvalues --    0.25217   0.28059   0.40086   0.41864   0.43220
 Alpha virt. eigenvalues --    0.44216   0.44362   0.46226   0.48080   0.48770
 Alpha virt. eigenvalues --    0.51198   0.52374   0.53454   0.57866   0.59129
 Alpha virt. eigenvalues --    0.61261   0.62854   0.64431   0.67803   0.69391
 Alpha virt. eigenvalues --    0.70010   0.70961   0.74112   0.75063   0.75762
 Alpha virt. eigenvalues --    0.76878   0.78822   0.79245   0.82140   0.85092
 Alpha virt. eigenvalues --    0.85778   0.86508   0.87871   0.89158   0.90879
 Alpha virt. eigenvalues --    0.91844   0.93186   0.93492   0.95493   0.96664
 Alpha virt. eigenvalues --    0.97029   0.97645   0.99569   1.00369   1.03743
 Alpha virt. eigenvalues --    1.06612   1.09312   1.11878   1.15514   1.17361
 Alpha virt. eigenvalues --    1.18959   1.21876   1.22817   1.25611   1.26460
 Alpha virt. eigenvalues --    1.29543   1.31951   1.33287   1.33937   1.37888
 Alpha virt. eigenvalues --    1.41005   1.42294   1.45162   1.45939   1.48213
 Alpha virt. eigenvalues --    1.50339   1.51565   1.51950   1.55274   1.55716
 Alpha virt. eigenvalues --    1.58250   1.60203   1.64878   1.66315   1.69719
 Alpha virt. eigenvalues --    1.71209   1.73640   1.75402   1.78626   1.81576
 Alpha virt. eigenvalues --    1.84889   1.86111   1.90132   1.91716   1.94772
 Alpha virt. eigenvalues --    1.96189   1.98428   2.02822   2.16354   2.18439
 Alpha virt. eigenvalues --    2.28650   2.33784   2.34862   2.40403   2.40978
 Alpha virt. eigenvalues --    2.49418   2.54893   2.56864   2.57521   2.59319
 Alpha virt. eigenvalues --    2.66565   2.72874   2.74354   2.75935   2.81442
 Alpha virt. eigenvalues --    2.82137   2.84118   2.86641   2.89060   2.90295
 Alpha virt. eigenvalues --    2.91193   2.94150   2.99460   3.01604   3.05630
 Alpha virt. eigenvalues --    3.10185   3.13451   3.15430   3.17000   3.21871
 Alpha virt. eigenvalues --    3.22441   3.27840   3.30837   3.33269   3.34496
 Alpha virt. eigenvalues --    3.38082   3.39790   3.42096   3.43592   3.47882
 Alpha virt. eigenvalues --    3.52625   3.61953   3.64421   3.69024   3.70024
 Alpha virt. eigenvalues --    3.81725   3.85968   3.87887   3.88275   3.90255
 Alpha virt. eigenvalues --    4.04862   4.11161   4.12530   4.14146   4.17812
 Alpha virt. eigenvalues --    4.18130   4.21295   4.22322   4.24146   4.26290
 Alpha virt. eigenvalues --    4.26528   4.28469   4.29644   4.30921   4.32819
 Alpha virt. eigenvalues --    4.34437   4.36674   4.37592   4.37971   4.40113
 Alpha virt. eigenvalues --    4.41168   4.43327   4.45517   4.48153   4.51006
 Alpha virt. eigenvalues --    4.51494   4.53125   4.54246   4.55857   4.62225
 Alpha virt. eigenvalues --    4.62874   4.63772   4.65216   4.65974   4.68579
 Alpha virt. eigenvalues --    4.71478   4.73113   4.73577   4.75709   4.77988
 Alpha virt. eigenvalues --    4.78967   4.83101   4.86063   4.90307   4.94712
 Alpha virt. eigenvalues --    4.96441   5.01581   5.01900   5.05325   5.05763
 Alpha virt. eigenvalues --    5.09782   5.11408   5.18641   5.21350   5.23621
 Alpha virt. eigenvalues --    5.25498   5.27903   5.31599   5.33763   5.35389
 Alpha virt. eigenvalues --    5.38349   5.40288   5.43103   5.45864   5.51194
 Alpha virt. eigenvalues --    5.54410   5.58786   5.74248   5.81191   5.83679
 Alpha virt. eigenvalues --    5.85851   5.87369   5.91293   5.92605   5.96430
 Alpha virt. eigenvalues --    5.97831   5.99173   6.02060   6.03943   6.06701
 Alpha virt. eigenvalues --    6.61962   6.68486   6.81462   7.30746  10.61690
 Alpha virt. eigenvalues --   11.05319  11.24521  11.84155  12.46576  12.99776
 Alpha virt. eigenvalues --   13.02696  13.06409  13.73986
          Condensed to atoms (all electrons):
               1          2          3          4          5          6
     1  C    5.035090   0.366247   0.355665   0.385308   0.356920  -0.037353
     2  H    0.366247   0.540621  -0.024491  -0.023151  -0.016709   0.001464
     3  H    0.355665  -0.024491   0.584780  -0.031106  -0.025726   0.003312
     4  H    0.385308  -0.023151  -0.031106   0.482365  -0.018385  -0.007829
     5  C    0.356920  -0.016709  -0.025726  -0.018385   4.861314   0.452450
     6  O   -0.037353   0.001464   0.003312  -0.007829   0.452450   7.930575
     7  C   -0.054261   0.002035  -0.000719   0.000617   0.281997  -0.039610
     8  C    0.001065  -0.000322   0.003133   0.000073  -0.036542   0.001248
     9  H   -0.002371   0.000096   0.001228   0.000150   0.006776  -0.000091
    10  C    0.004454  -0.000111   0.000150   0.000337  -0.043665   0.015170
    11  H   -0.000271   0.000010  -0.000018  -0.000021   0.008634  -0.000651
    12  O   -0.005035   0.000327   0.000180   0.009257  -0.019967  -0.006045
    13  H   -0.000245   0.000008   0.000004  -0.000208   0.007092   0.000126
    14  O   -0.000037   0.000000  -0.000001  -0.000001   0.001537   0.000071
    15  O    0.000021  -0.000001   0.000038   0.000007   0.001500  -0.000008
               7          8          9         10         11         12
     1  C   -0.054261   0.001065  -0.002371   0.004454  -0.000271  -0.005035
     2  H    0.002035  -0.000322   0.000096  -0.000111   0.000010   0.000327
     3  H   -0.000719   0.003133   0.001228   0.000150  -0.000018   0.000180
     4  H    0.000617   0.000073   0.000150   0.000337  -0.000021   0.009257
     5  C    0.281997  -0.036542   0.006776  -0.043665   0.008634  -0.019967
     6  O   -0.039610   0.001248  -0.000091   0.015170  -0.000651  -0.006045
     7  C    4.807314   0.295382  -0.065250   0.338861  -0.067136   0.287751
     8  C    0.295382   5.034091   0.332915  -0.059735  -0.001975  -0.031254
     9  H   -0.065250   0.332915   0.587722  -0.002472  -0.003008   0.003387
    10  C    0.338861  -0.059735  -0.002472   4.964442   0.339129  -0.024145
    11  H   -0.067136  -0.001975  -0.003008   0.339129   0.602519   0.003335
    12  O    0.287751  -0.031254   0.003387  -0.024145   0.003335   7.934435
    13  H   -0.064776  -0.000980   0.000144  -0.002144   0.000390   0.317383
    14  O   -0.051990  -0.019300   0.000357   0.470376  -0.023964  -0.001182
    15  O   -0.049998   0.470834  -0.017657  -0.027886   0.000576   0.000243
              13         14         15
     1  C   -0.000245  -0.000037   0.000021
     2  H    0.000008   0.000000  -0.000001
     3  H    0.000004  -0.000001   0.000038
     4  H   -0.000208  -0.000001   0.000007
     5  C    0.007092   0.001537   0.001500
     6  O    0.000126   0.000071  -0.000008
     7  C   -0.064776  -0.051990  -0.049998
     8  C   -0.000980  -0.019300   0.470834
     9  H    0.000144   0.000357  -0.017657
    10  C   -0.002144   0.470376  -0.027886
    11  H    0.000390  -0.023964   0.000576
    12  O    0.317383  -0.001182   0.000243
    13  H    0.418267   0.009929   0.004590
    14  O    0.009929   7.906309  -0.019584
    15  O    0.004590  -0.019584   7.880350
 Mulliken charges:
               1
     1  C   -0.405194
     2  H    0.153976
     3  H    0.133569
     4  H    0.202587
     5  C    0.182775
     6  O   -0.312830
     7  C    0.379783
     8  C    0.011367
     9  H    0.158073
    10  C    0.027237
    11  H    0.142450
    12  O   -0.468670
    13  H    0.310421
    14  O   -0.272519
    15  O   -0.243025
 Sum of Mulliken charges =  -0.00000
 Mulliken charges with hydrogens summed into heavy atoms:
               1
     1  C    0.084938
     5  C    0.182775
     6  O   -0.312830
     7  C    0.379783
     8  C    0.169440
    10  C    0.169687
    12  O   -0.158249
    14  O   -0.272519
    15  O   -0.243025
 Electronic spatial extent (au):  <R**2>=           1110.1998
 Charge=             -0.0000 electrons
 Dipole moment (field-independent basis, Debye):
    X=              2.4035    Y=              2.5660    Z=             -1.0791  Tot=              3.6777
 Quadrupole moment (field-independent basis, Debye-Ang):
   XX=            -60.9918   YY=            -53.3230   ZZ=            -46.4598
   XY=              5.5309   XZ=             -2.0676   YZ=             -0.2300
 Traceless Quadrupole moment (field-independent basis, Debye-Ang):
   XX=             -7.4003   YY=              0.2685   ZZ=              7.1317
   XY=              5.5309   XZ=             -2.0676   YZ=             -0.2300
 Octapole moment (field-independent basis, Debye-Ang**2):
  XXX=             19.7137  YYY=              0.6294  ZZZ=              7.0310  XYY=             -0.8711
  XXY=             10.2733  XXZ=              6.2170  XZZ=             -7.7840  YZZ=             -0.9887
  YYZ=              1.1997  XYZ=             -1.1082
 Hexadecapole moment (field-independent basis, Debye-Ang**3):
 XXXX=           -852.8803 YYYY=           -357.5771 ZZZZ=           -148.9923 XXXY=             13.7388
 XXXZ=             -1.9526 YYYX=              0.0832 YYYZ=             -2.2486 ZZZX=             -7.9116
 ZZZY=             -0.4133 XXYY=           -218.6862 XXZZ=           -154.6255 YYZZ=            -84.0718
 XXYZ=             -1.0219 YYXZ=              1.0373 ZZXY=             -1.0867
 N-N= 4.482836889013D+02 E-N=-2.056120432207D+03  KE= 4.906655199051D+02
 Calling FoFJK, ICntrl=      2127 FMM=F ISym2X=0 I1Cent= 0 IOpClX= 0 NMat=1 NMatS=1 NMatT=0.
 ***** Axes restored to original set *****
 -------------------------------------------------------------------
 Center     Atomic                   Forces (Hartrees/Bohr)
 Number     Number              X              Y              Z
 -------------------------------------------------------------------
      1        6           0.046503424   -0.006173047    0.003969597
      2        1           0.003151482    0.009746071    0.011984837
      3        1           0.003432677    0.013308458   -0.011767833
      4        1          -0.013902354   -0.007913829   -0.001105687
      5        6          -0.160861558   -0.049110585    0.126425693
      6        8           0.082929360    0.058119967   -0.120741317
      7        6          -0.021815689   -0.018476024    0.001032102
      8        6           0.039661907   -0.173304972   -0.107633238
      9        1           0.009276638    0.038455915   -0.009357242
     10        6           0.011310950   -0.018031050   -0.194202522
     11        1           0.012518704   -0.022911513    0.028044028
     12        8           0.001820549    0.017200256    0.022060003
     13        1           0.008284574   -0.005402157   -0.007494820
     14        8          -0.006312297    0.015363972    0.169275278
     15        8          -0.015998367    0.149128539    0.089511119
 -------------------------------------------------------------------
 Cartesian Forces:  Max     0.194202522 RMS     0.069575132

 GradGradGradGradGradGradGradGradGradGradGradGradGradGradGradGradGradGrad
 Berny optimization.
 FormGI is forming the generalized inverse of G from B-inverse, IUseBI=4.
 Internal  Forces:  Max     0.164961090 RMS     0.045569359
 Search for a local minimum.
 Step number   1 out of a maximum of   73
 All quantities printed in internal units (Hartrees-Bohrs-Radians)
 Mixed Optimization -- RFO/linear search
 Second derivative matrix not updated -- first step.
 ITU=  0
     Eigenvalues ---    0.00237   0.00237   0.00237   0.00237   0.01295
     Eigenvalues ---    0.03682   0.04050   0.04050   0.06428   0.07243
     Eigenvalues ---    0.07243   0.07564   0.07564   0.16000   0.16000
     Eigenvalues ---    0.16000   0.16000   0.16000   0.16000   0.16085
     Eigenvalues ---    0.17751   0.17751   0.23632   0.23632   0.25000
     Eigenvalues ---    0.28519   0.28519   0.28519   0.28519   0.37230
     Eigenvalues ---    0.37230   0.37230   0.37230   0.37230   0.40989
     Eigenvalues ---    0.40989   0.40989   0.40989   0.55473
 RFO step:  Lambda=-2.51575274D-01 EMin= 2.36824145D-03
 Linear search not attempted -- first point.
 Maximum step size (   0.300) exceeded in Quadratic search.
    -- Step size scaled by   0.500
 Iteration  1 RMS(Cart)=  0.10796335 RMS(Int)=  0.00733829
 Iteration  2 RMS(Cart)=  0.00815413 RMS(Int)=  0.00186415
 Iteration  3 RMS(Cart)=  0.00007957 RMS(Int)=  0.00186364
 Iteration  4 RMS(Cart)=  0.00000038 RMS(Int)=  0.00186364
 Variable       Old X    -DE/DX   Delta X   Delta X   Delta X     New X
                                 (Linear)    (Quad)   (Total)
    R1        2.02201   0.01543   0.00000   0.01238   0.01238   2.03438
    R2        2.02201   0.01703   0.00000   0.01366   0.01366   2.03566
    R3        2.02201   0.01390   0.00000   0.01115   0.01115   2.03316
    R4        2.91018  -0.00461   0.00000  -0.00430  -0.00430   2.90588
    R5        2.70231  -0.15363   0.00000  -0.11621  -0.11621   2.58610
    R6        2.91018   0.00272   0.00000   0.00253   0.00253   2.91271
    R7        2.91018   0.04011   0.00000   0.03739   0.03739   2.94757
    R8        2.91018   0.02996   0.00000   0.02793   0.02793   2.93811
    R9        2.70231  -0.01011   0.00000  -0.00765  -0.00765   2.69466
   R10        2.02201   0.02087   0.00000   0.01674   0.01674   2.03875
   R11        2.70231  -0.16496   0.00000  -0.12478  -0.12478   2.57752
   R12        2.02201   0.01970   0.00000   0.01580   0.01580   2.03781
   R13        2.70231  -0.16037   0.00000  -0.12131  -0.12131   2.58100
   R14        1.81414   0.00593   0.00000   0.00368   0.00368   1.81782
    A1        1.91063  -0.00426   0.00000  -0.00421  -0.00428   1.90635
    A2        1.91063   0.00225   0.00000   0.00213   0.00214   1.91277
    A3        1.91063   0.00542   0.00000   0.00677   0.00673   1.91737
    A4        1.91063   0.00066   0.00000   0.00044   0.00049   1.91112
    A5        1.91063   0.01048   0.00000   0.01305   0.01303   1.92367
    A6        1.91063  -0.01455   0.00000  -0.01817  -0.01814   1.89249
    A7        1.91063   0.00821   0.00000   0.01976   0.01889   1.92952
    A8        1.91063   0.04971   0.00000   0.05604   0.05521   1.96584
    A9        1.91063  -0.00929   0.00000  -0.00148  -0.00300   1.90764
   A10        1.91063  -0.01925   0.00000  -0.02387  -0.02366   1.88697
   A11        1.91063  -0.01646   0.00000  -0.02081  -0.02059   1.89004
   A12        1.91063  -0.00094   0.00000  -0.00945  -0.00973   1.90090
   A13        1.91063   0.04511   0.00000   0.05956   0.05948   1.97012
   A14        1.91063  -0.00253   0.00000  -0.00061  -0.00119   1.90944
   A15        1.91063  -0.00593   0.00000  -0.00482  -0.00546   1.90518
   A16        1.91063   0.03217   0.00000   0.05017   0.04538   1.95601
   A17        1.91063   0.12000   0.00000   0.12877   0.12424   2.03488
   A18        1.91063  -0.02972   0.00000  -0.01402  -0.02148   1.88915
   A19        1.91063   0.03312   0.00000   0.05121   0.04698   1.95761
   A20        1.91063   0.09719   0.00000   0.10594   0.10187   2.01250
   A21        1.91063  -0.01607   0.00000   0.00236  -0.00435   1.90629
   A22        1.91114  -0.01975   0.00000  -0.02401  -0.02401   1.88713
    D1        1.04720  -0.01528   0.00000  -0.02763  -0.02806   1.01914
    D2        3.14159   0.00881   0.00000   0.01697   0.01732  -3.12427
    D3        3.14159  -0.01077   0.00000  -0.02066  -0.02099   3.12060
    D4       -1.04720   0.01333   0.00000   0.02395   0.02439  -1.02281
    D5       -1.04720  -0.01245   0.00000  -0.02326  -0.02366  -1.07086
    D6        1.04720   0.01165   0.00000   0.02135   0.02172   1.06891
    D7        1.04526  -0.03074   0.00000  -0.04525  -0.04526   1.00000
    D8        3.13965   0.00263   0.00000   0.00034   0.00037   3.14002
    D9       -1.04914  -0.01528   0.00000  -0.02410  -0.02412  -1.07326
   D10        3.13965   0.00407   0.00000   0.01236   0.01236  -3.13118
   D11       -1.04914   0.03745   0.00000   0.05795   0.05799  -0.99115
   D12        1.04526   0.01953   0.00000   0.03351   0.03349   1.07875
   D13        0.60661  -0.02122   0.00000  -0.03109  -0.03300   0.57361
   D14        2.70101   0.03557   0.00000   0.06131   0.06294   2.76394
   D15       -1.48778  -0.01689   0.00000  -0.02746  -0.02894  -1.51672
   D16        0.60661   0.03990   0.00000   0.06494   0.06700   0.67361
   D17        2.70101  -0.03571   0.00000  -0.05766  -0.05957   2.64144
   D18       -1.48778   0.02108   0.00000   0.03475   0.03636  -1.45142
   D19       -0.76392   0.01783   0.00000   0.02401   0.02575  -0.73817
   D20       -2.85832  -0.04228   0.00000  -0.07511  -0.07659  -2.93491
   D21        1.33047   0.01179   0.00000   0.01851   0.01992   1.35039
   D22       -0.76392  -0.04832   0.00000  -0.08062  -0.08242  -0.84634
   D23       -2.85832   0.03269   0.00000   0.05128   0.05295  -2.80536
   D24        1.33047  -0.02742   0.00000  -0.04784  -0.04938   1.28109
   D25       -3.10067  -0.00012   0.00000   0.00023   0.00020  -3.10046
   D26        1.08812   0.02558   0.00000   0.03563   0.03546   1.12359
   D27       -1.00627  -0.02448   0.00000  -0.03400  -0.03381  -1.04008
         Item               Value     Threshold  Converged?
 Maximum Force            0.164961     0.000450     NO 
 RMS     Force            0.045569     0.000300     NO 
 Maximum Displacement     0.454349     0.001800     NO 
 RMS     Displacement     0.104398     0.001200     NO 
 Predicted change in Energy=-1.112943D-01
 GradGradGradGradGradGradGradGradGradGradGradGradGradGradGradGradGradGrad

                          Input orientation:                          
 ---------------------------------------------------------------------
 Center     Atomic      Atomic             Coordinates (Angstroms)
 Number     Number       Type             X           Y           Z
 ---------------------------------------------------------------------
      1          6           0       -2.408069    4.969058    0.010189
      2          1           0       -2.025466    5.448278    0.895017
      3          1           0       -2.052605    5.495156   -0.860030
      4          1           0       -3.483691    4.987318    0.026421
      5          6           0       -1.947256    3.502560   -0.030319
      6          8           0       -2.372713    2.834257    1.085549
      7          6           0       -2.440683    2.760248   -1.287790
      8          6           0       -1.928513    3.535283   -2.540764
      9          1           0       -0.970074    3.999031   -2.366789
     10          6           0       -1.918627    1.296997   -1.226986
     11          1           0       -0.894171    1.244066   -0.894495
     12          8           0       -3.866590    2.748755   -1.288042
     13          1           0       -4.161698    2.251427   -2.056754
     14          8           0       -2.054225    0.580260   -2.381683
     15          8           0       -1.856823    2.831387   -3.706867
 ---------------------------------------------------------------------
                    Distance matrix (angstroms):
                    1          2          3          4          5
     1  C    0.000000
     2  H    1.076549   0.000000
     3  H    1.077226   1.755883   0.000000
     4  H    1.075900   1.758796   1.758324   0.000000
     5  C    1.537727   2.155964   2.161009   2.137372   0.000000
     6  O    2.390611   2.643858   3.311817   2.644182   1.368504
     7  C    2.562157   3.487485   2.795229   2.788343   1.541340
     8  C    2.965306   3.933642   2.584834   3.334279   2.510727
     9  H    2.942585   3.722036   2.383398   3.608662   2.580787
    10  C    3.905660   4.663415   4.216295   4.199872   2.509450
    11  H    4.121395   4.707184   4.406237   4.643881   2.637533
    12  O    2.956760   3.929747   3.319105   2.624041   2.415353
    13  H    3.838357   4.847298   4.049963   3.504912   3.252003
    14  O    5.010768   5.868150   5.145059   5.221541   3.752358
    15  O    4.323194   5.296593   3.903649   4.607838   3.738402
                    6          7          8          9         10
     6  O    0.000000
     7  C    2.375465   0.000000
     8  C    3.720066   1.559788   0.000000
     9  H    3.904194   2.204884   1.078858   0.000000
    10  C    2.813748   1.554781   2.595387   3.082189   0.000000
    11  H    2.938600   2.201179   3.004952   3.124618   1.078361
    12  O    2.805871   1.425953   2.438048   3.334170   2.430203
    13  H    3.662544   1.952459   2.621004   3.651945   2.575038
    14  O    4.147726   2.469474   2.961971   3.586586   1.365805
    15  O    4.820103   2.489555   1.363967   1.986334   2.916844
                   11         12         13         14         15
    11  H    0.000000
    12  O    3.354734   0.000000
    13  H    3.611420   0.961947   0.000000
    14  O    1.999523   3.030360   2.709210   0.000000
    15  O    3.369825   3.145902   2.893384   2.619666   0.000000
 Stoichiometry    C5H6O4
 Framework group  C1[X(C5H6O4)]
 Deg. of freedom    39
 Full point group                 C1      NOp   1
 Largest Abelian subgroup         C1      NOp   1
 Largest concise Abelian subgroup C1      NOp   1
                         Standard orientation:                         
 ---------------------------------------------------------------------
 Center     Atomic      Atomic             Coordinates (Angstroms)
 Number     Number       Type             X           Y           Z
 ---------------------------------------------------------------------
      1          6           0        2.288283    1.002267   -0.098193
      2          1           0        3.242118    0.901544   -0.587080
      3          1           0        1.857111    1.955529   -0.354707
      4          1           0        2.421242    0.943435    0.967838
      5          6           0        1.354246   -0.138381   -0.535344
      6          8           0        1.907724   -1.353796   -0.236625
      7          6           0       -0.042106   -0.042020    0.110136
      8          6           0       -0.652740    1.344793   -0.259747
      9          1           0       -0.339554    1.678027   -1.236889
     10          6           0       -0.898783   -1.235108   -0.399754
     11          1           0       -0.765577   -1.409682   -1.455520
     12          8           0        0.095794   -0.136401    1.526264
     13          1           0       -0.783854   -0.112485    1.914836
     14          8           0       -2.233704   -1.156173   -0.121943
     15          8           0       -2.010425    1.453160   -0.186580
 ---------------------------------------------------------------------
 Rotational constants (GHZ):           2.5138330           1.3362005           1.0731291
 Standard basis: 6-31G(2df,p) (6D, 7F)
 There are   309 symmetry adapted cartesian basis functions of A   symmetry.
 There are   282 symmetry adapted basis functions of A   symmetry.
   282 basis functions,   438 primitive gaussians,   309 cartesian basis functions
    34 alpha electrons       34 beta electrons
       nuclear repulsion energy       444.8197073953 Hartrees.
 NAtoms=   15 NActive=   15 NUniq=   15 SFac= 1.00D+00 NAtFMM=   60 NAOKFM=F Big=F
 Integral buffers will be    131072 words long.
 Raffenetti 2 integral format.
 Two-electron integral symmetry is turned on.
 One-electron integrals computed using PRISM.
 NBasis=   282 RedAO= T EigKep=  6.87D-04  NBF=   282
 NBsUse=   282 1.00D-06 EigRej= -1.00D+00 NBFU=   282
 Initial guess from the checkpoint file:  "CCpdOpCpOppCdOpCdO.chk"
 B after Tr=     0.000000   -0.000000    0.000000
         Rot=    0.999905   -0.003976    0.003789    0.012629 Ang=  -1.58 deg.
 ExpMin= 1.61D-01 ExpMax= 5.48D+03 ExpMxC= 8.25D+02 IAcc=2 IRadAn=         4 AccDes= 0.00D+00
 Harris functional with IExCor=  402 and IRadAn=       4 diagonalized for initial guess.
 HarFok:  IExCor=  402 AccDes= 0.00D+00 IRadAn=         4 IDoV= 1 UseB2=F ITyADJ=14
 ICtDFT=  3500011 ScaDFX=  1.000000  1.000000  1.000000  1.000000
 FoFCou: FMM=F IPFlag=           0 FMFlag=      100000 FMFlg1=           0
         NFxFlg=           0 DoJE=T BraDBF=F KetDBF=T FulRan=T
         wScrn=  0.000000 ICntrl=       500 IOpCl=  0 I1Cent=   200000004 NGrid=           0
         NMat0=    1 NMatS0=      1 NMatT0=    0 NMatD0=    1 NMtDS0=    0 NMtDT0=    0
 Petite list used in FoFCou.
 Requested convergence on RMS density matrix=1.00D-08 within 128 cycles.
 Requested convergence on MAX density matrix=1.00D-06.
 Requested convergence on             energy=1.00D-06.
 No special actions if energy rises.
 Integral accuracy reduced to 1.0D-05 until final iterations.
 Initial convergence to 1.0D-05 achieved.  Increase integral accuracy.
 SCF Done:  E(RB3LYP) =  -494.814539961     A.U. after   16 cycles
            NFock= 16  Conv=0.60D-08     -V/T= 2.0083
 Calling FoFJK, ICntrl=      2127 FMM=F ISym2X=0 I1Cent= 0 IOpClX= 0 NMat=1 NMatS=1 NMatT=0.
 ***** Axes restored to original set *****
 -------------------------------------------------------------------
 Center     Atomic                   Forces (Hartrees/Bohr)
 Number     Number              X              Y              Z
 -------------------------------------------------------------------
      1        6           0.042338962   -0.003217904   -0.002595221
      2        1           0.001871397    0.005829651    0.008558527
      3        1           0.001507452    0.010472032   -0.007276116
      4        1          -0.010059014   -0.006090571   -0.000950398
      5        6          -0.147895426   -0.047131198    0.116460784
      6        8           0.074600105    0.050697888   -0.101555639
      7        6          -0.015921378   -0.008763100   -0.005255269
      8        6           0.055203601   -0.147467749   -0.111172571
      9        1           0.000690862    0.036303427    0.000823625
     10        6           0.026477665   -0.030924609   -0.181439281
     11        1           0.004120785   -0.015698269    0.032165691
     12        8           0.002640097    0.012996769    0.016534476
     13        1           0.005984205   -0.003954361   -0.005650329
     14        8          -0.011005403    0.055833415    0.133474807
     15        8          -0.030553909    0.091114579    0.107876916
 -------------------------------------------------------------------
 Cartesian Forces:  Max     0.181439281 RMS     0.062449386

 GradGradGradGradGradGradGradGradGradGradGradGradGradGradGradGradGradGrad
 Berny optimization.
 Using GEDIIS/GDIIS optimizer.
 FormGI is forming the generalized inverse of G from B-inverse, IUseBI=4.
 Internal  Forces:  Max     0.141050597 RMS     0.033627412
 Search for a local minimum.
 Step number   2 out of a maximum of   73
 All quantities printed in internal units (Hartrees-Bohrs-Radians)
 Mixed Optimization -- RFO/linear search
 Update second derivatives using D2CorX and points    1    2
 DE= -1.01D-01 DEPred=-1.11D-01 R= 9.05D-01
 TightC=F SS=  1.41D+00  RLast= 3.66D-01 DXNew= 5.0454D-01 1.0976D+00
 Trust test= 9.05D-01 RLast= 3.66D-01 DXMaxT set to 5.05D-01
 ITU=  1  0
 Use linear search instead of GDIIS.
 Linear search step of   0.591 exceeds DXMaxT=   0.505 but not scaled.
 Quartic linear search produced a step of  2.00000.
 Iteration  1 RMS(Cart)=  0.18687687 RMS(Int)=  0.03086933
 Iteration  2 RMS(Cart)=  0.02938083 RMS(Int)=  0.00956676
 Iteration  3 RMS(Cart)=  0.00043203 RMS(Int)=  0.00956212
 Iteration  4 RMS(Cart)=  0.00000575 RMS(Int)=  0.00956211
 Iteration  5 RMS(Cart)=  0.00000015 RMS(Int)=  0.00956211
 Variable       Old X    -DE/DX   Delta X   Delta X   Delta X     New X
                                 (Linear)    (Quad)   (Total)
    R1        2.03438   0.01029   0.02475   0.00000   0.02475   2.05913
    R2        2.03566   0.01149   0.02731   0.00000   0.02731   2.06297
    R3        2.03316   0.00994   0.02230   0.00000   0.02230   2.05546
    R4        2.90588  -0.00408  -0.00859   0.00000  -0.00859   2.89729
    R5        2.58610  -0.13076  -0.23242   0.00000  -0.23242   2.35368
    R6        2.91271   0.00335   0.00506   0.00000   0.00506   2.91778
    R7        2.94757   0.00034   0.07479   0.00000   0.07479   3.02236
    R8        2.93811  -0.00271   0.05586   0.00000   0.05586   2.99398
    R9        2.69466  -0.00870  -0.01530   0.00000  -0.01530   2.67937
   R10        2.03875   0.01635   0.03348   0.00000   0.03348   2.07223
   R11        2.57752  -0.14086  -0.24957   0.00000  -0.24957   2.32796
   R12        2.03781   0.01460   0.03160   0.00000   0.03160   2.06940
   R13        2.58100  -0.14105  -0.24262   0.00000  -0.24262   2.33837
   R14        1.81782   0.00472   0.00736   0.00000   0.00736   1.82517
    A1        1.90635  -0.00323  -0.00857   0.00000  -0.00900   1.89735
    A2        1.91277   0.00191   0.00428   0.00000   0.00435   1.91712
    A3        1.91737   0.00300   0.01347   0.00000   0.01326   1.93063
    A4        1.91112   0.00006   0.00098   0.00000   0.00129   1.91241
    A5        1.92367   0.01003   0.02607   0.00000   0.02598   1.94965
    A6        1.89249  -0.01179  -0.03628   0.00000  -0.03608   1.85641
    A7        1.92952   0.00955   0.03777   0.00000   0.03270   1.96222
    A8        1.96584   0.03430   0.11042   0.00000   0.10523   2.07108
    A9        1.90764  -0.00530  -0.00599   0.00000  -0.01446   1.89318
   A10        1.88697   0.00666  -0.04732   0.00000  -0.04593   1.84105
   A11        1.89004   0.00168  -0.04118   0.00000  -0.03978   1.85027
   A12        1.90090  -0.01166  -0.01946   0.00000  -0.02118   1.87973
   A13        1.97012  -0.00592   0.11897   0.00000   0.11841   2.08853
   A14        1.90944   0.00398  -0.00238   0.00000  -0.00597   1.90347
   A15        1.90518   0.00480  -0.01091   0.00000  -0.01475   1.89043
   A16        1.95601   0.02306   0.09075   0.00000   0.06148   2.01749
   A17        2.03488   0.03149   0.24849   0.00000   0.22148   2.25636
   A18        1.88915  -0.00335  -0.04297   0.00000  -0.07780   1.81135
   A19        1.95761   0.02598   0.09396   0.00000   0.06736   2.02497
   A20        2.01250   0.02626   0.20373   0.00000   0.17855   2.19105
   A21        1.90629  -0.00036  -0.00869   0.00000  -0.04098   1.86531
   A22        1.88713  -0.01419  -0.04802   0.00000  -0.04802   1.83911
    D1        1.01914  -0.01549  -0.05611   0.00000  -0.05842   0.96072
    D2       -3.12427   0.00906   0.03465   0.00000   0.03656  -3.08771
    D3        3.12060  -0.01122  -0.04199   0.00000  -0.04380   3.07680
    D4       -1.02281   0.01333   0.04877   0.00000   0.05118  -0.97163
    D5       -1.07086  -0.01244  -0.04733   0.00000  -0.04954  -1.12040
    D6        1.06891   0.01211   0.04343   0.00000   0.04545   1.11436
    D7        1.00000  -0.01176  -0.09052   0.00000  -0.09032   0.90967
    D8        3.14002  -0.01391   0.00074   0.00000   0.00130   3.14132
    D9       -1.07326  -0.01378  -0.04825   0.00000  -0.04806  -1.12132
   D10       -3.13118   0.02042   0.02471   0.00000   0.02428  -3.10690
   D11       -0.99115   0.01827   0.11597   0.00000   0.11590  -0.87525
   D12        1.07875   0.01840   0.06699   0.00000   0.06654   1.14529
   D13        0.57361  -0.01606  -0.06600   0.00000  -0.07254   0.50107
   D14        2.76394   0.02698   0.12587   0.00000   0.13068   2.89462
   D15       -1.51672  -0.01899  -0.05787   0.00000  -0.06188  -1.57860
   D16        0.67361   0.02406   0.13400   0.00000   0.14134   0.81495
   D17        2.64144  -0.02397  -0.11914   0.00000  -0.12562   2.51582
   D18       -1.45142   0.01908   0.07273   0.00000   0.07760  -1.37381
   D19       -0.73817   0.01379   0.05150   0.00000   0.05778  -0.68039
   D20       -2.93491  -0.03070  -0.15318   0.00000  -0.15785  -3.09276
   D21        1.35039   0.01958   0.03983   0.00000   0.04420   1.39459
   D22       -0.84634  -0.02491  -0.16484   0.00000  -0.17144  -1.01778
   D23       -2.80536   0.02411   0.10591   0.00000   0.11170  -2.69366
   D24        1.28109  -0.02038  -0.09877   0.00000  -0.10393   1.17715
   D25       -3.10046   0.00201   0.00040   0.00000   0.00024  -3.10022
   D26        1.12359  -0.00154   0.07093   0.00000   0.06967   1.19325
   D27       -1.04008   0.00006  -0.06761   0.00000  -0.06619  -1.10627
         Item               Value     Threshold  Converged?
 Maximum Force            0.141051     0.000450     NO 
 RMS     Force            0.033627     0.000300     NO 
 Maximum Displacement     0.824776     0.001800     NO 
 RMS     Displacement     0.186521     0.001200     NO 
 Predicted change in Energy=-7.458191D-02
 GradGradGradGradGradGradGradGradGradGradGradGradGradGradGradGradGradGrad

                          Input orientation:                          
 ---------------------------------------------------------------------
 Center     Atomic      Atomic             Coordinates (Angstroms)
 Number     Number       Type             X           Y           Z
 ---------------------------------------------------------------------
      1          6           0       -2.366793    4.968516    0.017191
      2          1           0       -1.937195    5.395429    0.923018
      3          1           0       -2.012896    5.541542   -0.841971
      4          1           0       -3.452365    5.016707    0.065184
      5          6           0       -2.005247    3.483495   -0.103809
      6          8           0       -2.337428    2.829993    0.903113
      7          6           0       -2.460110    2.710520   -1.360634
      8          6           0       -1.954287    3.580806   -2.603498
      9          1           0       -1.053188    4.180163   -2.426666
     10          6           0       -1.933977    1.227550   -1.175895
     11          1           0       -0.938772    1.122755   -0.731161
     12          8           0       -3.877712    2.683559   -1.360596
     13          1           0       -4.123917    2.162459   -2.135636
     14          8           0       -2.057276    0.312745   -1.999985
     15          8           0       -1.870038    3.267839   -3.791999
 ---------------------------------------------------------------------
                    Distance matrix (angstroms):
                    1          2          3          4          5
     1  C    0.000000
     2  H    1.089647   0.000000
     3  H    1.091678   1.772643   0.000000
     4  H    1.087700   1.781867   1.780577   0.000000
     5  C    1.533181   2.171289   2.186435   2.115052   0.000000
     6  O    2.314952   2.596545   3.240855   2.593632   1.245513
     7  C    2.646820   3.563319   2.912679   2.887217   1.544020
     8  C    2.993980   3.966039   2.636456   3.380519   2.502102
     9  H    2.884354   3.671337   2.299054   3.558816   2.605268
    10  C    3.950394   4.666547   4.327616   4.266555   2.498747
    11  H    4.170031   4.689232   4.548813   4.702677   2.665339
    12  O    3.066301   4.041626   3.451750   2.767191   2.392809
    13  H    3.949190   4.958751   4.189055   3.666240   3.219040
    14  O    5.083405   5.864473   5.355678   5.323387   3.694840
    15  O    4.201071   5.173251   3.727304   4.521079   3.696963
                    6          7          8          9         10
     6  O    0.000000
     7  C    2.270215   0.000000
     8  C    3.606500   1.599364   0.000000
     9  H    3.815712   2.296889   1.096575   0.000000
    10  C    2.655725   1.584343   2.752504   3.325378   0.000000
    11  H    2.746225   2.287291   3.252527   3.497937   1.095082
    12  O    2.741952   1.417859   2.459557   3.369608   2.435607
    13  H    3.587637   1.915529   2.633989   3.685810   2.567293
    14  O    3.852662   2.514035   3.324915   4.018353   1.237414
    15  O    4.738591   2.563264   1.231901   1.834043   3.318263
                   11         12         13         14         15
    11  H    0.000000
    12  O    3.386690   0.000000
    13  H    3.632999   0.965840   0.000000
    14  O    1.875389   3.056725   2.776841   0.000000
    15  O    3.851931   3.206845   3.007553   3.461062   0.000000
 Stoichiometry    C5H6O4
 Framework group  C1[X(C5H6O4)]
 Deg. of freedom    39
 Full point group                 C1      NOp   1
 Largest Abelian subgroup         C1      NOp   1
 Largest concise Abelian subgroup C1      NOp   1
                         Standard orientation:                         
 ---------------------------------------------------------------------
 Center     Atomic      Atomic             Coordinates (Angstroms)
 Number     Number       Type             X           Y           Z
 ---------------------------------------------------------------------
      1          6           0        2.383994    0.753738   -0.112631
      2          1           0        3.307489    0.502884   -0.633747
      3          1           0        2.096035    1.772016   -0.380866
      4          1           0        2.537494    0.689638    0.962274
      5          6           0        1.281081   -0.255600   -0.452435
      6          8           0        1.624014   -1.430258   -0.220319
      7          6           0       -0.131142   -0.033893    0.131063
      8          6           0       -0.519815    1.469724   -0.251085
      9          1           0       -0.062143    1.858731   -1.168519
     10          6           0       -1.018042   -1.233025   -0.403383
     11          1           0       -0.835011   -1.542105   -1.437875
     12          8           0       -0.036910   -0.143584    1.541528
     13          1           0       -0.939938   -0.037973    1.867463
     14          8           0       -2.228248   -1.382102   -0.192737
     15          8           0       -1.618903    2.024837   -0.213209
 ---------------------------------------------------------------------
 Rotational constants (GHZ):           2.0708853           1.4633066           1.0501396
 Standard basis: 6-31G(2df,p) (6D, 7F)
 There are   309 symmetry adapted cartesian basis functions of A   symmetry.
 There are   282 symmetry adapted basis functions of A   symmetry.
   282 basis functions,   438 primitive gaussians,   309 cartesian basis functions
    34 alpha electrons       34 beta electrons
       nuclear repulsion energy       445.4442359727 Hartrees.
 NAtoms=   15 NActive=   15 NUniq=   15 SFac= 1.00D+00 NAtFMM=   60 NAOKFM=F Big=F
 Integral buffers will be    131072 words long.
 Raffenetti 2 integral format.
 Two-electron integral symmetry is turned on.
 One-electron integrals computed using PRISM.
 NBasis=   282 RedAO= T EigKep=  7.11D-04  NBF=   282
 NBsUse=   282 1.00D-06 EigRej= -1.00D+00 NBFU=   282
 Initial guess from the checkpoint file:  "CCpdOpCpOppCdOpCdO.chk"
 B after Tr=    -0.000000    0.000000    0.000000
         Rot=    0.998709   -0.000746    0.010796    0.049625 Ang=  -5.82 deg.
 ExpMin= 1.61D-01 ExpMax= 5.48D+03 ExpMxC= 8.25D+02 IAcc=2 IRadAn=         4 AccDes= 0.00D+00
 Harris functional with IExCor=  402 and IRadAn=       4 diagonalized for initial guess.
 HarFok:  IExCor=  402 AccDes= 0.00D+00 IRadAn=         4 IDoV= 1 UseB2=F ITyADJ=14
 ICtDFT=  3500011 ScaDFX=  1.000000  1.000000  1.000000  1.000000
 FoFCou: FMM=F IPFlag=           0 FMFlag=      100000 FMFlg1=           0
         NFxFlg=           0 DoJE=T BraDBF=F KetDBF=T FulRan=T
         wScrn=  0.000000 ICntrl=       500 IOpCl=  0 I1Cent=   200000004 NGrid=           0
         NMat0=    1 NMatS0=      1 NMatT0=    0 NMatD0=    1 NMtDS0=    0 NMtDT0=    0
 Petite list used in FoFCou.
 Requested convergence on RMS density matrix=1.00D-08 within 128 cycles.
 Requested convergence on MAX density matrix=1.00D-06.
 Requested convergence on             energy=1.00D-06.
 No special actions if energy rises.
 Integral accuracy reduced to 1.0D-05 until final iterations.
 Initial convergence to 1.0D-05 achieved.  Increase integral accuracy.
 SCF Done:  E(RB3LYP) =  -494.912230876     A.U. after   16 cycles
            NFock= 16  Conv=0.88D-08     -V/T= 2.0069
 Calling FoFJK, ICntrl=      2127 FMM=F ISym2X=0 I1Cent= 0 IOpClX= 0 NMat=1 NMatS=1 NMatT=0.
 ***** Axes restored to original set *****
 -------------------------------------------------------------------
 Center     Atomic                   Forces (Hartrees/Bohr)
 Number     Number              X              Y              Z
 -------------------------------------------------------------------
      1        6           0.033846094    0.007123055   -0.014211805
      2        1          -0.001161545   -0.000957791    0.001827447
      3        1          -0.002276830    0.004750413    0.000995049
      4        1          -0.002497763   -0.002616258   -0.000722469
      5        6          -0.108207048   -0.016938640    0.051921018
      6        8           0.045337116    0.006007680   -0.014991942
      7        6          -0.001722354    0.006680362   -0.018025861
      8        6           0.072809593   -0.058481845   -0.043873201
      9        1          -0.008553733    0.026683592    0.028678326
     10        6           0.060458842   -0.015879871   -0.083185241
     11        1          -0.004484258    0.009826393    0.034420060
     12        8           0.000076154    0.006317021    0.005728899
     13        1          -0.000048137   -0.001131804   -0.000812607
     14        8          -0.037874607    0.030862256    0.027621947
     15        8          -0.045701525   -0.002244561    0.024630379
 -------------------------------------------------------------------
 Cartesian Forces:  Max     0.108207048 RMS     0.033043387

 GradGradGradGradGradGradGradGradGradGradGradGradGradGradGradGradGradGrad
 Berny optimization.
 Using GEDIIS/GDIIS optimizer.
 FormGI is forming the generalized inverse of G from B-inverse, IUseBI=4.
 Internal  Forces:  Max     0.038218686 RMS     0.015582255
 Search for a local minimum.
 Step number   3 out of a maximum of   73
 All quantities printed in internal units (Hartrees-Bohrs-Radians)
 Mixed Optimization -- RFO/linear search
 Update second derivatives using D2CorX and points    2    3
 ITU=  0  1  0
 Use linear search instead of GDIIS.
     Eigenvalues ---    0.00237   0.00237   0.00237   0.00238   0.01295
     Eigenvalues ---    0.01399   0.01731   0.02188   0.05333   0.06938
     Eigenvalues ---    0.07390   0.07483   0.09042   0.15759   0.16000
     Eigenvalues ---    0.16000   0.16000   0.16000   0.16254   0.17460
     Eigenvalues ---    0.18487   0.19018   0.22647   0.24031   0.25530
     Eigenvalues ---    0.28259   0.28519   0.28519   0.28688   0.36576
     Eigenvalues ---    0.37230   0.37230   0.37230   0.37251   0.40767
     Eigenvalues ---    0.40989   0.40989   0.43752   0.55469
 RFO step:  Lambda=-8.51547499D-02 EMin= 2.36812933D-03
 Quartic linear search produced a step of  0.19789.
 Iteration  1 RMS(Cart)=  0.08273147 RMS(Int)=  0.00926881
 Iteration  2 RMS(Cart)=  0.00944484 RMS(Int)=  0.00504076
 Iteration  3 RMS(Cart)=  0.00008453 RMS(Int)=  0.00504023
 Iteration  4 RMS(Cart)=  0.00000065 RMS(Int)=  0.00504023
 Variable       Old X    -DE/DX   Delta X   Delta X   Delta X     New X
                                 (Linear)    (Quad)   (Total)
    R1        2.05913   0.00069   0.00490  -0.00286   0.00204   2.06118
    R2        2.06297   0.00097   0.00540  -0.00266   0.00275   2.06572
    R3        2.05546   0.00234   0.00441   0.00142   0.00583   2.06129
    R4        2.89729   0.00050  -0.00170   0.00325   0.00155   2.89884
    R5        2.35368  -0.02736  -0.04599  -0.01443  -0.06042   2.29326
    R6        2.91778   0.00858   0.00100   0.02390   0.02490   2.94268
    R7        3.02236  -0.01999   0.01480  -0.06769  -0.05289   2.96947
    R8        2.99398  -0.01968   0.01105  -0.06391  -0.05286   2.94112
    R9        2.67937  -0.00013  -0.00303   0.00273  -0.00030   2.67907
   R10        2.07223   0.01218   0.00663   0.02244   0.02906   2.10129
   R11        2.32796  -0.02632  -0.04939  -0.00872  -0.05811   2.26985
   R12        2.06940   0.00896   0.00625   0.01530   0.02155   2.09096
   R13        2.33837  -0.03744  -0.04801  -0.03387  -0.08188   2.25649
   R14        1.82517   0.00127   0.00146   0.00079   0.00225   1.82742
    A1        1.89735  -0.00127  -0.00178   0.00147  -0.00057   1.89678
    A2        1.91712   0.00101   0.00086  -0.00181  -0.00126   1.91587
    A3        1.93063  -0.00188   0.00262  -0.01042  -0.00808   1.92255
    A4        1.91241  -0.00145   0.00026  -0.00692  -0.00635   1.90607
    A5        1.94965   0.00943   0.00514   0.03827   0.04341   1.99306
    A6        1.85641  -0.00595  -0.00714  -0.02131  -0.02843   1.82799
    A7        1.96222   0.01040   0.00647   0.08174   0.07500   2.03723
    A8        2.07108   0.00524   0.02082   0.03732   0.04596   2.11704
    A9        1.89318   0.00689  -0.00286   0.07865   0.06142   1.95459
   A10        1.84105   0.01893  -0.00909   0.09165   0.08388   1.92492
   A11        1.85027   0.00523  -0.00787   0.03049   0.02489   1.87516
   A12        1.87973  -0.01506  -0.00419  -0.05074  -0.05606   1.82366
   A13        2.08853  -0.02585   0.02343  -0.12768  -0.10454   1.98399
   A14        1.90347   0.00621  -0.00118   0.02569   0.02431   1.92778
   A15        1.89043   0.01030  -0.00292   0.03393   0.03040   1.92084
   A16        2.01749  -0.00403   0.01217  -0.00045   0.00037   2.01786
   A17        2.25636  -0.02497   0.04383  -0.09143  -0.05875   2.19761
   A18        1.81135   0.03822  -0.01540   0.21736   0.18984   2.00118
   A19        2.02497   0.00213   0.01333   0.02781   0.02734   2.05231
   A20        2.19105  -0.02224   0.03533  -0.07407  -0.05244   2.13861
   A21        1.86531   0.03222  -0.00811   0.18923   0.16639   2.03170
   A22        1.83911  -0.00051  -0.00950   0.00764  -0.00186   1.83724
    D1        0.96072  -0.01585  -0.01156  -0.13876  -0.15211   0.80861
    D2       -3.08771   0.00993   0.00724   0.09668   0.10576  -2.98195
    D3        3.07680  -0.01234  -0.00867  -0.11803  -0.12829   2.94851
    D4       -0.97163   0.01345   0.01013   0.11740   0.12958  -0.84205
    D5       -1.12040  -0.01250  -0.00980  -0.11820  -0.13008  -1.25048
    D6        1.11436   0.01329   0.00899   0.11724   0.12779   1.24215
    D7        0.90967  -0.00205  -0.01787  -0.04381  -0.06381   0.84586
    D8        3.14132  -0.01881   0.00026  -0.12496  -0.12439   3.01692
    D9       -1.12132  -0.01149  -0.00951  -0.09485  -0.10465  -1.22598
   D10       -3.10690   0.02449   0.00480   0.18571   0.18979  -2.91710
   D11       -0.87525   0.00774   0.02293   0.10456   0.12921  -0.74604
   D12        1.14529   0.01505   0.01317   0.13467   0.14895   1.29424
   D13        0.50107  -0.01144  -0.01436  -0.13126  -0.14881   0.35226
   D14        2.89462   0.02021   0.02586   0.16756   0.19278   3.08741
   D15       -1.57860  -0.01717  -0.01225  -0.16420  -0.17625  -1.75484
   D16        0.81495   0.01448   0.02797   0.13461   0.16535   0.98030
   D17        2.51582  -0.01622  -0.02486  -0.13077  -0.15648   2.35933
   D18       -1.37381   0.01542   0.01536   0.16804   0.18511  -1.18870
   D19       -0.68039   0.00743   0.01143   0.11163   0.12496  -0.55543
   D20       -3.09276  -0.02522  -0.03124  -0.19156  -0.22394   2.96648
   D21        1.39459   0.02001   0.00875   0.17510   0.18482   1.57940
   D22       -1.01778  -0.01265  -0.03392  -0.12809  -0.16409  -1.18187
   D23       -2.69366   0.01732   0.02210   0.13883   0.16263  -2.53103
   D24        1.17715  -0.01533  -0.02057  -0.16436  -0.18627   0.99088
   D25       -3.10022   0.00491   0.00005   0.02526   0.02501  -3.07521
   D26        1.19325  -0.01255   0.01379  -0.06864  -0.05517   1.13808
   D27       -1.10627   0.00851  -0.01310   0.05203   0.03954  -1.06673
         Item               Value     Threshold  Converged?
 Maximum Force            0.038219     0.000450     NO 
 RMS     Force            0.015582     0.000300     NO 
 Maximum Displacement     0.283791     0.001800     NO 
 RMS     Displacement     0.080128     0.001200     NO 
 Predicted change in Energy=-7.452777D-02
 GradGradGradGradGradGradGradGradGradGradGradGradGradGradGradGradGradGrad

                          Input orientation:                          
 ---------------------------------------------------------------------
 Center     Atomic      Atomic             Coordinates (Angstroms)
 Number     Number       Type             X           Y           Z
 ---------------------------------------------------------------------
      1          6           0       -2.369422    4.989163    0.049439
      2          1           0       -1.916180    5.374080    0.963823
      3          1           0       -2.014550    5.585594   -0.795114
      4          1           0       -3.455370    5.068945    0.114006
      5          6           0       -2.095865    3.485636   -0.083705
      6          8           0       -2.278905    2.807884    0.906159
      7          6           0       -2.440847    2.713322   -1.391138
      8          6           0       -1.890222    3.487554   -2.642780
      9          1           0       -1.079286    4.219877   -2.436557
     10          6           0       -1.869754    1.272767   -1.246398
     11          1           0       -0.945959    1.145191   -0.650882
     12          8           0       -3.857781    2.674296   -1.416650
     13          1           0       -4.083955    2.143694   -2.192830
     14          8           0       -2.129915    0.398416   -2.016893
     15          8           0       -1.953192    3.117664   -3.783824
 ---------------------------------------------------------------------
                    Distance matrix (angstroms):
                    1          2          3          4          5
     1  C    0.000000
     2  H    1.090728   0.000000
     3  H    1.093131   1.774338   0.000000
     4  H    1.090787   1.784490   1.780278   0.000000
     5  C    1.533999   2.166985   2.218680   2.096237   0.000000
     6  O    2.345238   2.592346   3.268010   2.669077   1.213541
     7  C    2.694405   3.591762   2.964274   2.973832   1.557197
     8  C    3.119697   4.070288   2.798410   3.542648   2.567325
     9  H    2.904553   3.687161   2.331144   3.587766   2.666169
    10  C    3.967425   4.659184   4.338790   4.333110   2.509934
    11  H    4.158463   4.629481   4.569449   4.719962   2.668643
    12  O    3.118211   4.089658   3.501352   2.870398   2.353585
    13  H    4.008003   5.009900   4.252379   3.778056   3.194013
    14  O    5.040045   5.804101   5.330373   5.302019   3.642706
    15  O    4.285985   5.256704   3.876446   4.610544   3.721108
                    6          7          8          9         10
     6  O    0.000000
     7  C    2.304938   0.000000
     8  C    3.634280   1.571378   0.000000
     9  H    3.821853   2.283956   1.111955   0.000000
    10  C    2.675348   1.556373   2.618317   3.275176   0.000000
    11  H    2.639254   2.289477   3.216513   3.558104   1.106486
    12  O    2.811785   1.417701   2.456842   3.339022   2.438344
    13  H    3.647340   1.914939   2.611681   3.660325   2.560652
    14  O    3.791038   2.418065   3.161006   3.985412   1.194085
    15  O    4.711475   2.475126   1.201152   1.947747   3.138334
                   11         12         13         14         15
    11  H    0.000000
    12  O    3.376873   0.000000
    13  H    3.636156   0.967031   0.000000
    14  O    1.955867   2.919836   2.625876   0.000000
    15  O    3.836730   3.070432   2.831966   3.247705   0.000000
 Stoichiometry    C5H6O4
 Framework group  C1[X(C5H6O4)]
 Deg. of freedom    39
 Full point group                 C1      NOp   1
 Largest Abelian subgroup         C1      NOp   1
 Largest concise Abelian subgroup C1      NOp   1
                         Standard orientation:                         
 ---------------------------------------------------------------------
 Center     Atomic      Atomic             Coordinates (Angstroms)
 Number     Number       Type             X           Y           Z
 ---------------------------------------------------------------------
      1          6           0        2.409209    0.842168   -0.088917
      2          1           0        3.330722    0.580008   -0.610236
      3          1           0        2.112718    1.850953   -0.387883
      4          1           0        2.576366    0.821787    0.988793
      5          6           0        1.338374   -0.227614   -0.337987
      6          8           0        1.685017   -1.384599   -0.220064
      7          6           0       -0.138319   -0.013079    0.107227
      8          6           0       -0.648638    1.397959   -0.359441
      9          1           0       -0.076041    1.865710   -1.189973
     10          6           0       -0.973105   -1.198263   -0.459138
     11          1           0       -0.650945   -1.637964   -1.422043
     12          8           0       -0.095494   -0.081184    1.522644
     13          1           0       -1.016460   -0.010473    1.808948
     14          8           0       -2.105065   -1.398628   -0.136094
     15          8           0       -1.759643    1.829780   -0.211245
 ---------------------------------------------------------------------
 Rotational constants (GHZ):           2.2148592           1.4407304           1.0677233
 Standard basis: 6-31G(2df,p) (6D, 7F)
 There are   309 symmetry adapted cartesian basis functions of A   symmetry.
 There are   282 symmetry adapted basis functions of A   symmetry.
   282 basis functions,   438 primitive gaussians,   309 cartesian basis functions
    34 alpha electrons       34 beta electrons
       nuclear repulsion energy       449.4875649241 Hartrees.
 NAtoms=   15 NActive=   15 NUniq=   15 SFac= 1.00D+00 NAtFMM=   60 NAOKFM=F Big=F
 Integral buffers will be    131072 words long.
 Raffenetti 2 integral format.
 Two-electron integral symmetry is turned on.
 One-electron integrals computed using PRISM.
 NBasis=   282 RedAO= T EigKep=  7.32D-04  NBF=   282
 NBsUse=   282 1.00D-06 EigRej= -1.00D+00 NBFU=   282
 Initial guess from the checkpoint file:  "CCpdOpCpOppCdOpCdO.chk"
 B after Tr=     0.000000    0.000000   -0.000000
         Rot=    0.999677    0.009454    0.006094   -0.022785 Ang=   2.91 deg.
 ExpMin= 1.61D-01 ExpMax= 5.48D+03 ExpMxC= 8.25D+02 IAcc=2 IRadAn=         4 AccDes= 0.00D+00
 Harris functional with IExCor=  402 and IRadAn=       4 diagonalized for initial guess.
 HarFok:  IExCor=  402 AccDes= 0.00D+00 IRadAn=         4 IDoV= 1 UseB2=F ITyADJ=14
 ICtDFT=  3500011 ScaDFX=  1.000000  1.000000  1.000000  1.000000
 FoFCou: FMM=F IPFlag=           0 FMFlag=      100000 FMFlg1=           0
         NFxFlg=           0 DoJE=T BraDBF=F KetDBF=T FulRan=T
         wScrn=  0.000000 ICntrl=       500 IOpCl=  0 I1Cent=   200000004 NGrid=           0
         NMat0=    1 NMatS0=      1 NMatT0=    0 NMatD0=    1 NMtDS0=    0 NMtDT0=    0
 Petite list used in FoFCou.
 Requested convergence on RMS density matrix=1.00D-08 within 128 cycles.
 Requested convergence on MAX density matrix=1.00D-06.
 Requested convergence on             energy=1.00D-06.
 No special actions if energy rises.
 Integral accuracy reduced to 1.0D-05 until final iterations.
 Initial convergence to 1.0D-05 achieved.  Increase integral accuracy.
 SCF Done:  E(RB3LYP) =  -494.979554989     A.U. after   14 cycles
            NFock= 14  Conv=0.67D-08     -V/T= 2.0065
 Calling FoFJK, ICntrl=      2127 FMM=F ISym2X=0 I1Cent= 0 IOpClX= 0 NMat=1 NMatS=1 NMatT=0.
 ***** Axes restored to original set *****
 -------------------------------------------------------------------
 Center     Atomic                   Forces (Hartrees/Bohr)
 Number     Number              X              Y              Z
 -------------------------------------------------------------------
      1        6           0.022046836   -0.000850566   -0.011345855
      2        1          -0.001683273   -0.001557306    0.001481928
      3        1          -0.001711359    0.000613254   -0.000039443
      4        1          -0.001751301    0.000469725   -0.000430694
      5        6          -0.066185454   -0.002900799    0.014793771
      6        8           0.026648991   -0.003893552    0.006639170
      7        6           0.004258157    0.019707559    0.000095959
      8        6           0.042852541   -0.030271130   -0.000631818
      9        1          -0.009828311    0.010981599    0.010103079
     10        6           0.039956178    0.014281413   -0.025183429
     11        1          -0.007113936    0.005899984    0.014887623
     12        8           0.002350102    0.001149369   -0.002394473
     13        1          -0.000935869   -0.001355823   -0.000483860
     14        8          -0.025129763   -0.010628632   -0.005101886
     15        8          -0.023773539   -0.001645096   -0.002390070
 -------------------------------------------------------------------
 Cartesian Forces:  Max     0.066185454 RMS     0.017376332

 GradGradGradGradGradGradGradGradGradGradGradGradGradGradGradGradGradGrad
 Berny optimization.
 Using GEDIIS/GDIIS optimizer.
 FormGI is forming the generalized inverse of G from B-inverse, IUseBI=4.
 Internal  Forces:  Max     0.016857362 RMS     0.007977023
 Search for a local minimum.
 Step number   4 out of a maximum of   73
 All quantities printed in internal units (Hartrees-Bohrs-Radians)
 Mixed Optimization -- RFO/linear search
 Update second derivatives using D2CorX and points    3    4
 DE= -6.73D-02 DEPred=-7.45D-02 R= 9.03D-01
 TightC=F SS=  1.41D+00  RLast= 8.40D-01 DXNew= 8.4853D-01 2.5197D+00
 Trust test= 9.03D-01 RLast= 8.40D-01 DXMaxT set to 8.49D-01
 ITU=  1  0  1  0
 Use linear search instead of GDIIS.
     Eigenvalues ---    0.00236   0.00237   0.00237   0.00238   0.00653
     Eigenvalues ---    0.00970   0.01295   0.02289   0.05719   0.06665
     Eigenvalues ---    0.07179   0.07634   0.08823   0.14701   0.15991
     Eigenvalues ---    0.16000   0.16000   0.16061   0.16102   0.16459
     Eigenvalues ---    0.17832   0.21052   0.21481   0.22191   0.25250
     Eigenvalues ---    0.27786   0.28446   0.28521   0.28783   0.36581
     Eigenvalues ---    0.37230   0.37230   0.37230   0.37269   0.40960
     Eigenvalues ---    0.40989   0.41653   0.46852   0.55474
 RFO step:  Lambda=-2.84219288D-02 EMin= 2.36483690D-03
 Quartic linear search produced a step of  0.86574.
 Iteration  1 RMS(Cart)=  0.08858487 RMS(Int)=  0.04099964
 Iteration  2 RMS(Cart)=  0.03904164 RMS(Int)=  0.01472789
 Iteration  3 RMS(Cart)=  0.00195112 RMS(Int)=  0.01459211
 Iteration  4 RMS(Cart)=  0.00001401 RMS(Int)=  0.01459211
 Iteration  5 RMS(Cart)=  0.00000036 RMS(Int)=  0.01459211
 Variable       Old X    -DE/DX   Delta X   Delta X   Delta X     New X
                                 (Linear)    (Quad)   (Total)
    R1        2.06118  -0.00001   0.00177  -0.00389  -0.00212   2.05906
    R2        2.06572  -0.00019   0.00238  -0.00565  -0.00327   2.06245
    R3        2.06129   0.00175   0.00505  -0.00084   0.00421   2.06550
[...]
 ! D22   D(8,7,10,14)         -115.1745         -DE/DX =    0.0                 !
 ! D23   D(12,7,10,11)        -172.7629         -DE/DX =    0.0                 !
 ! D24   D(12,7,10,14)           6.8468         -DE/DX =    0.0                 !
 ! D25   D(5,7,12,13)         -131.2646         -DE/DX =    0.0                 !
 ! D26   D(8,7,12,13)          108.2266         -DE/DX =    0.0                 !
 ! D27   D(10,7,12,13)         -10.9728         -DE/DX =    0.0                 !
 --------------------------------------------------------------------------------
 GradGradGradGradGradGradGradGradGradGradGradGradGradGradGradGradGradGrad


 ----------------------------------------------------------------------

 Electric dipole moment (input orientation):
 (Debye = 10**-18 statcoulomb cm , SI units = C m)
                  (au)            (Debye)         (10**-30 SI)
   Tot        0.785674D+00      0.199698D+01      0.666122D+01
   x         -0.792009D-01     -0.201309D+00     -0.671493D+00
   y          0.167069D+00      0.424648D+00      0.141647D+01
   z          0.763609D+00      0.194090D+01      0.647415D+01

 Dipole polarizability, Alpha (input orientation).
 (esu units = cm**3 , SI units = C**2 m**2 J**-1)
 Alpha(0;0):
               (au)            (10**-24 esu)      (10**-40 SI)
   iso        0.656524D+02      0.972869D+01      0.108246D+02
   aniso      0.878491D+01      0.130179D+01      0.144844D+01
   xx         0.649547D+02      0.962529D+01      0.107096D+02
   yx         0.251170D+01      0.372196D+00      0.414124D+00
   yy         0.645998D+02      0.957270D+01      0.106511D+02
   zx         0.116133D+01      0.172091D+00      0.191477D+00
   zy         0.396716D+01      0.587872D+00      0.654096D+00
   zz         0.674028D+02      0.998806D+01      0.111132D+02

 ----------------------------------------------------------------------

 Dipole orientation:
     6         -5.24052368          8.55484218          2.88558853
     1         -4.23345618          9.17516146          4.57241016
     1         -5.97406900         10.17850366          1.83454774
     1         -6.88850714          7.41367952          3.39531463
     6         -3.48483140          7.04347827          1.23673666
     8         -1.29010674          6.61308280          1.71239004
     6         -4.58516299          5.98760932         -1.25537890
     6         -2.80786391          6.93325806         -3.41731725
     1         -0.77834733          6.91603420         -2.90800111
     6         -4.32150168          3.10664873         -1.13771155
     1         -2.45331096          2.37234517         -0.57597761
     8         -7.07530578          6.66680209         -1.67834255
     1         -7.96098671          5.12122865         -2.12242652
     8         -6.10399852          1.77994010         -1.63165259
     8         -3.60897255          7.63170894         -5.40918838

 Electric dipole moment (dipole orientation):
 (Debye = 10**-18 statcoulomb cm , SI units = C m)
                  (au)            (Debye)         (10**-30 SI)
   Tot        0.785674D+00      0.199698D+01      0.666122D+01
   x          0.000000D+00      0.000000D+00      0.000000D+00
   y          0.000000D+00      0.000000D+00      0.000000D+00
   z          0.785674D+00      0.199698D+01      0.666122D+01

 Dipole polarizability, Alpha (dipole orientation).
 (esu units = cm**3 , SI units = C**2 m**2 J**-1)
 Alpha(0;0):
               (au)            (10**-24 esu)      (10**-40 SI)
   iso        0.656524D+02      0.972869D+01      0.108246D+02
   aniso      0.878491D+01      0.130179D+01      0.144844D+01
   xx         0.652755D+02      0.967283D+01      0.107625D+02
   yx         0.252268D+01      0.373823D+00      0.415934D+00
   yy         0.631261D+02      0.935432D+01      0.104081D+02
   zx         0.200567D+01      0.297210D+00      0.330690D+00
   zy         0.280384D+01      0.415486D+00      0.462291D+00
   zz         0.685557D+02      0.101589D+02      0.113033D+02

 ----------------------------------------------------------------------
 1\1\GINC-LEWIS4-R630-HPC4-NODE227\Freq\RB3LYP\6-31G(2df,p)\C5H6O4\KS29
 C\18-Feb-2021\0\\#N Geom=AllCheck Guess=TCheck SCRF=Check GenChk RB3LY
 P/6-31G(2df,p) Freq\\Title Card Required\\0,1\C,-2.8635931044,4.717778
 6183,0.2419030483\H,-2.4198362763,5.2341157613,1.0933808084\H,-3.18436
 10102,5.4347911285,-0.5204994898\H,-3.7649298397,4.1756265831,0.544563
 8148\C,-1.8600456875,3.7608986436,-0.3424023002\O,-0.7324817255,3.6045
 145938,0.0677408681\C,-2.3124490078,2.928210155,-1.5640195263\C,-1.256
 0225114,3.1840990594,-2.6875402039\H,-0.2148513354,3.2441799849,-2.315
 3894998\C,-2.1964939963,1.4533878772,-1.1652515622\H,-1.247174026,1.14
 76783451,-0.6940567857\O,-3.5969154022,3.2174626569,-1.9908187662\H,-4
 .0483837928,2.3632690065,-2.0925459559\O,-3.1161726893,0.7015875281,-1
 .3650892301\O,-1.5674933951,3.3164809881,-3.8333197995\\Version=ES64L-
 G16RevA.03\State=1-A\HF=-495.0349298\RMSD=1.952e-09\RMSF=2.113e-05\Zer
 oPoint=0.10709\Thermal=0.1167274\Dipole=-0.0792009,0.1670694,0.7636093
 \DipoleDeriv=-0.1911082,0.1624249,0.0735937,0.1907041,-0.1395104,-0.10
 94713,0.0886483,-0.1075069,-0.0222395,0.0360904,-0.0106135,-0.0410123,
 0.0000666,0.0226968,-0.067635,-0.024457,-0.0775578,-0.0194117,0.091539
 1,0.0081469,-0.0019568,0.04105,0.0422218,0.0209219,0.0023498,0.0418647
 ,-0.0079788,0.0252884,-0.042155,0.0216389,-0.0591136,0.014729,0.016681
 7,0.039483,-0.0175682,0.0803131,0.8839498,-0.0010093,0.3830899,-0.2957
 512,0.6991181,0.5743295,0.1028039,0.6914024,0.9053255,-0.8453708,-0.02
 94894,-0.3398221,0.1238661,-0.4200036,-0.1347386,-0.1815092,-0.2071198
 ,-0.5707362,0.3621223,-0.1312932,0.3584114,-0.2846808,-0.6153277,-0.09
 17101,0.2215279,-0.0277422,-0.4796325,0.7276213,0.19622,-0.3827472,0.1
 006678,0.1393666,-0.2349821,-0.1997944,-0.267901,1.446099,-0.1503068,-
 0.0435423,0.0017036,-0.0217424,0.0856706,0.0192817,-0.040444,0.0245103
 ,0.0109941,0.6091494,0.2288037,0.1730604,0.4481748,1.4382935,-0.167078
 5,0.1280065,-0.1958964,0.2101302,-0.0599703,0.0623157,-0.0790467,0.027
 1154,0.013837,0.0366489,-0.0707636,0.0420349,0.0518123,-0.7737189,0.03
 55671,-0.0762231,0.1141786,-0.3598383,0.0065081,-0.1452992,-0.013833,-
 0.4389702,0.3299893,0.0183208,0.0385147,-0.0914865,0.2732846,-0.056069
 3,0.0625794,-0.0187995,0.2628821,-0.6640653,-0.438181,-0.0698956,-0.26
 04054,-0.9386769,0.0562797,-0.1179119,-0.0215556,-0.2678865,-0.3812098
 ,-0.0155154,-0.0593089,-0.0326434,-0.2558612,0.1310335,0.1347805,0.155
 668,-1.1607009\Polar=64.9547082,2.5117026,64.5998135,1.1613253,3.96715
 81,67.4027609\Quadrupole=1.1058503,1.7130497,-2.8189,-2.3982911,-2.554
 4583,1.5154881\PG=C01 [X(C5H6O4)]\NImag=0\\0.52111287,0.04400813,0.503
 40295,0.05391457,0.00887305,0.55594013,-0.09465653,-0.05560124,-0.0906
 4566,0.09852999,-0.05303073,-0.10842064,-0.09960335,0.05697094,0.11455
 635,-0.08767865,-0.10105624,-0.21576880,0.09607396,0.11232520,0.230703
 33,-0.05955459,0.05462197,-0.05812523,-0.00397756,0.00863513,-0.007027
 51,0.06905894,0.05303022,-0.16077336,0.12089514,-0.00476009,0.01210528
 ,-0.01109217,-0.05891533,0.17120475,-0.05475987,0.11860860,-0.17519042
 ,-0.00457634,0.01651717,-0.01422309,0.05938507,-0.13405540,0.18754653,
 -0.22345346,-0.11376306,0.06411329,-0.00815580,-0.00419359,0.00410309,
 0.00747944,0.00424531,-0.00351086,0.24518337,-0.10963942,-0.10715906,0
 .03131671,-0.00975132,-0.00712998,0.00571399,-0.01920695,-0.01092138,0
 .00690120,0.11962481,0.11721875,0.06411654,0.03215562,-0.06437223,-0.0
 2070715,-0.01156192,0.00912130,0.01814724,0.01101449,-0.00730345,-0.06
 882128,-0.03919616,0.06494941,-0.10790380,0.03910075,0.03312910,0.0087
 7922,-0.01011331,-0.00645709,-0.00939742,0.00361138,-0.00007157,-0.021
 29441,0.01755203,0.00728545,0.86496610,0.03456524,-0.13401649,-0.03964
 084,0.01308413,-0.01284956,-0.00652652,0.01486044,-0.01272507,-0.00824
 558,-0.01198761,0.01516899,0.01079625,-0.14282696,0.36495343,0.0285334
 2,-0.03693533,-0.11283139,0.02085719,-0.01907862,-0.01245573,-0.018370
 95,0.01760503,0.01253607,0.00441940,-0.00559476,-0.00368124,0.16022692
 ,0.07757464,0.40968787,-0.04604005,0.01974108,-0.01338048,0.00195582,-
 0.00154117,0.00000399,-0.00301907,0.00193805,0.00354638,-0.00049256,0.
 00267578,0.00100535,-0.65120269,0.09284970,-0.20028451,0.73281008,0.03
 617214,0.01212725,0.00377402,-0.00270011,0.00238934,0.00298893,0.00117
 862,-0.00064841,0.00027175,0.00471311,-0.00513454,-0.00169686,0.080624
 35,-0.09728907,0.00887313,-0.10022955,0.07051642,0.00428822,-0.0045748
 8,0.02186351,-0.00138867,0.00357953,0.00210880,0.00449980,-0.00268314,
 -0.00144856,0.00150927,0.00073400,0.00035305,-0.21047425,0.01474193,-0
 .16349391,0.25315792,-0.00370213,0.16024196,0.00927018,0.01476267,0.01
 079133,-0.00386756,0.00336705,0.00105468,-0.00017506,0.00242826,0.0008
 0768,-0.00000182,-0.00121946,0.00118505,-0.06908785,-0.01249625,-0.008
 88740,-0.02017540,-0.01117280,-0.03582415,0.53183458,-0.00385980,-0.00
 323079,-0.02478053,0.00357247,-0.00144572,-0.00210876,-0.00114938,0.00
 063752,0.00100091,0.00153833,-0.00162883,-0.00180319,0.03016314,-0.100
 23497,-0.01915871,-0.01897219,0.02058787,-0.00827977,-0.01079064,0.379
 64558,-0.00778474,-0.01553589,-0.00476797,0.00074859,-0.00190351,0.000
 23602,0.00133075,-0.00146600,-0.00127070,-0.00089241,0.00121867,0.0008
 4163,0.02965192,-0.03850592,-0.09631894,-0.04166252,-0.00454806,-0.008
 82721,0.08821546,0.01029178,0.35918936,-0.00161068,-0.00174561,-0.0024
 0508,0.00053215,-0.00098628,-0.00043690,-0.00016281,0.00001140,-0.0000
 0807,-0.00044853,0.00015835,0.00005112,0.02008071,0.00837132,0.0142124
 6,-0.01498136,-0.00091495,-0.00260798,-0.09779443,0.00160109,-0.000087
 39,0.55952493,-0.00303491,-0.00330256,-0.00111456,0.00069542,-0.001056
 95,-0.00018417,0.00054514,-0.00053911,-0.00042536,-0.00032276,0.000569
 89,0.00045578,0.01929618,0.00717512,-0.01566742,-0.00422012,-0.0001344
 6,0.00222201,-0.01462229,-0.06827423,0.00050978,0.00730663,0.20625495,
 -0.00068685,0.00124984,0.00022465,-0.00032935,0.00015448,0.00048028,-0
 .00003669,0.00029482,0.00069666,-0.00004833,0.00020780,0.00037762,-0.0
 0191684,-0.01160341,-0.04902459,0.01364633,-0.00075793,0.00085597,0.01
 684910,-0.00911564,-0.04214682,0.22789407,-0.08053572,0.92274714,0.000
 29485,-0.00019453,0.00057887,-0.00002122,0.00011236,0.00010720,0.00006
 761,-0.00019982,-0.00005480,0.00004937,-0.00003336,-0.00015675,-0.0047
 7543,-0.00113154,-0.00302704,0.00430736,0.00006384,-0.00138247,-0.0133
 8809,-0.00272481,-0.00420704,-0.26160030,-0.01419739,-0.04916092,0.281
 01750,0.00022918,0.00076962,-0.00036766,0.00002254,0.00008709,-0.00000
 301,-0.00010970,0.00005859,0.00015432,0.00008887,-0.00015371,-0.000111
 49,-0.00077056,-0.00053147,0.00085241,0.00105812,-0.00047304,0.0010285
 6,-0.00334563,0.01436808,-0.00189691,-0.01778759,-0.06013733,-0.001501
 88,0.01660842,0.02521888,-0.00026694,-0.00025538,0.00019214,0.00001879
 ,0.00000128,-0.00005664,-0.00002879,0.00001010,-0.00007023,-0.00009159
 ,0.00008958,0.00007722,0.00468926,0.00117015,0.00291089,-0.00278972,0.
 00007028,-0.00093552,0.01507026,0.00288832,0.00366217,-0.05621690,-0.0
 0405987,-0.06827866,0.07641347,-0.00109178,0.08958610,0.00007538,-0.00
 042122,0.00061048,-0.00023424,0.00019959,-0.00006008,-0.00018018,0.000
 19859,-0.00003259,-0.00035205,0.00053755,0.00029896,-0.00133913,-0.006
 95667,-0.00155177,-0.00219200,-0.00136768,-0.00267599,-0.07025248,0.01
 728035,-0.00545588,0.00268418,-0.02295689,0.01074854,-0.00099556,0.001
 68623,-0.00060760,0.82957546,0.00106282,0.00228266,0.00228511,-0.00077
 478,0.00102262,0.00056919,0.00008748,0.00041427,0.00045201,0.00008767,
 0.00031798,0.00034668,-0.02583973,-0.03618892,-0.02761712,0.01583353,-
 0.00474535,0.00860929,0.05071737,-0.09463049,0.02104694,-0.02412637,-0
 .01011286,0.03565117,0.00314558,-0.00018749,-0.00164155,0.22022222,0.5
 9366615,-0.00193797,0.00012806,-0.00497049,0.00116202,-0.00052954,-0.0
 0091171,-0.00055149,0.00063389,0.00044658,0.00046624,-0.00037328,-0.00
 028038,0.00778148,-0.02942603,0.01104756,-0.00327117,0.00401269,-0.002
 19730,-0.01398598,0.01822369,-0.07734345,0.00251025,0.02652090,-0.0119
 0344,0.00093711,-0.00336744,0.00022458,0.20908464,-0.00219599,0.284597
 37,0.00035685,0.00051172,-0.00029507,-0.00000009,0.00003826,0.00002516
 ,-0.00007872,-0.00000636,0.00005279,0.00005703,-0.00010495,-0.00013093
 ,-0.00115682,-0.00091940,-0.00075675,0.00051709,-0.00138665,0.00069297
 ,0.00129980,0.00021393,-0.00455679,-0.00082351,0.00217136,0.00069841,0
 .00044279,-0.00021499,0.00007512,-0.21601283,0.06968385,-0.08243072,0.
 24620791,-0.00025313,-0.00006495,-0.00010712,-0.00000301,-0.00008699,-
 0.00006811,-0.00003807,0.00011635,0.00001691,-0.00011123,0.00003833,0.
 00009467,0.00489947,0.00142070,0.00387448,-0.00322319,0.00201613,-0.00
 118748,0.01932917,-0.00425046,0.01059424,0.00121448,-0.00041745,-0.001
 32173,-0.00068258,-0.00028638,0.00045822,0.06647858,-0.08734346,0.0351
 6059,-0.05923131,0.08152762,-0.00011455,-0.00027581,0.00063767,-0.0000
 4922,0.00000292,0.00011728,0.00009263,-0.00015376,-0.00012717,-0.00002
 652,0.00011839,0.00001292,-0.00026714,0.00177982,-0.00073168,0.0010628
 6,-0.00021127,0.00013725,-0.01086901,0.00218068,0.00759270,-0.00090633
 ,-0.00288741,0.00070995,0.00035933,0.00047796,-0.00001663,-0.08259558,
 0.03930368,-0.10186076,0.10659099,-0.03933510,0.07845592,0.00163502,-0
 .00158160,0.00228483,0.00059376,0.00056881,0.00022692,-0.00009417,-0.0
 0082542,-0.00051047,0.00072888,-0.00001738,-0.00148864,-0.02480281,0.0
 1019733,-0.00708603,-0.00328946,-0.00497590,-0.00630616,-0.22690544,0.
 05909739,-0.06062576,-0.04944666,0.00980185,-0.01043683,-0.00420216,-0
 .00252826,0.00506379,-0.03184229,0.00631343,-0.01278747,0.00178165,0.0
 0298468,-0.00002199,0.44025136,-0.00016785,-0.00177176,-0.00023351,-0.
 00104588,0.00060641,-0.00012349,-0.00001246,0.00065678,-0.00123716,-0.
 00029993,-0.00061445,0.00027028,-0.01922203,0.00743654,-0.00123367,-0.
 00302188,-0.00186562,-0.00626370,0.00999191,-0.09845780,-0.00006784,-0
 .00475260,0.00425016,0.00051632,-0.00113631,0.00062015,0.00046436,0.03
 416281,-0.02487093,0.01442537,-0.00019157,-0.00511684,0.00224379,0.120
 53711,0.50314394,0.00173221,0.00013882,-0.00232369,-0.00122823,0.00035
 005,0.00065739,0.00018447,-0.00014920,-0.00064165,-0.00097422,-0.00096
 270,0.00036154,-0.02625869,0.01025245,-0.00361987,-0.00411117,-0.00507
 982,-0.00549197,-0.06112871,0.01685495,-0.07749749,0.01694448,-0.00082
 519,-0.00138298,0.00059350,0.00088799,-0.00159845,-0.01823404,0.008408
 16,-0.00640714,-0.00077980,0.00288726,0.00160671,0.11870034,0.01560558
 ,0.09565748,0.00022009,0.00054512,0.00021753,-0.00001088,0.00000214,0.
 00020133,0.00005398,-0.00032277,-0.00000291,0.00013049,-0.00000155,-0.
 00001362,-0.00340496,0.00086798,0.00138236,-0.00019601,-0.00026540,-0.
 00113535,-0.03478799,-0.03295805,-0.01031836,-0.00439101,-0.00068689,-
 0.00190923,-0.00046995,0.00015744,0.00052504,-0.00444142,-0.00313476,-
 0.00287156,0.00011386,-0.00076107,0.00008611,-0.12299922,-0.14645616,-
 0.03123395,0.16647278,0.00011757,-0.00007848,-0.00020657,0.00014898,0.
 00013857,-0.00000881,-0.00008402,-0.00000886,-0.00000425,0.00008126,-0
 .00016414,-0.00044924,0.00201676,-0.00156458,0.00213548,0.00085996,0.0
 0067081,0.00075622,-0.00526327,0.00760469,-0.00087680,0.00314148,-0.00
 146150,-0.00124973,0.00086648,0.00071394,-0.00042724,0.01258241,0.0068
 3160,0.00419459,-0.00221566,-0.00143053,-0.00076605,-0.18947862,-0.381
 76065,-0.04361765,0.18399112,0.37110300,0.00003596,-0.00034759,0.00036
 011,0.00001330,0.00017379,-0.00006595,0.00009677,0.00004486,-0.0002340
 2,0.00010679,-0.00036304,-0.00032741,-0.00548125,0.00109593,-0.0008796
 6,-0.00119266,-0.00091376,-0.00184613,-0.00712598,-0.01092343,-0.00606
 893,0.00225639,0.00028240,0.00288242,0.00070562,-0.00006557,-0.0006755
 2,-0.00531617,-0.00284180,0.00161145,0.00038902,-0.00014056,0.00087963
 ,-0.02979395,-0.02812767,-0.00950752,0.04194248,0.04357595,0.01877462,
 -0.00031665,-0.00024680,-0.00158667,0.00057063,-0.00033330,-0.00024218
 ,-0.00008685,-0.00025783,-0.00008828,0.00034628,-0.00053074,-0.0006018
 7,0.00579197,0.00244757,0.00998741,-0.00177622,0.00034397,-0.00181733,
 -0.01763742,-0.04149146,-0.00376408,0.00489276,0.00243026,-0.01141046,
 -0.00014993,0.00013439,0.00052845,-0.50170892,-0.31416068,-0.10577678,
 -0.03299737,-0.03030531,-0.01352309,0.01084292,0.01292568,0.00083211,0
 .00245312,-0.00723244,0.00448164,0.52853428,-0.00035508,-0.00069737,-0
 .00184515,0.00046182,-0.00032820,-0.00053786,-0.00023357,0.00023190,-0
 .00013381,0.00020725,-0.00027610,-0.00022770,0.00816734,0.00230881,0.0
 1360530,-0.00555108,0.00178974,-0.00410566,-0.04444979,-0.06773314,0.0
 0373575,0.00996884,-0.00318010,-0.01317129,-0.00152858,0.00059044,0.00
 050322,-0.32458920,-0.34764595,-0.06521530,-0.00782630,0.01381616,-0.0
 0298389,-0.00886628,-0.00105911,-0.00292802,-0.00116660,-0.00074276,-0
 .00097756,0.37667562,0.40208517,0.00095488,0.00018140,0.00109294,-0.00
 027050,0.00014790,0.00025565,0.00008952,-0.00025684,-0.00009756,-0.000
 07041,0.00007342,-0.00008102,-0.00202711,0.00534264,-0.00224231,0.0004
 7898,-0.00170007,0.00013955,-0.00418259,0.00342299,0.02285552,0.003300
 33,-0.00274748,-0.00291709,-0.00058897,0.00106968,0.00010104,-0.103800
 78,-0.06106400,-0.09092009,-0.01873544,-0.01159082,0.01249980,0.005191
 72,0.00549884,0.00111871,0.00337157,-0.00394647,-0.00324755,0.11664275
 ,0.06558872,0.05833107,0.00057051,0.00026264,0.00079820,-0.00003770,0.
 00030410,0.00010610,0.00006645,-0.00017557,-0.00017615,0.00022377,-0.0
 0004338,-0.00016950,-0.00525269,-0.00092530,0.00034528,0.00377447,-0.0
 0008299,-0.00053584,0.01166897,-0.00152036,0.01940828,-0.15645545,0.01
 779441,-0.19390095,-0.00057685,0.00477154,-0.04238264,-0.00278394,0.00
 088238,0.00167140,0.00029236,-0.00029747,0.00018151,0.00774862,-0.0013
 1083,0.00496170,0.00125710,0.00046800,-0.00111797,0.00124140,-0.000914
 38,-0.00035395,0.13826297,0.00115562,0.00093298,0.00075525,-0.00031987
 ,0.00041239,0.00011183,-0.00017930,0.00019074,0.00017869,0.00009156,-0
 .00013174,-0.00008724,-0.00665881,-0.00306347,0.00076516,0.00180296,0.
 00019292,-0.00087477,0.00276372,0.01704269,0.01740375,0.01853983,-0.06
 963357,0.08118291,0.00103225,0.01934265,0.00182031,0.00294334,0.001190
 17,-0.00219219,-0.00052192,0.00006177,0.00050604,-0.00122714,-0.001196
 81,-0.00182269,0.00018946,0.00014889,-0.00047196,-0.00039893,0.0008405
 2,-0.00001990,-0.01921277,0.03366986,-0.00034623,-0.00235426,-0.000086
 15,0.00032127,-0.00057539,-0.00019814,0.00031442,-0.00064182,-0.000618
 98,-0.00028246,0.00011618,-0.00004897,0.01018980,0.01119448,0.00909692
 ,-0.00620959,-0.00138089,-0.00145947,0.00803026,0.02130670,-0.08013589
 ,-0.20450046,0.07845631,-0.75332113,-0.02111711,0.00393482,-0.02512248
 ,-0.00041213,-0.02131176,-0.00113278,-0.00083896,0.00066453,0.00008640
 ,-0.00241030,-0.00173752,0.00906894,-0.00024144,0.00089057,-0.00165552
 ,0.00633838,0.00869326,0.00311134,0.21116454,-0.09725519,0.84241591\\-
 0.00001108,-0.00000847,0.00000389,0.00000273,0.00000374,-0.00000187,0.
 00000045,0.00000574,0.00000069,0.00000194,0.00000281,-0.00000323,-0.00
 001914,0.00001978,-0.00000372,0.00001523,-0.00000467,-0.00000048,-0.00
 001759,-0.00009394,0.00004247,0.00004224,0.00001527,-0.00004139,-0.000
 00350,-0.00000112,0.00000843,-0.00000742,0.00004849,-0.00002130,0.0000
 0433,-0.00000799,0.00000244,-0.00000970,0.00002076,-0.00000242,0.00001
 284,0.00000213,0.00000186,0.00000358,-0.00000064,0.00000414,-0.0000149
 2,-0.00000190,0.00001049\\\@


 THE PROGRESS OF RIVERS TO THE SEA IS NOT AS RAPID
 AS THAT OF MAN TO ERROR.
                                              -- VOLTAIRE
 Job cpu time:       0 days  0 hours 28 minutes 51.5 seconds.
 Elapsed time:       0 days  0 hours 28 minutes 51.4 seconds.
 File lengths (MBytes):  RWF=    119 Int=      0 D2E=      0 Chk=      7 Scr=      1
 Normal termination of Gaussian 16 at Thu Feb 18 00:46:33 2021.
### All Done ###
