Currently Loaded Modulefiles:
  1) miniconda3/miniconda3-4.3.30   2) gaussian/gaussian-16-A.03
### Starting Gaussian ###
 Entering Gaussian System, Link 0=g16
 Initial command:
 /cluster/software/gaussian/gaussian-16-A.03/avx2/g16/l1.exe "/local/scratch/ks29c/Gau-3818.inp" -scrdir="/local/scratch/ks29c/"
 Entering Link 1 = /cluster/software/gaussian/gaussian-16-A.03/avx2/g16/l1.exe PID=      3819.
  
 Copyright (c) 1988,1990,1992,1993,1995,1998,2003,2009,2016,
            Gaussian, Inc.  All Rights Reserved.
  
 This is part of the Gaussian(R) 16 program.  It is based on
 the Gaussian(R) 09 system (copyright 2009, Gaussian, Inc.),
 the Gaussian(R) 03 system (copyright 2003, Gaussian, Inc.),
 the Gaussian(R) 98 system (copyright 1998, Gaussian, Inc.),
 the Gaussian(R) 94 system (copyright 1995, Gaussian, Inc.),
 the Gaussian 92(TM) system (copyright 1992, Gaussian, Inc.),
 the Gaussian 90(TM) system (copyright 1990, Gaussian, Inc.),
 the Gaussian 88(TM) system (copyright 1988, Gaussian, Inc.),
 the Gaussian 86(TM) system (copyright 1986, Carnegie Mellon
 University), and the Gaussian 82(TM) system (copyright 1983,
 Carnegie Mellon University). Gaussian is a federally registered
 trademark of Gaussian, Inc.
  
 This software contains proprietary and confidential information,
 including trade secrets, belonging to Gaussian, Inc.
  
 This software is provided under written license and may be
 used, copied, transmitted, or stored only in accord with that
 written license.
  
 The following legend is applicable only to US Government
 contracts under FAR:
  
                    RESTRICTED RIGHTS LEGEND
  
 Use, reproduction and disclosure by the US Government is
 subject to restrictions as set forth in subparagraphs (a)
 and (c) of the Commercial Computer Software - Restricted
 Rights clause in FAR 52.227-19.
  
 Gaussian, Inc.
 340 Quinnipiac St., Bldg. 40, Wallingford CT 06492
  
  
 ---------------------------------------------------------------
 Warning -- This program may not be used in any manner that
 competes with the business of Gaussian, Inc. or will provide
 assistance to any competitor of Gaussian, Inc.  The licensee
 of this program is prohibited from giving any competitor of
 Gaussian, Inc. access to this program.  By using this program,
 the user acknowledges that Gaussian, Inc. is engaged in the
 business of creating and licensing software in the field of
 computational chemistry and represents and warrants to the
 licensee that it is not a competitor of Gaussian, Inc. and that
 it will not use this program in any manner prohibited above.
 ---------------------------------------------------------------
  

 Cite this work as:
 Gaussian 16, Revision A.03,
 M. J. Frisch, G. W. Trucks, H. B. Schlegel, G. E. Scuseria, 
 M. A. Robb, J. R. Cheeseman, G. Scalmani, V. Barone, 
 G. A. Petersson, H. Nakatsuji, X. Li, M. Caricato, A. V. Marenich, 
 J. Bloino, B. G. Janesko, R. Gomperts, B. Mennucci, H. P. Hratchian, 
 J. V. Ortiz, A. F. Izmaylov, J. L. Sonnenberg, D. Williams-Young, 
 F. Ding, F. Lipparini, F. Egidi, J. Goings, B. Peng, A. Petrone, 
 T. Henderson, D. Ranasinghe, V. G. Zakrzewski, J. Gao, N. Rega, 
 G. Zheng, W. Liang, M. Hada, M. Ehara, K. Toyota, R. Fukuda, 
 J. Hasegawa, M. Ishida, T. Nakajima, Y. Honda, O. Kitao, H. Nakai, 
 T. Vreven, K. Throssell, J. A. Montgomery, Jr., J. E. Peralta, 
 F. Ogliaro, M. J. Bearpark, J. J. Heyd, E. N. Brothers, K. N. Kudin, 
 V. N. Staroverov, T. A. Keith, R. Kobayashi, J. Normand, 
 K. Raghavachari, A. P. Rendell, J. C. Burant, S. S. Iyengar, 
 J. Tomasi, M. Cossi, J. M. Millam, M. Klene, C. Adamo, R. Cammi, 
 J. W. Ochterski, R. L. Martin, K. Morokuma, O. Farkas, 
 J. B. Foresman, and D. J. Fox, Gaussian, Inc., Wallingford CT, 2016.
 
 ******************************************
 Gaussian 16:  ES64L-G16RevA.03 25-Dec-2016
                18-Feb-2021 
 ******************************************
 %NProcShared=20
 Will use up to   20 processors via shared memory.
 %Chk=CCpOppCdOpC1pOpCC1.chk
 -----------------------------
 # opt freq b3lyp/6-31g(2df,p)
 -----------------------------
 1/18=20,19=15,26=3,38=1/1,3;
 2/9=110,12=2,17=6,18=5,40=1/2;
 3/5=1,6=6,7=104,11=2,25=1,30=1,71=1,74=-5/1,2,3;
 4//1;
 5/5=2,38=5/2;
 6/7=2,8=2,9=2,10=2,28=1/1;
 7//1,2,3,16;
 1/18=20,19=15,26=3/3(2);
 2/9=110/2;
 99//99;
 2/9=110/2;
 3/5=1,6=6,7=104,11=2,25=1,30=1,71=1,74=-5/1,2,3;
 4/5=5,16=3,69=1/1;
 5/5=2,38=5/2;
 7//1,2,3,16;
 1/18=20,19=15,26=3/3(-5);
 2/9=110/2;
 6/7=2,8=2,9=2,10=2,19=2,28=1/1;
 99/9=1/99;
 -----
 Title
 -----
 Symbolic Z-matrix:
 Charge =  0 Multiplicity = 1
 C                     0.91394  -0.26222   0.23429 
 C                     2.41519   0.02323  -0.0372 
 O                     2.52536   1.30371  -0.61136 
 C                     3.21335  -0.0108    1.25465 
 O                     2.69457  -0.28546   2.32637 
 C                     3.09834  -0.98186  -1.01685 
 O                     4.39741  -0.64661  -1.42899 
 C                     2.7501   -2.45693  -1.12427 
 C                     2.28316  -1.46513  -2.20625 
 H                     0.50583   0.49576   0.93725 
 H                     0.7533   -1.25719   0.69597 
 H                     0.31504  -0.18627  -0.69535 
 H                     2.21542   1.97195   0.05605 
 H                     4.27392   0.21927   1.23239 
 H                     5.00998  -1.05554  -0.76468 
 H                     2.08259  -2.71636  -0.28097 
 H                     3.69001  -3.0228   -1.30302 
 H                     1.18194  -1.58721  -2.19202 
 H                     2.82482  -1.77709  -3.1248 
 

 GradGradGradGradGradGradGradGradGradGradGradGradGradGradGradGradGradGrad
 Berny optimization.
 Initialization pass.
                           ----------------------------
                           !    Initial Parameters    !
                           ! (Angstroms and Degrees)  !
 --------------------------                            --------------------------
 ! Name  Definition              Value          Derivative Info.                !
 --------------------------------------------------------------------------------
 ! R1    R(1,2)                  1.5521         estimate D2E/DX2                !
 ! R2    R(1,10)                 1.1114         estimate D2E/DX2                !
 ! R3    R(1,11)                 1.1086         estimate D2E/DX2                !
 ! R4    R(1,12)                 1.1085         estimate D2E/DX2                !
 ! R5    R(2,3)                  1.4076         estimate D2E/DX2                !
 ! R6    R(2,4)                  1.5189         estimate D2E/DX2                !
 ! R7    R(2,6)                  1.561          estimate D2E/DX2                !
 ! R8    R(3,13)                 0.994          estimate D2E/DX2                !
 ! R9    R(4,5)                  1.2219         estimate D2E/DX2                !
 ! R10   R(4,14)                 1.0855         estimate D2E/DX2                !
 ! R11   R(6,7)                  1.4035         estimate D2E/DX2                !
 ! R12   R(6,8)                  1.5194         estimate D2E/DX2                !
 ! R13   R(6,9)                  1.5208         estimate D2E/DX2                !
 ! R14   R(7,15)                 0.9919         estimate D2E/DX2                !
 ! R15   R(8,9)                  1.5403         estimate D2E/DX2                !
 ! R16   R(8,16)                 1.1064         estimate D2E/DX2                !
 ! R17   R(8,17)                 1.1116         estimate D2E/DX2                !
 ! R18   R(9,18)                 1.1081         estimate D2E/DX2                !
 ! R19   R(9,19)                 1.1111         estimate D2E/DX2                !
 ! A1    A(2,1,10)             109.9001         estimate D2E/DX2                !
 ! A2    A(2,1,11)             112.2148         estimate D2E/DX2                !
 ! A3    A(2,1,12)             111.3032         estimate D2E/DX2                !
 ! A4    A(10,1,11)            107.1869         estimate D2E/DX2                !
 ! A5    A(10,1,12)            106.5786         estimate D2E/DX2                !
 ! A6    A(11,1,12)            109.4196         estimate D2E/DX2                !
 ! A7    A(1,2,3)              108.3218         estimate D2E/DX2                !
 ! A8    A(1,2,4)              110.8168         estimate D2E/DX2                !
 ! A9    A(1,2,6)              114.4987         estimate D2E/DX2                !
 ! A10   A(3,2,4)              109.0364         estimate D2E/DX2                !
 ! A11   A(3,2,6)              107.1866         estimate D2E/DX2                !
 ! A12   A(4,2,6)              106.8204         estimate D2E/DX2                !
 ! A13   A(2,3,13)             108.2563         estimate D2E/DX2                !
 ! A14   A(2,4,5)              121.863          estimate D2E/DX2                !
 ! A15   A(2,4,14)             119.422          estimate D2E/DX2                !
 ! A16   A(5,4,14)             118.7143         estimate D2E/DX2                !
 ! A17   A(2,6,7)              115.8215         estimate D2E/DX2                !
 ! A18   A(2,6,8)              124.6916         estimate D2E/DX2                !
 ! A19   A(2,6,9)              117.443          estimate D2E/DX2                !
 ! A20   A(7,6,8)              115.0413         estimate D2E/DX2                !
 ! A21   A(7,6,9)              110.0223         estimate D2E/DX2                !
 ! A22   A(6,7,15)             106.0506         estimate D2E/DX2                !
 ! A23   A(6,8,16)             108.1821         estimate D2E/DX2                !
 ! A24   A(6,8,17)             108.1667         estimate D2E/DX2                !
 ! A25   A(9,8,16)             120.2337         estimate D2E/DX2                !
 ! A26   A(9,8,17)             118.1109         estimate D2E/DX2                !
 ! A27   A(16,8,17)            120.8883         estimate D2E/DX2                !
 ! A28   A(6,9,18)             123.8962         estimate D2E/DX2                !
 ! A29   A(6,9,19)             118.3264         estimate D2E/DX2                !
 ! A30   A(8,9,18)             102.7867         estimate D2E/DX2                !
 ! A31   A(8,9,19)             104.6055         estimate D2E/DX2                !
 ! A32   A(18,9,19)            117.6579         estimate D2E/DX2                !
 ! D1    D(10,1,2,3)           -60.4176         estimate D2E/DX2                !
 ! D2    D(10,1,2,4)            59.152          estimate D2E/DX2                !
 ! D3    D(10,1,2,6)          -179.9529         estimate D2E/DX2                !
 ! D4    D(11,1,2,3)          -179.5801         estimate D2E/DX2                !
 ! D5    D(11,1,2,4)           -60.0105         estimate D2E/DX2                !
 ! D6    D(11,1,2,6)            60.8846         estimate D2E/DX2                !
 ! D7    D(12,1,2,3)            57.4134         estimate D2E/DX2                !
 ! D8    D(12,1,2,4)           176.983          estimate D2E/DX2                !
 ! D9    D(12,1,2,6)           -62.1219         estimate D2E/DX2                !
 ! D10   D(1,2,3,13)            64.0932         estimate D2E/DX2                !
 ! D11   D(4,2,3,13)           -56.5888         estimate D2E/DX2                !
 ! D12   D(6,2,3,13)          -171.875          estimate D2E/DX2                !
 ! D13   D(1,2,4,5)              2.6755         estimate D2E/DX2                !
 ! D14   D(1,2,4,14)          -177.0136         estimate D2E/DX2                !
 ! D15   D(3,2,4,5)            121.8156         estimate D2E/DX2                !
 ! D16   D(3,2,4,14)           -57.8735         estimate D2E/DX2                !
 ! D17   D(6,2,4,5)           -122.6624         estimate D2E/DX2                !
 ! D18   D(6,2,4,14)            57.6486         estimate D2E/DX2                !
 ! D19   D(1,2,6,7)            171.4235         estimate D2E/DX2                !
 ! D20   D(1,2,6,8)            -33.5048         estimate D2E/DX2                !
 ! D21   D(1,2,6,9)             38.5897         estimate D2E/DX2                !
 ! D22   D(3,2,6,7)             51.2549         estimate D2E/DX2                !
 ! D23   D(3,2,6,8)           -153.6734         estimate D2E/DX2                !
 ! D24   D(3,2,6,9)            -81.5789         estimate D2E/DX2                !
 ! D25   D(4,2,6,7)            -65.5            estimate D2E/DX2                !
 ! D26   D(4,2,6,8)             89.5717         estimate D2E/DX2                !
 ! D27   D(4,2,6,9)            161.6662         estimate D2E/DX2                !
 ! D28   D(2,6,7,15)            89.6682         estimate D2E/DX2                !
 ! D29   D(8,6,7,15)           -67.8425         estimate D2E/DX2                !
 ! D30   D(9,6,7,15)          -134.1739         estimate D2E/DX2                !
 ! D31   D(2,6,8,16)           -10.1145         estimate D2E/DX2                !
 ! D32   D(2,6,8,17)          -142.6826         estimate D2E/DX2                !
 ! D33   D(7,6,8,16)           145.129          estimate D2E/DX2                !
 ! D34   D(7,6,8,17)            12.5608         estimate D2E/DX2                !
 ! D35   D(2,6,9,18)           -31.3518         estimate D2E/DX2                !
 ! D36   D(2,6,9,19)           152.7214         estimate D2E/DX2                !
 ! D37   D(7,6,9,18)          -166.7179         estimate D2E/DX2                !
 ! D38   D(7,6,9,19)            17.3553         estimate D2E/DX2                !
 ! D39   D(16,8,9,18)          -27.5986         estimate D2E/DX2                !
 ! D40   D(16,8,9,19)         -151.0364         estimate D2E/DX2                !
 ! D41   D(17,8,9,18)          142.4599         estimate D2E/DX2                !
 ! D42   D(17,8,9,19)           19.0221         estimate D2E/DX2                !
 --------------------------------------------------------------------------------
 Trust Radius=3.00D-01 FncErr=1.00D-07 GrdErr=1.00D-06 EigMax=2.50D+02 EigMin=1.00D-04
 Number of steps in this run=    103 maximum allowed number of steps=    114.
 GradGradGradGradGradGradGradGradGradGradGradGradGradGradGradGradGradGrad

                          Input orientation:                          
 ---------------------------------------------------------------------
 Center     Atomic      Atomic             Coordinates (Angstroms)
 Number     Number       Type             X           Y           Z
 ---------------------------------------------------------------------
      1          6           0        0.913940   -0.262220    0.234290
      2          6           0        2.415190    0.023230   -0.037200
      3          8           0        2.525360    1.303710   -0.611360
      4          6           0        3.213350   -0.010800    1.254650
      5          8           0        2.694570   -0.285460    2.326370
      6          6           0        3.098340   -0.981860   -1.016850
      7          8           0        4.397410   -0.646610   -1.428990
      8          6           0        2.750100   -2.456930   -1.124270
      9          6           0        2.283160   -1.465130   -2.206250
     10          1           0        0.505830    0.495760    0.937250
     11          1           0        0.753300   -1.257190    0.695970
     12          1           0        0.315040   -0.186270   -0.695350
     13          1           0        2.215420    1.971950    0.056050
     14          1           0        4.273920    0.219270    1.232390
     15          1           0        5.009980   -1.055540   -0.764680
     16          1           0        2.082590   -2.716360   -0.280970
     17          1           0        3.690010   -3.022800   -1.303020
     18          1           0        1.181940   -1.587210   -2.192020
     19          1           0        2.824820   -1.777090   -3.124800
 ---------------------------------------------------------------------
                    Distance matrix (angstroms):
                    1          2          3          4          5
     1  C    0.000000
     2  C    1.552076   0.000000
     3  O    2.400820   1.407631   0.000000
     4  C    2.528168   1.518912   2.383959   0.000000
     5  O    2.747359   2.399960   3.344301   1.221947   0.000000
     6  C    2.618174   1.560966   2.390933   2.473034   3.438768
     7  O    3.879281   2.512959   2.824330   3.001362   4.139181
     8  C    3.167636   2.728567   3.802104   3.443459   4.077411
     9  C    3.045980   2.633899   3.204498   3.867578   4.701651
    10  H    1.111414   2.195107   2.670108   2.772726   2.707497
    11  H    1.108566   2.222362   3.377502   2.813798   2.714957
    12  H    1.108458   2.210810   2.666948   3.497641   3.847440
    13  H    2.591744   1.961151   0.994004   2.522658   3.237258
    14  H    3.538008   2.259462   2.762768   1.085466   1.986427
    15  H    4.290086   2.902741   3.429709   2.897767   3.938113
    16  H    2.766593   2.770451   4.057852   3.310106   3.616907
    17  H    4.206030   3.536349   4.533596   3.980078   4.653644
    18  H    2.777481   2.959336   3.558185   4.300143   4.939479
    19  H    4.150877   3.597530   3.987278   4.738177   5.653068
                    6          7          8          9         10
     6  C    0.000000
     7  O    1.403508   0.000000
     8  C    1.519421   2.466524   0.000000
     9  C    1.520770   2.396698   1.540254   0.000000
    10  H    3.566928   4.695583   4.243229   4.109207   0.000000
    11  H    2.916980   4.262370   2.956325   3.287338   1.786698
    12  H    2.912574   4.173234   3.356991   2.791379   1.779592
    13  H    3.264300   3.717967   4.614544   4.115350   2.424531
    14  H    2.807807   2.801418   3.877876   4.315620   3.789730
    15  H    1.929608   0.991854   2.683329   3.111500   5.058702
    16  H    2.140504   3.310620   1.106358   2.304888   3.779940
    17  H    2.144155   2.482451   1.111572   2.285035   5.247673
    18  H    2.328103   3.436014   2.087014   1.108058   3.819453
    19  H    2.269506   2.574256   2.114210   1.111057   5.200367
                   11         12         13         14         15
    11  H    0.000000
    12  H    1.809617   0.000000
    13  H    3.602032   2.972198   0.000000
    14  H    3.855184   4.421920   2.948404   0.000000
    15  H    4.504829   4.775238   4.201055   2.480970   0.000000
    16  H    2.202408   3.114049   4.702284   3.963598   3.400281
    17  H    3.967065   4.450347   5.382287   4.156955   2.429453
    18  H    2.938219   2.225796   4.334688   4.954825   4.119935
    19  H    4.377188   3.838220   4.954238   5.007040   3.296320
                   16         17         18         19
    16  H    0.000000
    17  H    1.929324   0.000000
    18  H    2.395467   3.023517   0.000000
    19  H    3.085531   2.370491   1.898733   0.000000
 Stoichiometry    C6H10O3
 Framework group  C1[X(C6H10O3)]
 Deg. of freedom    51
 Full point group                 C1      NOp   1
 Largest Abelian subgroup         C1      NOp   1
 Largest concise Abelian subgroup C1      NOp   1
                         Standard orientation:                         
 ---------------------------------------------------------------------
 Center     Atomic      Atomic             Coordinates (Angstroms)
 Number     Number       Type             X           Y           Z
 ---------------------------------------------------------------------
      1          6           0       -0.923258    1.620676   -0.008250
      2          6           0       -0.539797    0.160112    0.350430
      3          8           0       -0.659873    0.000553    1.743825
      4          6           0       -1.463792   -0.826291   -0.342632
      5          8           0       -2.339948   -0.458915   -1.111099
      6          6           0        0.918928   -0.239550   -0.035584
      7          8           0        1.357831   -1.484850    0.440259
      8          6           0        1.666658    0.284811   -1.249910
      9          6           0        2.006733    0.805165    0.159331
     10          1           0       -1.972010    1.822830    0.299150
     11          1           0       -0.857803    1.815740   -1.097555
     12          1           0       -0.288403    2.348785    0.535344
     13          1           0       -1.615192    0.122229    1.990004
     14          1           0       -1.350761   -1.888545   -0.150078
     15          1           0        1.114436   -2.146351   -0.257558
     16          1           0        0.947869    0.833019   -1.887750
     17          1           0        2.279930   -0.544616   -1.664084
     18          1           0        1.839534    1.896446    0.064766
     19          1           0        3.045488    0.456610    0.343576
 ---------------------------------------------------------------------
 Rotational constants (GHZ):           2.3128225           1.2954356           1.2693512
 Standard basis: 6-31G(2df,p) (6D, 7F)
 There are   329 symmetry adapted cartesian basis functions of A   symmetry.
 There are   302 symmetry adapted basis functions of A   symmetry.
   302 basis functions,   466 primitive gaussians,   329 cartesian basis functions
    35 alpha electrons       35 beta electrons
       nuclear repulsion energy       483.6342677347 Hartrees.
 NAtoms=   19 NActive=   19 NUniq=   19 SFac= 1.00D+00 NAtFMM=   60 NAOKFM=F Big=F
 Integral buffers will be    131072 words long.
 Raffenetti 2 integral format.
 Two-electron integral symmetry is turned on.
 One-electron integrals computed using PRISM.
 PrsmSu:  requested number of processors reduced to:  13 ShMem   1 Linda.
 NBasis=   302 RedAO= T EigKep=  5.66D-04  NBF=   302
 NBsUse=   302 1.00D-06 EigRej= -1.00D+00 NBFU=   302
 ExpMin= 1.61D-01 ExpMax= 5.48D+03 ExpMxC= 8.25D+02 IAcc=3 IRadAn=         5 AccDes= 0.00D+00
 Harris functional with IExCor=  402 and IRadAn=       5 diagonalized for initial guess.
 HarFok:  IExCor=  402 AccDes= 0.00D+00 IRadAn=         5 IDoV= 1 UseB2=F ITyADJ=14
 ICtDFT=  3500011 ScaDFX=  1.000000  1.000000  1.000000  1.000000
 FoFCou: FMM=F IPFlag=           0 FMFlag=      100000 FMFlg1=           0
         NFxFlg=           0 DoJE=T BraDBF=F KetDBF=T FulRan=T
         wScrn=  0.000000 ICntrl=       500 IOpCl=  0 I1Cent=   200000004 NGrid=           0
         NMat0=    1 NMatS0=      1 NMatT0=    0 NMatD0=    1 NMtDS0=    0 NMtDT0=    0
 Petite list used in FoFCou.
 Requested convergence on RMS density matrix=1.00D-08 within 128 cycles.
 Requested convergence on MAX density matrix=1.00D-06.
 Requested convergence on             energy=1.00D-06.
 No special actions if energy rises.
 Integral accuracy reduced to 1.0D-05 until final iterations.
 Initial convergence to 1.0D-05 achieved.  Increase integral accuracy.
 SCF Done:  E(RB3LYP) =  -460.268348163     A.U. after   13 cycles
            NFock= 13  Conv=0.79D-08     -V/T= 2.0077

 **********************************************************************

            Population analysis using the SCF density.

 **********************************************************************

 Orbital symmetries:
       Occupied  (A) (A) (A) (A) (A) (A) (A) (A) (A) (A) (A) (A)
                 (A) (A) (A) (A) (A) (A) (A) (A) (A) (A) (A) (A)
                 (A) (A) (A) (A) (A) (A) (A) (A) (A) (A) (A)
       Virtual   (A) (A) (A) (A) (A) (A) (A) (A) (A) (A) (A) (A)
                 (A) (A) (A) (A) (A) (A) (A) (A) (A) (A) (A) (A)
                 (A) (A) (A) (A) (A) (A) (A) (A) (A) (A) (A) (A)
                 (A) (A) (A) (A) (A) (A) (A) (A) (A) (A) (A) (A)
                 (A) (A) (A) (A) (A) (A) (A) (A) (A) (A) (A) (A)
                 (A) (A) (A) (A) (A) (A) (A) (A) (A) (A) (A) (A)
                 (A) (A) (A) (A) (A) (A) (A) (A) (A) (A) (A) (A)
                 (A) (A) (A) (A) (A) (A) (A) (A) (A) (A) (A) (A)
                 (A) (A) (A) (A) (A) (A) (A) (A) (A) (A) (A) (A)
                 (A) (A) (A) (A) (A) (A) (A) (A) (A) (A) (A) (A)
                 (A) (A) (A) (A) (A) (A) (A) (A) (A) (A) (A) (A)
                 (A) (A) (A) (A) (A) (A) (A) (A) (A) (A) (A) (A)
                 (A) (A) (A) (A) (A) (A) (A) (A) (A) (A) (A) (A)
                 (A) (A) (A) (A) (A) (A) (A) (A) (A) (A) (A) (A)
                 (A) (A) (A) (A) (A) (A) (A) (A) (A) (A) (A) (A)
                 (A) (A) (A) (A) (A) (A) (A) (A) (A) (A) (A) (A)
                 (A) (A) (A) (A) (A) (A) (A) (A) (A) (A) (A) (A)
                 (A) (A) (A) (A) (A) (A) (A) (A) (A) (A) (A) (A)
                 (A) (A) (A) (A) (A) (A) (A) (A) (A) (A) (A) (A)
                 (A) (A) (A) (A) (A) (A) (A) (A) (A) (A) (A) (A)
                 (A) (A) (A) (A) (A) (A) (A) (A) (A) (A) (A) (A)
                 (A) (A) (A) (A) (A) (A) (A) (A) (A) (A) (A) (A)
                 (A) (A) (A)
 The electronic state is 1-A.
 Alpha  occ. eigenvalues --  -19.15527 -19.15321 -19.14791 -10.27290 -10.25742
 Alpha  occ. eigenvalues --  -10.25687 -10.19762 -10.19733 -10.18867  -1.05394
 Alpha  occ. eigenvalues --   -1.03901  -1.02460  -0.84912  -0.75875  -0.68053
 Alpha  occ. eigenvalues --   -0.61685  -0.59895  -0.56069  -0.52634  -0.51863
 Alpha  occ. eigenvalues --   -0.48085  -0.45505  -0.44227  -0.43369  -0.41665
 Alpha  occ. eigenvalues --   -0.38821  -0.38559  -0.38028  -0.36653  -0.35158
 Alpha  occ. eigenvalues --   -0.32618  -0.30225  -0.28686  -0.26784  -0.24557
 Alpha virt. eigenvalues --   -0.04209   0.05369   0.07152   0.08736   0.10274
 Alpha virt. eigenvalues --    0.11066   0.12752   0.14021   0.15492   0.17294
 Alpha virt. eigenvalues --    0.17890   0.18575   0.20880   0.22206   0.24551
 Alpha virt. eigenvalues --    0.25297   0.26142   0.28492   0.30894   0.31939
 Alpha virt. eigenvalues --    0.42145   0.45905   0.47487   0.48606   0.49215
 Alpha virt. eigenvalues --    0.50336   0.51393   0.52321   0.53048   0.55384
 Alpha virt. eigenvalues --    0.56406   0.57313   0.58113   0.58972   0.62610
 Alpha virt. eigenvalues --    0.64023   0.66132   0.67812   0.70335   0.71733
 Alpha virt. eigenvalues --    0.73085   0.74402   0.74935   0.75109   0.76770
 Alpha virt. eigenvalues --    0.77189   0.78703   0.80365   0.81114   0.81988
 Alpha virt. eigenvalues --    0.84922   0.86551   0.87721   0.88330   0.89841
 Alpha virt. eigenvalues --    0.90878   0.91450   0.92535   0.95595   0.98279
 Alpha virt. eigenvalues --    0.99602   1.00863   1.03227   1.06204   1.09484
 Alpha virt. eigenvalues --    1.13171   1.14441   1.16203   1.17350   1.19055
 Alpha virt. eigenvalues --    1.21948   1.25674   1.27115   1.30992   1.31290
 Alpha virt. eigenvalues --    1.34191   1.36108   1.37131   1.39359   1.41447
 Alpha virt. eigenvalues --    1.42730   1.45308   1.46627   1.49650   1.49754
 Alpha virt. eigenvalues --    1.51265   1.53340   1.53671   1.56729   1.60030
 Alpha virt. eigenvalues --    1.60469   1.62593   1.64290   1.68634   1.69794
 Alpha virt. eigenvalues --    1.71149   1.72795   1.73983   1.76429   1.79722
 Alpha virt. eigenvalues --    1.82077   1.84905   1.90987   1.91673   1.96806
 Alpha virt. eigenvalues --    1.98258   2.01556   2.07488   2.08215   2.11761
 Alpha virt. eigenvalues --    2.16377   2.20608   2.23973   2.27373   2.28857
 Alpha virt. eigenvalues --    2.34431   2.35982   2.37875   2.42745   2.45535
 Alpha virt. eigenvalues --    2.50206   2.52685   2.55465   2.56470   2.59848
 Alpha virt. eigenvalues --    2.62928   2.69383   2.70008   2.72607   2.73666
 Alpha virt. eigenvalues --    2.76597   2.79604   2.80996   2.84323   2.86632
 Alpha virt. eigenvalues --    2.88936   2.90614   2.91056   2.92069   2.93255
 Alpha virt. eigenvalues --    2.95300   2.97813   2.99564   3.00606   3.02237
 Alpha virt. eigenvalues --    3.06306   3.07604   3.09855   3.12668   3.18266
 Alpha virt. eigenvalues --    3.18880   3.20962   3.25244   3.28462   3.29370
 Alpha virt. eigenvalues --    3.32822   3.35164   3.36316   3.40700   3.43004
 Alpha virt. eigenvalues --    3.47185   3.48513   3.51926   3.54266   3.55631
 Alpha virt. eigenvalues --    3.58514   3.60962   3.63949   3.66833   3.71970
 Alpha virt. eigenvalues --    3.73226   3.83425   3.85549   3.91061   3.94244
 Alpha virt. eigenvalues --    3.96301   3.99661   4.00768   4.04704   4.08279
 Alpha virt. eigenvalues --    4.13031   4.17577   4.20808   4.21668   4.22929
 Alpha virt. eigenvalues --    4.24408   4.26426   4.30750   4.34025   4.37440
 Alpha virt. eigenvalues --    4.38036   4.39955   4.42409   4.43925   4.45668
 Alpha virt. eigenvalues --    4.47904   4.50451   4.51671   4.51897   4.54154
 Alpha virt. eigenvalues --    4.55243   4.59632   4.60730   4.63558   4.65477
 Alpha virt. eigenvalues --    4.66996   4.68667   4.71177   4.71411   4.72448
 Alpha virt. eigenvalues --    4.74654   4.76859   4.78137   4.79540   4.81366
 Alpha virt. eigenvalues --    4.84736   4.85648   4.88666   4.91861   4.96019
 Alpha virt. eigenvalues --    4.98899   5.03073   5.05578   5.08038   5.08994
 Alpha virt. eigenvalues --    5.12099   5.19391   5.20180   5.27060   5.27676
 Alpha virt. eigenvalues --    5.30567   5.33833   5.35269   5.42349   5.43562
 Alpha virt. eigenvalues --    5.45548   5.47199   5.51853   5.54418   5.60428
 Alpha virt. eigenvalues --    5.63918   5.70472   5.70876   5.76738   5.81560
 Alpha virt. eigenvalues --    5.94291   5.97182   6.00544   6.08277   6.10083
 Alpha virt. eigenvalues --    6.12956   6.15078   6.21984   6.34687   6.72518
 Alpha virt. eigenvalues --    6.80737   7.11639   7.31220  10.77693  11.17301
 Alpha virt. eigenvalues --   11.69683  12.01955  12.23470  12.74320  12.95363
 Alpha virt. eigenvalues --   13.52846  13.62890
          Condensed to atoms (all electrons):
               1          2          3          4          5          6
     1  C    5.184854   0.305274  -0.050756  -0.021402   0.001274  -0.039613
     2  C    0.305274   5.072753   0.306199   0.215686  -0.077894   0.319096
     3  O   -0.050756   0.306199   7.924352  -0.018420   0.000649  -0.021947
     4  C   -0.021402   0.215686  -0.018420   4.651010   0.740819  -0.018002
     5  O    0.001274  -0.077894   0.000649   0.740819   7.632867   0.000680
     6  C   -0.039613   0.319096  -0.021947  -0.018002   0.000680   4.502418
     7  O    0.001755  -0.057270  -0.000907   0.003231   0.000091   0.395639
     8  C   -0.001797  -0.053756   0.002245   0.003172  -0.000283   0.288620
     9  C   -0.007288  -0.028721  -0.003259   0.001909  -0.000027   0.307500
    10  H    0.357807  -0.014078  -0.000702  -0.003333   0.004145   0.002349
    11  H    0.348128  -0.014251   0.003039   0.001046   0.002380   0.000650
    12  H    0.361027  -0.015444   0.001079   0.003785   0.000494  -0.005310
    13  H   -0.002745  -0.064496   0.303535  -0.000329   0.000757   0.006341
    14  H    0.008756  -0.108923   0.005308   0.347582  -0.051211  -0.002635
    15  H   -0.000089  -0.003452  -0.000090   0.002683   0.000017  -0.068993
    16  H    0.001499  -0.006817  -0.000002   0.000798   0.000116  -0.016891
    17  H   -0.000040   0.003531  -0.000039  -0.000014  -0.000007  -0.004752
    18  H    0.000632  -0.002335   0.000001   0.000100  -0.000002  -0.013705
    19  H    0.000057   0.001887   0.000057  -0.000055   0.000000  -0.004714
               7          8          9         10         11         12
     1  C    0.001755  -0.001797  -0.007288   0.357807   0.348128   0.361027
     2  C   -0.057270  -0.053756  -0.028721  -0.014078  -0.014251  -0.015444
     3  O   -0.000907   0.002245  -0.003259  -0.000702   0.003039   0.001079
     4  C    0.003231   0.003172   0.001909  -0.003333   0.001046   0.003785
     5  O    0.000091  -0.000283  -0.000027   0.004145   0.002380   0.000494
     6  C    0.395639   0.288620   0.307500   0.002349   0.000650  -0.005310
     7  O    7.861507  -0.043987  -0.015119  -0.000036   0.000016   0.000002
     8  C   -0.043987   5.220626   0.261390   0.000005  -0.000953  -0.000023
     9  C   -0.015119   0.261390   5.078212  -0.000011  -0.000286   0.003049
    10  H   -0.000036   0.000005  -0.000011   0.582533  -0.023747  -0.030785
    11  H    0.000016  -0.000953  -0.000286  -0.023747   0.576420  -0.028908
    12  H    0.000002  -0.000023   0.003049  -0.030785  -0.028908   0.576313
    13  H   -0.000128  -0.000251  -0.000085   0.004878  -0.000164  -0.000257
    14  H    0.005122   0.000431  -0.000168   0.000124   0.000001  -0.000065
    15  H    0.303667  -0.008045   0.008280   0.000002   0.000004   0.000003
    16  H    0.001964   0.364317  -0.018848  -0.000167   0.004979   0.000175
    17  H    0.000689   0.354094  -0.023680   0.000001   0.000031   0.000003
    18  H    0.000987  -0.026053   0.374300  -0.000036   0.000385   0.003322
    19  H    0.001568  -0.019793   0.360514  -0.000001  -0.000004   0.000033
              13         14         15         16         17         18
     1  C   -0.002745   0.008756  -0.000089   0.001499  -0.000040   0.000632
     2  C   -0.064496  -0.108923  -0.003452  -0.006817   0.003531  -0.002335
     3  O    0.303535   0.005308  -0.000090  -0.000002  -0.000039   0.000001
     4  C   -0.000329   0.347582   0.002683   0.000798  -0.000014   0.000100
     5  O    0.000757  -0.051211   0.000017   0.000116  -0.000007  -0.000002
     6  C    0.006341  -0.002635  -0.068993  -0.016891  -0.004752  -0.013705
     7  O   -0.000128   0.005122   0.303667   0.001964   0.000689   0.000987
     8  C   -0.000251   0.000431  -0.008045   0.364317   0.354094  -0.026053
     9  C   -0.000085  -0.000168   0.008280  -0.018848  -0.023680   0.374300
    10  H    0.004878   0.000124   0.000002  -0.000167   0.000001  -0.000036
    11  H   -0.000164   0.000001   0.000004   0.004979   0.000031   0.000385
    12  H   -0.000257  -0.000065   0.000003   0.000175   0.000003   0.003322
    13  H    0.459427   0.000722   0.000014  -0.000005   0.000003  -0.000033
    14  H    0.000722   0.696241   0.002335  -0.000077  -0.000033  -0.000004
    15  H    0.000014   0.002335   0.473346   0.000437   0.004040  -0.000177
    16  H   -0.000005  -0.000077   0.000437   0.579409  -0.028166  -0.008740
    17  H    0.000003  -0.000033   0.004040  -0.028166   0.585708   0.003019
    18  H   -0.000033  -0.000004  -0.000177  -0.008740   0.003019   0.566599
    19  H    0.000007   0.000003  -0.000286   0.002534  -0.008446  -0.030901
              19
     1  C    0.000057
     2  C    0.001887
     3  O    0.000057
     4  C   -0.000055
     5  O    0.000000
     6  C   -0.004714
     7  O    0.001568
     8  C   -0.019793
     9  C    0.360514
    10  H   -0.000001
    11  H   -0.000004
    12  H    0.000033
    13  H    0.000007
    14  H    0.000003
    15  H   -0.000286
    16  H    0.002534
    17  H   -0.008446
    18  H   -0.030901
    19  H    0.564174
 Mulliken charges:
               1
     1  C   -0.447333
     2  C    0.223010
     3  O   -0.450343
     4  C    0.089732
     5  O   -0.254865
     6  C    0.373270
     7  O   -0.458791
     8  C   -0.339959
     9  C   -0.297662
    10  H    0.121052
    11  H    0.131235
    12  H    0.131507
    13  H    0.292809
    14  H    0.096490
    15  H    0.286303
    16  H    0.123484
    17  H    0.114057
    18  H    0.132641
    19  H    0.133364
 Sum of Mulliken charges =  -0.00000
 Mulliken charges with hydrogens summed into heavy atoms:
               1
     1  C   -0.063538
     2  C    0.223010
     3  O   -0.157534
     4  C    0.186222
     5  O   -0.254865
     6  C    0.373270
     7  O   -0.172488
     8  C   -0.102419
     9  C   -0.031657
 Electronic spatial extent (au):  <R**2>=           1137.5258
 Charge=              0.0000 electrons
 Dipole moment (field-independent basis, Debye):
    X=              0.2753    Y=              0.0490    Z=             -0.5028  Tot=              0.5753
 Quadrupole moment (field-independent basis, Debye-Ang):
   XX=            -56.0724   YY=            -48.9947   ZZ=            -57.1041
   XY=             -0.5321   XZ=             -8.6640   YZ=              2.6394
 Traceless Quadrupole moment (field-independent basis, Debye-Ang):
   XX=             -2.0153   YY=              5.0623   ZZ=             -3.0470
   XY=             -0.5321   XZ=             -8.6640   YZ=              2.6394
 Octapole moment (field-independent basis, Debye-Ang**2):
  XXX=              5.5311  YYY=            -16.9406  ZZZ=              5.7909  XYY=             -2.1391
  XXY=              0.2674  XXZ=             19.2877  XZZ=             -6.1620  YZZ=             -0.9882
  YYZ=             -3.5200  XYZ=              5.3106
 Hexadecapole moment (field-independent basis, Debye-Ang**3):
 XXXX=           -770.4127 YYYY=           -327.9612 ZZZZ=           -299.3929 XXXY=            -17.3014
 XXXZ=            -36.5641 YYYX=             -6.5514 YYYZ=             11.5263 ZZZX=            -12.5009
 ZZZY=              0.4832 XXYY=           -186.3160 XXZZ=           -178.6769 YYZZ=           -112.0607
 XXYZ=              5.2258 YYXZ=             -5.0037 ZZXY=             -9.2067
 N-N= 4.836342677347D+02 E-N=-2.043347411632D+03  KE= 4.567639444898D+02
 PrsmSu:  requested number of processors reduced to:  13 ShMem   1 Linda.
 Calling FoFJK, ICntrl=      2127 FMM=F ISym2X=0 I1Cent= 0 IOpClX= 0 NMat=1 NMatS=1 NMatT=0.
 ***** Axes restored to original set *****
 -------------------------------------------------------------------
 Center     Atomic                   Forces (Hartrees/Bohr)
 Number     Number              X              Y              Z
 -------------------------------------------------------------------
      1        6          -0.003715461   -0.005383199    0.002799940
      2        6          -0.007685434   -0.013803738   -0.002348630
      3        8           0.002106720    0.027544959    0.009293448
      4        6          -0.027999527   -0.011863093    0.032034895
      5        8           0.011070758    0.004952732   -0.014475544
      6        6          -0.018788656    0.011301517   -0.030798598
      7        8           0.016591473   -0.006537149    0.026905069
      8        6           0.023477918    0.016230082    0.035917681
      9        6          -0.006960742   -0.051680678    0.001932935
     10        1           0.006786673   -0.008057389   -0.004866885
     11        1           0.000213874    0.009678195   -0.003419338
     12        1           0.009210325   -0.000965510    0.007208841
     13        1           0.007266613   -0.018783965   -0.017922376
     14        1           0.013366745    0.005596430   -0.008117785
     15        1          -0.012434213    0.011419706   -0.018269091
     16        1           0.005521646   -0.012367014   -0.018622021
     17        1          -0.021044100   -0.001193119    0.004030271
     18        1           0.014453924    0.022541893   -0.009372723
     19        1          -0.011438533    0.021369341    0.008089910
 -------------------------------------------------------------------
 Cartesian Forces:  Max     0.051680678 RMS     0.016335151

 GradGradGradGradGradGradGradGradGradGradGradGradGradGradGradGradGradGrad
 Berny optimization.
 FormGI is forming the generalized inverse of G from B-inverse, IUseBI=4.
 Internal  Forces:  Max     0.026927749 RMS     0.008217380
 Search for a local minimum.
 Step number   1 out of a maximum of  103
 All quantities printed in internal units (Hartrees-Bohrs-Radians)
 Mixed Optimization -- RFO/linear search
 Second derivative matrix not updated -- first step.
 ITU=  0
     Eigenvalues ---    0.00230   0.00230   0.00516   0.00516   0.01591
     Eigenvalues ---    0.01645   0.01673   0.02166   0.02831   0.03146
     Eigenvalues ---    0.03408   0.04163   0.04568   0.05216   0.05585
     Eigenvalues ---    0.06012   0.07731   0.10951   0.11181   0.11961
     Eigenvalues ---    0.16000   0.16000   0.16000   0.16000   0.16000
     Eigenvalues ---    0.16000   0.16000   0.16749   0.17162   0.17815
     Eigenvalues ---    0.20190   0.22000   0.23880   0.26740   0.27475
     Eigenvalues ---    0.27783   0.29795   0.30472   0.32434   0.32451
     Eigenvalues ---    0.32488   0.32752   0.32764   0.32807   0.32989
     Eigenvalues ---    0.35342   0.44379   0.45044   0.48758   0.49150
     Eigenvalues ---    0.94526
 RFO step:  Lambda=-3.34988259D-02 EMin= 2.30000000D-03
 Linear search not attempted -- first point.
 Maximum step size (   0.300) exceeded in Quadratic search.
    -- Step size scaled by   0.949
 Iteration  1 RMS(Cart)=  0.06395365 RMS(Int)=  0.00547648
 Iteration  2 RMS(Cart)=  0.00403846 RMS(Int)=  0.00373824
 Iteration  3 RMS(Cart)=  0.00001105 RMS(Int)=  0.00373822
 Iteration  4 RMS(Cart)=  0.00000008 RMS(Int)=  0.00373822
 Variable       Old X    -DE/DX   Delta X   Delta X   Delta X     New X
                                 (Linear)    (Quad)   (Total)
    R1        2.93300  -0.01092   0.00000  -0.03361  -0.03361   2.89939
    R2        2.10027  -0.01107   0.00000  -0.02933  -0.02933   2.07093
    R3        2.09489  -0.01014   0.00000  -0.02666  -0.02666   2.06822
    R4        2.09468  -0.01109   0.00000  -0.02914  -0.02914   2.06554
    R5        2.66004   0.01222   0.00000   0.02430   0.02430   2.68434
    R6        2.87033   0.00619   0.00000   0.01736   0.01736   2.88769
    R7        2.94980  -0.01167   0.00000  -0.03680  -0.03680   2.91299
    R8        1.87840  -0.02693   0.00000  -0.04904  -0.04904   1.82935
    R9        2.30915  -0.01851   0.00000  -0.01795  -0.01795   2.29120
   R10        2.05123   0.01441   0.00000   0.03535   0.03535   2.08659
   R11        2.65225   0.00248   0.00000   0.00486   0.00486   2.65710
   R12        2.87129  -0.00050   0.00000   0.00236   0.00317   2.87446
   R13        2.87384  -0.00793   0.00000  -0.02965  -0.02961   2.84422
   R14        1.87433  -0.02462   0.00000  -0.04451  -0.04451   1.82982
   R15        2.91066   0.00650   0.00000   0.02305   0.02221   2.93287
   R16        2.09071  -0.01463   0.00000  -0.03820  -0.03820   2.05252
   R17        2.10057  -0.01784   0.00000  -0.04730  -0.04730   2.05326
   R18        2.09393  -0.01697   0.00000  -0.04454  -0.04454   2.04939
   R19        2.09959  -0.01826   0.00000  -0.04837  -0.04837   2.05123
    A1        1.91812  -0.00296   0.00000  -0.01505  -0.01510   1.90302
    A2        1.95852   0.00323   0.00000   0.01530   0.01538   1.97390
    A3        1.94261  -0.00496   0.00000  -0.02323  -0.02326   1.91934
    A4        1.87076  -0.00052   0.00000  -0.00463  -0.00457   1.86620
    A5        1.86015   0.00423   0.00000   0.02186   0.02170   1.88184
    A6        1.90973   0.00120   0.00000   0.00678   0.00687   1.91661
    A7        1.89057   0.00664   0.00000   0.04045   0.04048   1.93105
    A8        1.93412  -0.00239   0.00000  -0.00500  -0.00502   1.92909
    A9        1.99838  -0.00113   0.00000  -0.00390  -0.00373   1.99465
   A10        1.90304  -0.00154   0.00000  -0.00935  -0.00951   1.89353
   A11        1.87076  -0.00521   0.00000  -0.03211  -0.03210   1.83866
   A12        1.86437   0.00335   0.00000   0.00783   0.00770   1.87207
   A13        1.88943  -0.00153   0.00000  -0.00749  -0.00749   1.88194
   A14        2.12691   0.01130   0.00000   0.04227   0.04217   2.16908
   A15        2.08431  -0.01400   0.00000  -0.06212  -0.06222   2.02208
   A16        2.07196   0.00269   0.00000   0.01972   0.01962   2.09157
   A17        2.02147  -0.00530   0.00000  -0.03080  -0.03160   1.98987
   A18        2.17628  -0.00319   0.00000  -0.01482  -0.01494   2.16134
   A19        2.04977  -0.00088   0.00000   0.02212   0.02271   2.07247
   A20        2.00785   0.00621   0.00000   0.02156   0.02056   2.02841
   A21        1.92025   0.00484   0.00000   0.02692   0.02704   1.94729
   A22        1.85093   0.00661   0.00000   0.03244   0.03244   1.88337
   A23        1.88813   0.01248   0.00000   0.11092   0.10895   1.99709
   A24        1.88787   0.00552   0.00000   0.06901   0.06565   1.95352
   A25        2.09847   0.00220   0.00000  -0.00704  -0.01050   2.08798
   A26        2.06142   0.00347   0.00000   0.00920   0.00622   2.06764
   A27        2.10990  -0.00794   0.00000  -0.03433  -0.04529   2.06460
   A28        2.16240   0.00500   0.00000   0.00861  -0.00307   2.15933
   A29        2.06518  -0.00053   0.00000  -0.00569  -0.01624   2.04894
   A30        1.79397   0.00993   0.00000   0.13488   0.13036   1.92433
   A31        1.82571   0.01159   0.00000   0.12353   0.11856   1.94427
   A32        2.05352  -0.00297   0.00000   0.01716  -0.00790   2.04562
    D1       -1.05449  -0.00161   0.00000  -0.01585  -0.01595  -1.07043
    D2        1.03240  -0.00077   0.00000  -0.00500  -0.00501   1.02738
    D3       -3.14077   0.00101   0.00000  -0.00132  -0.00139   3.14102
    D4       -3.13426  -0.00104   0.00000  -0.00978  -0.00982   3.13910
    D5       -1.04738  -0.00020   0.00000   0.00106   0.00111  -1.04627
    D6        1.06264   0.00158   0.00000   0.00475   0.00473   1.06737
    D7        1.00205  -0.00130   0.00000  -0.01260  -0.01257   0.98948
    D8        3.08894  -0.00046   0.00000  -0.00176  -0.00164   3.08730
    D9       -1.08423   0.00132   0.00000   0.00192   0.00198  -1.08225
   D10        1.11864  -0.00038   0.00000  -0.00774  -0.00755   1.11109
   D11       -0.98766  -0.00054   0.00000  -0.02035  -0.02021  -1.00787
   D12       -2.99978  -0.00095   0.00000  -0.00786  -0.00819  -3.00798
   D13        0.04670  -0.00239   0.00000  -0.02081  -0.02076   0.02594
   D14       -3.08947  -0.00129   0.00000   0.00618   0.00624  -3.08323
   D15        2.12608   0.00336   0.00000   0.02004   0.02001   2.14609
   D16       -1.01008   0.00446   0.00000   0.04703   0.04700  -0.96308
   D17       -2.14086  -0.00174   0.00000  -0.01808  -0.01810  -2.15896
   D18        1.00616  -0.00064   0.00000   0.00892   0.00889   1.01505
   D19        2.99190   0.00389   0.00000   0.05055   0.05012   3.04202
   D20       -0.58477  -0.00069   0.00000  -0.00859  -0.00786  -0.59263
   D21        0.67352   0.00327   0.00000   0.01776   0.01755   0.69107
   D22        0.89457  -0.00011   0.00000   0.02458   0.02410   0.91866
   D23       -2.68211  -0.00469   0.00000  -0.03455  -0.03388  -2.71599
   D24       -1.42382  -0.00073   0.00000  -0.00820  -0.00847  -1.43229
   D25       -1.14319   0.00257   0.00000   0.04738   0.04691  -1.09628
   D26        1.56332  -0.00200   0.00000  -0.01176  -0.01106   1.55226
   D27        2.82161   0.00195   0.00000   0.01459   0.01435   2.83596
   D28        1.56501  -0.00152   0.00000  -0.03024  -0.03024   1.53477
   D29       -1.18408   0.00467   0.00000   0.03086   0.03090  -1.15318
   D30       -2.34178  -0.00310   0.00000   0.00057   0.00053  -2.34125
   D31       -0.17653   0.00659   0.00000   0.10709   0.11035  -0.06618
   D32       -2.49028   0.00339   0.00000   0.01694   0.01427  -2.47601
   D33        2.53298  -0.00047   0.00000   0.03690   0.03955   2.57253
   D34        0.21923  -0.00367   0.00000  -0.05325  -0.05652   0.16270
   D35       -0.54719   0.01250   0.00000   0.20156   0.19887  -0.34833
   D36        2.66549  -0.01298   0.00000  -0.14089  -0.13759   2.52790
   D37       -2.90978   0.01620   0.00000   0.19595   0.19274  -2.71704
   D38        0.30291  -0.00928   0.00000  -0.14650  -0.14372   0.15919
   D39       -0.48169   0.01206   0.00000   0.20120   0.20482  -0.27687
   D40       -2.63608   0.00566   0.00000   0.06471   0.05688  -2.57920
   D41        2.48639  -0.00329   0.00000  -0.00884  -0.00151   2.48489
   D42        0.33200  -0.00969   0.00000  -0.14533  -0.14944   0.18256
         Item               Value     Threshold  Converged?
 Maximum Force            0.026928     0.000450     NO 
 RMS     Force            0.008217     0.000300     NO 
 Maximum Displacement     0.247600     0.001800     NO 
 RMS     Displacement     0.064050     0.001200     NO 
 Predicted change in Energy=-2.181008D-02
 GradGradGradGradGradGradGradGradGradGradGradGradGradGradGradGradGradGrad

                          Input orientation:                          
 ---------------------------------------------------------------------
 Center     Atomic      Atomic             Coordinates (Angstroms)
 Number     Number       Type             X           Y           Z
 ---------------------------------------------------------------------
      1          6           0        0.924060   -0.302008    0.247749
      2          6           0        2.399399    0.004347   -0.041332
      3          8           0        2.535720    1.279798   -0.651611
      4          6           0        3.211806   -0.002994    1.252900
      5          8           0        2.750567   -0.246988    2.347322
      6          6           0        3.074408   -0.986019   -1.010727
      7          8           0        4.386135   -0.630019   -1.370858
      8          6           0        2.737702   -2.467854   -1.078102
      9          6           0        2.291983   -1.486705   -2.194976
     10          1           0        0.532316    0.449813    0.942213
     11          1           0        0.772417   -1.279016    0.717107
     12          1           0        0.342101   -0.240139   -0.675414
     13          1           0        2.232388    1.945593   -0.017710
     14          1           0        4.278445    0.264570    1.153447
     15          1           0        4.988165   -1.005858   -0.712141
     16          1           0        2.017653   -2.799028   -0.335428
     17          1           0        3.621202   -3.077466   -1.246534
     18          1           0        1.209759   -1.456186   -2.258020
     19          1           0        2.838044   -1.661390   -3.116676
 ---------------------------------------------------------------------
                    Distance matrix (angstroms):
                    1          2          3          4          5
     1  C    0.000000
     2  C    1.534290   0.000000
     3  O    2.430721   1.420493   0.000000
     4  C    2.516648   1.528101   2.393701   0.000000
     5  O    2.783408   2.427376   3.372066   1.212450   0.000000
     6  C    2.583724   1.541489   2.356497   2.471684   3.453626
     7  O    3.835811   2.473294   2.754770   2.942162   4.080032
     8  C    3.120588   2.702059   3.777247   3.425476   4.082395
     9  C    3.040005   2.621633   3.177251   3.864624   4.730715
    10  H    1.095891   2.156803   2.691241   2.735183   2.716708
    11  H    1.094457   2.206653   3.395608   2.804625   2.763287
    12  H    1.093038   2.166635   2.668846   3.465521   3.864930
    13  H    2.614173   1.948560   0.968051   2.524024   3.266388
    14  H    3.520398   2.241880   2.706661   1.104174   2.005352
    15  H    4.234825   2.858707   3.352965   2.832414   3.865622
    16  H    2.787679   2.844492   4.123735   3.430247   3.774549
    17  H    4.148570   3.527448   4.529676   3.983360   4.656760
    18  H    2.773559   2.908970   3.438652   4.294941   5.004540
    19  H    4.102513   3.524887   3.849485   4.688621   5.644772
                    6          7          8          9         10
     6  C    0.000000
     7  O    1.406079   0.000000
     8  C    1.521100   2.486097   0.000000
     9  C    1.505099   2.408019   1.552007   0.000000
    10  H    3.512524   4.622582   4.178299   4.085154   0.000000
    11  H    2.893168   4.223713   2.915212   3.291268   1.759878
    12  H    2.852065   4.121876   3.296024   2.768580   1.768879
    13  H    3.207714   3.619864   4.567088   4.065060   2.459482
    14  H    2.774406   2.680300   3.849655   4.269067   3.756650
    15  H    1.937011   0.968299   2.708495   3.114387   4.970961
    16  H    2.204487   3.374378   1.086145   2.292459   3.793885
    17  H    2.174566   2.567212   1.086540   2.279668   5.174315
    18  H    2.292098   3.399849   2.179515   1.084488   3.785928
    19  H    2.224189   2.551116   2.194592   1.085462   5.123294
                   11         12         13         14         15
    11  H    0.000000
    12  H    1.789846   0.000000
    13  H    3.615186   2.963644   0.000000
    14  H    3.855552   4.369699   2.895479   0.000000
    15  H    4.459808   4.708883   4.097267   2.366032   0.000000
    16  H    2.229099   3.077495   4.760093   4.088223   3.490174
    17  H    3.899473   4.373683   5.354432   4.166664   2.538843
    18  H    3.012315   2.176291   4.199626   4.900606   4.107175
    19  H    4.371604   3.769542   4.793822   4.900819   3.291585
                   16         17         18         19
    16  H    0.000000
    17  H    1.865211   0.000000
    18  H    2.480379   3.076802   0.000000
    19  H    3.114900   2.473063   1.852218   0.000000
 Stoichiometry    C6H10O3
 Framework group  C1[X(C6H10O3)]
 Deg. of freedom    51
 Full point group                 C1      NOp   1
 Largest Abelian subgroup         C1      NOp   1
 Largest concise Abelian subgroup C1      NOp   1
                         Standard orientation:                         
 ---------------------------------------------------------------------
 Center     Atomic      Atomic             Coordinates (Angstroms)
 Number     Number       Type             X           Y           Z
 ---------------------------------------------------------------------
      1          6           0       -0.860107    1.643081    0.035224
      2          6           0       -0.517559    0.181996    0.354502
      3          8           0       -0.598512   -0.057353    1.752343
      4          6           0       -1.485797   -0.762965   -0.355889
      5          8           0       -2.379019   -0.399542   -1.090812
      6          6           0        0.909800   -0.237325   -0.049235
      7          8           0        1.261538   -1.536135    0.358724
      8          6           0        1.638290    0.304103   -1.269851
      9          6           0        2.038159    0.735089    0.166491
     10          1           0       -1.888134    1.847326    0.355258
     11          1           0       -0.807563    1.872683   -1.033588
     12          1           0       -0.197664    2.311814    0.590832
     13          1           0       -1.517821    0.078487    2.023529
     14          1           0       -1.354449   -1.837989   -0.140779
     15          1           0        0.982651   -2.151806   -0.334655
     16          1           0        1.045634    0.973942   -1.886119
     17          1           0        2.228450   -0.463048   -1.763572
     18          1           0        1.896991    1.803114    0.291022
     19          1           0        3.003135    0.325842    0.448567
 ---------------------------------------------------------------------
 Rotational constants (GHZ):           2.3108807           1.3088152           1.2825010
 Standard basis: 6-31G(2df,p) (6D, 7F)
 There are   329 symmetry adapted cartesian basis functions of A   symmetry.
 There are   302 symmetry adapted basis functions of A   symmetry.
   302 basis functions,   466 primitive gaussians,   329 cartesian basis functions
    35 alpha electrons       35 beta electrons
       nuclear repulsion energy       485.4339649530 Hartrees.
 NAtoms=   19 NActive=   19 NUniq=   19 SFac= 1.00D+00 NAtFMM=   60 NAOKFM=F Big=F
 Integral buffers will be    131072 words long.
 Raffenetti 2 integral format.
 Two-electron integral symmetry is turned on.
 One-electron integrals computed using PRISM.
 PrsmSu:  requested number of processors reduced to:  13 ShMem   1 Linda.
 NBasis=   302 RedAO= T EigKep=  5.45D-04  NBF=   302
 NBsUse=   302 1.00D-06 EigRej= -1.00D+00 NBFU=   302
 Initial guess from the checkpoint file:  "CCpOppCdOpC1pOpCC1.chk"
 B after Tr=     0.000000   -0.000000   -0.000000
         Rot=    0.999702   -0.019039   -0.006516    0.013811 Ang=  -2.80 deg.
 ExpMin= 1.61D-01 ExpMax= 5.48D+03 ExpMxC= 8.25D+02 IAcc=2 IRadAn=         4 AccDes= 0.00D+00
 Harris functional with IExCor=  402 and IRadAn=       4 diagonalized for initial guess.
 HarFok:  IExCor=  402 AccDes= 0.00D+00 IRadAn=         4 IDoV= 1 UseB2=F ITyADJ=14
 ICtDFT=  3500011 ScaDFX=  1.000000  1.000000  1.000000  1.000000
 FoFCou: FMM=F IPFlag=           0 FMFlag=      100000 FMFlg1=           0
         NFxFlg=           0 DoJE=T BraDBF=F KetDBF=T FulRan=T
         wScrn=  0.000000 ICntrl=       500 IOpCl=  0 I1Cent=   200000004 NGrid=           0
         NMat0=    1 NMatS0=      1 NMatT0=    0 NMatD0=    1 NMtDS0=    0 NMtDT0=    0
 Petite list used in FoFCou.
 Requested convergence on RMS density matrix=1.00D-08 within 128 cycles.
 Requested convergence on MAX density matrix=1.00D-06.
 Requested convergence on             energy=1.00D-06.
 No special actions if energy rises.
 Integral accuracy reduced to 1.0D-05 until final iterations.
 Initial convergence to 1.0D-05 achieved.  Increase integral accuracy.
 SCF Done:  E(RB3LYP) =  -460.290261116     A.U. after   13 cycles
            NFock= 13  Conv=0.22D-08     -V/T= 2.0072
 PrsmSu:  requested number of processors reduced to:  13 ShMem   1 Linda.
 Calling FoFJK, ICntrl=      2127 FMM=F ISym2X=0 I1Cent= 0 IOpClX= 0 NMat=1 NMatS=1 NMatT=0.
 ***** Axes restored to original set *****
 -------------------------------------------------------------------
 Center     Atomic                   Forces (Hartrees/Bohr)
 Number     Number              X              Y              Z
 -------------------------------------------------------------------
      1        6          -0.000120994    0.001539872    0.000312796
      2        6          -0.001107396   -0.010252119    0.000827626
      3        8           0.002017429    0.006214454    0.002525049
      4        6          -0.007291321   -0.001705968    0.016300737
      5        8           0.003551884    0.001580887   -0.009025668
      6        6          -0.009358867    0.004013127   -0.016440954
      7        8           0.003381497   -0.002008881    0.007861678
      8        6           0.007974253    0.022847209    0.007810685
      9        6           0.002040794   -0.034676993    0.011074919
     10        1           0.000712175   -0.001393828    0.000065119
     11        1           0.001021201    0.001719294   -0.000648198
     12        1           0.000848617   -0.000174641    0.001005841
     13        1           0.000076730   -0.002382368   -0.003225634
     14        1           0.003178436    0.002069534   -0.004164775
     15        1          -0.002390031    0.001891106   -0.004015990
     16        1           0.000048010   -0.006100144   -0.006297494
     17        1          -0.005493716   -0.003827006   -0.000562851
     18        1           0.003045296    0.012132646   -0.003137428
     19        1          -0.002133998    0.008513821   -0.000265460
 -------------------------------------------------------------------
 Cartesian Forces:  Max     0.034676993 RMS     0.007781470

 GradGradGradGradGradGradGradGradGradGradGradGradGradGradGradGradGradGrad
 Berny optimization.
 Using GEDIIS/GDIIS optimizer.
 FormGI is forming the generalized inverse of G from B-inverse, IUseBI=4.
 Internal  Forces:  Max     0.009815674 RMS     0.002834255
 Search for a local minimum.
 Step number   2 out of a maximum of  103
 All quantities printed in internal units (Hartrees-Bohrs-Radians)
 Mixed Optimization -- RFO/linear search
 Update second derivatives using D2CorX and points    1    2
 DE= -2.19D-02 DEPred=-2.18D-02 R= 1.00D+00
 TightC=F SS=  1.41D+00  RLast= 5.48D-01 DXNew= 5.0454D-01 1.6431D+00
 Trust test= 1.00D+00 RLast= 5.48D-01 DXMaxT set to 5.05D-01
 ITU=  1  0
 Use linear search instead of GDIIS.
     Eigenvalues ---    0.00230   0.00230   0.00516   0.00520   0.01588
     Eigenvalues ---    0.01645   0.01755   0.02238   0.02659   0.02867
     Eigenvalues ---    0.03434   0.04091   0.04584   0.05230   0.05722
     Eigenvalues ---    0.05895   0.07981   0.10362   0.10856   0.11706
     Eigenvalues ---    0.15649   0.16000   0.16000   0.16000   0.16000
     Eigenvalues ---    0.16000   0.16214   0.16906   0.17002   0.18028
     Eigenvalues ---    0.19850   0.21891   0.24256   0.26840   0.27308
     Eigenvalues ---    0.27437   0.29401   0.30465   0.32443   0.32467
     Eigenvalues ---    0.32644   0.32744   0.32782   0.32945   0.33556
     Eigenvalues ---    0.35167   0.44123   0.45055   0.48461   0.48984
     Eigenvalues ---    0.93562
 RFO step:  Lambda=-6.20222773D-03 EMin= 2.29876881D-03
 Quartic linear search produced a step of  0.57323.
 Iteration  1 RMS(Cart)=  0.07661982 RMS(Int)=  0.00988886
 Iteration  2 RMS(Cart)=  0.00768742 RMS(Int)=  0.00655679
 Iteration  3 RMS(Cart)=  0.00014771 RMS(Int)=  0.00655482
 Iteration  4 RMS(Cart)=  0.00000283 RMS(Int)=  0.00655482
 Iteration  5 RMS(Cart)=  0.00000007 RMS(Int)=  0.00655482
 Variable       Old X    -DE/DX   Delta X   Delta X   Delta X     New X
                                 (Linear)    (Quad)   (Total)
    R1        2.89939  -0.00256  -0.01927   0.00609  -0.01317   2.88621
    R2        2.07093  -0.00117  -0.01681   0.01185  -0.00497   2.06597
    R3        2.06822  -0.00195  -0.01528   0.00669  -0.00859   2.05964
    R4        2.06554  -0.00131  -0.01670   0.01112  -0.00559   2.05996
    R5        2.68434   0.00394   0.01393  -0.00050   0.01344   2.69778
    R6        2.88769   0.00233   0.00995   0.00122   0.01118   2.89887
    R7        2.91299  -0.00055  -0.02110   0.01899  -0.00211   2.91089
    R8        1.82935  -0.00377  -0.02811   0.01626  -0.01185   1.81750
    R9        2.29120  -0.00982  -0.01029  -0.00593  -0.01622   2.27498
   R10        2.08659   0.00395   0.02027  -0.00380   0.01647   2.10305
   R11        2.65710  -0.00009   0.00279  -0.00309  -0.00031   2.65680
   R12        2.87446  -0.00464   0.00182  -0.01563  -0.01151   2.86295
   R13        2.84422  -0.00418  -0.01698  -0.00171  -0.01998   2.82424
   R14        1.82982  -0.00495  -0.02552   0.01011  -0.01540   1.81442
   R15        2.93287  -0.00714   0.01273  -0.06213  -0.05042   2.88245
   R16        2.05252  -0.00248  -0.02190   0.01113  -0.01076   2.04175
   R17        2.05326  -0.00223  -0.02712   0.01749  -0.00963   2.04364
   R18        2.04939  -0.00252  -0.02553   0.01465  -0.01088   2.03850
   R19        2.05123  -0.00222  -0.02773   0.01820  -0.00953   2.04170
    A1        1.90302   0.00019  -0.00865   0.01192   0.00319   1.90621
    A2        1.97390  -0.00123   0.00882  -0.02443  -0.01558   1.95832
    A3        1.91934   0.00017  -0.01334   0.01909   0.00571   1.92506
    A4        1.86620   0.00004  -0.00262  -0.00184  -0.00446   1.86174
    A5        1.88184   0.00040   0.01244  -0.00376   0.00853   1.89037
    A6        1.91661   0.00051   0.00394  -0.00072   0.00329   1.91989
    A7        1.93105   0.00097   0.02320  -0.02127   0.00179   1.93284
    A8        1.92909  -0.00059  -0.00288  -0.00076  -0.00395   1.92514
    A9        1.99465   0.00045  -0.00214   0.01831   0.01618   2.01083
   A10        1.89353  -0.00135  -0.00545  -0.02269  -0.02822   1.86531
   A11        1.83866  -0.00067  -0.01840   0.01562  -0.00272   1.83594
   A12        1.87207   0.00109   0.00441   0.01010   0.01435   1.88642
   A13        1.88194   0.00079  -0.00429   0.01209   0.00779   1.88973
   A14        2.16908   0.00232   0.02417  -0.01003   0.01407   2.18315
   A15        2.02208  -0.00530  -0.03567  -0.00659  -0.04234   1.97974
   A16        2.09157   0.00297   0.01124   0.01735   0.02852   2.12009
   A17        1.98987  -0.00200  -0.01811   0.00949  -0.01240   1.97747
   A18        2.16134   0.00014  -0.00856  -0.01557  -0.02430   2.13704
   A19        2.07247   0.00258   0.01302   0.03493   0.04873   2.12120
   A20        2.02841   0.00082   0.01179  -0.01625  -0.00503   2.02338
   A21        1.94729   0.00089   0.01550   0.00942   0.02421   1.97151
   A22        1.88337   0.00154   0.01859  -0.00662   0.01198   1.89535
   A23        1.99709   0.00348   0.06246   0.02537   0.08456   2.08165
   A24        1.95352   0.00305   0.03764   0.03800   0.07115   2.02467
   A25        2.08798   0.00067  -0.00602  -0.01685  -0.02768   2.06030
   A26        2.06764  -0.00011   0.00357  -0.02084  -0.02298   2.04467
   A27        2.06460  -0.00325  -0.02596  -0.00100  -0.04573   2.01888
   A28        2.15933  -0.00104  -0.00176  -0.04640  -0.06456   2.09477
   A29        2.04894  -0.00019  -0.00931  -0.01022  -0.03418   2.01476
   A30        1.92433   0.00458   0.07473   0.06368   0.13194   2.05627
   A31        1.94427   0.00436   0.06796   0.03388   0.09177   2.03603
   A32        2.04562  -0.00153  -0.00453   0.01936  -0.02952   2.01610
    D1       -1.07043  -0.00006  -0.00914  -0.00325  -0.01241  -1.08285
    D2        1.02738  -0.00149  -0.00287  -0.04604  -0.04892   0.97846
    D3        3.14102  -0.00019  -0.00080  -0.02044  -0.02132   3.11970
    D4        3.13910   0.00055  -0.00563   0.00634   0.00071   3.13981
    D5       -1.04627  -0.00089   0.00064  -0.03645  -0.03580  -1.08207
    D6        1.06737   0.00041   0.00271  -0.01084  -0.00820   1.05917
    D7        0.98948   0.00064  -0.00721   0.01043   0.00330   0.99278
    D8        3.08730  -0.00080  -0.00094  -0.03236  -0.03321   3.05409
    D9       -1.08225   0.00050   0.00114  -0.00675  -0.00560  -1.08786
   D10        1.11109  -0.00130  -0.00433  -0.05195  -0.05614   1.05495
   D11       -1.00787  -0.00031  -0.01158  -0.02313  -0.03460  -1.04246
   D12       -3.00798  -0.00062  -0.00470  -0.03211  -0.03707  -3.04504
   D13        0.02594   0.00052  -0.01190   0.06482   0.05286   0.07880
   D14       -3.08323   0.00075   0.00357   0.03825   0.04176  -3.04147
   D15        2.14609   0.00049   0.01147   0.02346   0.03504   2.18114
   D16       -0.96308   0.00072   0.02694  -0.00311   0.02395  -0.93913
   D17       -2.15896  -0.00040  -0.01038   0.03565   0.02522  -2.13374
   D18        1.01505  -0.00017   0.00510   0.00908   0.01412   1.02917
   D19        3.04202   0.00203   0.02873   0.08043   0.10854  -3.13262
   D20       -0.59263  -0.00011  -0.00451   0.02704   0.02434  -0.56829
   D21        0.69107  -0.00002   0.01006   0.01269   0.02137   0.71244
   D22        0.91866   0.00102   0.01381   0.08512   0.09837   1.01703
   D23       -2.71599  -0.00113  -0.01942   0.03173   0.01416  -2.70182
   D24       -1.43229  -0.00103  -0.00485   0.01738   0.01120  -1.42109
   D25       -1.09628   0.00238   0.02689   0.09902   0.12544  -0.97084
   D26        1.55226   0.00024  -0.00634   0.04564   0.04124   1.59349
   D27        2.83596   0.00033   0.00823   0.03128   0.03827   2.87423
   D28        1.53477  -0.00138  -0.01733  -0.02489  -0.04212   1.49265
   D29       -1.15318   0.00072   0.01771   0.02474   0.04188  -1.11130
   D30       -2.34125   0.00141   0.00030   0.04957   0.05034  -2.29091
   D31       -0.06618   0.00332   0.06326   0.06642   0.13406   0.06787
   D32       -2.47601   0.00110   0.00818  -0.00300   0.00109  -2.47492
   D33        2.57253   0.00041   0.02267   0.01850   0.04576   2.61829
   D34        0.16270  -0.00181  -0.03240  -0.05092  -0.08720   0.07550
   D35       -0.34833   0.00790   0.11400   0.15023   0.25426  -0.09406
   D36        2.52790  -0.00457  -0.07887  -0.01199  -0.07968   2.44821
   D37       -2.71704   0.00713   0.11048   0.08437   0.18270  -2.53434
   D38        0.15919  -0.00534  -0.08238  -0.07786  -0.15125   0.00794
   D39       -0.27687   0.00762   0.11741   0.12984   0.25105  -0.02582
   D40       -2.57920   0.00209   0.03261   0.02000   0.03884  -2.54036
   D41        2.48489  -0.00086  -0.00086   0.01783   0.03010   2.51498
   D42        0.18256  -0.00639  -0.08567  -0.09202  -0.18212   0.00044
         Item               Value     Threshold  Converged?
 Maximum Force            0.009816     0.000450     NO 
 RMS     Force            0.002834     0.000300     NO 
 Maximum Displacement     0.280918     0.001800     NO 
 RMS     Displacement     0.080130     0.001200     NO 
 Predicted change in Energy=-7.417159D-03
 GradGradGradGradGradGradGradGradGradGradGradGradGradGradGradGradGradGrad

                          Input orientation:                          
 ---------------------------------------------------------------------
 Center     Atomic      Atomic             Coordinates (Angstroms)
 Number     Number       Type             X           Y           Z
 ---------------------------------------------------------------------
      1          6           0        0.931065   -0.325905    0.291674
      2          6           0        2.386190   -0.009139   -0.047403
      3          8           0        2.493120    1.271025   -0.670135
      4          6           0        3.230957    0.046021    1.231866
      5          8           0        2.829442   -0.209008    2.337776
      6          6           0        3.061003   -0.990740   -1.024052
      7          8           0        4.401498   -0.668220   -1.299109
      8          6           0        2.712182   -2.464457   -1.065764
      9          6           0        2.335938   -1.532634   -2.213270
     10          1           0        0.558249    0.414535    1.004400
     11          1           0        0.821742   -1.300432    0.767335
     12          1           0        0.314524   -0.277893   -0.606018
     13          1           0        2.161797    1.933457   -0.056596
     14          1           0        4.280070    0.372867    1.055645
     15          1           0        4.955539   -1.054169   -0.616492
     16          1           0        1.919405   -2.837758   -0.433687
     17          1           0        3.538077   -3.142698   -1.231332
     18          1           0        1.290779   -1.307530   -2.356886
     19          1           0        2.922692   -1.614871   -3.116743
 ---------------------------------------------------------------------
                    Distance matrix (angstroms):
                    1          2          3          4          5
     1  C    0.000000
     2  C    1.527318   0.000000
     3  O    2.432134   1.427603   0.000000
     4  C    2.512328   1.534015   2.379631   0.000000
     5  O    2.793570   2.434235   3.369145   1.203866   0.000000
     6  C    2.590323   1.540375   2.358671   2.488558   3.459279
     7  O    3.832971   2.462239   2.792523   2.878565   3.988630
     8  C    3.096517   2.678043   3.762756   3.442489   4.084714
     9  C    3.115221   2.648498   3.204134   3.893863   4.765244
    10  H    1.093262   2.151083   2.698400   2.707566   2.706476
    11  H    1.089912   2.186031   3.387066   2.798757   2.772787
    12  H    1.090082   2.162425   2.673862   3.462415   3.872400
    13  H    2.596288   1.955535   0.961780   2.523024   3.281604
    14  H    3.505391   2.224730   2.641627   1.112888   2.021574
    15  H    4.189454   2.831520   3.387169   2.756996   3.736615
    16  H    2.795061   2.892781   4.155376   3.579163   3.926766
    17  H    4.129210   3.542276   4.570320   4.040989   4.674102
    18  H    2.847429   2.866960   3.307522   4.298317   5.061036
    19  H    4.152748   3.505290   3.807731   4.665189   5.633554
                    6          7          8          9         10
     6  C    0.000000
     7  O    1.405917   0.000000
     8  C    1.515010   2.476833   0.000000
     9  C    1.494526   2.418562   1.525327   0.000000
    10  H    3.514710   4.609671   4.148927   4.159933   0.000000
    11  H    2.884314   4.181451   2.879057   3.351226   1.751211
    12  H    2.868109   4.163663   3.277376   2.871193   1.769831
    13  H    3.208655   3.650866   4.545656   4.085995   2.450348
    14  H    2.769601   2.577494   3.874153   4.253985   3.722407
    15  H    1.938916   0.960148   2.687640   3.104986   4.911267
    16  H    2.250167   3.408318   1.080450   2.245832   3.807656
    17  H    2.213930   2.621665   1.081446   2.236436   5.150901
    18  H    2.238414   3.347265   2.241843   1.078729   3.847122
    19  H    2.188156   2.527214   2.229938   1.080420   5.166517
                   11         12         13         14         15
    11  H    0.000000
    12  H    1.785765   0.000000
    13  H    3.596199   2.933318   0.000000
    14  H    3.852672   4.348583   2.856501   0.000000
    15  H    4.366223   4.705501   4.128485   2.299725   0.000000
    16  H    2.238456   3.026260   4.792227   4.254287   3.526006
    17  H    3.842797   4.357685   5.389017   4.259110   2.597918
    18  H    3.159241   2.253612   4.068661   4.837868   4.064927
    19  H    4.427068   3.859248   4.747009   4.816887   3.270796
                   16         17         18         19
    16  H    0.000000
    17  H    1.830116   0.000000
    18  H    2.536821   3.112083   0.000000
    19  H    3.114616   2.503543   1.826194   0.000000
 Stoichiometry    C6H10O3
 Framework group  C1[X(C6H10O3)]
 Deg. of freedom    51
 Full point group                 C1      NOp   1
 Largest Abelian subgroup         C1      NOp   1
 Largest concise Abelian subgroup C1      NOp   1
                         Standard orientation:                         
 ---------------------------------------------------------------------
 Center     Atomic      Atomic             Coordinates (Angstroms)
 Number     Number       Type             X           Y           Z
 ---------------------------------------------------------------------
      1          6           0       -0.853992    1.650941   -0.137195
      2          6           0       -0.509115    0.237484    0.327456
      3          8           0       -0.613713    0.132361    1.747336
      4          6           0       -1.496548   -0.774307   -0.267906
      5          8           0       -2.365993   -0.510245   -1.057608
      6          6           0        0.918596   -0.233479   -0.008089
      7          8           0        1.189065   -1.542640    0.427279
      8          6           0        1.649138    0.213291   -1.257874
      9          6           0        2.094326    0.679584    0.124515
     10          1           0       -1.890210    1.874777    0.129959
     11          1           0       -0.779907    1.758354   -1.219268
     12          1           0       -0.208616    2.378753    0.354799
     13          1           0       -1.519975    0.333683    1.998691
     14          1           0       -1.355759   -1.809040    0.116837
     15          1           0        0.888264   -2.157501   -0.246032
     16          1           0        1.183323    0.935981   -1.912173
     17          1           0        2.257171   -0.536543   -1.745288
     18          1           0        1.945712    1.717607    0.377650
     19          1           0        2.990683    0.227038    0.523331
 ---------------------------------------------------------------------
 Rotational constants (GHZ):           2.3166388           1.3129178           1.2781355
 Standard basis: 6-31G(2df,p) (6D, 7F)
 There are   329 symmetry adapted cartesian basis functions of A   symmetry.
 There are   302 symmetry adapted basis functions of A   symmetry.
   302 basis functions,   466 primitive gaussians,   329 cartesian basis functions
    35 alpha electrons       35 beta electrons
       nuclear repulsion energy       485.9465111802 Hartrees.
 NAtoms=   19 NActive=   19 NUniq=   19 SFac= 1.00D+00 NAtFMM=   60 NAOKFM=F Big=F
 Integral buffers will be    131072 words long.
 Raffenetti 2 integral format.
 Two-electron integral symmetry is turned on.
 One-electron integrals computed using PRISM.
 PrsmSu:  requested number of processors reduced to:  13 ShMem   1 Linda.
 NBasis=   302 RedAO= T EigKep=  5.45D-04  NBF=   302
 NBsUse=   302 1.00D-06 EigRej= -1.00D+00 NBFU=   302
 Initial guess from the checkpoint file:  "CCpOppCdOpC1pOpCC1.chk"
 B after Tr=    -0.000000    0.000000    0.000000
         Rot=    0.999148    0.040416    0.004073    0.007292 Ang=   4.73 deg.
 ExpMin= 1.61D-01 ExpMax= 5.48D+03 ExpMxC= 8.25D+02 IAcc=2 IRadAn=         4 AccDes= 0.00D+00
 Harris functional with IExCor=  402 and IRadAn=       4 diagonalized for initial guess.
 HarFok:  IExCor=  402 AccDes= 0.00D+00 IRadAn=         4 IDoV= 1 UseB2=F ITyADJ=14
 ICtDFT=  3500011 ScaDFX=  1.000000  1.000000  1.000000  1.000000
 FoFCou: FMM=F IPFlag=           0 FMFlag=      100000 FMFlg1=           0
         NFxFlg=           0 DoJE=T BraDBF=F KetDBF=T FulRan=T
         wScrn=  0.000000 ICntrl=       500 IOpCl=  0 I1Cent=   200000004 NGrid=           0
         NMat0=    1 NMatS0=      1 NMatT0=    0 NMatD0=    1 NMtDS0=    0 NMtDT0=    0
 Petite list used in FoFCou.
 Requested convergence on RMS density matrix=1.00D-08 within 128 cycles.
 Requested convergence on MAX density matrix=1.00D-06.
 Requested convergence on             energy=1.00D-06.
 No special actions if energy rises.
 Integral accuracy reduced to 1.0D-05 until final iterations.
 Initial convergence to 1.0D-05 achieved.  Increase integral accuracy.
 SCF Done:  E(RB3LYP) =  -460.297312497     A.U. after   13 cycles
            NFock= 13  Conv=0.29D-08     -V/T= 2.0069
 PrsmSu:  requested number of processors reduced to:  13 ShMem   1 Linda.
 Calling FoFJK, ICntrl=      2127 FMM=F ISym2X=0 I1Cent= 0 IOpClX= 0 NMat=1 NMatS=1 NMatT=0.
 ***** Axes restored to original set *****
 -------------------------------------------------------------------
 Center     Atomic                   Forces (Hartrees/Bohr)
 Number     Number              X              Y              Z
 -------------------------------------------------------------------
      1        6           0.000677107    0.000286274   -0.000363658
      2        6          -0.001007619   -0.002970606   -0.000538128
      3        8           0.003209942    0.000332597   -0.002380271
      4        6           0.003343647   -0.002026990   -0.000131160
      5        8          -0.000648289    0.000610186    0.000664342
      6        6          -0.000072735   -0.000749730    0.001743217
      7        8          -0.000433662    0.001779605   -0.001309313
      8        6          -0.001712885    0.008560689   -0.003142355
      9        6           0.000836417   -0.005982937    0.003735006
     10        1          -0.000175525    0.000328688    0.000374648
     11        1          -0.000182256   -0.001061112    0.000353124
     12        1          -0.000778612   -0.000383744   -0.000823276
     13        1          -0.001864928    0.001201555    0.001198967
     14        1          -0.001367615    0.001552791    0.000131172
     15        1           0.001512449   -0.001493272    0.001399713
     16        1          -0.000875619   -0.001450674    0.000983886
     17        1           0.001115179   -0.001347886    0.000350137
     18        1          -0.002331143    0.001667977   -0.000443159
     19        1           0.000756147    0.001146590   -0.001802891
 -------------------------------------------------------------------
 Cartesian Forces:  Max     0.008560689 RMS     0.002005857

 GradGradGradGradGradGradGradGradGradGradGradGradGradGradGradGradGradGrad
 Berny optimization.
 Using GEDIIS/GDIIS optimizer.
 FormGI is forming the generalized inverse of G from B-inverse, IUseBI=4.
 Internal  Forces:  Max     0.003305438 RMS     0.001007235
 Search for a local minimum.
 Step number   3 out of a maximum of  103
 All quantities printed in internal units (Hartrees-Bohrs-Radians)
 Mixed Optimization -- RFO/linear search
 Update second derivatives using D2CorX and points    2    3
 DE= -7.05D-03 DEPred=-7.42D-03 R= 9.51D-01
 TightC=F SS=  1.41D+00  RLast= 6.17D-01 DXNew= 8.4853D-01 1.8513D+00
 Trust test= 9.51D-01 RLast= 6.17D-01 DXMaxT set to 8.49D-01
 ITU=  1  1  0
 Use linear search instead of GDIIS.
     Eigenvalues ---    0.00230   0.00233   0.00506   0.00523   0.01566
     Eigenvalues ---    0.01641   0.01812   0.02302   0.02722   0.02969
     Eigenvalues ---    0.03498   0.03932   0.04367   0.05314   0.05690
     Eigenvalues ---    0.05930   0.08207   0.09462   0.10505   0.11585
     Eigenvalues ---    0.15611   0.16000   0.16000   0.16000   0.16000
     Eigenvalues ---    0.16008   0.16217   0.16984   0.17168   0.18189
     Eigenvalues ---    0.19681   0.21892   0.24275   0.26834   0.27093
     Eigenvalues ---    0.27393   0.29334   0.30479   0.32446   0.32469
     Eigenvalues ---    0.32650   0.32751   0.32789   0.32944   0.33884
     Eigenvalues ---    0.35230   0.44046   0.45068   0.48872   0.49038
     Eigenvalues ---    0.93609
 RFO step:  Lambda=-1.50484604D-03 EMin= 2.29642248D-03
[...]
 0177322,-0.00415638,-0.00198516,0.01504540,-0.02340343,-0.02518134,-0.
 14078351,-0.00630990,0.01318445,-0.02226881,0.16904644,0.02119625,0.46
 755989,0.00170277,-0.00045310,-0.00183640,-0.01267180,0.02124618,-0.01
 521316,-0.00424967,0.00419464,-0.00934068,-0.46970384,0.31810401,-0.16
 257299,0.49666678,-0.00124999,-0.00102337,0.00464367,0.01578738,0.0121
 0502,0.01077872,-0.00121505,0.00346037,-0.00333930,0.32059363,-0.33182
 986,0.10495184,-0.37467724,0.34018214,-0.00126106,0.00028313,-0.007725
 35,-0.03382344,0.01634589,0.00517156,-0.00051040,0.00526344,-0.0025518
 7,-0.16053553,0.10283604,-0.15495501,0.18807776,-0.11842801,0.14639497
 ,-0.01393491,0.01851726,0.01778669,-0.08674980,0.03332230,0.02222693,0
 .00223250,-0.00223875,-0.00269661,0.01943853,-0.01885772,-0.00506936,-
 0.00923951,0.00590316,0.00492284,0.53823453,0.00311845,0.00858142,0.00
 339990,0.01930817,-0.10774927,-0.03882528,0.01547822,-0.04717702,-0.01
 560200,-0.00400889,-0.00154230,-0.01280238,0.00212330,-0.00293950,0.00
 230370,0.04498861,0.47111758,0.00542926,-0.00054403,-0.00242953,0.0183
 9193,-0.04938332,-0.10911387,-0.00604661,0.00883947,0.00970118,0.00815
 875,-0.02668691,-0.02815494,0.00320093,0.00077517,0.00400650,0.0233607
 3,0.12891164,0.43461267,0.00123033,0.00513948,0.00398987,-0.03542144,-
 0.00334068,0.00941849,0.00221804,0.00126764,-0.00017932,-0.00633994,0.
 00196688,-0.00507391,0.00620876,-0.00296586,0.00109435,-0.24342891,-0.
 02780664,0.04220297,0.44519990,0.00027954,-0.00355832,-0.00228392,0.01
 978895,0.00348907,-0.00269201,0.00110797,0.00227415,0.00003328,-0.0013
 5280,0.00152350,0.00184001,0.00109324,0.00131150,-0.00209338,-0.016380
 00,-0.06464210,0.00767429,0.00309649,0.08921931,-0.00003970,-0.0040358
 9,-0.00144067,0.02371415,0.00391759,-0.00282054,0.00005370,0.00015103,
 0.00154133,-0.00508152,0.00550294,-0.00169753,0.00683193,-0.00439682,-
 0.00996198,0.00184860,0.00313011,-0.09282587,0.13238719,-0.09406878,0.
 49866140,-0.00016126,0.00059656,0.00036492,0.00524658,0.00386435,-0.01
 185175,-0.00192665,0.00668845,0.00293196,-0.00093116,-0.00000138,-0.00
 089967,0.00101219,-0.00014662,0.00000520,-0.07205012,-0.02391965,0.005
 66025,-0.02476437,-0.03676036,0.01343510,0.57813798,0.00029861,-0.0008
 8296,-0.00185134,-0.00127748,-0.01736971,0.00860904,0.00127509,-0.0016
 9856,-0.00336223,0.00092600,-0.00030622,0.00081373,-0.00058606,0.00145
 314,-0.00029008,-0.04671000,-0.18820543,-0.03594874,-0.01090817,-0.003
 57860,-0.00031790,-0.06875397,0.56638352,0.00061297,-0.00000202,0.0005
 2804,-0.00225153,-0.01767931,0.00154249,0.00075392,-0.00024292,-0.0017
 8855,0.00011063,0.00131891,0.00021751,-0.00070798,-0.00041238,-0.00013
 842,0.01635600,0.00060338,-0.02160134,0.00762356,0.00762591,-0.0013212
 7,-0.16825642,-0.10000507,0.33917490,0.00037847,0.00000547,0.00026359,
 0.00807149,-0.00690373,0.00970343,-0.00000251,-0.00028072,-0.00082633,
 -0.00319087,0.00452985,0.00130719,0.00123879,-0.00107644,-0.00063251,-
 0.09617642,-0.02507311,-0.04281770,-0.02727028,0.00217521,-0.03680946,
 -0.06226588,0.03985538,-0.00799520,0.62416297,-0.00007325,0.00019055,0
 .00033771,-0.00582890,-0.00695507,-0.02382289,-0.00095632,0.00395436,0
 .00078865,0.00262081,-0.00160441,-0.00047969,-0.00054064,0.00030824,0.
 00036078,-0.01052621,-0.04212801,-0.03383521,-0.00267749,-0.00128031,-
 0.00188200,0.01969120,-0.09638455,0.06712300,-0.13127959,0.26943220,0.
 00041239,-0.00090317,-0.00057487,-0.00632658,0.00224132,-0.01948909,-0
 .00026242,0.00204063,0.00273416,0.00200698,-0.00211598,-0.00010615,0.0
 0001049,-0.00000146,0.00036090,-0.07143922,-0.07936719,-0.17175052,-0.
 00371711,-0.00213239,0.00565243,0.00871979,0.11025124,-0.13839522,-0.0
 2063976,-0.01682908,0.62162244,-0.06951733,0.05637798,0.04707770,-0.01
 261187,0.02598369,0.02087221,0.00203018,0.00169107,-0.00242254,0.00031
 224,0.00260448,0.00192449,0.00052363,-0.00124601,-0.00021118,-0.003774
 58,-0.00408991,-0.00147425,-0.00225683,0.00146598,0.00148786,-0.000157
 80,-0.00021234,-0.00025841,-0.00018067,-0.00013768,-0.00020530,0.07838
 300,0.05760638,-0.18615112,-0.11365752,-0.00104413,0.00099052,0.004601
 61,-0.00065916,0.00289807,0.00027950,-0.00057332,-0.00040081,-0.001421
 65,0.00019042,0.00014678,0.00053281,-0.00136833,-0.00043389,0.00049955
 ,0.00018163,0.00053882,0.00003727,-0.00007008,-0.00020290,0.00007410,0
 .00002337,-0.00016539,0.00008953,-0.06305436,0.20151537,0.04642707,-0.
 11465954,-0.13916133,0.00373794,-0.00594031,-0.00550409,-0.00097118,0.
 00036337,0.00053316,-0.00161782,0.00090355,-0.00049902,0.00028260,-0.0
 0026381,0.00031350,0.00042334,0.00133386,0.00057992,0.00076825,-0.0003
 5080,-0.00011255,-0.00021254,0.00029159,-0.00004843,-0.00014973,0.0001
 0267,-0.00010413,-0.05339994,0.12589486,0.14923799,-0.05341546,-0.0293
 6999,0.01553339,0.00324789,-0.02570924,0.01240343,-0.00767655,-0.00491
 515,0.00342912,0.00099784,-0.00088047,0.00008967,-0.00047839,0.0004525
 6,-0.00024619,0.00064285,-0.00038146,0.00026250,0.00017980,0.00023317,
 -0.00025306,-0.00042858,0.00041735,0.00017769,-0.00007873,-0.00025961,
 -0.00021167,0.00080916,0.00834660,-0.00544218,0.05407183,-0.03118420,-
 0.24691461,0.11345000,0.00007704,-0.00407724,0.00085839,-0.00150058,0.
 00051723,-0.00003959,0.00007246,-0.00053134,0.00068217,-0.00047039,0.0
 0053758,-0.00043976,-0.00024990,-0.00068704,-0.00005473,-0.00013754,0.
 00021720,0.00010186,0.00089706,-0.00094826,-0.00068255,-0.00011012,0.0
 0001592,-0.00019425,-0.00301492,-0.01976318,0.01171436,0.03373202,0.27
 036612,0.01651852,0.11188057,-0.10812373,-0.00155675,0.00487264,-0.004
 73017,0.00260992,0.00119132,0.00111602,-0.00022759,0.00000242,-0.00016
 384,0.00023943,-0.00023138,0.00016354,0.00002610,0.00094142,-0.0001214
 7,-0.00021616,-0.00048308,-0.00001387,0.00070838,0.00008288,-0.0003804
 8,-0.00007323,0.00026568,-0.00009640,-0.00335947,-0.01768320,0.0098173
 5,-0.01929135,-0.12234849,0.11392089,-0.12796834,0.00116075,-0.1250585
 4,-0.02397051,-0.00082921,-0.02959395,0.00506778,0.00084373,0.00160083
 ,-0.00426782,0.00015790,0.00690885,-0.00104298,0.00114775,-0.00262234,
 0.00048997,-0.00038662,-0.00122711,0.00062370,0.00014343,0.00063477,-0
 .00016542,-0.00002199,-0.00003515,-0.00052744,0.00041539,-0.00022696,0
 .00559144,-0.00043822,0.00886468,0.00266876,0.00041271,0.00468929,0.14
 164193,0.00194571,-0.04577102,0.00331564,-0.00254212,-0.00073060,-0.00
 302284,0.00103568,0.00068880,-0.00032905,-0.00152798,-0.00029044,0.000
 07756,0.00013727,0.00040324,-0.00037596,0.00033388,0.00009882,0.000412
 29,-0.00014984,-0.00015852,-0.00016305,0.00012774,0.00009209,-0.000188
 00,0.00058991,-0.00030024,-0.00005099,-0.01427000,-0.00002317,-0.02031
 731,0.01657783,0.00101538,0.02310299,-0.00215584,0.04513411,-0.1258563
 1,0.00343078,-0.22948128,0.00617451,0.00119607,0.00764309,-0.00074241,
 -0.00131010,0.00112984,0.00077523,0.00088829,-0.00157995,0.00039944,-0
 .00080128,0.00093984,-0.00024507,-0.00065780,-0.00020254,-0.00027248,0
 .00021851,0.00007724,-0.00017305,0.00019605,0.00007823,0.00099468,-0.0
 0046234,-0.00039629,-0.01023849,0.00101627,-0.01531187,-0.00721644,-0.
 00154575,-0.01115423,0.13617545,-0.00168445,0.24914107,0.00201589,-0.0
 0296141,-0.00131325,0.00095312,-0.00754732,-0.00083085,-0.17540489,0.2
 0124309,0.14640253,-0.00183406,0.00191994,0.00142833,0.00132176,-0.000
 91149,-0.00046608,-0.00048860,-0.00235271,0.00000434,0.00003725,0.0004
 0427,-0.00025061,0.00043274,-0.00059649,-0.00023178,0.00025728,0.00013
 743,0.00025649,0.00030673,0.00035726,0.00119090,-0.00063421,0.00030844
 ,-0.00001710,-0.00021599,-0.00037656,-0.00038440,0.17342106,0.00041429
 ,0.00283003,-0.00196840,0.02251741,-0.02967867,-0.02121876,0.16795374,
 -0.23817039,-0.12218231,0.00205337,-0.00018271,0.00087279,-0.00146963,
 0.00060302,-0.00010717,-0.00246889,-0.00734101,0.00409690,-0.00038544,
 0.00114088,0.00035902,0.00188433,-0.00050814,-0.00018583,-0.00012064,0
 .00094422,0.00055847,-0.00146254,0.00018252,0.00104374,0.00101903,0.00
 094040,-0.00005827,-0.00038890,-0.00031842,0.00003906,-0.18925374,0.27
 001057,-0.00032288,0.00199801,0.00204207,-0.01078584,0.01790625,0.0037
 4479,0.15655769,-0.16107971,-0.13573565,-0.00143164,0.00461653,0.00246
 826,0.00037500,-0.00151679,-0.00100698,-0.00007172,0.00085628,-0.00131
 804,-0.00019906,-0.00009182,-0.00008486,-0.00003687,0.00012031,0.00042
 772,0.00040606,0.00020822,0.00047806,0.00051842,-0.00038600,-0.0005537
 6,0.00017126,0.00007303,-0.00049926,-0.00006562,-0.00066912,-0.0003464
 1,-0.14493147,0.13892666,0.13157548,0.00255173,-0.00020271,0.00160172,
 0.01142478,-0.00632678,-0.01290012,-0.00111512,0.00100397,-0.00038120,
 -0.06447706,0.02755177,0.02544152,-0.01284534,0.04240341,0.01002823,-0
 .00292134,0.00087700,-0.00268302,0.00048620,0.00002927,0.00060631,-0.0
 0001012,-0.00009005,0.00019472,0.00080073,-0.00035605,-0.00052568,-0.0
 0017123,0.00011470,0.00005894,-0.00025281,-0.00014555,0.00001056,0.000
 82613,0.00024244,0.00006021,0.00000133,0.00034070,0.00005202,0.0654564
 1,0.00109956,-0.00000430,0.00066394,0.01137440,-0.00397201,-0.00161174
 ,-0.00089373,0.00607423,-0.00250036,0.02374118,-0.16379906,-0.10000854
 ,0.03357365,-0.02397035,-0.00684383,-0.00167172,0.00097638,-0.00049388
 ,0.00025403,0.00026131,-0.00079366,0.00000021,0.00011129,-0.00010602,0
 .00031662,-0.00015173,-0.00018029,-0.00081906,0.00028536,0.00020318,-0
 .00017879,-0.00002417,0.00002681,-0.00005690,0.00004831,0.00006026,-0.
 00030773,0.00026478,-0.00091178,-0.06537436,0.18386005,0.00087740,-0.0
 0008874,-0.00133113,0.00277685,-0.02653592,-0.00990510,0.00180494,0.00
 006033,0.00524816,0.02406917,-0.09152483,-0.13913673,-0.00282644,0.005
 36401,0.02229261,-0.00531962,0.00093928,-0.00327459,0.00085783,0.00009
 482,0.00083315,0.00004369,0.00019612,0.00013716,0.00146910,-0.00056648
 ,-0.00081234,-0.00104544,0.00064022,0.00042073,0.00005834,0.00004150,-
 0.00005015,-0.00088060,0.00041496,0.00031318,-0.00104315,0.00072044,-0
 .00141640,-0.02053934,0.11107144,0.12770738,-0.00003791,-0.00048763,0.
 00018625,-0.00003188,0.00160645,-0.00111869,0.00022787,-0.00045281,0.0
 0030960,-0.00324434,0.00421920,0.00163131,0.00094926,-0.00253092,-0.00
 361561,-0.03262951,0.00721566,-0.04151353,-0.11563829,0.02754944,-0.13
 652666,0.00286653,-0.00087588,-0.00084936,-0.00650013,0.00141714,0.002
 37516,0.00019329,-0.00007430,-0.00005041,-0.00007666,0.00002177,0.0000
 1924,0.00024650,-0.00002742,-0.00001365,-0.00000254,0.00011750,-0.0000
 7409,0.00029727,-0.00077721,0.00000435,0.15355634,-0.00008376,0.000281
 91,-0.00047649,0.00062949,0.00055871,0.00203570,-0.00045117,-0.0007179
 2,-0.00051964,0.00357369,-0.00215448,-0.00174740,-0.00224391,-0.001587
 85,0.00071517,-0.00460372,0.00073520,-0.00476459,0.04103450,-0.0294456
 3,0.09396036,0.00049860,0.00214010,-0.00144037,-0.00277750,0.00013169,
 -0.00146764,-0.00008578,-0.00003658,0.00003897,-0.00006611,-0.00003053
 ,0.00012100,-0.00023274,0.00001732,0.00003765,0.00015575,-0.00011129,0
 .00004310,0.00035331,0.00028668,-0.00024514,-0.03549871,0.03087066,-0.
 00011479,-0.00053077,-0.00157099,0.00076819,0.00050987,0.00182102,-0.0
 0047732,-0.00005401,-0.00143038,0.00880171,-0.00540947,0.00369743,-0.0
 0669035,0.00267866,-0.00325890,0.00122780,-0.00005374,0.00541430,-0.18
 559056,0.08805418,-0.39919094,0.00162772,-0.00015359,-0.00149068,0.001
 19967,-0.00010068,0.00094283,0.00043243,-0.00010369,-0.00011499,0.0000
 4163,0.00006131,0.00010880,-0.00051499,0.00004652,0.00005591,0.0003486
 3,-0.00029360,0.00014534,-0.00085819,0.00149008,-0.00080726,0.17924895
 ,-0.08644267,0.39439575,-0.00018633,0.00073593,0.00119765,-0.00020260,
 0.00096836,0.00063938,0.00009415,0.00009844,-0.00018356,-0.00020926,-0
 .00008630,0.00006314,0.00031023,0.00005177,-0.00023451,-0.00857774,0.0
 0372427,0.00497183,-0.00216602,-0.00458565,0.00043758,-0.23652510,-0.0
 5890245,0.12972596,0.01047811,0.00161431,-0.00722720,0.00007287,0.0003
 6100,-0.00021195,0.00028491,0.00112472,0.00002737,-0.00005884,0.000071
 32,-0.00013117,0.00002409,-0.00007696,-0.00004963,0.00002276,-0.000082
 68,0.00002386,0.00040023,0.00041639,0.00089415,0.24751596,-0.00007017,
 -0.00121762,0.00033440,-0.00118352,0.00179970,-0.00057667,0.00031400,0
 .00054759,0.00004160,0.00000162,-0.00050112,-0.00033165,0.00030114,0.0
 0000681,-0.00002922,-0.01344689,-0.00130612,0.01382846,-0.00357760,-0.
 00359530,0.00159780,-0.05595985,-0.06676348,0.04018102,-0.00522723,-0.
 00668026,0.00381500,0.00018804,0.00044518,-0.00014516,0.00073326,-0.00
 067918,-0.00141385,0.00015526,-0.00013130,0.00011252,-0.00001985,-0.00
 012025,-0.00009648,-0.00012975,-0.00011563,-0.00016434,0.00046125,0.00
 036691,0.00051738,0.06126088,0.06902212,0.00042085,-0.00116775,-0.0004
 6520,0.00104453,0.00132652,-0.00007104,-0.00008406,0.00026662,0.000297
 60,-0.00035590,-0.00006657,0.00002559,0.00018861,0.00003849,-0.0000935
 5,-0.01190471,0.00395961,0.00410335,-0.00414868,-0.00499120,0.00148544
 ,0.12878273,0.04019854,-0.11851336,0.02342405,0.00419734,-0.01386761,-
 0.00007879,-0.00014353,-0.00006750,0.00059159,-0.00138332,-0.00030558,
 -0.00004942,0.00027626,-0.00011826,0.00008772,0.00007079,-0.00003715,0
 .00002482,0.00007318,0.00007062,0.00033145,0.00020872,0.00058778,-0.13
 810728,-0.04576789,0.12732557,-0.00017986,-0.00011989,0.00041378,-0.00
 138591,-0.00081934,0.00188674,0.00055813,-0.00099709,-0.00052949,0.000
 14228,-0.00001733,0.00004592,-0.00007517,0.00002776,0.00001680,0.00982
 663,-0.01231224,-0.00262699,0.00163504,0.00172562,-0.00051214,-0.19137
 827,0.14848721,0.02741719,-0.00647999,0.00322009,0.00233810,0.00012960
 ,0.00018622,-0.00004501,0.00009031,0.00020314,-0.00029830,0.00012019,-
 0.00012736,-0.00001304,-0.00004893,-0.00042370,0.00000607,-0.00002452,
 -0.00002465,-0.00003789,-0.00021527,-0.00015412,-0.00062995,-0.0122983
 3,0.01645000,0.00035116,0.19770190,-0.00021520,0.00006259,0.00027290,-
 0.00140812,-0.00036783,0.00386119,0.00058938,-0.00167999,-0.00096737,0
 .00073956,-0.00038814,0.00043084,-0.00052535,0.00045002,-0.00009113,0.
 01884513,-0.01833756,-0.00079338,0.00053701,0.00536627,-0.00143395,0.1
 4452312,-0.18822576,-0.01854784,0.00104838,-0.00711586,-0.00032992,0.0
 0008774,0.00011690,-0.00002402,0.00008294,0.00005872,-0.00019292,-0.00
 000068,-0.00006103,-0.00000922,-0.00019921,-0.00046031,-0.00004305,-0.
 00009997,-0.00002079,-0.00009809,-0.00083603,-0.00083372,-0.00052743,-
 0.00756132,0.00827750,0.00062668,-0.15539703,0.20270067,-0.00013775,-0
 .00007929,-0.00048964,-0.00113828,-0.00123753,0.00138684,0.00041691,-0
 .00124922,-0.00032471,0.00066979,-0.00032916,0.00048344,-0.00046452,0.
 00047838,-0.00010607,0.01085815,-0.00856918,-0.00605727,0.00133250,0.0
 0339507,-0.00013842,0.02863418,-0.02005228,-0.04072088,-0.02167691,0.0
 2056697,0.00378672,0.00002454,-0.00020289,0.00013593,-0.00008038,-0.00
 022031,0.00035389,0.00012441,0.00002490,-0.00006423,-0.00009204,-0.000
 31267,0.00009448,-0.00008379,0.00000751,-0.00007672,-0.00006843,-0.000
 38190,-0.00015680,0.00905755,-0.01215950,-0.00123260,-0.02767055,0.018
 04620,0.04376921,-0.00005949,0.00037338,0.00063943,-0.00062232,0.00116
 834,0.00130090,0.00052470,-0.00042976,0.00044850,-0.00045299,0.0003557
 2,-0.00004394,0.00045361,-0.00028129,-0.00010518,-0.00970388,0.0055654
 4,0.00168303,-0.00157791,0.00055148,-0.00341696,0.00551349,-0.00295170
 ,-0.00031622,-0.29448812,0.09542690,-0.04647417,0.00016572,-0.00006240
 ,0.00017235,-0.00000292,-0.00000933,0.00015894,0.00052691,0.00024667,0
 .00057173,-0.00007736,-0.00018049,-0.00010619,0.00007488,-0.00008534,-
 0.00001865,-0.00063453,-0.00049911,0.00031496,0.00062683,0.00025546,-0
 .00072095,0.00071586,-0.00094395,0.00107436,0.31030266,0.00021288,-0.0
 0041641,-0.00052670,0.00096452,0.00075144,0.00180007,0.00027298,-0.000
 20522,0.00031947,-0.00077241,0.00051177,0.00002811,0.00049000,-0.00014
 612,-0.00009855,-0.01753693,0.00672718,0.00398113,-0.00396595,0.000626
 14,-0.00541321,0.02530258,-0.00931901,0.00061251,0.09663719,-0.0711274
 9,0.01613555,-0.00002632,-0.00000718,-0.00009385,0.00002917,-0.0000130
 7,0.00017067,0.00028395,0.00016670,-0.00081225,0.00003150,-0.00005573,
 0.00004262,0.00010735,0.00004043,0.00017753,-0.00157822,-0.00068179,0.
 00012736,-0.00132730,0.00162781,-0.00311432,0.00134487,-0.00046476,0.0
 0542297,-0.10281815,0.07362146,-0.00060932,0.00007387,-0.00086537,-0.0
 0090603,-0.00003731,0.00183620,0.00059178,-0.00063113,-0.00009873,-0.0
 0037162,0.00055895,-0.00015617,0.00026743,-0.00038845,0.00001811,-0.01
 319935,0.00919106,-0.00432585,-0.00107440,0.00088907,-0.00199869,-0.01
 339273,0.00376460,-0.00613665,-0.04323416,0.01581894,-0.05696463,0.000
 24840,0.00001740,0.00032014,0.00001493,0.00002556,0.00010767,0.0010876
 7,-0.00078281,-0.00075143,-0.00009923,-0.00032442,0.00003323,0.0000287
 9,-0.00006785,0.00003755,-0.00067441,-0.00002096,0.00057296,0.00050671
 ,0.00109877,0.00210328,-0.00090412,-0.00082837,-0.00211971,0.05009692,
 -0.01989831,0.06054774,-0.00044925,0.00022269,-0.00014522,-0.00179891,
 0.00141929,-0.00141851,0.00014344,-0.00009805,0.00019202,0.00048839,-0
 .00060529,-0.00035731,-0.00008109,-0.00006651,0.00011884,0.00881031,-0
 .00206789,-0.01493732,0.00104498,-0.00056524,0.00145293,-0.00244480,0.
 00062694,-0.00207057,-0.14822680,0.02809248,0.14113668,0.00015245,-0.0
 0002330,0.00017468,0.00005097,-0.00002682,0.00003220,0.00041403,-0.000
 13132,0.00013525,-0.00006466,-0.00006943,-0.00001150,-0.00012469,-0.00
 008747,-0.00027442,0.00027377,0.00003490,-0.00002969,0.00039411,-0.000
 50603,0.00020228,0.00116629,0.00073360,-0.00077972,-0.01128514,0.00234
 830,0.02162274,0.15153661,-0.00033749,-0.00016921,0.00013436,-0.002415
 08,0.00157452,-0.00317584,-0.00002718,-0.00002541,0.00029253,0.0012972
 4,-0.00152046,-0.00011993,-0.00048753,0.00052919,0.00015615,0.01414871
 ,-0.00574733,-0.01651409,0.00243756,0.00029063,0.00374725,-0.01846228,
 0.00421344,0.02195349,0.02766770,-0.04108386,-0.03155939,0.00001993,0.
 00006472,-0.00009536,0.00013689,0.00000005,-0.00024724,-0.00020977,0.0
 0011996,0.00008772,-0.00003116,0.00003048,0.00000377,-0.00029868,-0.00
 015080,-0.00049710,0.00053072,0.00021061,0.00018431,0.00219528,-0.0009
 8337,0.00539183,-0.00125217,0.00092307,-0.00314806,0.00431813,-0.00163
 614,-0.00845859,-0.02923083,0.04335991,-0.00028762,0.00020841,-0.00000
 232,-0.00151202,0.00253283,-0.00119697,0.00011545,-0.00028863,0.000290
 60,0.00064694,-0.00062817,0.00000414,-0.00022108,0.00007074,0.00013659
 ,0.01090848,0.00030734,-0.01724210,0.00079668,-0.00063776,0.00335622,0
 .00390910,-0.00254288,-0.01157076,0.13608722,-0.03179159,-0.23302030,0
 .00010775,-0.00008462,0.00011895,-0.00003230,-0.00009945,0.00005100,0.
 00018873,-0.00008753,0.00002810,-0.00005899,-0.00003644,-0.00001092,-0
 .00013650,-0.00007845,-0.00025013,0.00039853,0.00034612,0.00027882,-0.
 00139988,-0.00084218,-0.00122737,0.00079171,0.00064887,0.00147654,-0.0
 0525887,0.00113920,0.00784035,-0.14504334,0.03186420,0.25093956\\-0.00
 002236,-0.00000384,0.00001512,0.00007053,0.00002125,-0.00000277,-0.000
 01297,-0.00000604,0.00000598,-0.00002026,-0.00001242,-0.00003255,0.000
 00588,-0.00000161,0.00001257,-0.00007000,-0.00000582,0.00004040,0.0000
 2180,0.00001603,-0.00001427,0.00007575,0.00000539,-0.00003562,-0.00002
 385,-0.00000620,0.00001963,0.00000891,0.00000056,0.00000019,-0.0000039
 2,0.00000906,0.00000473,0.00000869,-0.00000145,-0.00000488,0.00000364,
 0.00000702,-0.00000596,-0.00000804,-0.00000193,-0.00000494,0.00000208,
 -0.00000587,0.00000104,-0.00001367,0.00001369,-0.00001484,-0.00002580,
 -0.00002017,0.00001133,-0.00000047,-0.00000629,-0.00000262,0.00000404,
 -0.00000136,0.00000743\\\@


 WHEN YOU REACH FOR THE STARS, YOU MAY NOT QUITE GET ONE,
 BUT YOU WON'T COME UP WITH A HANDFUL OF MUD, EITHER.

                                         -- LEO BURNETT (AD AGENCY HEAD)
 Job cpu time:       0 days  2 hours 11 minutes 17.0 seconds.
 Elapsed time:       0 days  0 hours 33 minutes  9.6 seconds.
 File lengths (MBytes):  RWF=    139 Int=      0 D2E=      0 Chk=      9 Scr=      1
 Normal termination of Gaussian 16 at Thu Feb 18 14:20:24 2021.
### All Done ###
