Currently Loaded Modulefiles:
  1) miniconda3/miniconda3-4.3.30   2) gaussian/gaussian-16-A.03
### Starting Gaussian ###
 Entering Gaussian System, Link 0=g16
 Initial command:
 /cluster/software/gaussian/gaussian-16-A.03/avx2/g16/l1.exe "/local/scratch/ks29c/Gau-32609.inp" -scrdir="/local/scratch/ks29c/"
 Entering Link 1 = /cluster/software/gaussian/gaussian-16-A.03/avx2/g16/l1.exe PID=     32610.
  
 Copyright (c) 1988,1990,1992,1993,1995,1998,2003,2009,2016,
            Gaussian, Inc.  All Rights Reserved.
  
 This is part of the Gaussian(R) 16 program.  It is based on
 the Gaussian(R) 09 system (copyright 2009, Gaussian, Inc.),
 the Gaussian(R) 03 system (copyright 2003, Gaussian, Inc.),
 the Gaussian(R) 98 system (copyright 1998, Gaussian, Inc.),
 the Gaussian(R) 94 system (copyright 1995, Gaussian, Inc.),
 the Gaussian 92(TM) system (copyright 1992, Gaussian, Inc.),
 the Gaussian 90(TM) system (copyright 1990, Gaussian, Inc.),
 the Gaussian 88(TM) system (copyright 1988, Gaussian, Inc.),
 the Gaussian 86(TM) system (copyright 1986, Carnegie Mellon
 University), and the Gaussian 82(TM) system (copyright 1983,
 Carnegie Mellon University). Gaussian is a federally registered
 trademark of Gaussian, Inc.
  
 This software contains proprietary and confidential information,
 including trade secrets, belonging to Gaussian, Inc.
  
 This software is provided under written license and may be
 used, copied, transmitted, or stored only in accord with that
 written license.
  
 The following legend is applicable only to US Government
 contracts under FAR:
  
                    RESTRICTED RIGHTS LEGEND
  
 Use, reproduction and disclosure by the US Government is
 subject to restrictions as set forth in subparagraphs (a)
 and (c) of the Commercial Computer Software - Restricted
 Rights clause in FAR 52.227-19.
  
 Gaussian, Inc.
 340 Quinnipiac St., Bldg. 40, Wallingford CT 06492
  
  
 ---------------------------------------------------------------
 Warning -- This program may not be used in any manner that
 competes with the business of Gaussian, Inc. or will provide
 assistance to any competitor of Gaussian, Inc.  The licensee
 of this program is prohibited from giving any competitor of
 Gaussian, Inc. access to this program.  By using this program,
 the user acknowledges that Gaussian, Inc. is engaged in the
 business of creating and licensing software in the field of
 computational chemistry and represents and warrants to the
 licensee that it is not a competitor of Gaussian, Inc. and that
 it will not use this program in any manner prohibited above.
 ---------------------------------------------------------------
  

 Cite this work as:
 Gaussian 16, Revision A.03,
 M. J. Frisch, G. W. Trucks, H. B. Schlegel, G. E. Scuseria, 
 M. A. Robb, J. R. Cheeseman, G. Scalmani, V. Barone, 
 G. A. Petersson, H. Nakatsuji, X. Li, M. Caricato, A. V. Marenich, 
 J. Bloino, B. G. Janesko, R. Gomperts, B. Mennucci, H. P. Hratchian, 
 J. V. Ortiz, A. F. Izmaylov, J. L. Sonnenberg, D. Williams-Young, 
 F. Ding, F. Lipparini, F. Egidi, J. Goings, B. Peng, A. Petrone, 
 T. Henderson, D. Ranasinghe, V. G. Zakrzewski, J. Gao, N. Rega, 
 G. Zheng, W. Liang, M. Hada, M. Ehara, K. Toyota, R. Fukuda, 
 J. Hasegawa, M. Ishida, T. Nakajima, Y. Honda, O. Kitao, H. Nakai, 
 T. Vreven, K. Throssell, J. A. Montgomery, Jr., J. E. Peralta, 
 F. Ogliaro, M. J. Bearpark, J. J. Heyd, E. N. Brothers, K. N. Kudin, 
 V. N. Staroverov, T. A. Keith, R. Kobayashi, J. Normand, 
 K. Raghavachari, A. P. Rendell, J. C. Burant, S. S. Iyengar, 
 J. Tomasi, M. Cossi, J. M. Millam, M. Klene, C. Adamo, R. Cammi, 
 J. W. Ochterski, R. L. Martin, K. Morokuma, O. Farkas, 
 J. B. Foresman, and D. J. Fox, Gaussian, Inc., Wallingford CT, 2016.
 
 ******************************************
 Gaussian 16:  ES64L-G16RevA.03 25-Dec-2016
                18-Feb-2021 
 ******************************************
 %chk=Cn1ccpOCdOpnn1_2.chk
 -----------------------------
 # opt freq b3lyp/6-31g(2df,p)
 -----------------------------
 1/18=20,19=15,26=3,38=1/1,3;
 2/9=110,12=2,17=6,18=5,40=1/2;
 3/5=1,6=6,7=104,11=2,25=1,30=1,71=1,74=-5/1,2,3;
 4//1;
 5/5=2,38=5/2;
 6/7=2,8=2,9=2,10=2,28=1/1;
 7//1,2,3,16;
 1/18=20,19=15,26=3/3(2);
 2/9=110/2;
 99//99;
 2/9=110/2;
 3/5=1,6=6,7=104,11=2,25=1,30=1,71=1,74=-5/1,2,3;
 4/5=5,16=3,69=1/1;
 5/5=2,38=5/2;
 7//1,2,3,16;
 1/18=20,19=15,26=3/3(-5);
 2/9=110/2;
 6/7=2,8=2,9=2,10=2,19=2,28=1/1;
 99/9=1/99;
 -------------------
 Title Card Required
 -------------------
 Symbolic Z-matrix:
 Charge =  0 Multiplicity = 1
 C                    -7.14179  -1.66818   0.00619 
 H                    -6.78514  -2.67699   0.00619 
 H                    -6.78512  -1.16378  -0.86746 
 H                    -8.21179  -1.66817   0.00619 
 N                    -6.65178  -0.97522   1.20644 
 N                    -7.11634   0.34545   1.20516 
 N                    -5.90847   0.8928    1.47959 
 C                    -5.18179  -0.97757   1.20778 
 H                    -4.8267   -1.98656   1.18027 
 C                    -4.91138  -0.05625   2.28825 
 O                    -3.65281   0.24449   1.15506 
 C                    -2.31162  -0.13168   1.1677 
 O                    -1.08431  -0.13168   1.1677 
 H                    -2.90377  -1.07108   1.16773 
 
 Add virtual bond connecting atoms O11        and C10        Dist= 3.25D+00.

 GradGradGradGradGradGradGradGradGradGradGradGradGradGradGradGradGradGrad
 Berny optimization.
 Initialization pass.
                           ----------------------------
                           !    Initial Parameters    !
                           ! (Angstroms and Degrees)  !
 --------------------------                            --------------------------
 ! Name  Definition              Value          Derivative Info.                !
 --------------------------------------------------------------------------------
 ! R1    R(1,2)                  1.07           estimate D2E/DX2                !
 ! R2    R(1,3)                  1.07           estimate D2E/DX2                !
 ! R3    R(1,4)                  1.07           estimate D2E/DX2                !
 ! R4    R(1,5)                  1.47           estimate D2E/DX2                !
 ! R5    R(5,6)                  1.4            estimate D2E/DX2                !
 ! R6    R(5,8)                  1.47           estimate D2E/DX2                !
 ! R7    R(6,7)                  1.3542         estimate D2E/DX2                !
 ! R8    R(7,10)                 1.5965         estimate D2E/DX2                !
 ! R9    R(8,9)                  1.07           estimate D2E/DX2                !
 ! R10   R(8,10)                 1.4455         estimate D2E/DX2                !
 ! R11   R(10,11)                1.72           estimate D2E/DX2                !
 ! R12   R(11,12)                1.393          estimate D2E/DX2                !
 ! R13   R(12,13)                1.2273         estimate D2E/DX2                !
 ! R14   R(12,14)                1.1105         estimate D2E/DX2                !
 ! A1    A(2,1,3)              109.4712         estimate D2E/DX2                !
 ! A2    A(2,1,4)              109.4712         estimate D2E/DX2                !
 ! A3    A(2,1,5)              109.4712         estimate D2E/DX2                !
 ! A4    A(3,1,4)              109.4712         estimate D2E/DX2                !
 ! A5    A(3,1,5)              109.4713         estimate D2E/DX2                !
 ! A6    A(4,1,5)              109.4712         estimate D2E/DX2                !
 ! A7    A(1,5,6)              109.4712         estimate D2E/DX2                !
 ! A8    A(1,5,8)              109.4712         estimate D2E/DX2                !
 ! A9    A(6,5,8)              109.4713         estimate D2E/DX2                !
 ! A10   A(5,6,7)               94.8832         estimate D2E/DX2                !
 ! A11   A(6,7,10)             114.7996         estimate D2E/DX2                !
 ! A12   A(5,8,9)              109.4712         estimate D2E/DX2                !
 ! A13   A(5,8,10)             100.7626         estimate D2E/DX2                !
 ! A14   A(9,8,10)             123.9304         estimate D2E/DX2                !
 ! A15   A(7,10,8)              83.3065         estimate D2E/DX2                !
 ! A16   A(7,10,11)             91.1087         estimate D2E/DX2                !
 ! A17   A(8,10,11)             75.8696         estimate D2E/DX2                !
 ! A18   A(10,11,12)           130.6398         estimate D2E/DX2                !
 ! A19   A(11,12,13)           164.3242         estimate D2E/DX2                !
 ! A20   A(11,12,14)            73.4432         estimate D2E/DX2                !
 ! A21   A(13,12,14)           122.2249         estimate D2E/DX2                !
 ! D1    D(2,1,5,6)            179.8889         estimate D2E/DX2                !
 ! D2    D(2,1,5,8)             59.8889         estimate D2E/DX2                !
 ! D3    D(3,1,5,6)             59.8889         estimate D2E/DX2                !
 ! D4    D(3,1,5,8)            -60.1111         estimate D2E/DX2                !
 ! D5    D(4,1,5,6)            -60.1111         estimate D2E/DX2                !
 ! D6    D(4,1,5,8)            179.8889         estimate D2E/DX2                !
 ! D7    D(1,5,6,7)           -131.7029         estimate D2E/DX2                !
 ! D8    D(8,5,6,7)            -11.7029         estimate D2E/DX2                !
 ! D9    D(1,5,8,9)            -58.3816         estimate D2E/DX2                !
 ! D10   D(1,5,8,10)           169.5629         estimate D2E/DX2                !
 ! D11   D(6,5,8,9)           -178.3816         estimate D2E/DX2                !
 ! D12   D(6,5,8,10)            49.5629         estimate D2E/DX2                !
 ! D13   D(5,6,7,10)           -27.239          estimate D2E/DX2                !
 ! D14   D(6,7,10,8)            54.2251         estimate D2E/DX2                !
 ! D15   D(6,7,10,11)          129.8586         estimate D2E/DX2                !
 ! D16   D(5,8,10,7)           -51.7397         estimate D2E/DX2                !
 ! D17   D(5,8,10,11)         -144.5847         estimate D2E/DX2                !
 ! D18   D(9,8,10,7)          -174.2067         estimate D2E/DX2                !
 ! D19   D(9,8,10,11)           92.9483         estimate D2E/DX2                !
 ! D20   D(7,10,11,12)         173.5264         estimate D2E/DX2                !
 ! D21   D(8,10,11,12)        -103.6595         estimate D2E/DX2                !
 ! D22   D(10,11,12,13)       -120.6849         estimate D2E/DX2                !
 ! D23   D(10,11,12,14)         61.0104         estimate D2E/DX2                !
 ! D24   D(11,12,13,14)       -178.079          estimate D2E/DX2                !
 --------------------------------------------------------------------------------
 Trust Radius=3.00D-01 FncErr=1.00D-07 GrdErr=1.00D-06 EigMax=2.50D+02 EigMin=1.00D-04
 Number of steps in this run=     69 maximum allowed number of steps=    100.
 GradGradGradGradGradGradGradGradGradGradGradGradGradGradGradGradGradGrad

                          Input orientation:                          
 ---------------------------------------------------------------------
 Center     Atomic      Atomic             Coordinates (Angstroms)
 Number     Number       Type             X           Y           Z
 ---------------------------------------------------------------------
      1          6           0       -7.141791   -1.668182    0.006188
      2          1           0       -6.785137   -2.676992    0.006188
      3          1           0       -6.785118   -1.163783   -0.867464
      4          1           0       -8.211791   -1.668168    0.006188
      5          7           0       -6.651783   -0.975223    1.206438
      6          7           0       -7.116343    0.345452    1.205159
      7          7           0       -5.908473    0.892797    1.479592
      8          6           0       -5.181785   -0.977568    1.207782
      9          1           0       -4.826703   -1.986558    1.180268
     10          6           0       -4.911376   -0.056247    2.288250
     11          8           0       -3.652812    0.244492    1.155063
     12          6           0       -2.311624   -0.131677    1.167696
     13          8           0       -1.084307   -0.131677    1.167696
     14          1           0       -2.903769   -1.071081    1.167735
 ---------------------------------------------------------------------
                    Distance matrix (angstroms):
                    1          2          3          4          5
     1  C    0.000000
     2  H    1.070000   0.000000
     3  H    1.070000   1.747302   0.000000
     4  H    1.070000   1.747303   1.747303   0.000000
     5  N    1.470000   2.086720   2.086720   2.086720   0.000000
     6  N    2.343693   3.268393   2.585201   2.586930   1.400000
     7  N    3.201656   3.960158   3.241404   3.746296   2.028946
     8  C    2.400500   2.627281   2.629068   3.331920   1.470000
     9  H    2.615236   2.385503   2.950517   3.597035   2.086720
    10  C    3.575037   3.948049   3.833546   4.324215   2.245852
    11  O    4.141402   4.434686   3.985624   5.075675   3.237927
    12  C    5.200045   5.276367   5.021879   6.206600   4.421544
    13  O    6.356341   6.350369   6.140551   7.383153   5.631151
    14  H    4.434699   4.358114   4.383549   5.466334   3.749439
                    6          7          8          9         10
     6  N    0.000000
     7  N    1.354197   0.000000
     8  C    2.343694   2.024900   0.000000
     9  H    3.268232   3.090389   1.070000   0.000000
    10  C    2.489242   1.596500   1.445464   2.227307   0.000000
    11  O    3.465364   2.369309   1.958053   2.521158   1.720041
    12  C    4.828497   3.752886   2.992485   3.125118   2.831969
    13  O    6.050993   4.941600   4.184073   4.176873   3.988458
    14  H    4.444518   3.603098   2.280287   2.129772   2.513152
                   11         12         13         14
    11  O    0.000000
    12  C    1.393000   0.000000
    13  O    2.595936   1.227317   0.000000
    14  H    1.513922   1.110457   2.047663   0.000000
 Stoichiometry    C4H5N3O2
 Framework group  C1[X(C4H5N3O2)]
 Deg. of freedom    36
 Full point group                 C1      NOp   1
 Largest Abelian subgroup         C1      NOp   1
 Largest concise Abelian subgroup C1      NOp   1
                         Standard orientation:                         
 ---------------------------------------------------------------------
 Center     Atomic      Atomic             Coordinates (Angstroms)
 Number     Number       Type             X           Y           Z
 ---------------------------------------------------------------------
      1          6           0        2.506771    1.325762   -0.296404
      2          1           0        2.289718    2.246938    0.202818
      3          1           0        2.166627    1.380326   -1.309432
      4          1           0        3.562701    1.153294   -0.283518
      5          7           0        1.821596    0.222202    0.391775
      6          7           0        2.103545   -0.982741   -0.262913
      7          7           0        0.813450   -1.391405   -0.312877
      8          6           0        0.371117    0.460476    0.376398
      9          1           0        0.158137    1.395061    0.851888
     10          6           0       -0.117013   -0.815184    0.849457
     11          8           0       -1.296399   -0.313477   -0.297660
     12          6           0       -2.570794    0.218544   -0.115121
     13          8           0       -3.781975    0.416357   -0.129909
     14          1           0       -1.860808    0.927357    0.360925
 ---------------------------------------------------------------------
 Rotational constants (GHZ):           4.6445130           0.8764468           0.7840534
 Standard basis: 6-31G(2df,p) (6D, 7F)
 There are   304 symmetry adapted cartesian basis functions of A   symmetry.
 There are   277 symmetry adapted basis functions of A   symmetry.
   277 basis functions,   431 primitive gaussians,   304 cartesian basis functions
    33 alpha electrons       33 beta electrons
       nuclear repulsion energy       420.6883405898 Hartrees.
 NAtoms=   14 NActive=   14 NUniq=   14 SFac= 1.00D+00 NAtFMM=   60 NAOKFM=F Big=F
 Integral buffers will be    131072 words long.
 Raffenetti 2 integral format.
 Two-electron integral symmetry is turned on.
 One-electron integrals computed using PRISM.
 NBasis=   277 RedAO= T EigKep=  2.14D-04  NBF=   277
 NBsUse=   277 1.00D-06 EigRej= -1.00D+00 NBFU=   277
 ExpMin= 1.61D-01 ExpMax= 5.48D+03 ExpMxC= 8.25D+02 IAcc=3 IRadAn=         5 AccDes= 0.00D+00
 Harris functional with IExCor=  402 and IRadAn=       5 diagonalized for initial guess.
 HarFok:  IExCor=  402 AccDes= 0.00D+00 IRadAn=         5 IDoV= 1 UseB2=F ITyADJ=14
 ICtDFT=  3500011 ScaDFX=  1.000000  1.000000  1.000000  1.000000
 FoFCou: FMM=F IPFlag=           0 FMFlag=      100000 FMFlg1=           0
         NFxFlg=           0 DoJE=T BraDBF=F KetDBF=T FulRan=T
         wScrn=  0.000000 ICntrl=       500 IOpCl=  0 I1Cent=   200000004 NGrid=           0
         NMat0=    1 NMatS0=      1 NMatT0=    0 NMatD0=    1 NMtDS0=    0 NMtDT0=    0
 Petite list used in FoFCou.
 Requested convergence on RMS density matrix=1.00D-08 within 128 cycles.
 Requested convergence on MAX density matrix=1.00D-06.
 Requested convergence on             energy=1.00D-06.
 No special actions if energy rises.
 Integral accuracy reduced to 1.0D-05 until final iterations.
 EnCoef did     1 forward-backward iterations
 EnCoef did     2 forward-backward iterations
 Initial convergence to 1.0D-05 achieved.  Increase integral accuracy.
 SCF Done:  E(RB3LYP) =  -469.683857753     A.U. after   23 cycles
            NFock= 23  Conv=0.39D-08     -V/T= 2.0066

 **********************************************************************

            Population analysis using the SCF density.

 **********************************************************************

 Orbital symmetries:
       Occupied  (A) (A) (A) (A) (A) (A) (A) (A) (A) (A) (A) (A)
                 (A) (A) (A) (A) (A) (A) (A) (A) (A) (A) (A) (A)
                 (A) (A) (A) (A) (A) (A) (A) (A) (A)
       Virtual   (A) (A) (A) (A) (A) (A) (A) (A) (A) (A) (A) (A)
                 (A) (A) (A) (A) (A) (A) (A) (A) (A) (A) (A) (A)
                 (A) (A) (A) (A) (A) (A) (A) (A) (A) (A) (A) (A)
                 (A) (A) (A) (A) (A) (A) (A) (A) (A) (A) (A) (A)
                 (A) (A) (A) (A) (A) (A) (A) (A) (A) (A) (A) (A)
                 (A) (A) (A) (A) (A) (A) (A) (A) (A) (A) (A) (A)
                 (A) (A) (A) (A) (A) (A) (A) (A) (A) (A) (A) (A)
                 (A) (A) (A) (A) (A) (A) (A) (A) (A) (A) (A) (A)
                 (A) (A) (A) (A) (A) (A) (A) (A) (A) (A) (A) (A)
                 (A) (A) (A) (A) (A) (A) (A) (A) (A) (A) (A) (A)
                 (A) (A) (A) (A) (A) (A) (A) (A) (A) (A) (A) (A)
                 (A) (A) (A) (A) (A) (A) (A) (A) (A) (A) (A) (A)
                 (A) (A) (A) (A) (A) (A) (A) (A) (A) (A) (A) (A)
                 (A) (A) (A) (A) (A) (A) (A) (A) (A) (A) (A) (A)
                 (A) (A) (A) (A) (A) (A) (A) (A) (A) (A) (A) (A)
                 (A) (A) (A) (A) (A) (A) (A) (A) (A) (A) (A) (A)
                 (A) (A) (A) (A) (A) (A) (A) (A) (A) (A) (A) (A)
                 (A) (A) (A) (A) (A) (A) (A) (A) (A) (A) (A) (A)
                 (A) (A) (A) (A) (A) (A) (A) (A) (A) (A) (A) (A)
                 (A) (A) (A) (A) (A) (A) (A) (A) (A) (A) (A) (A)
                 (A) (A) (A) (A)
 The electronic state is 1-A.
 Alpha  occ. eigenvalues --  -19.19956 -19.17387 -14.44390 -14.43982 -14.41015
 Alpha  occ. eigenvalues --  -10.33204 -10.32218 -10.31099 -10.24571  -1.11211
 Alpha  occ. eigenvalues --   -1.07620  -1.03899  -0.90773  -0.84696  -0.73260
 Alpha  occ. eigenvalues --   -0.66420  -0.62388  -0.58705  -0.53229  -0.52106
 Alpha  occ. eigenvalues --   -0.48546  -0.47850  -0.46713  -0.45564  -0.43365
 Alpha  occ. eigenvalues --   -0.42054  -0.38357  -0.37277  -0.34687  -0.33937
 Alpha  occ. eigenvalues --   -0.29951  -0.25233  -0.22052
 Alpha virt. eigenvalues --   -0.16239  -0.08466  -0.05935   0.01196   0.07132
 Alpha virt. eigenvalues --    0.07922   0.09385   0.09529   0.13422   0.13805
 Alpha virt. eigenvalues --    0.14110   0.17125   0.20040   0.22118   0.23594
 Alpha virt. eigenvalues --    0.28647   0.32644   0.36584   0.40180   0.40591
 Alpha virt. eigenvalues --    0.42580   0.44889   0.45979   0.46540   0.48991
 Alpha virt. eigenvalues --    0.50695   0.51757   0.54895   0.56019   0.58121
 Alpha virt. eigenvalues --    0.60117   0.61041   0.62570   0.65317   0.67273
 Alpha virt. eigenvalues --    0.67526   0.69222   0.69740   0.70632   0.71311
 Alpha virt. eigenvalues --    0.73013   0.74134   0.76947   0.77986   0.81178
 Alpha virt. eigenvalues --    0.81630   0.83275   0.84877   0.86201   0.87132
 Alpha virt. eigenvalues --    0.89464   0.90668   0.92351   0.93798   0.94536
 Alpha virt. eigenvalues --    0.95676   0.98817   1.00298   1.01701   1.06068
 Alpha virt. eigenvalues --    1.09275   1.12002   1.13915   1.14568   1.16443
 Alpha virt. eigenvalues --    1.21235   1.24397   1.25935   1.29841   1.29932
 Alpha virt. eigenvalues --    1.33117   1.35642   1.36655   1.38562   1.40046
 Alpha virt. eigenvalues --    1.41570   1.45642   1.48125   1.51256   1.52702
 Alpha virt. eigenvalues --    1.53238   1.54191   1.58811   1.59543   1.62708
 Alpha virt. eigenvalues --    1.63507   1.65466   1.66858   1.68770   1.72663
 Alpha virt. eigenvalues --    1.74443   1.77453   1.81422   1.84793   1.88749
 Alpha virt. eigenvalues --    1.91084   1.92125   1.95699   1.96820   1.99332
 Alpha virt. eigenvalues --    2.03309   2.09493   2.16344   2.22373   2.25698
 Alpha virt. eigenvalues --    2.28528   2.33019   2.39492   2.40898   2.49323
 Alpha virt. eigenvalues --    2.60122   2.66543   2.68167   2.73135   2.77925
 Alpha virt. eigenvalues --    2.79878   2.82103   2.86032   2.87414   2.87893
 Alpha virt. eigenvalues --    2.89186   2.91841   2.92710   2.95738   3.00034
 Alpha virt. eigenvalues --    3.04038   3.06823   3.08547   3.13347   3.16599
 Alpha virt. eigenvalues --    3.17416   3.19154   3.22228   3.23447   3.26659
 Alpha virt. eigenvalues --    3.32400   3.33176   3.36411   3.39160   3.42656
 Alpha virt. eigenvalues --    3.42986   3.45116   3.48302   3.50957   3.60241
 Alpha virt. eigenvalues --    3.62311   3.64128   3.65086   3.66308   3.68994
 Alpha virt. eigenvalues --    3.77229   3.77615   3.81450   3.86681   3.93863
 Alpha virt. eigenvalues --    3.96219   3.97708   3.99453   4.01875   4.04483
 Alpha virt. eigenvalues --    4.06318   4.09091   4.10447   4.14299   4.19139
 Alpha virt. eigenvalues --    4.20145   4.21777   4.24044   4.26172   4.26743
 Alpha virt. eigenvalues --    4.30022   4.32864   4.34160   4.35332   4.35983
 Alpha virt. eigenvalues --    4.38587   4.40544   4.41543   4.42488   4.44520
 Alpha virt. eigenvalues --    4.45524   4.49204   4.52384   4.53556   4.54867
 Alpha virt. eigenvalues --    4.56087   4.57326   4.59841   4.61554   4.66401
 Alpha virt. eigenvalues --    4.69226   4.70433   4.73567   4.76384   4.78164
 Alpha virt. eigenvalues --    4.81200   4.83567   4.87547   4.89074   4.92266
 Alpha virt. eigenvalues --    4.97415   5.00962   5.03547   5.04788   5.05283
 Alpha virt. eigenvalues --    5.08311   5.10045   5.14215   5.17913   5.19794
 Alpha virt. eigenvalues --    5.20608   5.24006   5.26011   5.30042   5.33972
 Alpha virt. eigenvalues --    5.37957   5.43211   5.46082   5.47401   5.48058
 Alpha virt. eigenvalues --    5.53962   5.61648   5.63354   5.74510   5.77573
 Alpha virt. eigenvalues --    5.83205   5.92352   6.01577   6.19023   6.60115
 Alpha virt. eigenvalues --    6.69330   6.86917   7.11012  10.83231  10.93569
 Alpha virt. eigenvalues --   11.08589  11.19659  11.34827  11.49860  11.54302
 Alpha virt. eigenvalues --   12.32679  12.94519  13.45474  19.66290
          Condensed to atoms (all electrons):
               1          2          3          4          5          6
     1  C    4.949522   0.378243   0.380247   0.384319   0.334234  -0.053403
     2  H    0.378243   0.551968  -0.033323  -0.025302  -0.022618   0.003541
     3  H    0.380247  -0.033323   0.565711  -0.032759  -0.037624   0.006377
     4  H    0.384319  -0.025302  -0.032759   0.531696  -0.021240   0.001039
     5  N    0.334234  -0.022618  -0.037624  -0.021240   6.385444   0.233013
     6  N   -0.053403   0.003541   0.006377   0.001039   0.233013   6.575402
     7  N    0.007974  -0.000268   0.004642  -0.000180  -0.184269   0.447673
     8  C   -0.063480   0.001006  -0.008886   0.004230   0.426742  -0.068198
     9  H   -0.001633   0.001648   0.001839  -0.000191  -0.029089   0.004951
    10  C    0.006418   0.000131   0.000501  -0.000318  -0.066439  -0.062976
    11  O   -0.000349  -0.000001   0.000210   0.000002   0.002983   0.002971
    12  C   -0.000014   0.000004  -0.000005   0.000000   0.000128  -0.000044
    13  O   -0.000000   0.000000   0.000000   0.000000  -0.000001  -0.000000
    14  H    0.000077  -0.000043  -0.000053  -0.000001   0.000009   0.000166
               7          8          9         10         11         12
     1  C    0.007974  -0.063480  -0.001633   0.006418  -0.000349  -0.000014
     2  H   -0.000268   0.001006   0.001648   0.000131  -0.000001   0.000004
     3  H    0.004642  -0.008886   0.001839   0.000501   0.000210  -0.000005
     4  H   -0.000180   0.004230  -0.000191  -0.000318   0.000002   0.000000
     5  N   -0.184269   0.426742  -0.029089  -0.066439   0.002983   0.000128
     6  N    0.447673  -0.068198   0.004951  -0.062976   0.002971  -0.000044
     7  N    6.634384  -0.095013   0.008779   0.309577  -0.018839   0.000924
     8  C   -0.095013   4.874877   0.318278   0.439274   0.039346  -0.012322
     9  H    0.008779   0.318278   0.553803  -0.029245  -0.013483   0.000979
    10  C    0.309577   0.439274  -0.029245   5.252029   0.107634  -0.013996
    11  O   -0.018839   0.039346  -0.013483   0.107634   8.211510   0.267845
    12  C    0.000924  -0.012322   0.000979  -0.013996   0.267845   4.299455
    13  O   -0.000002   0.000399  -0.000141  -0.000569   0.021182   0.631161
    14  H    0.000034  -0.035275   0.018493   0.010458  -0.250595   0.432103
              13         14
     1  C   -0.000000   0.000077
     2  H    0.000000  -0.000043
     3  H    0.000000  -0.000053
     4  H    0.000000  -0.000001
     5  N   -0.000001   0.000009
     6  N   -0.000000   0.000166
     7  N   -0.000002   0.000034
     8  C    0.000399  -0.035275
     9  H   -0.000141   0.018493
    10  C   -0.000569   0.010458
    11  O    0.021182  -0.250595
    12  C    0.631161   0.432103
    13  O    7.751797  -0.100302
    14  H   -0.100302   0.943809
 Mulliken charges:
               1
     1  C   -0.322155
     2  H    0.145014
     3  H    0.153124
     4  H    0.158705
     5  N   -0.021272
     6  N   -0.090514
     7  N   -0.115417
     8  C    0.179021
     9  H    0.165012
    10  C    0.047521
    11  O   -0.370416
    12  C    0.393781
    13  O   -0.303523
    14  H   -0.018880
 Sum of Mulliken charges =  -0.00000
 Mulliken charges with hydrogens summed into heavy atoms:
               1
     1  C    0.134687
     5  N   -0.021272
     6  N   -0.090514
     7  N   -0.115417
     8  C    0.344033
    10  C    0.047521
    11  O   -0.370416
    12  C    0.374901
    13  O   -0.303523
 Electronic spatial extent (au):  <R**2>=           1382.0273
 Charge=             -0.0000 electrons
 Dipole moment (field-independent basis, Debye):
    X=              3.8123    Y=              3.6721    Z=              0.5569  Tot=              5.3224
 Quadrupole moment (field-independent basis, Debye-Ang):
   XX=            -60.7218   YY=            -52.4252   ZZ=            -51.7915
   XY=              7.1983   XZ=             -0.3639   YZ=             -1.2147
 Traceless Quadrupole moment (field-independent basis, Debye-Ang):
   XX=             -5.7423   YY=              2.5543   ZZ=              3.1880
   XY=              7.1983   XZ=             -0.3639   YZ=             -1.2147
 Octapole moment (field-independent basis, Debye-Ang**2):
  XXX=             54.6974  YYY=             13.0983  ZZZ=             -6.3221  XYY=             -0.3689
  XXY=              4.0529  XXZ=             -0.1186  XZZ=             -4.8031  YZZ=              3.8130
  YYZ=              1.6390  XYZ=             -1.7046
 Hexadecapole moment (field-independent basis, Debye-Ang**3):
 XXXX=          -1524.9863 YYYY=           -289.0375 ZZZZ=           -105.4037 XXXY=             59.4533
 XXXZ=             -6.1201 YYYX=             12.4349 YYYZ=              1.4930 ZZZX=              3.2448
 ZZZY=              2.5339 XXYY=           -269.8364 XXZZ=           -238.3890 YYZZ=            -65.8699
 XXYZ=             -7.5642 YYXZ=              4.8013 ZZXY=             -0.4247
 N-N= 4.206883405898D+02 E-N=-1.938849508532D+03  KE= 4.666243585994D+02
 Calling FoFJK, ICntrl=      2127 FMM=F ISym2X=0 I1Cent= 0 IOpClX= 0 NMat=1 NMatS=1 NMatT=0.
 ***** Axes restored to original set *****
 -------------------------------------------------------------------
 Center     Atomic                   Forces (Hartrees/Bohr)
 Number     Number              X              Y              Z
 -------------------------------------------------------------------
      1        6          -0.012213656   -0.003808969    0.011237933
      2        1           0.003721548   -0.014724294    0.000672865
      3        1           0.002213799    0.008157259   -0.014991870
      4        1          -0.014916802   -0.001210386   -0.000365197
      5        7           0.031779540   -0.063550500   -0.064106418
      6        7           0.140870940    0.024081436    0.026540719
      7        7          -0.077174562    0.084163537    0.058107803
      8        6          -0.087487903   -0.056182674    0.118396815
      9        1           0.019196888   -0.012140283   -0.018130490
     10        6          -0.011660328    0.019292340   -0.124626879
     11        8          -0.005891472    0.166487716   -0.005576737
     12        6          -0.013292189   -0.153533993    0.018944462
     13        8          -0.050533918    0.069724755   -0.003100939
     14        1           0.075388115   -0.066755945   -0.003002067
 -------------------------------------------------------------------
 Cartesian Forces:  Max     0.166487716 RMS     0.061513331

 GradGradGradGradGradGradGradGradGradGradGradGradGradGradGradGradGradGrad
 Berny optimization.
 FormGI is forming the generalized inverse of G from B-inverse, IUseBI=4.
 Internal  Forces:  Max     0.192892496 RMS     0.046936247
 Search for a local minimum.
 Step number   1 out of a maximum of   69
 All quantities printed in internal units (Hartrees-Bohrs-Radians)
 Mixed Optimization -- RFO/linear search
 Second derivative matrix not updated -- first step.
 ITU=  0
     Eigenvalues ---    0.00230   0.00766   0.01313   0.01784   0.02196
     Eigenvalues ---    0.03362   0.03597   0.04303   0.07537   0.07537
     Eigenvalues ---    0.08181   0.10973   0.15422   0.16000   0.16000
     Eigenvalues ---    0.16000   0.16000   0.17078   0.17790   0.19541
     Eigenvalues ---    0.20595   0.22001   0.23605   0.25000   0.32552
     Eigenvalues ---    0.33140   0.35740   0.36731   0.37230   0.37230
     Eigenvalues ---    0.37230   0.37230   0.43374   0.46801   0.50834
     Eigenvalues ---    0.92213
 RFO step:  Lambda=-2.71872912D-01 EMin= 2.30000000D-03
 Linear search not attempted -- first point.
 Maximum step size (   0.300) exceeded in Quadratic search.
    -- Step size scaled by   0.432
 Iteration  1 RMS(Cart)=  0.09146025 RMS(Int)=  0.00595073
 Iteration  2 RMS(Cart)=  0.00564154 RMS(Int)=  0.00066133
 Iteration  3 RMS(Cart)=  0.00002315 RMS(Int)=  0.00066104
 Iteration  4 RMS(Cart)=  0.00000000 RMS(Int)=  0.00066104
 Variable       Old X    -DE/DX   Delta X   Delta X   Delta X     New X
                                 (Linear)    (Quad)   (Total)
    R1        2.02201   0.01512   0.00000   0.01015   0.01015   2.03215
    R2        2.02201   0.01682   0.00000   0.01129   0.01129   2.03329
    R3        2.02201   0.01492   0.00000   0.01001   0.01001   2.03201
    R4        2.77790   0.01534   0.00000   0.01054   0.01054   2.78843
    R5        2.64562   0.04457   0.00000   0.02949   0.02982   2.67544
    R6        2.77790  -0.05128   0.00000  -0.03458  -0.03489   2.74301
    R7        2.55906  -0.07224   0.00000  -0.03828  -0.03790   2.52116
    R8        3.01695  -0.01123   0.00000  -0.01468  -0.01499   3.00196
    R9        2.02201   0.01828   0.00000   0.01227   0.01227   2.03427
   R10        2.73153   0.00393   0.00000   0.00305   0.00301   2.73454
   R11        3.25041   0.00215   0.00000   0.00210   0.00210   3.25250
   R12        2.63239   0.05191   0.00000   0.03032   0.03032   2.66271
   R13        2.31929  -0.05053   0.00000  -0.01829  -0.01829   2.30100
   R14        2.09846   0.01627   0.00000   0.01177   0.01177   2.11023
    A1        1.91063   0.00039   0.00000   0.00078   0.00078   1.91141
    A2        1.91063  -0.00142   0.00000  -0.00172  -0.00172   1.90891
    A3        1.91063  -0.00028   0.00000  -0.00024  -0.00024   1.91040
    A4        1.91063  -0.00222   0.00000  -0.00231  -0.00231   1.90833
    A5        1.91063   0.00348   0.00000   0.00363   0.00363   1.91427
    A6        1.91063   0.00004   0.00000  -0.00015  -0.00015   1.91048
    A7        1.91063   0.02964   0.00000   0.02551   0.02563   1.93627
    A8        1.91063   0.03936   0.00000   0.03818   0.03813   1.94876
    A9        1.91063  -0.04008   0.00000  -0.03165  -0.03247   1.87816
   A10        1.65602   0.09330   0.00000   0.08694   0.08761   1.74363
   A11        2.00363  -0.06910   0.00000  -0.06039  -0.06131   1.94232
   A12        1.91063   0.00581   0.00000   0.01279   0.01256   1.92320
   A13        1.75864   0.00019   0.00000   0.00926   0.00947   1.76811
   A14        2.16299   0.02857   0.00000   0.02783   0.02700   2.18999
   A15        1.45397   0.07239   0.00000   0.07350   0.07358   1.52755
   A16        1.59015   0.01830   0.00000   0.01740   0.01564   1.60579
   A17        1.32417   0.06729   0.00000   0.06588   0.06525   1.38943
   A18        2.28009  -0.02558   0.00000  -0.02118  -0.02118   2.25891
   A19        2.86800  -0.17739   0.00000  -0.15586  -0.15587   2.71213
   A20        1.28183   0.19289   0.00000   0.18220   0.18220   1.46402
   A21        2.13323  -0.01560   0.00000  -0.02644  -0.02644   2.10678
    D1        3.13965  -0.00268   0.00000   0.00083   0.00098   3.14064
    D2        1.04526   0.00415   0.00000   0.00058   0.00043   1.04568
    D3        1.04526  -0.00512   0.00000  -0.00221  -0.00206   1.04320
    D4       -1.04914   0.00172   0.00000  -0.00245  -0.00261  -1.05175
    D5       -1.04914  -0.00457   0.00000  -0.00152  -0.00136  -1.05050
    D6        3.13965   0.00227   0.00000  -0.00176  -0.00192   3.13773
    D7       -2.29865  -0.03225   0.00000  -0.03345  -0.03341  -2.33206
    D8       -0.20425   0.00957   0.00000   0.00956   0.00870  -0.19555
    D9       -1.01895   0.01388   0.00000   0.01475   0.01471  -1.00424
   D10        2.95943  -0.02406   0.00000  -0.03218  -0.03248   2.92695
   D11       -3.11335  -0.02197   0.00000  -0.02049  -0.01967  -3.13301
   D12        0.86504  -0.05991   0.00000  -0.06742  -0.06686   0.79818
   D13       -0.47541   0.03723   0.00000   0.04545   0.04533  -0.43008
   D14        0.94641  -0.06376   0.00000  -0.07903  -0.07796   0.86845
   D15        2.26646   0.00539   0.00000  -0.01113  -0.01041   2.25605
   D16       -0.90303   0.00567   0.00000   0.01918   0.02230  -0.88073
   D17       -2.52348   0.01406   0.00000   0.02862   0.02841  -2.49507
   D18       -3.04048  -0.02114   0.00000  -0.02504  -0.02328  -3.06376
   D19        1.62225  -0.01275   0.00000  -0.01561  -0.01717   1.60508
   D20        3.02861  -0.03827   0.00000  -0.03980  -0.03990   2.98871
   D21       -1.80920   0.03523   0.00000   0.03500   0.03510  -1.77410
   D22       -2.10635   0.00310   0.00000   0.00440   0.00424  -2.10211
   D23        1.06483   0.00436   0.00000   0.00673   0.00689   1.07172
   D24       -3.10807   0.00303   0.00000   0.00390   0.00376  -3.10431
         Item               Value     Threshold  Converged?
 Maximum Force            0.192892     0.000450     NO 
 RMS     Force            0.046936     0.000300     NO 
 Maximum Displacement     0.383174     0.001800     NO 
 RMS     Displacement     0.090930     0.001200     NO 
 Predicted change in Energy=-1.070797D-01
 GradGradGradGradGradGradGradGradGradGradGradGradGradGradGradGradGradGrad

                          Input orientation:                          
 ---------------------------------------------------------------------
 Center     Atomic      Atomic             Coordinates (Angstroms)
 Number     Number       Type             X           Y           Z
 ---------------------------------------------------------------------
      1          6           0       -7.204997   -1.679002   -0.001816
      2          1           0       -6.888525   -2.706742    0.001897
      3          1           0       -6.850523   -1.196978   -0.896086
      4          1           0       -8.279146   -1.636457    0.023788
      5          7           0       -6.657347   -0.991775    1.183563
      6          7           0       -7.054603    0.366888    1.209265
      7          7           0       -5.884580    0.942748    1.490974
      8          6           0       -5.206285   -1.025429    1.199473
      9          1           0       -4.857926   -2.043629    1.172120
     10          6           0       -4.911654   -0.064675    2.240686
     11          8           0       -3.627400    0.263663    1.142849
     12          6           0       -2.276401   -0.132215    1.201924
     13          8           0       -1.072421    0.043311    1.249493
     14          1           0       -2.701002   -1.164122    1.158647
 ---------------------------------------------------------------------
                    Distance matrix (angstroms):
                    1          2          3          4          5
     1  C    0.000000
     2  H    1.075369   0.000000
     3  H    1.075973   1.757045   0.000000
     4  H    1.075296   1.754940   1.755071   0.000000
     5  N    1.475576   2.095445   2.098658   2.095453   0.000000
     6  N    2.382226   3.306437   2.630557   2.630257   1.415782
     7  N    3.293250   4.067436   3.348064   3.812988   2.105719
     8  C    2.421797   2.662881   2.669141   3.346350   1.451539
     9  H    2.649494   2.435667   2.994117   3.631694   2.084333
    10  C    3.590861   3.987570   3.857546   4.327255   2.241532
    11  O    4.228877   4.556316   4.084024   5.147960   3.279994
    12  C    5.304016   5.416636   5.143730   6.299499   4.464512
    13  O    6.491581   6.553347   6.287153   7.500724   5.680418
    14  H    4.679503   4.610109   4.630501   5.711978   3.960176
                    6          7          8          9         10
     6  N    0.000000
     7  N    1.334139   0.000000
     8  C    2.314070   2.102089   0.000000
     9  H    3.261497   3.173978   1.076492   0.000000
    10  C    2.417086   1.588570   1.447059   2.249662   0.000000
    11  O    3.429400   2.382689   2.039078   2.615081   1.721150
    12  C    4.804203   3.775983   3.063014   3.212267   2.833398
    13  O    5.991062   4.901447   4.270075   4.323350   3.966590
    14  H    4.615235   3.832038   2.509452   2.329385   2.695658
                   11         12         13         14
    11  O    0.000000
    12  C    1.409045   0.000000
    13  O    2.566681   1.217638   0.000000
    14  H    1.702067   1.116687   2.029390   0.000000
 Stoichiometry    C4H5N3O2
 Framework group  C1[X(C4H5N3O2)]
 Deg. of freedom    36
 Full point group                 C1      NOp   1
 Largest Abelian subgroup         C1      NOp   1
 Largest concise Abelian subgroup C1      NOp   1
                         Standard orientation:                         
 ---------------------------------------------------------------------
 Center     Atomic      Atomic             Coordinates (Angstroms)
 Number     Number       Type             X           Y           Z
 ---------------------------------------------------------------------
      1          6           0        2.619669    1.261373   -0.332717
      2          1           0        2.471942    2.211093    0.149598
      3          1           0        2.288575    1.321884   -1.354692
      4          1           0        3.664757    1.009195   -0.311321
      5          7           0        1.848830    0.223603    0.378735
      6          7           0        2.020192   -1.042002   -0.232263
      7          7           0        0.750553   -1.449472   -0.275986
      8          6           0        0.427959    0.520372    0.383123
      9          1           0        0.250659    1.482152    0.832989
     10          6           0       -0.122881   -0.736259    0.842939
     11          8           0       -1.321055   -0.272633   -0.302393
     12          6           0       -2.590633    0.299518   -0.087391
     13          8           0       -3.805494    0.353467   -0.149379
     14          1           0       -2.005248    1.134078    0.368486
 ---------------------------------------------------------------------
 Rotational constants (GHZ):           4.6298776           0.8611530           0.7706717
 Standard basis: 6-31G(2df,p) (6D, 7F)
 There are   304 symmetry adapted cartesian basis functions of A   symmetry.
 There are   277 symmetry adapted basis functions of A   symmetry.
   277 basis functions,   431 primitive gaussians,   304 cartesian basis functions
    33 alpha electrons       33 beta electrons
       nuclear repulsion energy       417.6537470106 Hartrees.
 NAtoms=   14 NActive=   14 NUniq=   14 SFac= 1.00D+00 NAtFMM=   60 NAOKFM=F Big=F
 Integral buffers will be    131072 words long.
 Raffenetti 2 integral format.
 Two-electron integral symmetry is turned on.
 One-electron integrals computed using PRISM.
 NBasis=   277 RedAO= T EigKep=  2.17D-04  NBF=   277
 NBsUse=   277 1.00D-06 EigRej= -1.00D+00 NBFU=   277
 Initial guess from the checkpoint file:  "Cn1ccpOCdOpnn1_2.chk"
 B after Tr=    -0.000000   -0.000000    0.000000
         Rot=    0.999812    0.017397   -0.000641    0.008565 Ang=   2.22 deg.
 ExpMin= 1.61D-01 ExpMax= 5.48D+03 ExpMxC= 8.25D+02 IAcc=2 IRadAn=         4 AccDes= 0.00D+00
 Harris functional with IExCor=  402 and IRadAn=       4 diagonalized for initial guess.
 HarFok:  IExCor=  402 AccDes= 0.00D+00 IRadAn=         4 IDoV= 1 UseB2=F ITyADJ=14
 ICtDFT=  3500011 ScaDFX=  1.000000  1.000000  1.000000  1.000000
 FoFCou: FMM=F IPFlag=           0 FMFlag=      100000 FMFlg1=           0
         NFxFlg=           0 DoJE=T BraDBF=F KetDBF=T FulRan=T
         wScrn=  0.000000 ICntrl=       500 IOpCl=  0 I1Cent=   200000004 NGrid=           0
         NMat0=    1 NMatS0=      1 NMatT0=    0 NMatD0=    1 NMtDS0=    0 NMtDT0=    0
 Petite list used in FoFCou.
 Requested convergence on RMS density matrix=1.00D-08 within 128 cycles.
 Requested convergence on MAX density matrix=1.00D-06.
 Requested convergence on             energy=1.00D-06.
 No special actions if energy rises.
 Integral accuracy reduced to 1.0D-05 until final iterations.
 Initial convergence to 1.0D-05 achieved.  Increase integral accuracy.
 SCF Done:  E(RB3LYP) =  -469.784448532     A.U. after   17 cycles
            NFock= 17  Conv=0.64D-08     -V/T= 2.0073
 Calling FoFJK, ICntrl=      2127 FMM=F ISym2X=0 I1Cent= 0 IOpClX= 0 NMat=1 NMatS=1 NMatT=0.
 ***** Axes restored to original set *****
 -------------------------------------------------------------------
 Center     Atomic                   Forces (Hartrees/Bohr)
 Number     Number              X              Y              Z
 -------------------------------------------------------------------
      1        6          -0.011548390   -0.000984408    0.010439443
      2        1           0.002460824   -0.010780143    0.001339769
      3        1           0.001376388    0.005806719   -0.010519782
      4        1          -0.010809403   -0.000292374    0.000477495
      5        7           0.041222614   -0.029555887   -0.061715123
      6        7           0.110259778    0.018696661    0.017371457
      7        7          -0.065360628    0.030312136    0.061106545
      8        6          -0.087386672   -0.048150958    0.115499008
      9        1           0.015822530   -0.005761352   -0.015154038
     10        6           0.003594226    0.026563418   -0.135730055
     11        8           0.024250714    0.108667264    0.005746462
     12        6          -0.018140870   -0.117497352    0.016710759
     13        8          -0.054133903    0.051547273   -0.005026208
     14        1           0.048392792   -0.028570998   -0.000545732
 -------------------------------------------------------------------
 Cartesian Forces:  Max     0.135730055 RMS     0.050547043

 GradGradGradGradGradGradGradGradGradGradGradGradGradGradGradGradGradGrad
 Berny optimization.
 Using GEDIIS/GDIIS optimizer.
 FormGI is forming the generalized inverse of G from B-inverse, IUseBI=4.
 Internal  Forces:  Max     0.129397900 RMS     0.034448814
 Search for a local minimum.
 Step number   2 out of a maximum of   69
 All quantities printed in internal units (Hartrees-Bohrs-Radians)
 Mixed Optimization -- RFO/linear search
 Update second derivatives using D2CorX and points    1    2
 DE= -1.01D-01 DEPred=-1.07D-01 R= 9.39D-01
 TightC=F SS=  1.41D+00  RLast= 3.32D-01 DXNew= 5.0454D-01 9.9744D-01
 Trust test= 9.39D-01 RLast= 3.32D-01 DXMaxT set to 5.05D-01
 ITU=  1  0
 Use linear search instead of GDIIS.
 Linear search step of   0.600 exceeds DXMaxT=   0.505 but not scaled.
 Quartic linear search produced a step of  2.00000.
 Iteration  1 RMS(Cart)=  0.13914907 RMS(Int)=  0.02905224
 Iteration  2 RMS(Cart)=  0.05339129 RMS(Int)=  0.00546083
 Iteration  3 RMS(Cart)=  0.00378629 RMS(Int)=  0.00388403
 Iteration  4 RMS(Cart)=  0.00000852 RMS(Int)=  0.00388402
 Iteration  5 RMS(Cart)=  0.00000000 RMS(Int)=  0.00388402
 Variable       Old X    -DE/DX   Delta X   Delta X   Delta X     New X
                                 (Linear)    (Quad)   (Total)
    R1        2.03215   0.01103   0.02029   0.00000   0.02029   2.05244
    R2        2.03329   0.01180   0.02258   0.00000   0.02258   2.05587
    R3        2.03201   0.01080   0.02002   0.00000   0.02002   2.05203
    R4        2.78843   0.00839   0.02107   0.00000   0.02107   2.80951
    R5        2.67544   0.02454   0.05965   0.00000   0.06176   2.73720
    R6        2.74301  -0.04972  -0.06977   0.00000  -0.07106   2.67195
    R7        2.52116  -0.06433  -0.07581   0.00000  -0.07391   2.44725
    R8        3.00196  -0.02453  -0.02997   0.00000  -0.03204   2.96992
    R9        2.03427   0.01095   0.02454   0.00000   0.02454   2.05881
   R10        2.73454  -0.00706   0.00603   0.00000   0.00573   2.74027
   R11        3.25250  -0.00780   0.00419   0.00000   0.00419   3.25670
   R12        2.66271   0.00412   0.06064   0.00000   0.06064   2.72335
   R13        2.30100  -0.04629  -0.03658   0.00000  -0.03658   2.26442
   R14        2.11023   0.00802   0.02354   0.00000   0.02354   2.13378
    A1        1.91141   0.00095   0.00155   0.00000   0.00153   1.91294
    A2        1.90891  -0.00054  -0.00345   0.00000  -0.00345   1.90546
    A3        1.91040  -0.00118  -0.00047   0.00000  -0.00049   1.90991
    A4        1.90833  -0.00126  -0.00461   0.00000  -0.00461   1.90371
    A5        1.91427   0.00257   0.00727   0.00000   0.00726   1.92152
    A6        1.91048  -0.00054  -0.00030   0.00000  -0.00030   1.91018
    A7        1.93627   0.02027   0.05127   0.00000   0.05161   1.98787
    A8        1.94876   0.03148   0.07625   0.00000   0.07573   2.02449
    A9        1.87816  -0.02621  -0.06494   0.00000  -0.06934   1.80882
   A10        1.74363   0.06350   0.17522   0.00000   0.17785   1.92149
   A11        1.94232  -0.03979  -0.12262   0.00000  -0.12802   1.81430
   A12        1.92320   0.00649   0.02512   0.00000   0.02383   1.94702
   A13        1.76811   0.00607   0.01894   0.00000   0.01887   1.78698
   A14        2.18999   0.02045   0.05399   0.00000   0.04895   2.23894
   A15        1.52755   0.05242   0.14716   0.00000   0.14579   1.67334
   A16        1.60579   0.02056   0.03128   0.00000   0.02090   1.62669
   A17        1.38943   0.06573   0.13050   0.00000   0.12527   1.51470
   A18        2.25891  -0.02865  -0.04236   0.00000  -0.04236   2.21655
   A19        2.71213  -0.12940  -0.31174   0.00000  -0.31178   2.40034
   A20        1.46402   0.12331   0.36440   0.00000   0.36434   1.82837
   A21        2.10678   0.00599  -0.05289   0.00000  -0.05290   2.05388
    D1        3.14064   0.00155   0.00196   0.00000   0.00286  -3.13969
    D2        1.04568  -0.00012   0.00085   0.00000  -0.00003   1.04566
    D3        1.04320  -0.00046  -0.00411   0.00000  -0.00323   1.03997
    D4       -1.05175  -0.00214  -0.00522   0.00000  -0.00611  -1.05786
    D5       -1.05050  -0.00016  -0.00273   0.00000  -0.00184  -1.05234
    D6        3.13773  -0.00183  -0.00384   0.00000  -0.00473   3.13301
    D7       -2.33206  -0.02869  -0.06682   0.00000  -0.06648  -2.39854
    D8       -0.19555   0.00563   0.01741   0.00000   0.01231  -0.18324
    D9       -1.00424   0.01134   0.02943   0.00000   0.02919  -0.97505
   D10        2.92695  -0.02268  -0.06496   0.00000  -0.06650   2.86045
   D11       -3.13301  -0.01597  -0.03933   0.00000  -0.03411   3.11606
   D12        0.79818  -0.05000  -0.13372   0.00000  -0.12980   0.66838
   D13       -0.43008   0.03137   0.09066   0.00000   0.08928  -0.34080
   D14        0.86845  -0.05457  -0.15592   0.00000  -0.14909   0.71936
   D15        2.25605   0.01253  -0.02083   0.00000  -0.01661   2.23944
   D16       -0.88073   0.02027   0.04460   0.00000   0.06258  -0.81815
   D17       -2.49507   0.01243   0.05681   0.00000   0.05563  -2.43944
   D18       -3.06376  -0.01043  -0.04656   0.00000  -0.03612  -3.09988
   D19        1.60508  -0.01827  -0.03435   0.00000  -0.04306   1.56202
   D20        2.98871  -0.02886  -0.07980   0.00000  -0.07987   2.90884
   D21       -1.77410   0.02359   0.07020   0.00000   0.07026  -1.70384
   D22       -2.10211   0.00056   0.00847   0.00000   0.00725  -2.09487
   D23        1.07172   0.00216   0.01377   0.00000   0.01500   1.08672
   D24       -3.10431   0.00248   0.00752   0.00000   0.00639  -3.09792
         Item               Value     Threshold  Converged?
 Maximum Force            0.129398     0.000450     NO 
 RMS     Force            0.034449     0.000300     NO 
 Maximum Displacement     0.814939     0.001800     NO 
 RMS     Displacement     0.172927     0.001200     NO 
 Predicted change in Energy=-1.022070D-01
 GradGradGradGradGradGradGradGradGradGradGradGradGradGradGradGradGradGrad

                          Input orientation:                          
 ---------------------------------------------------------------------
 Center     Atomic      Atomic             Coordinates (Angstroms)
 Number     Number       Type             X           Y           Z
 ---------------------------------------------------------------------
      1          6           0       -7.320812   -1.693741   -0.017272
      2          1           0       -7.086100   -2.754108   -0.004611
      3          1           0       -6.972355   -1.253873   -0.949293
      4          1           0       -8.396691   -1.565704    0.055143
      5          7           0       -6.664242   -1.028041    1.138632
      6          7           0       -6.916917    0.396077    1.216679
      7          7           0       -5.826464    1.025447    1.519831
      8          6           0       -5.254122   -1.119613    1.187483
      9          1           0       -4.919188   -2.156025    1.162456
     10          6           0       -4.908310   -0.086599    2.144589
     11          8           0       -3.582194    0.291522    1.110935
     12          6           0       -2.218105   -0.151111    1.253088
     13          8           0       -1.137557    0.346872    1.395572
     14          1           0       -2.269754   -1.275516    1.163547
 ---------------------------------------------------------------------
                    Distance matrix (angstroms):
                    1          2          3          4          5
     1  C    0.000000
     2  H    1.086107   0.000000
     3  H    1.087919   1.776532   0.000000
     4  H    1.085888   1.770176   1.770554   0.000000
     5  N    1.486727   2.112884   2.122585   2.112915   0.000000
     6  N    2.460306   3.382874   2.723388   2.717992   1.448464
     7  N    3.462621   4.265635   3.550343   3.932612   2.250332
     8  C    2.460135   2.729250   2.745207   3.370004   1.413934
     9  H    2.715375   2.532836   3.080399   3.696978   2.078010
    10  C    3.616174   4.059241   3.898066   4.326932   2.231941
    11  O    4.380798   4.774690   4.257462   5.267197   3.352765
    12  C    5.480068   5.661694   5.354387   6.450664   4.533237
    13  O    6.662798   6.852865   6.488886   7.625596   5.700934
    14  H    5.204078   5.171848   5.155484   6.233146   4.401521
                    6          7          8          9         10
     6  N    0.000000
     7  N    1.295027   0.000000
     8  C    2.250123   2.244841   0.000000
     9  H    3.241463   3.327556   1.089475   0.000000
    10  C    2.264619   1.571616   1.450088   2.290683   0.000000
    11  O    3.338037   2.396371   2.189179   2.789390   1.723369
    12  C    4.730706   3.804694   3.187428   3.365077   2.834808
    13  O    5.782337   4.739383   4.374927   4.540878   3.868785
    14  H    4.938944   4.251065   2.988533   2.791916   3.055805
                   11         12         13         14
    11  O    0.000000
    12  C    1.441135   0.000000
    13  O    2.461774   1.198279   0.000000
    14  H    2.044718   1.129147   1.991946   0.000000
 Stoichiometry    C4H5N3O2
 Framework group  C1[X(C4H5N3O2)]
 Deg. of freedom    36
 Full point group                 C1      NOp   1
 Largest Abelian subgroup         C1      NOp   1
 Largest concise Abelian subgroup C1      NOp   1
                         Standard orientation:                         
 ---------------------------------------------------------------------
 Center     Atomic      Atomic             Coordinates (Angstroms)
 Number     Number       Type             X           Y           Z
 ---------------------------------------------------------------------
      1          6           0        2.814132    1.120844   -0.389162
      2          1           0        2.801231    2.107833    0.063955
      3          1           0        2.506492    1.193079   -1.430175
      4          1           0        3.822664    0.720861   -0.344097
      5          7           0        1.891884    0.222968    0.354904
      6          7           0        1.836242   -1.126067   -0.169553
      7          7           0        0.610451   -1.543012   -0.195764
      8          6           0        0.535911    0.621767    0.393716
      9          1           0        0.425730    1.626862    0.799426
     10          6           0       -0.134114   -0.594319    0.811996
     11          8           0       -1.364738   -0.192314   -0.325527
     12          6           0       -2.616410    0.467570   -0.052143
     13          8           0       -3.785026    0.229207   -0.167873
     14          1           0       -2.325163    1.483835    0.344533
 ---------------------------------------------------------------------
 Rotational constants (GHZ):           4.5976179           0.8477729           0.7573379
 Standard basis: 6-31G(2df,p) (6D, 7F)
 There are   304 symmetry adapted cartesian basis functions of A   symmetry.
 There are   277 symmetry adapted basis functions of A   symmetry.
   277 basis functions,   431 primitive gaussians,   304 cartesian basis functions
    33 alpha electrons       33 beta electrons
       nuclear repulsion energy       414.0058914604 Hartrees.
 NAtoms=   14 NActive=   14 NUniq=   14 SFac= 1.00D+00 NAtFMM=   60 NAOKFM=F Big=F
 Integral buffers will be    131072 words long.
 Raffenetti 2 integral format.
 Two-electron integral symmetry is turned on.
 One-electron integrals computed using PRISM.
 NBasis=   277 RedAO= T EigKep=  2.26D-04  NBF=   277
 NBsUse=   277 1.00D-06 EigRej= -1.00D+00 NBFU=   277
 Initial guess from the checkpoint file:  "Cn1ccpOCdOpnn1_2.chk"
 B after Tr=     0.000000   -0.000000   -0.000000
         Rot=    0.999385    0.030966   -0.000562    0.016444 Ang=   4.02 deg.
 ExpMin= 1.61D-01 ExpMax= 5.48D+03 ExpMxC= 8.25D+02 IAcc=2 IRadAn=         4 AccDes= 0.00D+00
 Harris functional with IExCor=  402 and IRadAn=       4 diagonalized for initial guess.
 HarFok:  IExCor=  402 AccDes= 0.00D+00 IRadAn=         4 IDoV= 1 UseB2=F ITyADJ=14
 ICtDFT=  3500011 ScaDFX=  1.000000  1.000000  1.000000  1.000000
 FoFCou: FMM=F IPFlag=           0 FMFlag=      100000 FMFlg1=           0
         NFxFlg=           0 DoJE=T BraDBF=F KetDBF=T FulRan=T
         wScrn=  0.000000 ICntrl=       500 IOpCl=  0 I1Cent=   200000004 NGrid=           0
         NMat0=    1 NMatS0=      1 NMatT0=    0 NMatD0=    1 NMtDS0=    0 NMtDT0=    0
 Petite list used in FoFCou.
 Requested convergence on RMS density matrix=1.00D-08 within 128 cycles.
 Requested convergence on MAX density matrix=1.00D-06.
 Requested convergence on             energy=1.00D-06.
 No special actions if energy rises.
 Integral accuracy reduced to 1.0D-05 until final iterations.
 Initial convergence to 1.0D-05 achieved.  Increase integral accuracy.
 SCF Done:  E(RB3LYP) =  -469.895007759     A.U. after   16 cycles
            NFock= 16  Conv=0.52D-08     -V/T= 2.0080
 Calling FoFJK, ICntrl=      2127 FMM=F ISym2X=0 I1Cent= 0 IOpClX= 0 NMat=1 NMatS=1 NMatT=0.
 ***** Axes restored to original set *****
 -------------------------------------------------------------------
 Center     Atomic                   Forces (Hartrees/Bohr)
 Number     Number              X              Y              Z
 -------------------------------------------------------------------
      1        6          -0.009200020    0.005179222    0.009295310
      2        1           0.001243786   -0.003035391    0.002530007
      3        1           0.000151685    0.001993602   -0.002365372
      4        1          -0.002897083    0.000496126    0.001462297
      5        7           0.052427250    0.015898412   -0.049026749
      6        7           0.026011383    0.021700560   -0.003402531
      7        7          -0.034406826   -0.059388809    0.054445327
      8        6          -0.074391212   -0.031630091    0.100597458
      9        1           0.013308676    0.005591242   -0.009994700
     10        6           0.035829007    0.035141061   -0.134218310
     11        8           0.052970272    0.025073879    0.025613819
     12        6          -0.030329234   -0.049716149    0.010934411
     13        8          -0.032166024    0.024879255   -0.006607039
     14        1           0.001448339    0.007817079    0.000736071
 -------------------------------------------------------------------
 Cartesian Forces:  Max     0.134218310 RMS     0.038214061

 GradGradGradGradGradGradGradGradGradGradGradGradGradGradGradGradGradGrad
 Berny optimization.
 Using GEDIIS/GDIIS optimizer.
 FormGI is forming the generalized inverse of G from B-inverse, IUseBI=4.
 Internal  Forces:  Max     0.056020899 RMS     0.020775638
 Search for a local minimum.
 Step number   3 out of a maximum of   69
 All quantities printed in internal units (Hartrees-Bohrs-Radians)
 Mixed Optimization -- RFO/linear search
 Update second derivatives using D2CorX and points    2    3
 ITU=  0  1  0
 Use linear search instead of GDIIS.
     Eigenvalues ---    0.00230   0.00766   0.01281   0.01784   0.01878
     Eigenvalues ---    0.02942   0.03331   0.03560   0.07456   0.07544
     Eigenvalues ---    0.09029   0.11950   0.12949   0.15991   0.16000
     Eigenvalues ---    0.16000   0.16725   0.17270   0.17349   0.19482
     Eigenvalues ---    0.20963   0.22417   0.24878   0.30912   0.33126
     Eigenvalues ---    0.33678   0.35867   0.37034   0.37223   0.37230
     Eigenvalues ---    0.37230   0.38102   0.43539   0.49753   0.50902
     Eigenvalues ---    0.91574
 RFO step:  Lambda=-1.07277836D-01 EMin= 2.29895964D-03
 Quartic linear search produced a step of  0.63268.
 Iteration  1 RMS(Cart)=  0.16408054 RMS(Int)=  0.02821446
 Iteration  2 RMS(Cart)=  0.04491972 RMS(Int)=  0.00879472
 Iteration  3 RMS(Cart)=  0.00197067 RMS(Int)=  0.00865839
 Iteration  4 RMS(Cart)=  0.00000926 RMS(Int)=  0.00865839
 Iteration  5 RMS(Cart)=  0.00000022 RMS(Int)=  0.00865839
 Variable       Old X    -DE/DX   Delta X   Delta X   Delta X     New X
                                 (Linear)    (Quad)   (Total)
    R1        2.05244   0.00326   0.01284   0.00233   0.01517   2.06762
    R2        2.05587   0.00288   0.01428   0.00074   0.01502   2.07089
    R3        2.05203   0.00303   0.01266   0.00179   0.01445   2.06648
    R4        2.80951  -0.00584   0.01333  -0.02412  -0.01079   2.79871
    R5        2.73720  -0.00285   0.03907  -0.02558   0.01348   2.75068
    R6        2.67195  -0.03065  -0.04496  -0.05753  -0.10273   2.56922
    R7        2.44725  -0.03972  -0.04676  -0.05912  -0.10650   2.34074
    R8        2.96992  -0.04067  -0.02027  -0.13885  -0.16054   2.80939
    R9        2.05881  -0.00100   0.01552  -0.01020   0.00532   2.06413
   R10        2.74027  -0.02568   0.00362  -0.06473  -0.05883   2.68144
   R11        3.25670  -0.02285   0.00265  -0.10869  -0.10604   3.15066
   R12        2.72335  -0.05206   0.03837  -0.12934  -0.09097   2.63238
   R13        2.26442  -0.01945  -0.02315  -0.01208  -0.03523   2.22919
   R14        2.13378  -0.00791   0.01490  -0.03247  -0.01757   2.11621
    A1        1.91294   0.00201   0.00097   0.01058   0.01157   1.92452
    A2        1.90546   0.00121  -0.00218   0.00568   0.00337   1.90883
    A3        1.90991  -0.00325  -0.00031  -0.01648  -0.01683   1.89308
    A4        1.90371   0.00051  -0.00292   0.00503   0.00212   1.90583
    A5        1.92152   0.00103   0.00459   0.00315   0.00775   1.92928
    A6        1.91018  -0.00150  -0.00019  -0.00787  -0.00812   1.90206
    A7        1.98787  -0.00077   0.03265  -0.01899   0.00803   1.99590
    A8        2.02449   0.01543   0.04792   0.06242   0.11268   2.13717
    A9        1.80882   0.00201  -0.04387   0.06565   0.00943   1.81826
   A10        1.92149  -0.00318   0.11252  -0.07299   0.02895   1.95044
   A11        1.81430   0.01930  -0.08100   0.14387   0.05099   1.86528
   A12        1.94702   0.00855   0.01508   0.07380   0.07896   2.02598
   A13        1.78698   0.01319   0.01194   0.07555   0.06907   1.85605
   A14        2.23894   0.00420   0.03097   0.01701   0.02931   2.26825
   A15        1.67334   0.01221   0.09224   0.04329   0.11009   1.78343
   A16        1.62669   0.02533   0.01323   0.13868   0.12488   1.75157
   A17        1.51470   0.05602   0.07925   0.23558   0.29958   1.81428
   A18        2.21655  -0.02900  -0.02680  -0.08985  -0.11665   2.09990
   A19        2.40034  -0.05535  -0.19726  -0.11502  -0.31242   2.08792
   A20        1.82837   0.02883   0.23051  -0.00538   0.22494   2.05331
   A21        2.05388   0.02642  -0.03347   0.11984   0.08628   2.14016
    D1       -3.13969   0.00779   0.00181   0.06475   0.06592  -3.07377
    D2        1.04566  -0.00662  -0.00002  -0.05918  -0.05868   0.98697
    D3        1.03997   0.00672  -0.00204   0.06015   0.05753   1.09750
    D4       -1.05786  -0.00769  -0.00387  -0.06378  -0.06707  -1.12494
    D5       -1.05234   0.00639  -0.00117   0.05694   0.05525  -0.99709
    D6        3.13301  -0.00802  -0.00299  -0.06699  -0.06935   3.06365
    D7       -2.39854  -0.01940  -0.04206  -0.09232  -0.12848  -2.52702
    D8       -0.18324   0.00112   0.00779   0.02295   0.03354  -0.14970
    D9       -0.97505   0.00594   0.01846   0.05020   0.07645  -0.89860
   D10        2.86045  -0.01835  -0.04207  -0.09977  -0.14122   2.71924
   D11        3.11606  -0.00462  -0.02158  -0.01654  -0.02941   3.08665
   D12        0.66838  -0.02891  -0.08212  -0.16651  -0.24708   0.42130
   D13       -0.34080   0.02164   0.05648   0.10567   0.16354  -0.17727
   D14        0.71936  -0.03619  -0.09432  -0.19794  -0.29455   0.42481
   D15        2.23944   0.02336  -0.01051   0.05528   0.05058   2.29002
   D16       -0.81815   0.03807   0.03959   0.24182   0.30255  -0.51560
   D17       -2.43944   0.00758   0.03520   0.08083   0.10742  -2.33202
   D18       -3.09988   0.00408  -0.02285   0.01421   0.00982  -3.09006
   D19        1.56202  -0.02640  -0.02724  -0.14677  -0.18531   1.37671
   D20        2.90884  -0.01109  -0.05053  -0.07085  -0.13475   2.77409
   D21       -1.70384   0.00271   0.04445  -0.02257   0.03525  -1.66859
   D22       -2.09487  -0.00382   0.00458  -0.04426  -0.04096  -2.13582
   D23        1.08672  -0.00183   0.00949  -0.02913  -0.01836   1.06836
   D24       -3.09792   0.00245   0.00404   0.01934   0.02216  -3.07575
         Item               Value     Threshold  Converged?
 Maximum Force            0.056021     0.000450     NO 
 RMS     Force            0.020776     0.000300     NO 
 Maximum Displacement     0.557159     0.001800     NO 
 RMS     Displacement     0.194969     0.001200     NO 
 Predicted change in Energy=-8.914236D-02
 GradGradGradGradGradGradGradGradGradGradGradGradGradGradGradGradGradGrad

                          Input orientation:                          
 ---------------------------------------------------------------------
 Center     Atomic      Atomic             Coordinates (Angstroms)
 Number     Number       Type             X           Y           Z
 ---------------------------------------------------------------------
      1          6           0       -7.447210   -1.668425   -0.013061
      2          1           0       -7.307795   -2.753325    0.013164
      3          1           0       -7.150550   -1.271098   -0.990330
      4          1           0       -8.500141   -1.433667    0.165948
      5          7           0       -6.629194   -1.064206    1.063589
      6          7           0       -6.788575    0.375980    1.202221
      7          7           0       -5.726880    0.926348    1.525017
      8          6           0       -5.287334   -1.261402    1.158245
      9          1           0       -4.951617   -2.300481    1.131598
     10          6           0       -4.771239   -0.155182    1.881684
     11          8           0       -3.439545    0.317690    0.996966
     12          6           0       -2.168775   -0.137015    1.341678
     13          8           0       -1.318259    0.641708    1.590187
     14          1           0       -1.985697   -1.241339    1.309871
 ---------------------------------------------------------------------
                    Distance matrix (angstroms):
                    1          2          3          4          5
     1  C    0.000000
     2  H    1.094136   0.000000
     3  H    1.095869   1.796865   0.000000
     4  H    1.093536   1.785085   1.784602   0.000000
     5  N    1.481015   2.101670   2.129131   2.107772   0.000000
     6  N    2.467854   3.387624   2.766075   2.697803   1.455595
     7  N    3.472473   4.280770   3.630782   3.886864   2.233695
     8  C    2.490519   2.760310   2.843948   3.366965   1.359571
     9  H    2.817396   2.647175   3.224517   3.778341   2.085009
    10  C    3.611202   4.083606   3.892923   4.299184   2.224320
    11  O    4.585432   5.036106   4.499461   5.419176   3.476771
    12  C    5.660601   5.917732   5.616269   6.568853   4.564247
    13  O    6.743231   7.063130   6.658342   7.610195   5.602988
    14  H    5.635660   5.682630   5.653982   6.616912   4.653395
                    6          7          8          9         10
     6  N    0.000000
     7  N    1.238668   0.000000
     8  C    2.221863   2.261409   0.000000
     9  H    3.246974   3.341891   1.092292   0.000000
    10  C    2.193957   1.486664   1.418957   2.279796   0.000000
    11  O    3.355820   2.425119   2.435953   3.026435   1.667255
    12  C    4.650286   3.718126   3.320136   3.531137   2.657960
    13  O    5.490491   4.418281   4.422891   4.697667   3.555710
    14  H    5.069017   4.329157   3.305178   3.154401   3.044002
                   11         12         13         14
    11  O    0.000000
    12  C    1.392996   0.000000
    13  O    2.226377   1.179638   0.000000
    14  H    2.154566   1.119848   2.017403   0.000000
 Stoichiometry    C4H5N3O2
 Framework group  C1[X(C4H5N3O2)]
 Deg. of freedom    36
 Full point group                 C1      NOp   1
 Largest Abelian subgroup         C1      NOp   1
 Largest concise Abelian subgroup C1      NOp   1
                         Standard orientation:                         
 ---------------------------------------------------------------------
 Center     Atomic      Atomic             Coordinates (Angstroms)
 Number     Number       Type             X           Y           Z
 ---------------------------------------------------------------------
      1          6           0        3.010725    0.860719   -0.420407
      2          1           0        3.146573    1.867887   -0.015077
      3          1           0        2.782338    0.910036   -1.491078
      4          1           0        3.928530    0.284328   -0.274716
      5          7           0        1.907020    0.203399    0.316594
      6          7           0        1.674673   -1.182909   -0.061454
      7          7           0        0.471337   -1.473977   -0.021955
      8          6           0        0.660542    0.740592    0.395004
      9          1           0        0.605816    1.781079    0.722865
     10          6           0       -0.225308   -0.340241    0.640991
     11          8           0       -1.475561   -0.087581   -0.432681
     12          6           0       -2.628969    0.578474   -0.024687
     13          8           0       -3.676399    0.044955   -0.123648
     14          1           0       -2.520723    1.634824    0.330936
 ---------------------------------------------------------------------
 Rotational constants (GHZ):           5.1538815           0.8448676           0.7620506
 Standard basis: 6-31G(2df,p) (6D, 7F)
 There are   304 symmetry adapted cartesian basis functions of A   symmetry.
 There are   277 symmetry adapted basis functions of A   symmetry.
   277 basis functions,   431 primitive gaussians,   304 cartesian basis functions
    33 alpha electrons       33 beta electrons
       nuclear repulsion energy       418.4806394361 Hartrees.
 NAtoms=   14 NActive=   14 NUniq=   14 SFac= 1.00D+00 NAtFMM=   60 NAOKFM=F Big=F
 Integral buffers will be    131072 words long.
 Raffenetti 2 integral format.
 Two-electron integral symmetry is turned on.
 One-electron integrals computed using PRISM.
 NBasis=   277 RedAO= T EigKep=  2.10D-04  NBF=   277
 NBsUse=   277 1.00D-06 EigRej= -1.00D+00 NBFU=   277
 Initial guess from the checkpoint file:  "Cn1ccpOCdOpnn1_2.chk"
 B after Tr=     0.000000    0.000000   -0.000000
         Rot=    0.998894    0.043900    0.001485    0.016775 Ang=   5.39 deg.
 ExpMin= 1.61D-01 ExpMax= 5.48D+03 ExpMxC= 8.25D+02 IAcc=2 IRadAn=         4 AccDes= 0.00D+00
 Harris functional with IExCor=  402 and IRadAn=       4 diagonalized for initial guess.
 HarFok:  IExCor=  402 AccDes= 0.00D+00 IRadAn=         4 IDoV= 1 UseB2=F ITyADJ=14
 ICtDFT=  3500011 ScaDFX=  1.000000  1.000000  1.000000  1.000000
 FoFCou: FMM=F IPFlag=           0 FMFlag=      100000 FMFlg1=           0
         NFxFlg=           0 DoJE=T BraDBF=F KetDBF=T FulRan=T
         wScrn=  0.000000 ICntrl=       500 IOpCl=  0 I1Cent=   200000004 NGrid=           0
         NMat0=    1 NMatS0=      1 NMatT0=    0 NMatD0=    1 NMtDS0=    0 NMtDT0=    0
 Petite list used in FoFCou.
 Requested convergence on RMS density matrix=1.00D-08 within 128 cycles.
 Requested convergence on MAX density matrix=1.00D-06.
 Requested convergence on             energy=1.00D-06.
 No special actions if energy rises.
 Integral accuracy reduced to 1.0D-05 until final iterations.
 Initial convergence to 1.0D-05 achieved.  Increase integral accuracy.
 SCF Done:  E(RB3LYP) =  -469.986226242     A.U. after   16 cycles
            NFock= 16  Conv=0.63D-08     -V/T= 2.0075
 Calling FoFJK, ICntrl=      2127 FMM=F ISym2X=0 I1Cent= 0 IOpClX= 0 NMat=1 NMatS=1 NMatT=0.
 ***** Axes restored to original set *****
 -------------------------------------------------------------------
 Center     Atomic                   Forces (Hartrees/Bohr)
 Number     Number              X              Y              Z
 -------------------------------------------------------------------
      1        6          -0.003501931   -0.001249306    0.011173813
      2        1          -0.000642023    0.001706957   -0.000459985
      3        1           0.000304908   -0.000582064    0.002724282
      4        1           0.002634418   -0.000136122    0.000961582
      5        7           0.023780520    0.029355712   -0.029592106
      6        7          -0.041263385   -0.007785661   -0.011310243
      7        7           0.032031945   -0.037597309    0.040897648
      8        6          -0.027021868   -0.024225821    0.057250150
      9        1           0.007484916    0.008762466   -0.007805592
     10        6           0.037270280    0.038630508   -0.112726216
     11        8          -0.010852199   -0.023194806    0.046727896
     12        6          -0.035381751   -0.002587450    0.001051784
     13        8           0.024348843    0.011759694    0.000877302
     14        1          -0.009192674    0.007143203    0.000229686
 -------------------------------------------------------------------
 Cartesian Forces:  Max     0.112726216 RMS     0.028371582

 GradGradGradGradGradGradGradGradGradGradGradGradGradGradGradGradGradGrad
 Berny optimization.
 Using GEDIIS/GDIIS optimizer.
 FormGI is forming the generalized inverse of G from B-inverse, IUseBI=4.
 Internal  Forces:  Max     0.052714070 RMS     0.014493623
 Search for a local minimum.
 Step number   4 out of a maximum of   69
 All quantities printed in internal units (Hartrees-Bohrs-Radians)
 Mixed Optimization -- RFO/linear search
 Update second derivatives using D2CorX and points    3    4
 DE= -9.12D-02 DEPred=-8.91D-02 R= 1.02D+00
 TightC=F SS=  1.41D+00  RLast= 8.90D-01 DXNew= 8.4853D-01 2.6714D+00
 Trust test= 1.02D+00 RLast= 8.90D-01 DXMaxT set to 8.49D-01
 ITU=  1  0  1  0
 Use linear search instead of GDIIS.
     Eigenvalues ---    0.00230   0.00766   0.01181   0.01440   0.01762
     Eigenvalues ---    0.02099   0.02756   0.03300   0.05811   0.07447
     Eigenvalues ---    0.07678   0.12268   0.13581   0.15989   0.16000
     Eigenvalues ---    0.16007   0.16335   0.17410   0.18635   0.21306
     Eigenvalues ---    0.22408   0.24332   0.24851   0.31927   0.33873
     Eigenvalues ---    0.34007   0.36052   0.37086   0.37222   0.37230
     Eigenvalues ---    0.37230   0.38882   0.43938   0.49971   0.53989
     Eigenvalues ---    0.93801
 RFO step:  Lambda=-5.43781216D-02 EMin= 2.30112896D-03
 Quartic linear search produced a step of  0.42795.
 Iteration  1 RMS(Cart)=  0.17155623 RMS(Int)=  0.02540026
 Iteration  2 RMS(Cart)=  0.04009601 RMS(Int)=  0.01126757
 Iteration  3 RMS(Cart)=  0.00058455 RMS(Int)=  0.01126130
 Iteration  4 RMS(Cart)=  0.00000963 RMS(Int)=  0.01126130
 Iteration  5 RMS(Cart)=  0.00000042 RMS(Int)=  0.01126130
 Variable       Old X    -DE/DX   Delta X   Delta X   Delta X     New X
                                 (Linear)    (Quad)   (Total)
    R1        2.06762  -0.00179   0.00649  -0.00436   0.00214   2.06975
    R2        2.07089  -0.00256   0.00643  -0.00610   0.00033   2.07122
    R3        2.06648  -0.00241   0.00618  -0.00610   0.00009   2.06657
    R4        2.79871  -0.00970  -0.00462  -0.02133  -0.02595   2.77276
    R5        2.75068  -0.01267   0.00577  -0.01916  -0.01898   2.73169
    R6        2.56922  -0.00256  -0.04396  -0.00098  -0.04542   2.52380
    R7        2.34074   0.02107  -0.04558   0.05701   0.00802   2.34876
    R8        2.80939  -0.03393  -0.06870  -0.10625  -0.17186   2.63753
    R9        2.06413  -0.00584   0.00228  -0.01282  -0.01054   2.05359
   R10        2.68144  -0.01222  -0.02518  -0.02115  -0.04015   2.64129
   R11        3.15066  -0.05271  -0.04538  -0.25910  -0.30448   2.84617
   R12        2.63238  -0.02324  -0.03893  -0.02095  -0.05988   2.57250
   R13        2.22919   0.02550  -0.01508   0.03332   0.01825   2.24744
   R14        2.11621  -0.00855  -0.00752  -0.01710  -0.02462   2.09159
    A1        1.92452   0.00018   0.00495  -0.00224   0.00274   1.92725
    A2        1.90883   0.00027   0.00144  -0.00046   0.00094   1.90977
    A3        1.89308   0.00144  -0.00720   0.01549   0.00828   1.90136
    A4        1.90583   0.00149   0.00091   0.00531   0.00617   1.91201
    A5        1.92928  -0.00141   0.00332  -0.00898  -0.00568   1.92360
    A6        1.90206  -0.00198  -0.00347  -0.00917  -0.01268   1.88938
    A7        1.99590  -0.00332   0.00343   0.01205   0.00657   2.00247
    A8        2.13717   0.00219   0.04822   0.02475   0.07481   2.21199
    A9        1.81826   0.00953   0.00404   0.03614   0.02804   1.84630
   A10        1.95044  -0.02208   0.01239  -0.04423  -0.04298   1.90746
   A11        1.86528   0.01873   0.02182   0.02821   0.05046   1.91575
   A12        2.02598   0.00453   0.03379   0.03754   0.06128   2.08725
   A13        1.85605   0.00424   0.02956  -0.01494   0.00715   1.86319
   A14        2.26825  -0.00232   0.01254   0.00647   0.00312   2.27137
   A15        1.78343   0.00200   0.04711   0.05160   0.06350   1.84693
   A16        1.75157   0.01693   0.05344   0.11291   0.11831   1.86988
   A17        1.81428   0.03556   0.12821   0.17359   0.27334   2.08762
   A18        2.09990  -0.01533  -0.04992  -0.04029  -0.09021   2.00968
   A19        2.08792   0.01553  -0.13370   0.08036  -0.05358   2.03434
   A20        2.05331  -0.01571   0.09626  -0.04285   0.05314   2.10645
   A21        2.14016   0.00008   0.03692  -0.03871  -0.00198   2.13818
    D1       -3.07377   0.00691   0.02821   0.04883   0.07607  -2.99770
    D2        0.98697  -0.00672  -0.02511  -0.04839  -0.07259   0.91439
    D3        1.09750   0.00664   0.02462   0.04722   0.07093   1.16843
    D4       -1.12494  -0.00698  -0.02870  -0.05000  -0.07773  -1.20267
    D5       -0.99709   0.00693   0.02365   0.05198   0.07468  -0.92241
    D6        3.06365  -0.00670  -0.02968  -0.04524  -0.07398   2.98967
    D7       -2.52702  -0.00976  -0.05498  -0.08394  -0.12935  -2.65637
    D8       -0.14970  -0.00077   0.01435  -0.00651   0.01616  -0.13354
    D9       -0.89860   0.00453   0.03272   0.06158   0.10235  -0.79625
   D10        2.71924  -0.00511  -0.06043   0.01386  -0.04114   2.67809
   D11        3.08665  -0.00276  -0.01259  -0.01763  -0.02396   3.06269
   D12        0.42130  -0.01240  -0.10574  -0.06536  -0.16745   0.25385
   D13       -0.17727   0.01217   0.06998   0.06138   0.12894  -0.04833
   D14        0.42481  -0.01867  -0.12605  -0.08632  -0.21982   0.20499
   D15        2.29002   0.02410   0.02165   0.14173   0.16064   2.45066
   D16       -0.51560   0.02077   0.12948   0.09168   0.23119  -0.28441
   D17       -2.33202  -0.00808   0.04597  -0.09448  -0.06222  -2.39423
   D18       -3.09006   0.00622   0.00420   0.02450   0.04474  -3.04532
   D19        1.37671  -0.02263  -0.07930  -0.16166  -0.24867   1.12804
[...]
 ! A19   A(11,12,13)           120.8707         -DE/DX =    0.0                 !
 ! A20   A(11,12,14)           112.4412         -DE/DX =    0.0                 !
 ! A21   A(13,12,14)           126.6877         -DE/DX =    0.0                 !
 ! D1    D(2,1,5,6)           -120.1922         -DE/DX =    0.0                 !
 ! D2    D(2,1,5,8)             60.263          -DE/DX =    0.0                 !
 ! D3    D(3,1,5,6)            118.5475         -DE/DX =    0.0                 !
 ! D4    D(3,1,5,8)            -60.9973         -DE/DX =    0.0                 !
 ! D5    D(4,1,5,6)             -0.8148         -DE/DX =    0.0                 !
 ! D6    D(4,1,5,8)            179.6404         -DE/DX =    0.0                 !
 ! D7    D(1,5,6,7)           -179.0781         -DE/DX =    0.0                 !
 ! D8    D(8,5,6,7)              0.5418         -DE/DX =    0.0                 !
 ! D9    D(1,5,8,9)             -0.5336         -DE/DX =    0.0                 !
 ! D10   D(1,5,8,10)           179.2877         -DE/DX =    0.0                 !
 ! D11   D(6,5,8,9)            179.8898         -DE/DX =    0.0                 !
 ! D12   D(6,5,8,10)            -0.2889         -DE/DX =    0.0                 !
 ! D13   D(5,6,7,10)            -0.5595         -DE/DX =    0.0                 !
 ! D14   D(6,7,10,8)             0.3917         -DE/DX =    0.0                 !
 ! D15   D(6,7,10,11)          178.2367         -DE/DX =    0.0                 !
 ! D16   D(5,8,10,7)            -0.0605         -DE/DX =    0.0                 !
 ! D17   D(5,8,10,11)         -177.8352         -DE/DX =    0.0                 !
 ! D18   D(9,8,10,7)           179.7364         -DE/DX =    0.0                 !
 ! D19   D(9,8,10,11)            1.9618         -DE/DX =    0.0                 !
 ! D20   D(7,10,11,12)          33.5961         -DE/DX =    0.0                 !
 ! D21   D(8,10,11,12)        -148.9231         -DE/DX =    0.0                 !
 ! D22   D(10,11,12,13)       -175.8983         -DE/DX =    0.0                 !
 ! D23   D(10,11,12,14)          4.3154         -DE/DX =    0.0                 !
 ! D24   D(11,12,13,14)       -179.7536         -DE/DX =    0.0                 !
 --------------------------------------------------------------------------------
 GradGradGradGradGradGradGradGradGradGradGradGradGradGradGradGradGradGrad


 ----------------------------------------------------------------------

 Electric dipole moment (input orientation):
 (Debye = 10**-18 statcoulomb cm , SI units = C m)
                  (au)            (Debye)         (10**-30 SI)
   Tot        0.234251D+01      0.595407D+01      0.198606D+02
   x         -0.159180D+01     -0.404595D+01     -0.134958D+02
   y         -0.145686D+01     -0.370297D+01     -0.123518D+02
   z         -0.911643D+00     -0.231716D+01     -0.772923D+01

 Dipole polarizability, Alpha (input orientation).
 (esu units = cm**3 , SI units = C**2 m**2 J**-1)
 Alpha(0;0):
               (au)            (10**-24 esu)      (10**-40 SI)
   iso        0.674035D+02      0.998818D+01      0.111133D+02
   aniso      0.558555D+02      0.827694D+01      0.920934D+01
   xx         0.945210D+02      0.140066D+02      0.155844D+02
   yx         0.143703D+02      0.212946D+01      0.236934D+01
   yy         0.520106D+02      0.770717D+01      0.857538D+01
   zx         0.854873D+01      0.126679D+01      0.140950D+01
   zy         0.143345D+02      0.212416D+01      0.236345D+01
   zz         0.556791D+02      0.825079D+01      0.918024D+01

 ----------------------------------------------------------------------

 Dipole orientation:
     6         -8.93551728         -1.85974855         11.62623695
     1         -8.43922267         -0.18316342         12.72576252
     1         -7.96213754         -3.50607886         12.40635632
     1        -10.97138083         -2.15946593         11.69976523
     7         -8.26953020         -1.51049654          8.99077791
     7        -10.06806499         -1.62918641          7.20718899
     7         -8.97462061         -1.29197392          5.01397758
     6         -5.96686871         -1.06744163          7.95788136
     1         -4.25432977         -0.89696643          9.03908534
     6         -6.47825725         -0.93534621          5.41369915
     8         -4.76392461         -0.59215617          3.52923911
     6         -5.53259251          0.67284481          1.39725518
     8         -4.15619879          0.90730191         -0.36360967
     1         -7.47511946          1.39156153          1.55860559

 Electric dipole moment (dipole orientation):
 (Debye = 10**-18 statcoulomb cm , SI units = C m)
                  (au)            (Debye)         (10**-30 SI)
   Tot        0.234251D+01      0.595407D+01      0.198606D+02
   x          0.000000D+00      0.000000D+00      0.000000D+00
   y          0.000000D+00      0.000000D+00      0.000000D+00
   z          0.234251D+01      0.595407D+01      0.198606D+02

 Dipole polarizability, Alpha (dipole orientation).
 (esu units = cm**3 , SI units = C**2 m**2 J**-1)
 Alpha(0;0):
               (au)            (10**-24 esu)      (10**-40 SI)
   iso        0.674035D+02      0.998818D+01      0.111133D+02
   aniso      0.558555D+02      0.827694D+01      0.920934D+01
   xx         0.649843D+02      0.962968D+01      0.107145D+02
   yx         0.492962D+01      0.730494D+00      0.812785D+00
   yy         0.414241D+02      0.613842D+01      0.682991D+01
   zx        -0.118292D+02     -0.175291D+01     -0.195038D+01
   zy        -0.114926D+02     -0.170303D+01     -0.189487D+01
   zz         0.958022D+02      0.141964D+02      0.157957D+02

 ----------------------------------------------------------------------
 1\1\GINC-LEWIS4-R630-HPC4-NODE235\Freq\RB3LYP\6-31G(2df,p)\C4H5N3O2\KS
 29C\18-Feb-2021\0\\#N Geom=AllCheck Guess=TCheck SCRF=Check GenChk RB3
 LYP/6-31G(2df,p) Freq\\Title Card Required\\0,1\C,-7.6368163104,-1.677
 6621943,0.2067427205\H,-7.5869573963,-2.7596049337,0.3536181211\H,-7.8
 384995144,-1.4624731389,-0.8457530903\H,-8.4307371119,-1.2596721143,0.
 8250376532\N,-6.3976263257,-1.0508862143,0.6249521307\N,-6.410759547,-
 0.1290354922,1.599941002\N,-5.1815234204,0.2879762434,1.7694015017\C,-
 5.1413963331,-1.250823849,0.1554664644\H,-4.8977363084,-1.9474442187,-
 0.6269059767\C,-4.3859313563,-0.3816282161,0.9067831395\O,-3.047409303
 9,-0.1684654098,0.7913608244\C,-2.3486768042,0.1739042652,1.9231511536
 \O,-1.1914899914,0.442312804,1.8680101931\H,-2.9772501566,0.1590882986
 ,2.8249708327\\Version=ES64L-G16RevA.03\State=1-A\HF=-470.1186809\RMSD
 =6.191e-09\RMSF=1.510e-05\ZeroPoint=0.100688\Thermal=0.1088679\Dipole=
 -1.5917999,-1.4568602,-0.9116426\DipoleDeriv=0.5057284,0.2044496,0.174
 0011,0.1834534,0.2891848,0.0288454,0.134951,0.0090049,0.223248,-0.0131
 712,0.0101425,-0.0421257,-0.0692409,-0.0971153,-0.003929,-0.0409235,0.
 0210378,0.0624312,-0.0116393,-0.0545011,-0.0175588,-0.0427672,0.042470
 5,0.0371004,-0.0879014,0.0022486,-0.0789883,0.0204653,-0.0170422,-0.00
 47372,0.0453134,0.0666931,-0.0375525,0.0647405,-0.0239675,0.0522865,-0
 .2976278,-0.3152756,-0.3070404,-0.2676919,-0.174079,-0.089586,-0.24213
 75,-0.0885071,-0.0659388,-0.2859787,0.2125162,0.2001377,0.2691317,0.04
 90146,0.1734017,0.2996798,0.1965465,-0.0460202,-0.514849,-0.3357659,-0
 .2854833,-0.0809658,-0.2731349,-0.0883391,0.0072395,-0.0058034,-0.1857
 079,-0.0033112,0.1733509,0.1502462,-0.113654,-0.0577384,0.051315,-0.13
 5281,-0.0040404,-0.056914,0.104824,-0.0141741,0.0000689,0.0022778,0.11
 48095,-0.0605846,0.0202872,-0.057304,0.1105485,1.5039609,0.3623439,0.2
 467511,0.2644518,0.1950409,0.0035851,-0.0714115,-0.0546941,0.0474914,-
 1.6548311,-0.3995626,-0.3924719,-0.5047089,-0.3133852,-0.1902481,-0.89
 56152,-0.3018415,-0.7442339,1.9936219,0.4716113,0.4262595,0.6239106,0.
 490271,0.2499193,0.9374024,0.3192423,1.1510616,-1.3856734,-0.291882,-0
 .2505749,-0.2774985,-0.4100996,-0.0842987,-0.0151382,-0.0112214,-0.443
 9349,0.0384814,-0.0062108,0.1025278,-0.0320115,0.0780681,0.010371,0.02
 41081,-0.0007007,-0.0253293\Polar=94.5210028,14.3702948,52.0105548,8.5
 487318,14.3345499,55.6790905\Quadrupole=-3.9878176,1.7638653,2.2239523
 ,1.8130005,3.5821991,0.8164315\PG=C01 [X(C4H5N3O2)]\NImag=0\\0.5091527
 4,-0.04389082,0.57237821,-0.03396758,0.00701448,0.58829938,-0.05027271
 ,0.02543432,-0.00228111,0.05584544,0.01831584,-0.30652880,0.03803309,-
 0.01405513,0.33419357,-0.00305874,0.04149132,-0.05482362,0.00721310,-0
 .03910511,0.05372108,-0.05462136,0.00926659,-0.03531658,0.00044222,0.0
 0174604,-0.00263411,0.06232099,0.00983299,-0.06142943,0.05897811,0.004
 58206,-0.00519323,0.03128107,-0.00446645,0.06225045,-0.04156451,0.0542
 2071,-0.29548600,0.00070648,0.00050340,-0.00308028,0.05048612,-0.05693
 273,0.31907871,-0.18933828,0.07319213,0.10877149,0.00054565,0.00062733
 ,0.00012495,0.00636015,-0.00280871,-0.00337269,0.21540111,0.08338656,-
 0.09163506,-0.06481234,0.02241398,-0.00936448,-0.01832913,-0.00658880,
 0.00282992,0.00503481,-0.08099831,0.09341001,0.11980269,-0.06264764,-0
 .14076570,-0.00568309,0.00280932,0.00350415,0.02189842,-0.01234825,-0.
 01452238,-0.12307278,0.06847795,0.14567695,-0.19911033,-0.04666551,-0.
 02187448,-0.00504912,-0.00527522,0.00011864,-0.01277197,-0.00499000,-0
 .00501460,-0.03473937,-0.01598070,-0.01033643,0.81124526,-0.04750952,-
 0.10246308,-0.03621644,-0.03737100,-0.01334504,-0.01413430,-0.00185084
 ,0.00141567,-0.00375666,0.01072601,0.00581864,0.00547073,0.11227186,0.
 38071664,-0.02192267,-0.03586215,-0.09386833,-0.00185858,-0.00386471,0
 .00056258,-0.03424247,-0.02011975,-0.00664052,0.01855294,0.01108270,0.
 00670949,-0.01762164,0.22516484,0.38709758,-0.00319131,-0.02456570,-0.
 02775567,-0.00112351,-0.00071662,-0.00174443,-0.00157539,-0.00238582,-
 0.00102696,0.00324445,-0.00071429,-0.00139722,-0.11062533,0.00043558,0
 .00872807,0.58517709,-0.01165692,-0.01791072,-0.00266116,0.00055928,0.
 00024950,-0.00171422,0.00510115,0.00151431,0.00209361,0.00277670,0.000
 63121,0.00000269,0.04174838,-0.14333472,-0.08806936,0.02868230,0.27111
 611,-0.01419740,-0.00040350,-0.01024502,0.00503356,0.00319044,0.000936
 74,0.00140041,-0.00102813,0.00024688,0.00230025,0.00071317,0.00037052,
 0.05073901,-0.07865806,-0.16292918,-0.06895028,0.15627984,0.29541870,0
 .01043205,-0.00131806,-0.00119734,-0.00342716,-0.00197183,-0.00077111,
 -0.00308031,-0.00095495,-0.00118113,-0.00009312,0.00030438,0.00024963,
 -0.07470116,-0.06741952,-0.05092357,-0.31083334,-0.09067227,-0.0465580
 5,0.52558088,0.00211485,0.00229257,-0.01002413,-0.00031109,0.00048011,
 0.00039917,-0.00246672,-0.00173942,-0.00028694,-0.00010931,-0.00023356
 ,0.00042540,-0.03839118,-0.04085669,-0.05715869,-0.04323766,-0.1115363
 6,-0.01438572,0.06890343,0.31289395,0.00211190,-0.00966736,0.00116708,
 -0.00201501,-0.00025468,-0.00110195,0.00035661,0.00054302,0.00088966,-
 0.00021310,0.00035080,-0.00020503,-0.01719678,-0.05298247,-0.02919060,
 0.00316648,-0.00139000,-0.09251067,-0.01569092,0.19720650,0.32113970,-
 0.02036684,0.00458066,0.00830538,0.00249166,0.00170015,0.00061844,0.00
 258514,0.00088321,0.00140590,-0.00049743,-0.00077062,-0.00055665,-0.29
 549767,0.01308253,0.06138085,-0.04361943,0.03457136,0.05173813,0.03695
 648,-0.01587097,-0.02303902,0.58671672,-0.01392078,0.00474330,0.011698
 15,0.00011857,0.00070485,0.00018679,0.00054480,0.00083264,-0.00010931,
 -0.00350632,-0.00136069,-0.00159184,0.02652498,-0.09352967,-0.04048051
 ,0.00307296,-0.02164685,-0.04558598,0.03809182,-0.02183634,-0.04944461
 ,0.02028188,0.48975881,-0.01140845,0.00789945,0.00707883,0.00019698,-0
 .00037725,0.00058876,-0.00029800,0.00000395,0.00038499,-0.00339922,-0.
 00213756,-0.00076441,0.07641086,-0.03688363,-0.11466657,0.01637436,-0.
 05345203,-0.03713581,0.03602748,-0.03738824,-0.02912381,-0.07624168,0.
 39559715,0.53970877,0.00144827,0.00026511,-0.00011263,-0.00021252,-0.0
 0020733,0.00011240,-0.00032071,0.00008555,-0.00022528,0.00012061,-0.00
 002689,-0.00010572,-0.00100341,0.02355852,0.02388507,-0.00719051,-0.00
 069302,0.00223163,-0.00103545,-0.00556078,-0.00451462,-0.06959683,0.03
 531739,0.04705036,0.06460166,0.00008651,-0.00015695,0.00021117,-0.0000
 0619,-0.00016246,0.00005720,0.00024208,0.00001748,0.00028103,0.0000873
 5,-0.00013473,0.00013972,-0.00092555,-0.00122415,0.00427991,-0.0033537
 9,0.00377765,-0.00274541,0.00003420,0.00080490,-0.00516535,0.04121689,
 -0.17108306,-0.16476177,-0.04603262,0.17242063,-0.00025709,0.00013540,
 -0.00015975,0.00023082,0.00036932,-0.00001364,0.00001506,0.00005580,-0
 .00009409,0.00002515,0.00016910,-0.00011133,-0.00181770,-0.00063849,-0
 .00551659,-0.00068087,-0.00332388,0.00372195,0.00133938,-0.00405315,0.
 00099664,0.05271341,-0.16431508,-0.20529530,-0.05796683,0.17097819,0.2
 1012627,-0.00591697,0.00126270,0.00343000,0.00088307,0.00030927,0.0002
 3611,0.00080492,0.00049331,0.00032091,-0.00063784,-0.00082654,-0.00063
 419,-0.06697137,-0.00908851,0.00720838,-0.09976391,-0.00350515,0.01624
 786,-0.14568455,0.03292290,0.05317213,-0.17617324,-0.10171103,-0.08650
 654,0.01271628,0.00818376,0.00677317,0.80796788,0.00371474,-0.00091489
 ,-0.00311950,-0.00160590,-0.00101066,-0.00006730,-0.00149446,-0.000512
 40,-0.00111558,0.00046768,0.00027454,-0.00063191,-0.06702561,0.0066743
 5,0.01078176,0.04485834,0.01635892,-0.01007619,0.02911178,-0.14912941,
 -0.08588787,-0.07265101,-0.18852003,-0.11298707,-0.00779213,-0.0035367
 4,-0.00028125,0.13077450,0.38956831,0.00529098,-0.00228065,-0.00276951
 ,-0.00148222,-0.00146945,-0.00038987,-0.00200564,-0.00052050,-0.000863
 64,0.00074744,-0.00033485,0.00025571,-0.05477758,-0.00049753,0.0210795
 3,0.06985466,-0.00096410,0.00072103,0.04920462,-0.08701187,-0.17322273
 ,-0.05443753,-0.10844984,-0.17087673,-0.01102348,-0.00434333,-0.002776
 59,0.00781971,0.22889064,0.41560438,0.00265167,0.00300060,0.00179710,-
 0.00017074,-0.00060098,-0.00027303,-0.00036104,-0.00038821,-0.00067368
 ,-0.00033203,-0.00012025,-0.00009461,-0.01097394,0.00320168,0.00636670
 ,-0.01136853,-0.00547069,0.00115457,-0.03196206,0.00164470,0.00794078,
 -0.02239604,-0.00882820,-0.00044889,0.00046091,0.00056644,-0.00011586,
 -0.28383792,-0.03987197,0.03127790,0.51073174,0.00020019,0.00192645,0.
 00117743,0.00020798,-0.00013356,-0.00011862,-0.00008426,-0.00004092,-0
 .00005150,-0.00045618,-0.00021609,-0.00010966,-0.00313217,0.00145360,-
 0.00309903,-0.00491778,-0.00051690,-0.00833197,0.02436906,0.00847643,0
 .00609416,-0.02496686,0.00027820,0.00334534,0.00103850,-0.00056792,0.0
 0107498,-0.04542991,-0.06240810,-0.01593660,0.09302997,0.08369683,0.00
 046787,0.00161992,0.00234886,-0.00015882,-0.00012519,-0.00005038,0.000
 11161,-0.00010431,-0.00018884,-0.00069548,-0.00027739,-0.00017112,-0.0
 0322798,-0.00515028,-0.00173150,-0.00244060,-0.00908178,0.00216920,0.0
 2726525,0.01211609,0.00227212,-0.02522492,0.00049852,0.01018204,0.0006
 0329,0.00113196,-0.00057361,0.01847364,-0.02298814,-0.09281897,0.04796
 087,0.07527371,0.32481793,-0.00216537,-0.00171495,-0.00048616,0.000203
 41,0.00037415,0.00017110,0.00042775,0.00027305,0.00037299,0.00015104,-
 0.00005098,-0.00005844,0.00284329,0.00036714,0.00054855,0.00475347,0.0
 0010863,-0.00122452,0.00242758,-0.00194846,-0.00321101,0.00203870,0.00
 498605,0.00066293,0.00005228,-0.00023229,-0.00037385,-0.06404007,-0.01
 758719,-0.03244098,-0.08131725,-0.00757971,0.01137617,1.05610695,-0.00
 114699,-0.00052014,-0.00054830,0.00010616,0.00019750,0.00009960,0.0000
 9280,0.00010515,0.00020410,0.00002898,-0.00001565,0.00000853,0.0031790
 6,-0.00177121,-0.00377558,0.00476612,0.00248744,0.00140360,0.00147210,
 0.00014789,0.00055462,-0.00251901,0.00194584,0.00108126,0.00011420,-0.
 00025065,-0.00016768,-0.01711339,-0.01259264,-0.00301592,-0.01471808,-
 0.05101810,-0.02838696,0.18597957,0.23193438,-0.00116206,-0.00215014,-
 0.00112125,-0.00002096,0.00028407,0.00015351,0.00017965,0.00021736,0.0
 0029416,0.00035435,0.00013050,0.00006795,0.00490218,-0.00287401,-0.001
 80945,0.00945815,0.00358075,-0.00178720,-0.00019331,0.00085538,-0.0022
 7859,0.00610248,0.00183303,-0.00055139,-0.00003117,-0.00021712,-0.0003
 3262,-0.03471720,0.00082624,0.01535133,-0.03844809,-0.03828830,-0.2249
 1192,-0.15044330,0.01848177,0.54979404,0.00147878,0.00109564,0.0007660
 5,-0.00022178,-0.00028944,-0.00013368,-0.00024309,-0.00016497,-0.00025
 934,-0.00018023,-0.00003023,-0.00000298,-0.00344772,-0.00046556,-0.000
 11761,-0.00312095,-0.00115935,-0.00012797,-0.00210936,0.00166434,-0.00
 006997,-0.00194179,-0.00042156,0.00131302,-0.00011724,0.00008972,0.000
 09036,0.01640787,-0.00155741,-0.00595989,-0.07560051,-0.02738743,-0.05
 402340,-0.79506533,-0.15990065,0.08716081,0.89345313,0.00050823,0.0002
 1119,0.00028852,-0.00008212,-0.00009077,-0.00004651,-0.00004939,-0.000
 04891,-0.00008746,-0.00003709,-0.00000760,-0.00000240,-0.00150233,0.00
 036272,0.00095038,-0.00153081,-0.00094118,-0.00031706,-0.00086234,0.00
 003569,-0.00036257,0.00070403,0.00015183,0.00014857,-0.00002288,0.0000
 7649,0.00002210,0.00129626,0.00555737,-0.00321869,-0.02837753,0.003249
 82,-0.01184929,-0.16409148,-0.10653476,0.01446104,0.20164169,0.0771603
 9,0.00000962,0.00043605,0.00025862,0.00004708,-0.00002343,-0.00002009,
 0.00000878,-0.00002744,-0.00002583,-0.00009087,-0.00004957,-0.00003371
 ,-0.00062557,0.00063808,0.00038743,-0.00219483,-0.00087135,0.00050314,
 0.00109292,-0.00038389,0.00079803,-0.00179567,0.00034279,0.00042263,0.
 00002515,0.00003632,0.00002039,0.00197810,-0.00363761,-0.00684571,-0.0
 5940783,-0.01345942,0.01395550,0.06757646,0.01039798,-0.11268452,-0.03
 463355,0.00090737,0.09272513,-0.00018035,0.00005729,-0.00007848,0.0000
 6609,0.00004377,0.00002037,0.00003270,0.00000895,0.00002581,-0.0000047
 1,0.00000268,-0.00000863,0.00080283,0.00006165,0.00001596,-0.00076279,
 -0.00039041,0.00021281,-0.00247049,0.00064594,-0.00079745,-0.00069944,
 -0.00055057,0.00026678,0.00007664,0.00004348,0.00002484,0.00424585,0.0
 0065863,-0.00206798,0.00447575,-0.00489141,-0.02048748,-0.12641644,-0.
 00034087,0.11685847,-0.02929179,-0.00759424,0.02801022,0.15012615,-0.0
 0003489,0.00000737,-0.00001907,0.00000908,0.00000346,0.00000004,0.0000
 0747,-0.00000130,0.00000251,0.00000973,0.00000353,-0.00000264,0.000163
 97,0.00008295,0.00017020,-0.00039284,-0.00024841,-0.00005504,0.0009122
 0,0.00020024,0.00040581,-0.00024222,-0.00043883,-0.00008816,-0.0000436
 2,0.00001951,-0.00002535,0.00243183,0.00019139,-0.00084730,-0.00306749
 ,0.01582027,-0.01267686,0.00111647,-0.06411504,0.00285943,-0.01311479,
 0.02081771,0.00569414,0.01224510,0.02765716,-0.00014455,0.00019411,0.0
 0008642,0.00007178,0.00003020,0.00001302,0.00004013,0.00000181,0.00000
 717,-0.00003243,-0.00001819,-0.00001108,0.00032207,0.00051823,0.000516
 12,-0.00139087,-0.00042900,0.00051972,0.00133616,-0.00030991,0.0003701
 4,-0.00096912,-0.00017928,0.00004801,0.00007184,0.00011748,0.00000827,
 0.00619793,0.00029378,-0.00244821,0.00296408,-0.00757052,-0.03529931,0
 .10753006,0.00366299,-0.22018405,0.00599817,-0.00089399,0.01053898,-0.
 12199525,0.00458229,0.24583481\\-0.00002874,-0.00001103,-0.00001456,0.
 00000227,0.00000512,0.00000385,0.00000350,0.00000073,0.00000415,0.0000
 0663,-0.00000507,-0.00000465,0.00001116,0.00000361,0.00001430,0.000024
 77,-0.00001107,-0.00002835,0.00003871,-0.00001371,-0.00000409,-0.00000
 415,0.00001320,0.00000533,-0.00001048,-0.00000502,0.00000281,-0.000038
 79,0.00001632,0.00001394,0.00001441,0.00001173,0.00002628,-0.00003117,
 0.00000100,-0.00001475,0.00000789,-0.00000286,-0.00000230,0.00000398,-
 0.00000295,-0.00000197\\\@


 EVANS BOLDLY PUT 50 ATM. OF ETHYLENE IN A CELL WITH 25 ATM. OF OXYGEN.
 THE APPARATUS SUBSEQUENTLY BLEW UP, BUT LUCKILY NOT BEFORE HE
 OBTAINED THE SPECTRA SHOWN IN FIGURE 8.
 A.J.MERER AND R.S.MULLIKEN, CHEM.REV. 69, 645 (1969)
 Job cpu time:       0 days  0 hours 27 minutes 48.1 seconds.
 Elapsed time:       0 days  0 hours 27 minutes 48.2 seconds.
 File lengths (MBytes):  RWF=    110 Int=      0 D2E=      0 Chk=      7 Scr=      1
 Normal termination of Gaussian 16 at Thu Feb 18 14:04:04 2021.
### All Done ###
