### Starting Gaussian ###
 Entering Gaussian System, Link 0=g16
 Initial command:
 /cluster/software/gaussian/gaussian-16-A.03/avx2/g16/l1.exe "/local/scratch/ks29c/Gau-26002.inp" -scrdir="/local/scratch/ks29c/"
 Entering Link 1 = /cluster/software/gaussian/gaussian-16-A.03/avx2/g16/l1.exe PID=     26015.
  
 Copyright (c) 1988,1990,1992,1993,1995,1998,2003,2009,2016,
            Gaussian, Inc.  All Rights Reserved.
  
 This is part of the Gaussian(R) 16 program.  It is based on
 the Gaussian(R) 09 system (copyright 2009, Gaussian, Inc.),
 the Gaussian(R) 03 system (copyright 2003, Gaussian, Inc.),
 the Gaussian(R) 98 system (copyright 1998, Gaussian, Inc.),
 the Gaussian(R) 94 system (copyright 1995, Gaussian, Inc.),
 the Gaussian 92(TM) system (copyright 1992, Gaussian, Inc.),
 the Gaussian 90(TM) system (copyright 1990, Gaussian, Inc.),
 the Gaussian 88(TM) system (copyright 1988, Gaussian, Inc.),
 the Gaussian 86(TM) system (copyright 1986, Carnegie Mellon
 University), and the Gaussian 82(TM) system (copyright 1983,
 Carnegie Mellon University). Gaussian is a federally registered
 trademark of Gaussian, Inc.
  
 This software contains proprietary and confidential information,
 including trade secrets, belonging to Gaussian, Inc.
  
 This software is provided under written license and may be
 used, copied, transmitted, or stored only in accord with that
 written license.
  
 The following legend is applicable only to US Government
 contracts under FAR:
  
                    RESTRICTED RIGHTS LEGEND
  
 Use, reproduction and disclosure by the US Government is
 subject to restrictions as set forth in subparagraphs (a)
 and (c) of the Commercial Computer Software - Restricted
 Rights clause in FAR 52.227-19.
  
 Gaussian, Inc.
 340 Quinnipiac St., Bldg. 40, Wallingford CT 06492
  
  
 ---------------------------------------------------------------
 Warning -- This program may not be used in any manner that
 competes with the business of Gaussian, Inc. or will provide
 assistance to any competitor of Gaussian, Inc.  The licensee
 of this program is prohibited from giving any competitor of
 Gaussian, Inc. access to this program.  By using this program,
 the user acknowledges that Gaussian, Inc. is engaged in the
 business of creating and licensing software in the field of
 computational chemistry and represents and warrants to the
 licensee that it is not a competitor of Gaussian, Inc. and that
 it will not use this program in any manner prohibited above.
 ---------------------------------------------------------------
  

 Cite this work as:
 Gaussian 16, Revision A.03,
 M. J. Frisch, G. W. Trucks, H. B. Schlegel, G. E. Scuseria, 
 M. A. Robb, J. R. Cheeseman, G. Scalmani, V. Barone, 
 G. A. Petersson, H. Nakatsuji, X. Li, M. Caricato, A. V. Marenich, 
 J. Bloino, B. G. Janesko, R. Gomperts, B. Mennucci, H. P. Hratchian, 
 J. V. Ortiz, A. F. Izmaylov, J. L. Sonnenberg, D. Williams-Young, 
 F. Ding, F. Lipparini, F. Egidi, J. Goings, B. Peng, A. Petrone, 
 T. Henderson, D. Ranasinghe, V. G. Zakrzewski, J. Gao, N. Rega, 
 G. Zheng, W. Liang, M. Hada, M. Ehara, K. Toyota, R. Fukuda, 
 J. Hasegawa, M. Ishida, T. Nakajima, Y. Honda, O. Kitao, H. Nakai, 
 T. Vreven, K. Throssell, J. A. Montgomery, Jr., J. E. Peralta, 
 F. Ogliaro, M. J. Bearpark, J. J. Heyd, E. N. Brothers, K. N. Kudin, 
 V. N. Staroverov, T. A. Keith, R. Kobayashi, J. Normand, 
 K. Raghavachari, A. P. Rendell, J. C. Burant, S. S. Iyengar, 
 J. Tomasi, M. Cossi, J. M. Millam, M. Klene, C. Adamo, R. Cammi, 
 J. W. Ochterski, R. L. Martin, K. Morokuma, O. Farkas, 
 J. B. Foresman, and D. J. Fox, Gaussian, Inc., Wallingford CT, 2016.
 
 ******************************************
 Gaussian 16:  ES64L-G16RevA.03 25-Dec-2016
                 9-Mar-2021 
 ******************************************
 %chk=CtCC1C2CpCpN3C1C23.chk
 %NProcShared=20
 Will use up to   20 processors via shared memory.
 -----------------------------
 # opt freq b3lyp/6-31g(2df,p)
 -----------------------------
 1/18=20,19=15,26=3,38=1/1,3;
 2/9=110,12=2,17=6,18=5,40=1/2;
 3/5=1,6=6,7=104,11=2,25=1,30=1,71=1,74=-5/1,2,3;
 4//1;
 5/5=2,38=5/2;
 6/7=2,8=2,9=2,10=2,28=1/1;
 7//1,2,3,16;
 1/18=20,19=15,26=3/3(2);
 2/9=110/2;
 99//99;
 2/9=110/2;
 3/5=1,6=6,7=104,11=2,25=1,30=1,71=1,74=-5/1,2,3;
 4/5=5,16=3,69=1/1;
 5/5=2,38=5/2;
 7//1,2,3,16;
 1/18=20,19=15,26=3/3(-5);
 2/9=110/2;
 6/7=2,8=2,9=2,10=2,19=2,28=1/1;
 99/9=1/99;
 -------------------
 Title Card Required
 -------------------
 Symbolic Z-matrix:
 Charge =  0 Multiplicity = 1
 C                     1.13319  -0.11535   0.04575 
 C                     2.32342  -0.09567   0.12117 
 C                     3.76081   0.01184   0.07539 
 C                     4.46606   1.2155    0.70967 
 C                     4.24575   0.91      2.19733 
 C                     4.88345   1.92043   3.15818 
 N                     5.12682  -0.22435   2.04382 
 C                     4.62686  -0.86726   0.88511 
 C                     5.61692   0.29421   0.75345 
 H                     0.06757  -0.0978   -0.03469 
 H                     4.06602  -0.09935  -0.98668 
 H                     4.29363   2.19539   0.2813 
 H                     3.24502   0.6562    2.56529 
 H                     5.90685   2.19043   2.86499 
 H                     4.93203   1.51832   4.17751 
 H                     4.29003   2.8369    3.18269 
 H                     4.67627  -1.92204   0.7313 
 H                     6.59896   0.67544   0.93743 
 

 GradGradGradGradGradGradGradGradGradGradGradGradGradGradGradGradGradGrad
 Berny optimization.
 Initialization pass.
                           ----------------------------
                           !    Initial Parameters    !
                           ! (Angstroms and Degrees)  !
 --------------------------                            --------------------------
 ! Name  Definition              Value          Derivative Info.                !
 --------------------------------------------------------------------------------
 ! R1    R(1,2)                  1.1928         estimate D2E/DX2                !
 ! R2    R(1,10)                 1.0688         estimate D2E/DX2                !
 ! R3    R(2,3)                  1.4421         estimate D2E/DX2                !
 ! R4    R(3,4)                  1.5325         estimate D2E/DX2                !
 ! R5    R(3,8)                  1.476          estimate D2E/DX2                !
 ! R6    R(3,11)                 1.1106         estimate D2E/DX2                !
 ! R7    R(4,5)                  1.5346         estimate D2E/DX2                !
 ! R8    R(4,9)                  1.4748         estimate D2E/DX2                !
 ! R9    R(4,12)                 1.0832         estimate D2E/DX2                !
 ! R10   R(5,6)                  1.5333         estimate D2E/DX2                !
 ! R11   R(5,7)                  1.4445         estimate D2E/DX2                !
 ! R12   R(5,13)                 1.096          estimate D2E/DX2                !
 ! R13   R(6,14)                 1.0983         estimate D2E/DX2                !
 ! R14   R(6,15)                 1.0969         estimate D2E/DX2                !
 ! R15   R(6,16)                 1.0921         estimate D2E/DX2                !
 ! R16   R(7,8)                  1.4163         estimate D2E/DX2                !
 ! R17   R(7,9)                  1.4745         estimate D2E/DX2                !
 ! R18   R(8,9)                  1.5319         estimate D2E/DX2                !
 ! R19   R(8,17)                 1.0671         estimate D2E/DX2                !
 ! R20   R(9,18)                 1.0694         estimate D2E/DX2                !
 ! A1    A(2,3,4)              120.2719         estimate D2E/DX2                !
 ! A2    A(2,3,8)              121.5349         estimate D2E/DX2                !
 ! A3    A(2,3,11)             107.2653         estimate D2E/DX2                !
 ! A4    A(4,3,8)               88.322          estimate D2E/DX2                !
 ! A5    A(4,3,11)             110.3626         estimate D2E/DX2                !
 ! A6    A(8,3,11)             107.6821         estimate D2E/DX2                !
 ! A7    A(3,4,5)              100.3001         estimate D2E/DX2                !
 ! A8    A(3,4,9)               83.1516         estimate D2E/DX2                !
 ! A9    A(3,4,12)             118.266          estimate D2E/DX2                !
 ! A10   A(5,4,9)               87.6441         estimate D2E/DX2                !
 ! A11   A(5,4,12)             122.7234         estimate D2E/DX2                !
 ! A12   A(9,4,12)             134.5088         estimate D2E/DX2                !
 ! A13   A(4,5,6)              114.6204         estimate D2E/DX2                !
 ! A14   A(4,5,7)               88.0369         estimate D2E/DX2                !
 ! A15   A(4,5,13)             120.1743         estimate D2E/DX2                !
 ! A16   A(6,5,7)              109.2946         estimate D2E/DX2                !
 ! A17   A(6,5,13)             108.7819         estimate D2E/DX2                !
 ! A18   A(7,5,13)             114.2518         estimate D2E/DX2                !
 ! A19   A(5,6,14)             112.4747         estimate D2E/DX2                !
 ! A20   A(5,6,15)             111.0516         estimate D2E/DX2                !
 ! A21   A(5,6,16)             109.9439         estimate D2E/DX2                !
 ! A22   A(14,6,15)            107.274          estimate D2E/DX2                !
 ! A23   A(14,6,16)            107.8195         estimate D2E/DX2                !
 ! A24   A(15,6,16)            108.111          estimate D2E/DX2                !
 ! A25   A(5,7,8)              103.1852         estimate D2E/DX2                !
 ! A26   A(5,7,9)               91.121          estimate D2E/DX2                !
 ! A27   A(3,8,7)              112.6802         estimate D2E/DX2                !
 ! A28   A(3,8,9)               83.136          estimate D2E/DX2                !
 ! A29   A(3,8,17)             122.4684         estimate D2E/DX2                !
 ! A30   A(7,8,17)             123.3865         estimate D2E/DX2                !
 ! A31   A(9,8,17)             135.0042         estimate D2E/DX2                !
 ! A32   A(4,9,7)               89.2148         estimate D2E/DX2                !
 ! A33   A(4,9,8)               88.3867         estimate D2E/DX2                !
 ! A34   A(4,9,18)             119.9342         estimate D2E/DX2                !
 ! A35   A(7,9,18)             106.2632         estimate D2E/DX2                !
 ! A36   A(8,9,18)             148.1072         estimate D2E/DX2                !
 ! A37   L(2,1,10,16,-1)       179.1421         estimate D2E/DX2                !
 ! A38   L(1,2,3,13,-1)        184.2927         estimate D2E/DX2                !
 ! A39   L(2,1,10,16,-2)       177.6601         estimate D2E/DX2                !
 ! A40   L(1,2,3,13,-2)        185.0737         estimate D2E/DX2                !
 ! D1    D(2,3,4,5)             70.8433         estimate D2E/DX2                !
 ! D2    D(2,3,4,9)            157.1792         estimate D2E/DX2                !
 ! D3    D(2,3,4,12)           -65.3383         estimate D2E/DX2                !
 ! D4    D(8,3,4,5)            -55.2255         estimate D2E/DX2                !
 ! D5    D(8,3,4,9)             31.1104         estimate D2E/DX2                !
 ! D6    D(8,3,4,12)           168.5929         estimate D2E/DX2                !
 ! D7    D(11,3,4,5)          -163.4806         estimate D2E/DX2                !
 ! D8    D(11,3,4,9)           -77.1446         estimate D2E/DX2                !
 ! D9    D(11,3,4,12)           60.3379         estimate D2E/DX2                !
 ! D10   D(2,3,8,7)           -101.5936         estimate D2E/DX2                !
 ! D11   D(2,3,8,9)           -154.8437         estimate D2E/DX2                !
 ! D12   D(2,3,8,17)            65.0146         estimate D2E/DX2                !
 ! D13   D(4,3,8,7)             23.4168         estimate D2E/DX2                !
 ! D14   D(4,3,8,9)            -29.8333         estimate D2E/DX2                !
 ! D15   D(4,3,8,17)          -169.975          estimate D2E/DX2                !
 ! D16   D(11,3,8,7)           134.2735         estimate D2E/DX2                !
 ! D17   D(11,3,8,9)            81.0234         estimate D2E/DX2                !
 ! D18   D(11,3,8,17)          -59.1183         estimate D2E/DX2                !
 ! D19   D(3,4,5,6)            178.0112         estimate D2E/DX2                !
 ! D20   D(3,4,5,7)             67.6477         estimate D2E/DX2                !
 ! D21   D(3,4,5,13)           -49.4479         estimate D2E/DX2                !
 ! D22   D(9,4,5,6)             95.41           estimate D2E/DX2                !
 ! D23   D(9,4,5,7)            -14.9535         estimate D2E/DX2                !
 ! D24   D(9,4,5,13)          -132.0491         estimate D2E/DX2                !
 ! D25   D(12,4,5,6)           -48.4457         estimate D2E/DX2                !
 ! D26   D(12,4,5,7)          -158.8092         estimate D2E/DX2                !
 ! D27   D(12,4,5,13)           84.0952         estimate D2E/DX2                !
 ! D28   D(3,4,9,7)            -86.0368         estimate D2E/DX2                !
 ! D29   D(3,4,9,8)            -29.8563         estimate D2E/DX2                !
 ! D30   D(3,4,9,18)           165.5844         estimate D2E/DX2                !
 ! D31   D(5,4,9,7)             14.635          estimate D2E/DX2                !
 ! D32   D(5,4,9,8)             70.8154         estimate D2E/DX2                !
 ! D33   D(5,4,9,18)           -93.7438         estimate D2E/DX2                !
 ! D34   D(12,4,9,7)           150.5434         estimate D2E/DX2                !
 ! D35   D(12,4,9,8)          -153.2762         estimate D2E/DX2                !
 ! D36   D(12,4,9,18)           42.1646         estimate D2E/DX2                !
 ! D37   D(4,5,6,14)           -44.3439         estimate D2E/DX2                !
 ! D38   D(4,5,6,15)          -164.5798         estimate D2E/DX2                !
 ! D39   D(4,5,6,16)            75.8161         estimate D2E/DX2                !
 ! D40   D(7,5,6,14)            52.5777         estimate D2E/DX2                !
 ! D41   D(7,5,6,15)           -67.6582         estimate D2E/DX2                !
 ! D42   D(7,5,6,16)           172.7376         estimate D2E/DX2                !
 ! D43   D(13,5,6,14)          177.9385         estimate D2E/DX2                !
 ! D44   D(13,5,6,15)           57.7026         estimate D2E/DX2                !
 ! D45   D(13,5,6,16)          -61.9015         estimate D2E/DX2                !
 ! D46   D(4,5,7,8)            -48.5418         estimate D2E/DX2                !
 ! D47   D(4,5,7,9)             14.947          estimate D2E/DX2                !
 ! D48   D(6,5,7,8)           -163.9875         estimate D2E/DX2                !
 ! D49   D(6,5,7,9)           -100.4987         estimate D2E/DX2                !
 ! D50   D(13,5,7,8)            73.8812         estimate D2E/DX2                !
 ! D51   D(13,5,7,9)           137.37           estimate D2E/DX2                !
 ! D52   D(5,7,8,3)             17.8161         estimate D2E/DX2                !
 ! D53   D(5,7,8,17)          -148.6497         estimate D2E/DX2                !
 ! D54   D(5,7,9,4)            -15.5598         estimate D2E/DX2                !
 ! D55   D(5,7,9,18)           105.4949         estimate D2E/DX2                !
 ! D56   D(3,8,9,4)             31.1246         estimate D2E/DX2                !
 ! D57   D(3,8,9,18)          -174.7691         estimate D2E/DX2                !
 ! D58   D(17,8,9,4)           161.2409         estimate D2E/DX2                !
 ! D59   D(17,8,9,18)          -44.6528         estimate D2E/DX2                !
 --------------------------------------------------------------------------------
 Trust Radius=3.00D-01 FncErr=1.00D-07 GrdErr=1.00D-06 EigMax=2.50D+02 EigMin=1.00D-04
 Number of steps in this run=    108 maximum allowed number of steps=    108.
 GradGradGradGradGradGradGradGradGradGradGradGradGradGradGradGradGradGrad

                          Input orientation:                          
 ---------------------------------------------------------------------
 Center     Atomic      Atomic             Coordinates (Angstroms)
 Number     Number       Type             X           Y           Z
 ---------------------------------------------------------------------
      1          6           0        1.133190   -0.115350    0.045750
      2          6           0        2.323420   -0.095670    0.121170
      3          6           0        3.760810    0.011840    0.075390
      4          6           0        4.466060    1.215500    0.709670
      5          6           0        4.245750    0.910000    2.197330
      6          6           0        4.883450    1.920430    3.158180
      7          7           0        5.126820   -0.224350    2.043820
      8          6           0        4.626860   -0.867260    0.885110
      9          6           0        5.616920    0.294210    0.753450
     10          1           0        0.067570   -0.097800   -0.034690
     11          1           0        4.066020   -0.099350   -0.986680
     12          1           0        4.293630    2.195390    0.281300
     13          1           0        3.245020    0.656200    2.565290
     14          1           0        5.906850    2.190430    2.864990
     15          1           0        4.932030    1.518320    4.177510
     16          1           0        4.290030    2.836900    3.182690
     17          1           0        4.676270   -1.922040    0.731300
     18          1           0        6.598960    0.675440    0.937430
 ---------------------------------------------------------------------
                    Distance matrix (angstroms):
                    1          2          3          4          5
     1  C    0.000000
     2  C    1.192779   0.000000
     3  C    2.630863   1.442132   0.000000
     4  C    3.649654   2.580001   1.532477   0.000000
     5  C    3.920289   3.002859   2.354674   1.534601   0.000000
     6  C    5.281673   4.454418   3.795607   2.581926   1.533252
     7  N    4.466906   3.401793   2.407589   2.071166   1.444507
     8  C    3.670916   2.546525   1.475976   2.096312   2.241834
     9  C    4.557676   3.376230   1.996157   1.474846   2.084249
    10  H    1.068796   2.261229   3.696506   4.650327   4.843012
    11  H    3.109286   2.064946   1.110635   2.183224   3.344998
    12  H    3.922166   3.025942   2.257031   1.083244   2.307746
    13  H    3.376862   2.718157   2.623136   2.290651   1.096024
    14  H    6.004379   5.059226   4.139277   2.769796   2.201028
    15  H    5.845640   5.085637   4.524227   3.512085   2.182234
    16  H    5.340582   4.673374   4.232771   2.962390   2.164680
    17  H    4.035780   3.040360   2.237896   3.144648   3.217925
    18  H    5.594201   4.420535   3.039502   2.211968   2.679545
                    6          7          8          9         10
     6  C    0.000000
     7  N    2.429220   0.000000
     8  C    3.606092   1.416299   0.000000
     9  C    2.994210   1.474502   1.531850   0.000000
    10  H    6.120488   5.471035   4.714364   5.618730   0.000000
    11  H    4.682688   3.213231   2.099482   2.363944   4.110218
    12  H    2.949564   3.107382   3.139340   2.364002   4.818522
    13  H    2.152731   2.142072   2.655827   3.006611   4.174278
    14  H    1.098275   2.667195   3.861058   2.852772   6.909510
    15  H    1.096853   2.761788   4.077256   3.700231   6.634564
    16  H    1.092092   3.371720   4.371857   3.758606   6.065737
    17  H    4.549423   2.192682   1.067080   2.407712   5.015447
    18  H    3.069968   2.049614   2.504364   1.069387   6.648456
                   11         12         13         14         15
    11  H    0.000000
    12  H    2.631618   0.000000
    13  H    3.723088   2.947083   0.000000
    14  H    4.844286   3.045974   3.086911   0.000000
    15  H    5.480482   4.005800   2.487671   1.767686   0.000000
    16  H    5.104448   2.971466   2.495733   1.770018   1.772141
    17  H    2.577995   4.159584   3.472653   4.793680   4.876254
    18  H    3.273879   2.838186   3.728165   2.547489   3.739949
                   16         17         18
    16  H    0.000000
    17  H    5.367123   0.000000
    18  H    3.878693   3.238229   0.000000
 Stoichiometry    C8H9N
 Framework group  C1[X(C8H9N)]
 Deg. of freedom    48
 Full point group                 C1      NOp   1
 Largest Abelian subgroup         C1      NOp   1
 Largest concise Abelian subgroup C1      NOp   1
                         Standard orientation:                         
 ---------------------------------------------------------------------
 Center     Atomic      Atomic             Coordinates (Angstroms)
 Number     Number       Type             X           Y           Z
 ---------------------------------------------------------------------
      1          6           0        3.033619    0.967612   -0.186963
      2          6           0        2.085128    0.269435    0.001816
      3          6           0        0.991224   -0.590495    0.380811
      4          6           0       -0.288975    0.005037    0.976563
      5          6           0       -0.876099    0.690566   -0.264539
      6          6           0       -2.230377    1.372496   -0.037021
      7          7           0       -1.091356   -0.622494   -0.826800
      8          6           0        0.154655   -1.266418   -0.630024
      9          6           0       -0.888973   -1.251792    0.491222
     10          1           0        3.878961    1.607565   -0.321805
     11          1           0        1.403859   -1.371469    1.054102
     12          1           0       -0.226728    0.493909    1.941211
     13          1           0       -0.249620    1.346554   -0.879741
     14          1           0       -2.921935    0.748823    0.545205
     15          1           0       -2.721792    1.600630   -0.990725
     16          1           0       -2.088979    2.310078    0.504839
     17          1           0        0.542349   -2.009554   -1.290404
     18          1           0       -1.857836   -1.547727    0.833732
 ---------------------------------------------------------------------
 Rotational constants (GHZ):           3.3510803           1.4289495           1.1983322
 Standard basis: 6-31G(2df,p) (6D, 7F)
 There are   324 symmetry adapted cartesian basis functions of A   symmetry.
 There are   297 symmetry adapted basis functions of A   symmetry.
   297 basis functions,   459 primitive gaussians,   324 cartesian basis functions
    32 alpha electrons       32 beta electrons
       nuclear repulsion energy       428.5465075989 Hartrees.
 NAtoms=   18 NActive=   18 NUniq=   18 SFac= 1.00D+00 NAtFMM=   60 NAOKFM=F Big=F
 Integral buffers will be    131072 words long.
 Raffenetti 2 integral format.
 Two-electron integral symmetry is turned on.
 One-electron integrals computed using PRISM.
 PrsmSu:  requested number of processors reduced to:  13 ShMem   1 Linda.
 NBasis=   297 RedAO= T EigKep=  1.01D-04  NBF=   297
 NBsUse=   297 1.00D-06 EigRej= -1.00D+00 NBFU=   297
 ExpMin= 1.61D-01 ExpMax= 4.17D+03 ExpMxC= 6.27D+02 IAcc=3 IRadAn=         5 AccDes= 0.00D+00
 Harris functional with IExCor=  402 and IRadAn=       5 diagonalized for initial guess.
 HarFok:  IExCor=  402 AccDes= 0.00D+00 IRadAn=         5 IDoV= 1 UseB2=F ITyADJ=14
 ICtDFT=  3500011 ScaDFX=  1.000000  1.000000  1.000000  1.000000
 FoFCou: FMM=F IPFlag=           0 FMFlag=      100000 FMFlg1=           0
         NFxFlg=           0 DoJE=T BraDBF=F KetDBF=T FulRan=T
         wScrn=  0.000000 ICntrl=       500 IOpCl=  0 I1Cent=   200000004 NGrid=           0
         NMat0=    1 NMatS0=      1 NMatT0=    0 NMatD0=    1 NMtDS0=    0 NMtDT0=    0
 Petite list used in FoFCou.
 Requested convergence on RMS density matrix=1.00D-08 within 128 cycles.
 Requested convergence on MAX density matrix=1.00D-06.
 Requested convergence on             energy=1.00D-06.
 No special actions if energy rises.
 Integral accuracy reduced to 1.0D-05 until final iterations.
 Initial convergence to 1.0D-05 achieved.  Increase integral accuracy.
 SCF Done:  E(RB3LYP) =  -364.811677202     A.U. after   14 cycles
            NFock= 14  Conv=0.25D-08     -V/T= 2.0062

 **********************************************************************

            Population analysis using the SCF density.

 **********************************************************************

 Orbital symmetries:
       Occupied  (A) (A) (A) (A) (A) (A) (A) (A) (A) (A) (A) (A)
                 (A) (A) (A) (A) (A) (A) (A) (A) (A) (A) (A) (A)
                 (A) (A) (A) (A) (A) (A) (A) (A)
       Virtual   (A) (A) (A) (A) (A) (A) (A) (A) (A) (A) (A) (A)
                 (A) (A) (A) (A) (A) (A) (A) (A) (A) (A) (A) (A)
                 (A) (A) (A) (A) (A) (A) (A) (A) (A) (A) (A) (A)
                 (A) (A) (A) (A) (A) (A) (A) (A) (A) (A) (A) (A)
                 (A) (A) (A) (A) (A) (A) (A) (A) (A) (A) (A) (A)
                 (A) (A) (A) (A) (A) (A) (A) (A) (A) (A) (A) (A)
                 (A) (A) (A) (A) (A) (A) (A) (A) (A) (A) (A) (A)
                 (A) (A) (A) (A) (A) (A) (A) (A) (A) (A) (A) (A)
                 (A) (A) (A) (A) (A) (A) (A) (A) (A) (A) (A) (A)
                 (A) (A) (A) (A) (A) (A) (A) (A) (A) (A) (A) (A)
                 (A) (A) (A) (A) (A) (A) (A) (A) (A) (A) (A) (A)
                 (A) (A) (A) (A) (A) (A) (A) (A) (A) (A) (A) (A)
                 (A) (A) (A) (A) (A) (A) (A) (A) (A) (A) (A) (A)
                 (A) (A) (A) (A) (A) (A) (A) (A) (A) (A) (A) (A)
                 (A) (A) (A) (A) (A) (A) (A) (A) (A) (A) (A) (A)
                 (A) (A) (A) (A) (A) (A) (A) (A) (A) (A) (A) (A)
                 (A) (A) (A) (A) (A) (A) (A) (A) (A) (A) (A) (A)
                 (A) (A) (A) (A) (A) (A) (A) (A) (A) (A) (A) (A)
                 (A) (A) (A) (A) (A) (A) (A) (A) (A) (A) (A) (A)
                 (A) (A) (A) (A) (A) (A) (A) (A) (A) (A) (A) (A)
                 (A) (A) (A) (A) (A) (A) (A) (A) (A) (A) (A) (A)
                 (A) (A) (A) (A) (A) (A) (A) (A) (A) (A) (A) (A)
                 (A)
 The electronic state is 1-A.
 Alpha  occ. eigenvalues --  -14.32681 -10.23016 -10.21485 -10.21335 -10.21058
 Alpha  occ. eigenvalues --  -10.19355 -10.17494 -10.17337 -10.16917  -1.04628
 Alpha  occ. eigenvalues --   -0.81091  -0.77092  -0.73737  -0.68669  -0.65417
 Alpha  occ. eigenvalues --   -0.58814  -0.54027  -0.53322  -0.51199  -0.48598
 Alpha  occ. eigenvalues --   -0.47683  -0.44159  -0.39214  -0.38288  -0.37869
 Alpha  occ. eigenvalues --   -0.35601  -0.34773  -0.30967  -0.28735  -0.26565
 Alpha  occ. eigenvalues --   -0.25776  -0.24095
 Alpha virt. eigenvalues --    0.02815   0.05138   0.06889   0.10529   0.11959
 Alpha virt. eigenvalues --    0.12730   0.13356   0.14246   0.15515   0.15977
 Alpha virt. eigenvalues --    0.16876   0.17179   0.17809   0.20382   0.22837
 Alpha virt. eigenvalues --    0.23323   0.24037   0.27669   0.28597   0.31651
 Alpha virt. eigenvalues --    0.37152   0.38861   0.42183   0.44952   0.45667
 Alpha virt. eigenvalues --    0.46200   0.46881   0.48809   0.49919   0.52237
 Alpha virt. eigenvalues --    0.52775   0.54976   0.55244   0.57052   0.58985
 Alpha virt. eigenvalues --    0.59019   0.60304   0.64532   0.67075   0.67574
 Alpha virt. eigenvalues --    0.68565   0.69381   0.70213   0.71484   0.72608
 Alpha virt. eigenvalues --    0.73583   0.74755   0.75633   0.75992   0.77640
 Alpha virt. eigenvalues --    0.77968   0.80045   0.80277   0.81650   0.83101
 Alpha virt. eigenvalues --    0.84122   0.85507   0.87192   0.88956   0.91004
 Alpha virt. eigenvalues --    0.99266   1.01728   1.04331   1.06538   1.08061
 Alpha virt. eigenvalues --    1.10542   1.13444   1.14277   1.16856   1.17921
 Alpha virt. eigenvalues --    1.19465   1.20414   1.23125   1.24343   1.29210
 Alpha virt. eigenvalues --    1.32443   1.32836   1.35741   1.36372   1.39787
 Alpha virt. eigenvalues --    1.40503   1.43241   1.46011   1.46846   1.48907
 Alpha virt. eigenvalues --    1.50856   1.53517   1.54504   1.56342   1.58485
 Alpha virt. eigenvalues --    1.60682   1.62775   1.64676   1.65680   1.69055
 Alpha virt. eigenvalues --    1.71840   1.72886   1.73531   1.76936   1.79815
 Alpha virt. eigenvalues --    1.84976   1.85526   1.88486   1.92420   1.95406
 Alpha virt. eigenvalues --    1.96018   1.98696   1.99932   2.07919   2.11659
 Alpha virt. eigenvalues --    2.18246   2.26678   2.30452   2.32433   2.35036
 Alpha virt. eigenvalues --    2.38940   2.42135   2.44873   2.46103   2.48081
 Alpha virt. eigenvalues --    2.50584   2.52360   2.55920   2.59231   2.63624
 Alpha virt. eigenvalues --    2.64184   2.65425   2.65883   2.66719   2.67325
 Alpha virt. eigenvalues --    2.68401   2.70597   2.77006   2.77472   2.78453
 Alpha virt. eigenvalues --    2.80439   2.85600   2.87102   2.88630   2.90181
 Alpha virt. eigenvalues --    2.91968   2.93602   2.96034   2.97984   2.99460
 Alpha virt. eigenvalues --    3.02282   3.04243   3.07787   3.08025   3.09886
 Alpha virt. eigenvalues --    3.11524   3.13641   3.16414   3.18010   3.19886
 Alpha virt. eigenvalues --    3.22747   3.24087   3.25933   3.29369   3.31345
 Alpha virt. eigenvalues --    3.36212   3.36830   3.41024   3.42147   3.44705
 Alpha virt. eigenvalues --    3.45178   3.48396   3.50849   3.53598   3.57761
 Alpha virt. eigenvalues --    3.61437   3.61609   3.63296   3.64207   3.65568
 Alpha virt. eigenvalues --    3.69057   3.75438   3.76755   3.78287   3.82032
 Alpha virt. eigenvalues --    3.88095   3.88845   3.89463   3.93056   3.93782
 Alpha virt. eigenvalues --    3.97135   4.00841   4.03682   4.08280   4.10680
 Alpha virt. eigenvalues --    4.15253   4.17605   4.19353   4.22138   4.23721
 Alpha virt. eigenvalues --    4.27102   4.31810   4.33561   4.37112   4.38741
 Alpha virt. eigenvalues --    4.39562   4.42528   4.44515   4.44710   4.46278
 Alpha virt. eigenvalues --    4.50042   4.51468   4.54208   4.56346   4.56797
 Alpha virt. eigenvalues --    4.60128   4.63190   4.66614   4.68348   4.69872
 Alpha virt. eigenvalues --    4.72558   4.73740   4.75167   4.77793   4.80750
 Alpha virt. eigenvalues --    4.82436   4.83473   4.85403   4.88472   4.91087
 Alpha virt. eigenvalues --    4.92082   4.94902   4.95986   4.99896   5.01762
 Alpha virt. eigenvalues --    5.06364   5.07664   5.10480   5.12670   5.14559
 Alpha virt. eigenvalues --    5.18517   5.24185   5.29135   5.32739   5.34253
 Alpha virt. eigenvalues --    5.37355   5.42257   5.46462   5.50668   5.53322
 Alpha virt. eigenvalues --    5.61169   5.65819   5.71081   5.73365   5.81471
 Alpha virt. eigenvalues --    5.90582   6.15160   6.37311   6.89980   7.67314
 Alpha virt. eigenvalues --    9.73188  10.79030  11.20169  11.45236  11.58222
 Alpha virt. eigenvalues --   11.73115  12.23124  12.41171  12.84916  18.71291
          Condensed to atoms (all electrons):
               1          2          3          4          5          6
     1  C    5.200661   0.922905  -0.025569  -0.004218   0.000523  -0.000046
     2  C    0.922905   4.507671   0.390338  -0.021513   0.000455  -0.000224
     3  C   -0.025569   0.390338   4.919868   0.301460  -0.007715   0.003268
     4  C   -0.004218  -0.021513   0.301460   5.043983   0.383653  -0.030739
     5  C    0.000523   0.000455  -0.007715   0.383653   4.739688   0.389624
     6  C   -0.000046  -0.000224   0.003268  -0.030739   0.389624   5.029149
     7  N   -0.000104  -0.005416  -0.031083  -0.114001   0.371411  -0.035999
     8  C   -0.004868  -0.054309   0.318680  -0.026919  -0.100128   0.007354
     9  C   -0.000052   0.000876   0.001277   0.311673  -0.111087  -0.006290
    10  H    0.379523  -0.004660  -0.000730   0.000016   0.000004  -0.000000
    11  H   -0.007133  -0.051089   0.401057  -0.043904   0.005498  -0.000133
    12  H    0.000359   0.000450  -0.034288   0.366546  -0.040544  -0.000540
    13  H    0.003050   0.004439  -0.001393  -0.057173   0.364680  -0.047778
    14  H   -0.000000  -0.000016   0.000183  -0.008629  -0.018171   0.368510
    15  H    0.000002   0.000012  -0.000127   0.004495  -0.017217   0.369121
    16  H    0.000010   0.000070  -0.000040  -0.000938  -0.019922   0.364830
    17  H   -0.000431  -0.002426  -0.055719   0.007493   0.003213  -0.000196
    18  H   -0.000006  -0.000599   0.003399  -0.045329   0.003012   0.002977
               7          8          9         10         11         12
     1  C   -0.000104  -0.004868  -0.000052   0.379523  -0.007133   0.000359
     2  C   -0.005416  -0.054309   0.000876  -0.004660  -0.051089   0.000450
     3  C   -0.031083   0.318680   0.001277  -0.000730   0.401057  -0.034288
     4  C   -0.114001  -0.026919   0.311673   0.000016  -0.043904   0.366546
     5  C    0.371411  -0.100128  -0.111087   0.000004   0.005498  -0.040544
     6  C   -0.035999   0.007354  -0.006290  -0.000000  -0.000133  -0.000540
     7  N    6.367976   0.348806   0.260291  -0.000002   0.005376   0.009621
     8  C    0.348806   5.040939   0.242015  -0.000017  -0.046399   0.011057
     9  C    0.260291   0.242015   5.078911  -0.000003  -0.010988  -0.035752
    10  H   -0.000002  -0.000017  -0.000003   0.436416  -0.000130   0.000005
    11  H    0.005376  -0.046399  -0.010988  -0.000130   0.641439  -0.003592
    12  H    0.009621   0.011057  -0.035752   0.000005  -0.003592   0.642640
    13  H   -0.035441  -0.007148   0.021736   0.000008   0.000274   0.000916
    14  H   -0.004362  -0.000192   0.006817  -0.000000   0.000002   0.000036
    15  H    0.000265   0.000082  -0.000446   0.000000   0.000003  -0.000111
    16  H    0.003399  -0.000330  -0.000618   0.000000  -0.000004   0.001308
    17  H   -0.031123   0.382919  -0.009779   0.000000  -0.002308  -0.000197
    18  H   -0.023171  -0.016365   0.354372  -0.000000   0.001063  -0.000060
              13         14         15         16         17         18
     1  C    0.003050  -0.000000   0.000002   0.000010  -0.000431  -0.000006
     2  C    0.004439  -0.000016   0.000012   0.000070  -0.002426  -0.000599
     3  C   -0.001393   0.000183  -0.000127  -0.000040  -0.055719   0.003399
     4  C   -0.057173  -0.008629   0.004495  -0.000938   0.007493  -0.045329
     5  C    0.364680  -0.018171  -0.017217  -0.019922   0.003213   0.003012
     6  C   -0.047778   0.368510   0.369121   0.364830  -0.000196   0.002977
     7  N   -0.035441  -0.004362   0.000265   0.003399  -0.031123  -0.023171
     8  C   -0.007148  -0.000192   0.000082  -0.000330   0.382919  -0.016365
     9  C    0.021736   0.006817  -0.000446  -0.000618  -0.009779   0.354372
    10  H    0.000008  -0.000000   0.000000   0.000000   0.000000  -0.000000
    11  H    0.000274   0.000002   0.000003  -0.000004  -0.002308   0.001063
    12  H    0.000916   0.000036  -0.000111   0.001308  -0.000197  -0.000060
    13  H    0.671035   0.005726  -0.002681  -0.000692   0.000600  -0.000725
    14  H    0.005726   0.600866  -0.032672  -0.031736   0.000005   0.000786
    15  H   -0.002681  -0.032672   0.585045  -0.030510  -0.000010  -0.000055
    16  H   -0.000692  -0.031736  -0.030510   0.602415   0.000003  -0.000155
    17  H    0.000600   0.000005  -0.000010   0.000003   0.598706  -0.000721
    18  H   -0.000725   0.000786  -0.000055  -0.000155  -0.000721   0.600515
 Mulliken charges:
               1
     1  C   -0.464607
     2  C    0.313034
     3  C   -0.182865
     4  C   -0.065956
     5  C    0.053023
     6  C   -0.412889
     7  N   -0.086443
     8  C   -0.095179
     9  C   -0.102954
    10  H    0.189566
    11  H    0.110967
    12  H    0.082146
    13  H    0.080566
    14  H    0.112846
    15  H    0.124804
    16  H    0.112911
    17  H    0.109969
    18  H    0.121061
 Sum of Mulliken charges =  -0.00000
 Mulliken charges with hydrogens summed into heavy atoms:
               1
     1  C   -0.275041
     2  C    0.313034
     3  C   -0.071898
     4  C    0.016190
     5  C    0.133589
     6  C   -0.062328
     7  N   -0.086443
     8  C    0.014790
     9  C    0.018107
 Electronic spatial extent (au):  <R**2>=           1071.5318
 Charge=             -0.0000 electrons
 Dipole moment (field-independent basis, Debye):
    X=              0.2923    Y=              0.3510    Z=              1.0990  Tot=              1.1901
 Quadrupole moment (field-independent basis, Debye-Ang):
   XX=            -51.7534   YY=            -51.1139   ZZ=            -53.4329
   XY=              0.1384   XZ=             -2.7895   YZ=             -0.7260
 Traceless Quadrupole moment (field-independent basis, Debye-Ang):
   XX=              0.3467   YY=              0.9862   ZZ=             -1.3329
   XY=              0.1384   XZ=             -2.7895   YZ=             -0.7260
 Octapole moment (field-independent basis, Debye-Ang**2):
  XXX=              9.8316  YYY=              1.4016  ZZZ=              2.2002  XYY=              5.9614
  XXY=             12.0360  XXZ=              1.1520  XZZ=             -0.7695  YZZ=              0.0115
  YYZ=             -2.8193  XYZ=              1.4704
 Hexadecapole moment (field-independent basis, Debye-Ang**3):
 XXXX=           -841.7309 YYYY=           -371.9328 ZZZZ=           -173.1636 XXXY=             66.8118
 XXXZ=            -18.6329 YYYX=              4.3780 YYYZ=              6.8304 ZZZX=             -0.9442
 ZZZY=              1.6318 XXYY=           -188.9034 XXZZ=           -191.5082 YYZZ=            -87.4646
 XXYZ=            -14.7649 YYXZ=             -4.3394 ZZXY=             -7.0604
 N-N= 4.285465075989D+02 E-N=-1.703167025196D+03  KE= 3.625649214297D+02
 PrsmSu:  requested number of processors reduced to:  13 ShMem   1 Linda.
 Calling FoFJK, ICntrl=      2127 FMM=F ISym2X=0 I1Cent= 0 IOpClX= 0 NMat=1 NMatS=1 NMatT=0.
 ***** Axes restored to original set *****
 -------------------------------------------------------------------
 Center     Atomic                   Forces (Hartrees/Bohr)
 Number     Number              X              Y              Z
 -------------------------------------------------------------------
      1        6          -0.028616260    0.000158034   -0.000953022
      2        6           0.007270769    0.002318727   -0.000113309
      3        6          -0.049484391    0.009469906   -0.032215856
      4        6          -0.054445477    0.016750683   -0.009851728
      5        6           0.000866029    0.040424541    0.029138832
      6        6          -0.002319733    0.001763521   -0.000258066
      7        7          -0.014008758   -0.026147563    0.031950770
      8        6           0.043167449   -0.020424419   -0.030478194
      9        6           0.061450331   -0.001837162    0.032737987
     10        1           0.005325852   -0.001585697    0.001677369
     11        1          -0.002335721    0.003012752    0.008558047
     12        1           0.007707302    0.002066461   -0.003470012
     13        1          -0.003072568    0.001254888   -0.004060334
     14        1          -0.002143247   -0.001417077   -0.001060126
     15        1          -0.000911572   -0.000769094   -0.002160075
     16        1          -0.000549797    0.002170660    0.000756964
     17        1           0.008700983   -0.011425260    0.000966803
     18        1           0.023398811   -0.015783902   -0.021166050
 -------------------------------------------------------------------
 Cartesian Forces:  Max     0.061450331 RMS     0.020159681

 GradGradGradGradGradGradGradGradGradGradGradGradGradGradGradGradGradGrad
 Berny optimization.
 FormGI is forming the generalized inverse of G from B-inverse, IUseBI=4.
 Internal  Forces:  Max     0.061153647 RMS     0.010420190
 Search for a local minimum.
 Step number   1 out of a maximum of  108
 All quantities printed in internal units (Hartrees-Bohrs-Radians)
 Mixed Optimization -- RFO/linear search
 Second derivative matrix not updated -- first step.
 ITU=  0
     Eigenvalues ---    0.00326   0.00515   0.00515   0.01437   0.01531
     Eigenvalues ---    0.01531   0.01757   0.01964   0.02683   0.02991
     Eigenvalues ---    0.03328   0.03768   0.04987   0.05358   0.05573
     Eigenvalues ---    0.05610   0.06722   0.06992   0.07394   0.07975
     Eigenvalues ---    0.08780   0.09200   0.10031   0.14335   0.15796
     Eigenvalues ---    0.16000   0.16000   0.16000   0.19470   0.21050
     Eigenvalues ---    0.25514   0.26263   0.28822   0.29125   0.30941
     Eigenvalues ---    0.32533   0.33874   0.34033   0.34126   0.34572
     Eigenvalues ---    0.35511   0.35605   0.35905   0.37308   0.37383
     Eigenvalues ---    0.37602   0.39294   1.08537
 RFO step:  Lambda=-5.08603214D-02 EMin= 3.26082561D-03
 Linear search not attempted -- first point.
 Maximum step size (   0.300) exceeded in Quadratic search.
    -- Step size scaled by   0.836
 Iteration  1 RMS(Cart)=  0.07362472 RMS(Int)=  0.00357002
 Iteration  2 RMS(Cart)=  0.00361441 RMS(Int)=  0.00149594
 Iteration  3 RMS(Cart)=  0.00001353 RMS(Int)=  0.00149589
 Iteration  4 RMS(Cart)=  0.00000007 RMS(Int)=  0.00149589
 Variable       Old X    -DE/DX   Delta X   Delta X   Delta X     New X
                                 (Linear)    (Quad)   (Total)
    R1        2.25403   0.02323   0.00000   0.01708   0.01708   2.27111
    R2        2.01973  -0.00546   0.00000  -0.01075  -0.01075   2.00898
    R3        2.72523   0.01597   0.00000   0.03007   0.03007   2.75530
    R4        2.89596   0.01884   0.00000   0.04065   0.04183   2.93780
    R5        2.78919   0.04769   0.00000   0.10162   0.10148   2.89067
    R6        2.09880  -0.00913   0.00000  -0.02027  -0.02027   2.07852
    R7        2.89997   0.01374   0.00000   0.02263   0.02277   2.92275
    R8        2.78705   0.06115   0.00000   0.12983   0.12961   2.91667
    R9        2.04703   0.00201   0.00000   0.00414   0.00414   2.05117
   R10        2.89743  -0.00302   0.00000  -0.00737  -0.00737   2.89005
   R11        2.72972   0.03175   0.00000   0.06795   0.06758   2.79730
   R12        2.07119   0.00110   0.00000   0.00235   0.00235   2.07353
   R13        2.07544  -0.00206   0.00000  -0.00442  -0.00442   2.07102
   R14        2.07275  -0.00177   0.00000  -0.00377  -0.00377   2.06898
   R15        2.06376   0.00213   0.00000   0.00448   0.00448   2.06824
   R16        2.67642   0.01832   0.00000   0.04630   0.04756   2.72397
   R17        2.78641   0.01721   0.00000   0.04490   0.04577   2.83218
   R18        2.89478   0.01001   0.00000  -0.00378  -0.00645   2.88833
   R19        2.01649   0.01156   0.00000   0.02262   0.02262   2.03911
   R20        2.02085   0.01222   0.00000   0.02408   0.02408   2.04493
    A1        2.09914   0.00330   0.00000   0.02628   0.02672   2.12586
    A2        2.12118   0.00777   0.00000   0.02769   0.02812   2.14930
    A3        1.87213   0.00025   0.00000   0.00893   0.00890   1.88103
    A4        1.54151  -0.00601   0.00000  -0.02464  -0.02678   1.51473
    A5        1.92619  -0.00218   0.00000  -0.02931  -0.02912   1.89707
    A6        1.87941  -0.00484   0.00000  -0.02038  -0.02040   1.85901
    A7        1.75057   0.00731   0.00000   0.01399   0.01304   1.76361
    A8        1.45127   0.00567   0.00000   0.04316   0.04252   1.49379
    A9        2.06413  -0.00397   0.00000  -0.00518  -0.00427   2.05986
   A10        1.52968   0.00200   0.00000   0.00308   0.00299   1.53267
   A11        2.14193  -0.00424   0.00000  -0.01165  -0.01164   2.13028
   A12        2.34762  -0.00179   0.00000  -0.02403  -0.02453   2.32309
   A13        2.00050   0.00616   0.00000   0.02096   0.02245   2.02295
   A14        1.53653  -0.00164   0.00000  -0.00645  -0.00811   1.52842
   A15        2.09744  -0.00684   0.00000  -0.03885  -0.03959   2.05785
   A16        1.90755   0.00215   0.00000   0.02500   0.02544   1.93299
   A17        1.89860  -0.00013   0.00000   0.00465   0.00435   1.90296
   A18        1.99407   0.00089   0.00000  -0.00113  -0.00142   1.99265
   A19        1.96305  -0.00255   0.00000  -0.01061  -0.01063   1.95242
   A20        1.93822  -0.00229   0.00000  -0.00952  -0.00955   1.92866
   A21        1.91888   0.00237   0.00000   0.01029   0.01032   1.92920
   A22        1.87229   0.00209   0.00000   0.00660   0.00652   1.87881
   A23        1.88181   0.00029   0.00000   0.00191   0.00194   1.88375
   A24        1.88689   0.00024   0.00000   0.00191   0.00194   1.88883
   A25        1.80092   0.00782   0.00000   0.04671   0.04452   1.84544
   A26        1.59036   0.01056   0.00000   0.01546   0.01536   1.60572
   A27        1.96664  -0.00741   0.00000  -0.03376  -0.03657   1.93007
   A28        1.45100   0.01259   0.00000   0.06593   0.06712   1.51812
   A29        2.13748  -0.00125   0.00000   0.00110   0.00199   2.13947
   A30        2.15350   0.00636   0.00000   0.01406   0.01286   2.16637
   A31        2.35627  -0.01012   0.00000  -0.03310  -0.03368   2.32259
   A32        1.55709  -0.01369   0.00000  -0.03723  -0.03798   1.51911
   A33        1.54264  -0.00746   0.00000  -0.01864  -0.02021   1.52243
   A34        2.09325   0.01572   0.00000   0.09400   0.09437   2.18762
   A35        1.85464   0.00618   0.00000   0.05200   0.05530   1.90994
   A36        2.58496  -0.00496   0.00000  -0.03511  -0.04022   2.54473
   A37        3.12662   0.00040   0.00000   0.00597   0.00597   3.13259
   A38        3.21651  -0.00553   0.00000  -0.06982  -0.06982   3.14669
   A39        3.10075   0.00308   0.00000   0.04596   0.04596   3.14672
   A40        3.23015  -0.00680   0.00000  -0.08583  -0.08583   3.14431
    D1        1.23645  -0.00492   0.00000  -0.05500  -0.05529   1.18116
    D2        2.74329  -0.00276   0.00000  -0.04550  -0.04539   2.69791
    D3       -1.14037  -0.00277   0.00000  -0.04792  -0.04802  -1.18839
    D4       -0.96387  -0.01148   0.00000  -0.08177  -0.08129  -1.04515
    D5        0.54298  -0.00933   0.00000  -0.07227  -0.07138   0.47159
    D6        2.94250  -0.00933   0.00000  -0.07470  -0.07402   2.86849
    D7       -2.85327  -0.00381   0.00000  -0.04788  -0.04808  -2.90136
    D8       -1.34643  -0.00165   0.00000  -0.03838  -0.03818  -1.38461
    D9        1.05309  -0.00166   0.00000  -0.04081  -0.04081   1.01228
   D10       -1.77314   0.00885   0.00000   0.08631   0.08401  -1.68914
   D11       -2.70253  -0.00403   0.00000   0.01732   0.02024  -2.68229
   D12        1.13472  -0.00067   0.00000   0.00433   0.00400   1.13872
   D13        0.40870   0.01163   0.00000   0.11179   0.10867   0.51737
   D14       -0.52069  -0.00126   0.00000   0.04279   0.04490  -0.47579
   D15       -2.96662   0.00211   0.00000   0.02981   0.02867  -2.93796
   D16        2.34351   0.00691   0.00000   0.07095   0.06848   2.41199
   D17        1.41412  -0.00598   0.00000   0.00195   0.00471   1.41883
   D18       -1.03181  -0.00261   0.00000  -0.01103  -0.01153  -1.04334
   D19        3.10688   0.00432   0.00000   0.02657   0.02619   3.13307
   D20        1.18068   0.00190   0.00000  -0.00087  -0.00137   1.17931
   D21       -0.86303   0.00366   0.00000   0.01464   0.01450  -0.84853
   D22        1.66522  -0.00136   0.00000  -0.01706  -0.01695   1.64827
   D23       -0.26099  -0.00378   0.00000  -0.04449  -0.04451  -0.30549
   D24       -2.30469  -0.00202   0.00000  -0.02899  -0.02864  -2.33333
   D25       -0.84554   0.00258   0.00000   0.02375   0.02364  -0.82190
   D26       -2.77174   0.00016   0.00000  -0.00368  -0.00392  -2.77567
   D27        1.46774   0.00192   0.00000   0.01182   0.01195   1.47968
   D28       -1.50162  -0.00160   0.00000   0.03493   0.03604  -1.46558
   D29       -0.52109   0.00102   0.00000   0.04719   0.04929  -0.47180
   D30        2.88999  -0.00335   0.00000  -0.01998  -0.02402   2.86597
   D31        0.25543   0.00516   0.00000   0.04587   0.04632   0.30175
   D32        1.23596   0.00778   0.00000   0.05813   0.05956   1.29553
   D33       -1.63614   0.00341   0.00000  -0.00904  -0.01375  -1.64989
   D34        2.62748  -0.00101   0.00000   0.00737   0.00899   2.63647
   D35       -2.67517   0.00161   0.00000   0.01963   0.02223  -2.65294
   D36        0.73591  -0.00276   0.00000  -0.04754  -0.05108   0.68483
   D37       -0.77395  -0.00222   0.00000  -0.01707  -0.01696  -0.79090
   D38       -2.87246  -0.00153   0.00000  -0.01155  -0.01150  -2.88396
   D39        1.32324  -0.00191   0.00000  -0.01456  -0.01447   1.30877
   D40        0.91765  -0.00054   0.00000  -0.00348  -0.00367   0.91398
   D41       -1.18086   0.00015   0.00000   0.00204   0.00179  -1.17907
   D42        3.01484  -0.00023   0.00000  -0.00096  -0.00119   3.01365
   D43        3.10561   0.00191   0.00000   0.01487   0.01504   3.12065
   D44        1.00710   0.00260   0.00000   0.02038   0.02050   1.02760
   D45       -1.08039   0.00222   0.00000   0.01738   0.01752  -1.06286
   D46       -0.84721   0.01006   0.00000   0.07644   0.07882  -0.76839
   D47        0.26087   0.00807   0.00000   0.05272   0.05400   0.31488
   D48       -2.86212   0.00381   0.00000   0.05325   0.05440  -2.80772
   D49       -1.75403   0.00182   0.00000   0.02953   0.02959  -1.72445
   D50        1.28947   0.00175   0.00000   0.02920   0.03011   1.31958
   D51        2.39756  -0.00024   0.00000   0.00547   0.00529   2.40285
   D52        0.31095  -0.01703   0.00000  -0.13678  -0.13580   0.17515
   D53       -2.59443  -0.00621   0.00000  -0.05184  -0.05248  -2.64691
   D54       -0.27157  -0.00366   0.00000  -0.04427  -0.04413  -0.31570
   D55        1.84123   0.00935   0.00000   0.05073   0.05232   1.89355
   D56        0.54323  -0.00797   0.00000  -0.06483  -0.06391   0.47932
   D57       -3.05030   0.00797   0.00000   0.10689   0.10120  -2.94909
   D58        2.81419  -0.00169   0.00000  -0.00625  -0.00404   2.81014
   D59       -0.77934   0.01426   0.00000   0.16547   0.16107  -0.61827
         Item               Value     Threshold  Converged?
 Maximum Force            0.061154     0.000450     NO 
 RMS     Force            0.010420     0.000300     NO 
 Maximum Displacement     0.327589     0.001800     NO 
 RMS     Displacement     0.073439     0.001200     NO 
 Predicted change in Energy=-3.081017D-02
 GradGradGradGradGradGradGradGradGradGradGradGradGradGradGradGradGradGrad

                          Input orientation:                          
 ---------------------------------------------------------------------
 Center     Atomic      Atomic             Coordinates (Angstroms)
 Number     Number       Type             X           Y           Z
 ---------------------------------------------------------------------
      1          6           0        1.088219   -0.141374    0.103094
      2          6           0        2.286834   -0.058596    0.074190
      3          6           0        3.740673    0.043234    0.030922
      4          6           0        4.499021    1.228076    0.692650
      5          6           0        4.227977    0.953884    2.190476
      6          6           0        4.851359    1.944717    3.174628
      7          7           0        5.072338   -0.254632    2.057292
      8          6           0        4.667737   -0.880164    0.823263
      9          6           0        5.692045    0.253799    0.790943
     10          1           0        0.028019   -0.211451    0.138663
     11          1           0        4.051250   -0.030248   -1.021664
     12          1           0        4.381663    2.215419    0.257282
     13          1           0        3.194368    0.748350    2.496096
     14          1           0        5.894798    2.167177    2.923991
     15          1           0        4.833549    1.538259    4.191084
     16          1           0        4.296084    2.887860    3.173401
     17          1           0        4.735172   -1.939847    0.631229
     18          1           0        6.718555    0.538378    0.981472
 ---------------------------------------------------------------------
                    Distance matrix (angstroms):
                    1          2          3          4          5
     1  C    0.000000
     2  C    1.201818   0.000000
     3  C    2.659850   1.458043   0.000000
     4  C    3.722438   2.632829   1.554614   0.000000
     5  C    3.926173   3.044966   2.393830   1.546651   0.000000
     6  C    5.286523   4.494749   3.838248   2.607284   1.529350
     7  N    4.439023   3.424931   2.442996   2.095081   1.480268
     8  C    3.725239   2.627696   1.529678   2.119009   2.329462
     9  C    4.671672   3.493822   2.104715   1.543433   2.142967
    10  H    1.063108   2.264899   3.722939   4.729588   4.817425
    11  H    3.171274   2.077225   1.099906   2.173189   3.364163
    12  H    4.052780   3.097253   2.276070   1.085433   2.313510
    13  H    3.309672   2.709319   2.621588   2.276988   1.097267
    14  H    6.032418   5.108115   4.185838   2.794456   2.188246
    15  H    5.793128   5.097501   4.553727   3.528054   2.170403
    16  H    5.375262   4.724806   4.274992   2.991687   2.170494
    17  H    4.100451   3.137476   2.298261   3.177306   3.325984
    18  H    5.738841   4.562860   3.164884   2.342100   2.799520
                    6          7          8          9         10
     6  C    0.000000
     7  N    2.476774   0.000000
     8  C    3.680026   1.441464   0.000000
     9  C    3.041038   1.498725   1.528438   0.000000
    10  H    6.093501   5.397051   4.737388   5.720413   0.000000
    11  H    4.706329   3.251605   2.122774   2.461390   4.191131
    12  H    2.967288   3.133404   3.159874   2.418646   4.985778
    13  H    2.153444   2.173774   2.760661   3.064396   4.062570
    14  H    1.095934   2.700513   3.899362   2.872633   6.916286
    15  H    1.094856   2.797240   4.149516   3.734677   6.525084
    16  H    1.094463   3.423964   4.456375   3.816162   6.085371
    17  H    4.644590   2.233223   1.079051   2.398582   5.038578
    18  H    3.205330   2.120444   2.498629   1.082131   6.784972
                   11         12         13         14         15
    11  H    0.000000
    12  H    2.605359   0.000000
    13  H    3.703390   2.928182   0.000000
    14  H    4.878068   3.066471   3.080339   0.000000
    15  H    5.499541   4.017157   2.486736   1.768421   0.000000
    16  H    5.116040   2.993869   2.500005   1.771292   1.773688
    17  H    2.616557   4.187008   3.616380   4.844495   4.977898
    18  H    3.383845   2.966139   3.841623   2.665510   3.854169
                   16         17         18
    16  H    0.000000
    17  H    5.473773   0.000000
    18  H    4.024050   3.193442   0.000000
 Stoichiometry    C8H9N
 Framework group  C1[X(C8H9N)]
 Deg. of freedom    48
 Full point group                 C1      NOp   1
 Largest Abelian subgroup         C1      NOp   1
 Largest concise Abelian subgroup C1      NOp   1
                         Standard orientation:                         
 ---------------------------------------------------------------------
 Center     Atomic      Atomic             Coordinates (Angstroms)
 Number     Number       Type             X           Y           Z
 ---------------------------------------------------------------------
      1          6           0        3.048323    0.982113   -0.216304
      2          6           0        2.124470    0.268586    0.069597
      3          6           0        1.008063   -0.600200    0.422781
      4          6           0       -0.321023   -0.033855    0.996898
      5          6           0       -0.869962    0.733676   -0.228536
      6          6           0       -2.215684    1.432928   -0.031077
      7          7           0       -1.052550   -0.578275   -0.889325
      8          6           0        0.150358   -1.324194   -0.616492
      9          6           0       -0.974521   -1.306712    0.418141
     10          1           0        3.858856    1.620190   -0.473389
     11          1           0        1.387308   -1.372520    1.107975
     12          1           0       -0.301912    0.404215    1.989820
     13          1           0       -0.188440    1.411986   -0.757138
     14          1           0       -2.941058    0.786472    0.475875
     15          1           0       -2.644435    1.719305   -0.996929
     16          1           0       -2.093022    2.338653    0.570974
     17          1           0        0.545585   -2.092877   -1.262459
     18          1           0       -1.955173   -1.681544    0.680500
 ---------------------------------------------------------------------
 Rotational constants (GHZ):           3.1660839           1.4101431           1.1680438
 Standard basis: 6-31G(2df,p) (6D, 7F)
 There are   324 symmetry adapted cartesian basis functions of A   symmetry.
 There are   297 symmetry adapted basis functions of A   symmetry.
   297 basis functions,   459 primitive gaussians,   324 cartesian basis functions
    32 alpha electrons       32 beta electrons
       nuclear repulsion energy       421.9888998818 Hartrees.
 NAtoms=   18 NActive=   18 NUniq=   18 SFac= 1.00D+00 NAtFMM=   60 NAOKFM=F Big=F
 Integral buffers will be    131072 words long.
 Raffenetti 2 integral format.
 Two-electron integral symmetry is turned on.
 One-electron integrals computed using PRISM.
 PrsmSu:  requested number of processors reduced to:  13 ShMem   1 Linda.
 NBasis=   297 RedAO= T EigKep=  1.11D-04  NBF=   297
 NBsUse=   297 1.00D-06 EigRej= -1.00D+00 NBFU=   297
 Initial guess from the checkpoint file:  "CtCC1C2CpCpN3C1C23.chk"
 B after Tr=     0.000000    0.000000    0.000000
         Rot=    0.999936   -0.009227    0.004903    0.004346 Ang=  -1.30 deg.
 ExpMin= 1.61D-01 ExpMax= 4.17D+03 ExpMxC= 6.27D+02 IAcc=2 IRadAn=         4 AccDes= 0.00D+00
 Harris functional with IExCor=  402 and IRadAn=       4 diagonalized for initial guess.
 HarFok:  IExCor=  402 AccDes= 0.00D+00 IRadAn=         4 IDoV= 1 UseB2=F ITyADJ=14
 ICtDFT=  3500011 ScaDFX=  1.000000  1.000000  1.000000  1.000000
 FoFCou: FMM=F IPFlag=           0 FMFlag=      100000 FMFlg1=           0
         NFxFlg=           0 DoJE=T BraDBF=F KetDBF=T FulRan=T
         wScrn=  0.000000 ICntrl=       500 IOpCl=  0 I1Cent=   200000004 NGrid=           0
         NMat0=    1 NMatS0=      1 NMatT0=    0 NMatD0=    1 NMtDS0=    0 NMtDT0=    0
 Petite list used in FoFCou.
 Requested convergence on RMS density matrix=1.00D-08 within 128 cycles.
 Requested convergence on MAX density matrix=1.00D-06.
 Requested convergence on             energy=1.00D-06.
 No special actions if energy rises.
 Integral accuracy reduced to 1.0D-05 until final iterations.
 Initial convergence to 1.0D-05 achieved.  Increase integral accuracy.
 SCF Done:  E(RB3LYP) =  -364.840273894     A.U. after   12 cycles
            NFock= 12  Conv=0.79D-08     -V/T= 2.0078
 PrsmSu:  requested number of processors reduced to:  13 ShMem   1 Linda.
 Calling FoFJK, ICntrl=      2127 FMM=F ISym2X=0 I1Cent= 0 IOpClX= 0 NMat=1 NMatS=1 NMatT=0.
 ***** Axes restored to original set *****
 -------------------------------------------------------------------
 Center     Atomic                   Forces (Hartrees/Bohr)
 Number     Number              X              Y              Z
 -------------------------------------------------------------------
      1        6          -0.003775491   -0.000112576    0.000449714
      2        6           0.005487066   -0.000115474    0.006639150
      3        6          -0.017034384    0.003787787   -0.016818248
      4        6          -0.027233566    0.001161647   -0.003758016
      5        6           0.004732462    0.016650443    0.006369742
      6        6          -0.000070177   -0.001773351   -0.002300118
      7        7          -0.008320176   -0.016524643    0.019608324
      8        6           0.019283422    0.004881979   -0.023667385
      9        6           0.009468270    0.006997661    0.031979192
     10        1           0.000946710    0.000006062   -0.000493000
     11        1          -0.000811553    0.000993480    0.002277560
     12        1           0.006333985    0.001605475   -0.002676484
     13        1          -0.000735172   -0.000217876   -0.003140496
     14        1          -0.000599448   -0.000463341   -0.000508102
     15        1          -0.000301976   -0.000331162   -0.000619538
     16        1          -0.000506550   -0.000104860   -0.000227588
     17        1           0.005720543   -0.003119030    0.005536571
     18        1           0.007416037   -0.013322221   -0.018651277
 -------------------------------------------------------------------
 Cartesian Forces:  Max     0.031979192 RMS     0.009952843

 GradGradGradGradGradGradGradGradGradGradGradGradGradGradGradGradGradGrad
 Berny optimization.
 Using GEDIIS/GDIIS optimizer.
 FormGI is forming the generalized inverse of G from B-inverse, IUseBI=4.
 Internal  Forces:  Max     0.017286890 RMS     0.003505666
 Search for a local minimum.
 Step number   2 out of a maximum of  108
 All quantities printed in internal units (Hartrees-Bohrs-Radians)
 Mixed Optimization -- RFO/linear search
 Update second derivatives using D2CorX and points    1    2
 DE= -2.86D-02 DEPred=-3.08D-02 R= 9.28D-01
 TightC=F SS=  1.41D+00  RLast= 4.97D-01 DXNew= 5.0454D-01 1.4900D+00
 Trust test= 9.28D-01 RLast= 4.97D-01 DXMaxT set to 5.05D-01
 ITU=  1  0
 Use linear search instead of GDIIS.
     Eigenvalues ---    0.00326   0.00515   0.00519   0.01455   0.01527
     Eigenvalues ---    0.01533   0.01998   0.02100   0.02622   0.03092
     Eigenvalues ---    0.03314   0.03768   0.04788   0.05435   0.05568
     Eigenvalues ---    0.05772   0.06693   0.07104   0.07764   0.08305
     Eigenvalues ---    0.08680   0.09096   0.10040   0.14337   0.15930
     Eigenvalues ---    0.15995   0.16000   0.16188   0.19622   0.21244
     Eigenvalues ---    0.25593   0.26353   0.28450   0.29091   0.31249
     Eigenvalues ---    0.32515   0.33871   0.34031   0.34119   0.34380
     Eigenvalues ---    0.34580   0.35651   0.35965   0.37376   0.37478
     Eigenvalues ---    0.37624   0.40449   1.08625
 RFO step:  Lambda=-1.53757854D-02 EMin= 3.26081358D-03
 Quartic linear search produced a step of  0.65718.
 Iteration  1 RMS(Cart)=  0.05255569 RMS(Int)=  0.01931704
 Iteration  2 RMS(Cart)=  0.01134540 RMS(Int)=  0.00761212
 Iteration  3 RMS(Cart)=  0.00077347 RMS(Int)=  0.00757744
 Iteration  4 RMS(Cart)=  0.00002303 RMS(Int)=  0.00757736
 Iteration  5 RMS(Cart)=  0.00000171 RMS(Int)=  0.00757736
 Iteration  6 RMS(Cart)=  0.00000005 RMS(Int)=  0.00757736
 Variable       Old X    -DE/DX   Delta X   Delta X   Delta X     New X
                                 (Linear)    (Quad)   (Total)
    R1        2.27111   0.00283   0.01122  -0.00716   0.00406   2.27517
    R2        2.00898  -0.00096  -0.00706   0.00345  -0.00362   2.00537
    R3        2.75530  -0.00244   0.01976  -0.02977  -0.01001   2.74530
    R4        2.93780   0.00133   0.02749  -0.01648   0.01582   2.95362
    R5        2.89067   0.01299   0.06669  -0.01328   0.04720   2.93787
    R6        2.07852  -0.00247  -0.01332   0.00254  -0.01078   2.06774
    R7        2.92275   0.00235   0.01496  -0.01466  -0.00073   2.92202
    R8        2.91667   0.01729   0.08518  -0.01504   0.07064   2.98731
    R9        2.05117   0.00185   0.00272   0.00497   0.00769   2.05886
   R10        2.89005  -0.00469  -0.00485  -0.01884  -0.02368   2.86637
   R11        2.79730   0.00956   0.04441   0.00016   0.04404   2.84134
   R12        2.07353  -0.00014   0.00154  -0.00223  -0.00068   2.07285
   R13        2.07102  -0.00055  -0.00291   0.00060  -0.00231   2.06871
   R14        2.06898  -0.00045  -0.00248   0.00062  -0.00186   2.06711
   R15        2.06824   0.00017   0.00294  -0.00234   0.00060   2.06884
   R16        2.72397   0.00469   0.03125   0.01000   0.04908   2.77305
   R17        2.83218   0.00707   0.03008   0.01027   0.03779   2.86997
   R18        2.88833  -0.00343  -0.00424  -0.06687  -0.07369   2.81464
   R19        2.03911   0.00243   0.01487  -0.00565   0.00922   2.04833
   R20        2.04493   0.00025   0.01583  -0.01540   0.00043   2.04536
    A1        2.12586   0.00041   0.01756  -0.01921  -0.00270   2.12316
    A2        2.14930   0.00078   0.01848  -0.03614  -0.01629   2.13302
    A3        1.88103   0.00183   0.00585   0.03212   0.03710   1.91814
    A4        1.51473  -0.00156  -0.01760  -0.00077  -0.02402   1.49071
    A5        1.89707  -0.00089  -0.01913   0.00869  -0.00707   1.89000
    A6        1.85901  -0.00148  -0.01341   0.01339   0.00128   1.86028
    A7        1.76361   0.00241   0.00857   0.00428   0.01526   1.77886
    A8        1.49379   0.00087   0.02794  -0.00018   0.02716   1.52095
    A9        2.05986  -0.00066  -0.00281   0.01325   0.00734   2.06719
   A10        1.53267  -0.00045   0.00196  -0.02238  -0.01994   1.51273
   A11        2.13028  -0.00037  -0.00765   0.02574   0.01821   2.14849
   A12        2.32309  -0.00086  -0.01612  -0.02768  -0.04459   2.27850
   A13        2.02295   0.00199   0.01475   0.00011   0.01836   2.04132
   A14        1.52842   0.00170  -0.00533   0.02594   0.01590   1.54433
   A15        2.05785  -0.00426  -0.02602  -0.02399  -0.05113   2.00672
   A16        1.93299  -0.00097   0.01672  -0.01448   0.00445   1.93744
   A17        1.90296   0.00194   0.00286   0.01900   0.02089   1.92384
   A18        1.99265  -0.00062  -0.00093  -0.00868  -0.00979   1.98286
   A19        1.95242  -0.00075  -0.00699   0.00131  -0.00570   1.94672
   A20        1.92866  -0.00062  -0.00628   0.00144  -0.00487   1.92380
   A21        1.92920  -0.00044   0.00678  -0.01176  -0.00497   1.92423
   A22        1.87881   0.00074   0.00429   0.00247   0.00669   1.88550
   A23        1.88375   0.00065   0.00128   0.00443   0.00572   1.88947
   A24        1.88883   0.00051   0.00128   0.00258   0.00386   1.89269
   A25        1.84544   0.00019   0.02926  -0.00151   0.02040   1.86584
   A26        1.60572   0.00036   0.01010  -0.03847  -0.02640   1.57932
   A27        1.93007  -0.00108  -0.02404   0.00234  -0.02491   1.90516
   A28        1.51812   0.00376   0.04411   0.01590   0.06569   1.58381
   A29        2.13947   0.00062   0.00131   0.02614   0.03231   2.17178
   A30        2.16637  -0.00091   0.00845  -0.04374  -0.04397   2.12240
   A31        2.32259  -0.00339  -0.02213  -0.00153  -0.03008   2.29250
   A32        1.51911  -0.00252  -0.02496   0.02247  -0.00601   1.51310
   A33        1.52243  -0.00151  -0.01328   0.01628  -0.00397   1.51846
   A34        2.18762   0.00860   0.06202   0.08583   0.12955   2.31717
   A35        1.90994   0.00173   0.03634   0.07639   0.11842   2.02836
   A36        2.54473  -0.00560  -0.02644  -0.05496  -0.09774   2.44699
   A37        3.13259   0.00077   0.00393   0.05048   0.05440   3.18700
   A38        3.14669   0.00111  -0.04588   0.13645   0.09056   3.23726
   A39        3.14672  -0.00042   0.03021  -0.09585  -0.06564   3.08108
   A40        3.14431   0.00040  -0.05641   0.11851   0.06210   3.20642
    D1        1.18116  -0.00283  -0.03633  -0.06674  -0.10348   1.07768
    D2        2.69791  -0.00333  -0.02983  -0.09004  -0.11941   2.57850
    D3       -1.18839  -0.00408  -0.03156  -0.11791  -0.15143  -1.33981
    D4       -1.04515  -0.00282  -0.05342  -0.01339  -0.06514  -1.11029
    D5        0.47159  -0.00332  -0.04691  -0.03669  -0.08107   0.39052
    D6        2.86849  -0.00407  -0.04864  -0.06456  -0.11309   2.75540
    D7       -2.90136  -0.00070  -0.03160  -0.02763  -0.05841  -2.95977
    D8       -1.38461  -0.00120  -0.02509  -0.05093  -0.07434  -1.45895
    D9        1.01228  -0.00195  -0.02682  -0.07880  -0.10636   0.90592
   D10       -1.68914   0.00539   0.05521   0.09436   0.14667  -1.54246
   D11       -2.68229   0.00012   0.01330   0.06799   0.08766  -2.59464
   D12        1.13872   0.00078   0.00263   0.03648   0.03486   1.17358
   D13        0.51737   0.00503   0.07142   0.05460   0.11940   0.63677
   D14       -0.47579  -0.00024   0.02951   0.02824   0.06039  -0.41540
   D15       -2.93796   0.00042   0.01884  -0.00327   0.00759  -2.93037
   D16        2.41199   0.00358   0.04500   0.06398   0.10508   2.51707
   D17        1.41883  -0.00168   0.00309   0.03762   0.04607   1.46490
   D18       -1.04334  -0.00102  -0.00758   0.00611  -0.00673  -1.05007
   D19        3.13307  -0.00042   0.01721  -0.02910  -0.01258   3.12049
   D20        1.17931  -0.00049  -0.00090  -0.02601  -0.02902   1.15029
   D21       -0.84853   0.00016   0.00953  -0.02567  -0.01608  -0.86460
   D22        1.64827  -0.00108  -0.01114  -0.02421  -0.03525   1.61302
   D23       -0.30549  -0.00116  -0.02925  -0.02113  -0.05168  -0.35718
   D24       -2.33333  -0.00051  -0.01882  -0.02079  -0.03874  -2.37207
   D25       -0.82190   0.00082   0.01553   0.01689   0.03190  -0.79000
   D26       -2.77567   0.00074  -0.00258   0.01998   0.01547  -2.76020
   D27        1.47968   0.00139   0.00785   0.02032   0.02841   1.50809
   D28       -1.46558  -0.00092   0.02369   0.01349   0.03707  -1.42851
   D29       -0.47180   0.00043   0.03239   0.02766   0.06398  -0.40782
   D30        2.86597  -0.00316  -0.01579  -0.11805  -0.16363   2.70234
   D31        0.30175   0.00149   0.03044   0.01972   0.05219   0.35394
   D32        1.29553   0.00284   0.03914   0.03390   0.07910   1.37463
   D33       -1.64989  -0.00075  -0.00904  -0.11182  -0.14851  -1.79839
   D34        2.63647  -0.00040   0.00591   0.00959   0.02270   2.65916
   D35       -2.65294   0.00095   0.01461   0.02376   0.04960  -2.60334
   D36        0.68483  -0.00264  -0.03357  -0.12195  -0.17800   0.50683
   D37       -0.79090  -0.00153  -0.01114  -0.00744  -0.01776  -0.80866
   D38       -2.88396  -0.00155  -0.00756  -0.01241  -0.01918  -2.90313
   D39        1.30877  -0.00151  -0.00951  -0.00897  -0.01768   1.29108
   D40        0.91398   0.00088  -0.00241   0.01587   0.01240   0.92638
   D41       -1.17907   0.00086   0.00117   0.01090   0.01098  -1.16809
   D42        3.01365   0.00090  -0.00078   0.01433   0.01248   3.02613
   D43        3.12065   0.00081   0.00988   0.00826   0.01843   3.13908
   D44        1.02760   0.00079   0.01347   0.00329   0.01701   1.04461
   D45       -1.06286   0.00083   0.01152   0.00672   0.01850  -1.04436
   D46       -0.76839   0.00645   0.05180   0.06374   0.11981  -0.64858
   D47        0.31488   0.00231   0.03549   0.01825   0.05696   0.37183
   D48       -2.80772   0.00376   0.03575   0.05525   0.09266  -2.71506
   D49       -1.72445  -0.00038   0.01944   0.00976   0.02980  -1.69464
   D50        1.31958   0.00242   0.01979   0.04796   0.06874   1.38832
   D51        2.40285  -0.00173   0.00348   0.00246   0.00588   2.40874
   D52        0.17515  -0.00815  -0.08925  -0.08376  -0.17099   0.00416
   D53       -2.64691  -0.00379  -0.03449  -0.04007  -0.07925  -2.72615
   D54       -0.31570  -0.00071  -0.02900  -0.01832  -0.04813  -0.36383
   D55        1.89355   0.00789   0.03438   0.09834   0.13123   2.02478
   D56        0.47932  -0.00261  -0.04200  -0.02915  -0.06968   0.40963
   D57       -2.94909   0.00695   0.06651   0.22891   0.25318  -2.69591
   D58        2.81014   0.00028  -0.00266   0.03097   0.04098   2.85112
   D59       -0.61827   0.00984   0.10585   0.28903   0.36385  -0.25442
         Item               Value     Threshold  Converged?
 Maximum Force            0.017287     0.000450     NO 
 RMS     Force            0.003506     0.000300     NO 
 Maximum Displacement     0.247302     0.001800     NO 
 RMS     Displacement     0.054479     0.001200     NO 
 Predicted change in Energy=-1.298020D-02
 GradGradGradGradGradGradGradGradGradGradGradGradGradGradGradGradGradGrad

                          Input orientation:                          
 ---------------------------------------------------------------------
 Center     Atomic      Atomic             Coordinates (Angstroms)
 Number     Number       Type             X           Y           Z
 ---------------------------------------------------------------------
      1          6           0        1.071724   -0.177621    0.155241
      2          6           0        2.272105   -0.085972    0.170120
      3          6           0        3.710372    0.060803    0.027563
      4          6           0        4.484643    1.241651    0.697663
      5          6           0        4.212513    0.990892    2.198997
      6          6           0        4.849490    1.953151    3.183403
      7          7           0        5.012262   -0.277762    2.091081
      8          6           0        4.715532   -0.858719    0.776622
      9          6           0        5.706939    0.250533    0.848164
     10          1           0        0.016693   -0.258262    0.074345
     11          1           0        3.985123    0.026884   -1.031037
     12          1           0        4.424923    2.228007    0.238803
     13          1           0        3.159393    0.825680    2.457544
     14          1           0        5.903250    2.131560    2.946428
     15          1           0        4.794511    1.547803    4.197907
     16          1           0        4.326402    2.914723    3.165807
     17          1           0        4.838878   -1.918024    0.582821
     18          1           0        6.774909    0.407512    0.927537
 ---------------------------------------------------------------------
                    Distance matrix (angstroms):
                    1          2          3          4          5
     1  C    0.000000
     2  C    1.203967   0.000000
     3  C    2.652473   1.452748   0.000000
     4  C    3.735850   2.633668   1.562988   0.000000
     5  C    3.925165   3.006853   2.415023   1.546266   0.000000
     6  C    5.289752   4.458790   3.851999   2.611178   1.516818
     7  N    4.391509   3.351916   2.463260   2.128054   1.503572
     8  C    3.758636   2.633499   1.554656   2.114497   2.386889
     9  C    4.706238   3.517252   2.166948   1.580814   2.146204
    10  H    1.061195   2.264009   3.707729   4.754034   4.866152
    11  H    3.152297   2.095220   1.094200   2.171078   3.378482
    12  H    4.127708   3.161304   2.291720   1.089503   2.327645
    13  H    3.265820   2.617384   2.606419   2.241986   1.096906
    14  H    6.038766   5.080408   4.197204   2.803806   2.172180
    15  H    5.760155   5.025418   4.558322   3.527246   2.155113
    16  H    5.405463   4.711523   4.286365   2.985958   2.156112
    17  H    4.171723   3.180418   2.344695   3.181543   3.386171
    18  H    5.784907   4.592652   3.212716   2.448255   2.919386
                    6          7          8          9         10
     6  C    0.000000
     7  N    2.489304   0.000000
     8  C    3.703667   1.467434   0.000000
     9  C    3.014543   1.518721   1.489445   0.000000
    10  H    6.157314   5.387329   4.788823   5.765116   0.000000
    11  H    4.713718   3.300825   2.141360   2.558528   4.129359
    12  H    2.987720   3.170927   3.146678   2.434192   5.063701
    13  H    2.157426   2.187465   2.843284   3.067717   4.090371
    14  H    1.094713   2.707454   3.880786   2.824803   6.972206
    15  H    1.093869   2.796215   4.183632   3.706240   6.564540
    16  H    1.094783   3.437644   4.483134   3.791472   6.180499
    17  H    4.663597   2.235033   1.083928   2.350867   5.125117
    18  H    3.344424   2.220441   2.422220   1.082360   6.844317
                   11         12         13         14         15
    11  H    0.000000
    12  H    2.578926   0.000000
    13  H    3.672887   2.913914   0.000000
    14  H    4.891738   3.086420   3.077836   0.000000
    15  H    5.505467   4.034077   2.494782   1.770953   0.000000
    16  H    5.105838   3.008095   2.495525   1.774238   1.775621
    17  H    2.667602   4.180823   3.723327   4.808186   5.008270
    18  H    3.429839   3.051392   3.948131   2.794289   3.989682
                   16         17         18
    16  H    0.000000
    17  H    5.503625   0.000000
    18  H    4.158263   3.045515   0.000000
 Stoichiometry    C8H9N
 Framework group  C1[X(C8H9N)]
 Deg. of freedom    48
 Full point group                 C1      NOp   1
 Largest Abelian subgroup         C1      NOp   1
 Largest concise Abelian subgroup C1      NOp   1
                         Standard orientation:                         
 ---------------------------------------------------------------------
 Center     Atomic      Atomic             Coordinates (Angstroms)
 Number     Number       Type             X           Y           Z
 ---------------------------------------------------------------------
      1          6           0        3.053786    0.971414   -0.228201
      2          6           0        2.095253    0.286787    0.020870
      3          6           0        1.023567   -0.594408    0.451522
      4          6           0       -0.324477   -0.034101    1.009882
      5          6           0       -0.865652    0.761251   -0.200690
      6          6           0       -2.211486    1.440076   -0.031391
      7          7           0       -1.007463   -0.539641   -0.941162
      8          6           0        0.136431   -1.375351   -0.558465
      9          6           0       -1.023487   -1.300846    0.372925
     10          1           0        3.933832    1.538125   -0.402827
     11          1           0        1.409995   -1.330989    1.162433
     12          1           0       -0.344749    0.348034    2.029969
     13          1           0       -0.147564    1.451908   -0.659543
     14          1           0       -2.946292    0.767923    0.423217
     15          1           0       -2.599471    1.758284   -1.003379
     16          1           0       -2.112683    2.323188    0.608064
     17          1           0        0.492947   -2.176533   -1.195571
     18          1           0       -1.937389   -1.831378    0.607066
 ---------------------------------------------------------------------
 Rotational constants (GHZ):           3.1182914           1.4115408           1.1645808
 Standard basis: 6-31G(2df,p) (6D, 7F)
 There are   324 symmetry adapted cartesian basis functions of A   symmetry.
 There are   297 symmetry adapted basis functions of A   symmetry.
   297 basis functions,   459 primitive gaussians,   324 cartesian basis functions
    32 alpha electrons       32 beta electrons
       nuclear repulsion energy       420.1583101945 Hartrees.
 NAtoms=   18 NActive=   18 NUniq=   18 SFac= 1.00D+00 NAtFMM=   60 NAOKFM=F Big=F
 Integral buffers will be    131072 words long.
 Raffenetti 2 integral format.
 Two-electron integral symmetry is turned on.
 One-electron integrals computed using PRISM.
 PrsmSu:  requested number of processors reduced to:  13 ShMem   1 Linda.
 NBasis=   297 RedAO= T EigKep=  1.17D-04  NBF=   297
 NBsUse=   297 1.00D-06 EigRej= -1.00D+00 NBFU=   297
 Initial guess from the checkpoint file:  "CtCC1C2CpCpN3C1C23.chk"
 B after Tr=    -0.000000    0.000000   -0.000000
         Rot=    0.999994   -0.001710    0.002265    0.002184 Ang=  -0.41 deg.
 ExpMin= 1.61D-01 ExpMax= 4.17D+03 ExpMxC= 6.27D+02 IAcc=2 IRadAn=         4 AccDes= 0.00D+00
 Harris functional with IExCor=  402 and IRadAn=       4 diagonalized for initial guess.
 HarFok:  IExCor=  402 AccDes= 0.00D+00 IRadAn=         4 IDoV= 1 UseB2=F ITyADJ=14
 ICtDFT=  3500011 ScaDFX=  1.000000  1.000000  1.000000  1.000000
 FoFCou: FMM=F IPFlag=           0 FMFlag=      100000 FMFlg1=           0
         NFxFlg=           0 DoJE=T BraDBF=F KetDBF=T FulRan=T
         wScrn=  0.000000 ICntrl=       500 IOpCl=  0 I1Cent=   200000004 NGrid=           0
         NMat0=    1 NMatS0=      1 NMatT0=    0 NMatD0=    1 NMtDS0=    0 NMtDT0=    0
 Petite list used in FoFCou.
 Requested convergence on RMS density matrix=1.00D-08 within 128 cycles.
 Requested convergence on MAX density matrix=1.00D-06.
 Requested convergence on             energy=1.00D-06.
 No special actions if energy rises.
 Integral accuracy reduced to 1.0D-05 until final iterations.
 Initial convergence to 1.0D-05 achieved.  Increase integral accuracy.
[...]
 5,-0.0224071,-0.0958514,0.0122385,-0.0914431,0.2105635,-0.0518496,0.11
 11094,-0.0253294,0.2262794,0.0641552,-0.0820872,-0.0211663,-0.0526039,
 0.0135217,0.0159038,0.0463613,0.095633,0.1329965,0.2297241,0.0076694,0
 .0118313,0.0028536,0.1963034,-0.0001867,0.0043927,-0.0013091,0.2007074
 ,-0.0837829,-0.0259985,0.0165797,-0.0094039,0.0813416,-0.0156031,0.009
 7676,-0.0174427,-0.1048836,0.0374069,0.015511,-0.0182855,-0.0167128,-0
 .1427836,0.0733578,-0.0252644,0.0530324,-0.0011456,-0.1286666,0.003952
 4,0.0750467,-0.0319428,-0.0053338,-0.0311161,0.0460176,-0.0209496,0.01
 42995,-0.114145,-0.0517806,0.0060796,-0.0127797,0.0440594,-0.0059101,0
 .0662377,0.012847,0.0315697,0.055822,-0.0250043,-0.0097143,-0.0136905,
 0.0211836,0.0611995,-0.0140373,0.0056599,-0.1308827,0.0108981,0.082062
 6,-0.011117,0.0620011,-0.1088926,-0.0494517,-0.0174388,0.0040127,0.030
 9802,0.0458269,0.0156204,-0.0503752,0.0423963,-0.0895657,-0.0351618,-0
 .0551814,-0.0215047,0.0353298,-0.1018533,-0.0095762,0.0367461,0.017033
 5,0.0436804,0.0154678,-0.0292235,0.0071149,0.0738089\Polar=99.4974739,
 4.8645852,70.6875453,5.4994914,8.0977623,72.8392783\Quadrupole=2.45863
 7,-0.5832266,-1.8754104,0.818187,-2.1471749,1.7202293\PG=C01 [X(C8H9N1
 )]\NImag=0\\1.51240393,0.13435277,0.05258487,-0.12384681,-0.01078596,0
 .05092029,-1.08769850,-0.09643192,0.08902200,1.40837666,-0.09631973,-0
 .03579069,0.00820675,0.12066408,0.09823004,0.08776891,0.00814702,-0.03
 428179,-0.11020153,-0.00896145,0.10543901,-0.00451897,-0.00049170,0.00
 173060,-0.25809297,-0.01733484,0.02053932,0.53880481,-0.00100948,0.005
 29789,0.00046383,-0.01639616,-0.07513546,0.00174725,0.00742297,0.31558
 108,-0.00074067,-0.00007603,0.00565346,0.02829701,0.00240600,-0.074226
 79,-0.02583236,0.00785217,0.56425034,0.00234147,0.00044189,-0.00015734
 ,-0.02245723,-0.01964844,-0.00867657,-0.06183949,-0.03156540,-0.008673
 88,0.31241638,0.00452859,-0.00013801,-0.00147086,-0.00761290,0.0030948
 8,0.00314540,-0.02854264,-0.10299038,-0.02382115,-0.00857436,0.6644530
 3,0.00393730,-0.00079757,-0.00114796,-0.00726132,0.00725216,0.00158798
 ,-0.00651303,-0.02236524,-0.08167521,-0.00301947,-0.12628318,0.4354808
 4,-0.00085918,0.00025331,0.00131835,0.00099994,0.00002727,-0.00254301,
 0.00782599,-0.00454354,-0.02209548,-0.06377520,-0.01906073,0.02501260,
 0.60980215,0.00021227,-0.00005547,-0.00035127,0.00017793,0.00080420,-0
 .00146939,0.00435439,-0.00192938,-0.01829318,-0.02855976,-0.05927787,0
 .02188612,0.05594542,0.40669133,0.00123781,-0.00002391,-0.00079671,-0.
 00085568,0.00107478,-0.00046950,0.00141078,-0.01309554,-0.02703525,0.0
 3012222,0.00756807,-0.15632164,-0.04570962,0.06474872,0.49497614,0.000
 35180,-0.00007510,-0.00044028,-0.00038668,0.00001236,0.00008267,-0.000
 69475,0.00062819,0.00109817,0.00192283,0.00216709,-0.00082503,-0.10764
 365,-0.03994743,-0.03538445,0.55508842,0.00028045,-0.00002164,-0.00003
 608,-0.00079537,-0.00007978,0.00016954,-0.00048031,-0.00023466,0.00465
 535,0.00620665,0.00747984,0.00373370,-0.03648407,-0.11726639,-0.046832
 15,-0.02538491,0.53100538,-0.00042331,0.00005462,0.00036618,0.00091597
 ,0.00016533,-0.00004293,0.00227967,0.00021850,-0.00500651,-0.01196390,
 -0.02206028,-0.02321872,-0.03299582,-0.05098360,-0.12995540,-0.0264311
 0,-0.03868636,0.52928245,0.00015936,-0.00025454,-0.00012647,0.00181793
 ,-0.00124636,-0.00021746,0.00130986,-0.00300090,-0.02720735,-0.0088315
 2,0.02011681,-0.00225307,-0.09999837,0.03974902,-0.03791800,0.00680829
 ,-0.00725296,0.00224659,0.22798249,-0.00041329,0.00008442,0.00024291,0
 .00008821,0.00119016,-0.00063396,-0.00833853,0.00352842,0.00266849,0.0
 2114042,-0.05920982,0.05361432,0.03217159,-0.11692549,0.02521619,0.012
 18267,-0.02864022,-0.00294702,-0.07016092,0.31725823,-0.00212894,-0.00
 026642,0.00085586,0.00211647,-0.00104022,0.00115047,0.00354033,0.00718
 290,-0.02718933,-0.00467056,0.04022386,-0.04273260,-0.00121150,-0.0201
 3879,-0.04903852,0.01332827,-0.02665051,0.00309056,-0.00783762,-0.0232
 4574,0.37735056,0.00288710,0.00018364,-0.00040674,-0.02943552,0.013718
 81,-0.01061719,-0.08740300,0.05293101,-0.02686568,0.00215284,0.0134945
 5,0.00218845,0.00738636,0.01045143,0.01419897,-0.00131459,0.00281378,-
 0.00076378,-0.04972189,0.00627083,-0.04832367,0.35579264,-0.00354329,-
 0.00048449,0.00112762,0.00046519,0.00622407,-0.00487795,0.04704559,-0.
 09716378,0.02450341,0.00445820,-0.08796818,-0.00669415,-0.01588880,-0.
 02388438,-0.02152992,0.00548341,-0.00573785,0.00225529,0.04203821,-0.0
 6171704,-0.04198380,-0.01745751,0.76390912,0.00506276,0.00130371,-0.00
 112667,-0.00640706,-0.00919816,0.00515076,-0.01982490,0.02669743,-0.08
 444256,-0.00017980,0.00671527,0.01007151,-0.00055563,-0.01622485,-0.01
 534227,0.00173062,-0.00003772,-0.00024830,-0.00895784,-0.04719875,-0.1
 2733131,0.08172674,0.08030700,0.28588984,-0.00127441,-0.00005882,0.000
 53787,-0.00556510,-0.00002418,-0.00729887,-0.06963314,-0.00659679,-0.0
 0588419,-0.10577422,0.03173699,-0.00441227,-0.05677934,0.01073548,0.03
 483707,0.00296759,-0.00063790,-0.00130409,-0.06384397,0.00754736,0.054
 47416,-0.14538895,-0.10839807,-0.03819415,0.77070598,0.00024302,0.0002
 3051,0.00024390,0.00096453,-0.00034462,0.00000044,-0.00268408,-0.00051
 983,-0.00047758,0.05485450,-0.08597266,0.00220132,0.03956008,-0.006452
 81,-0.01353856,0.00120106,-0.00180680,0.00101188,-0.03753699,-0.052795
 13,0.07072857,-0.10587950,-0.15824302,-0.04362252,0.06342625,0.3617218
 0,-0.00028688,-0.00017269,0.00018966,-0.00307974,0.00023812,-0.0006754
 3,-0.04441054,-0.00314165,-0.00383832,-0.01473280,0.01041919,-0.033383
 37,0.04327175,0.00032803,-0.03107022,-0.00044355,0.00161943,-0.0017572
 1,0.05788497,0.01589611,-0.12732405,-0.00205692,-0.00531668,-0.0112386
 6,-0.05593459,-0.02282724,0.25033828,-0.41999131,-0.03719161,0.0339490
 2,0.00643149,0.00062382,-0.00042999,0.00100442,-0.00059035,0.00058901,
 -0.00011393,-0.00015089,-0.00002559,-0.00009633,0.00000868,-0.00006599
 ,0.00001859,-0.00004161,-0.00000508,0.00003913,0.00000474,0.00007490,-
 0.00003701,0.00020358,-0.00028409,0.00007618,-0.00000013,-0.00002848,0
 .41254109,-0.03726641,-0.02207707,0.00288724,0.00070967,-0.00037192,0.
 00006576,-0.00044763,0.00665655,-0.00003492,0.00068236,-0.00021503,-0.
 00042929,-0.00007608,0.00001266,-0.00008730,-0.00000433,-0.00000327,-0
 .00000829,0.00012958,-0.00014548,0.00009350,-0.00067443,-0.00026548,0.
 00042956,-0.00005898,0.00014894,-0.00001088,0.03708600,0.01632898,0.03
 412132,0.00282824,-0.02127954,-0.00064880,0.00012875,-0.00058812,0.000
 34839,0.00002410,0.00651020,0.00044808,-0.00013862,0.00003671,-0.00014
 106,0.00002896,-0.00003449,0.00000210,-0.00000142,-0.00001559,0.000076
 72,0.00006165,-0.00018500,0.00053456,0.00025324,-0.00016222,0.00045094
 ,-0.00006371,0.00005743,-0.03384168,-0.00295324,0.01561251,-0.00177716
 ,-0.00021737,-0.00083930,-0.01686683,-0.00036244,0.03260518,-0.0642279
 9,-0.00010918,0.07106823,0.00149584,0.00119561,-0.00902903,-0.00226649
 ,0.00048223,-0.00111642,0.00016700,0.00024723,-0.00048995,-0.00173738,
 0.00104697,-0.00461595,0.00142913,-0.00275709,-0.01664949,0.00360561,0
 .00021900,0.00016738,0.00002149,-0.00005099,-0.00129664,0.07904063,-0.
 00027333,0.00049360,-0.00027449,-0.00225091,0.00027775,0.00349879,-0.0
 0078413,-0.03583229,-0.00230553,0.00328330,-0.00084200,-0.02941128,-0.
 00330244,-0.00561208,-0.00229197,0.00009383,0.00138246,-0.00154879,0.0
 0312501,-0.00212039,0.00355126,-0.00028251,0.00151419,0.02609524,-0.00
 008364,-0.00282794,-0.00087748,-0.00000401,0.00008303,-0.00017041,0.00
 039920,0.04290641,-0.00182110,-0.00016004,0.00013480,0.00629650,0.0004
 7472,-0.00073858,0.06655117,-0.00349977,-0.28484022,0.00104740,0.00023
 747,-0.01118887,-0.00196778,-0.00054274,0.00018871,0.00010722,0.000419
 37,-0.00043256,-0.00192636,0.00113825,-0.00051821,0.00124212,-0.000551
 30,-0.01544227,0.00076994,-0.00081332,0.00114696,0.00002529,-0.0000020
 2,-0.00003646,-0.07049587,0.00335367,0.31069365,-0.00065435,0.00026810
 ,0.00003195,0.00134504,-0.00061615,0.00015531,-0.00001088,-0.00962219,
 0.00888996,-0.05468021,-0.00215595,0.00492474,-0.00224387,-0.00479462,
 -0.00238424,0.00054844,-0.00014628,-0.00045418,0.00348829,0.00286614,-
 0.00499289,-0.00060390,-0.00025196,-0.00069849,0.01120396,0.00768510,-
 0.00460492,0.00000968,0.00004683,-0.00001890,0.00068227,0.00090502,0.0
 0020667,0.04015616,-0.00062319,0.00009607,0.00005804,0.00064864,-0.000
 09605,-0.00011602,0.00293519,-0.01085987,0.00744278,-0.00300689,-0.279
 56367,0.10320777,0.00134211,0.00098965,-0.00229295,-0.00008281,0.00056
 243,0.00036619,-0.00062102,-0.00150788,0.00168649,-0.00088433,-0.00488
 927,-0.00027994,-0.00642763,-0.00107745,0.00015927,0.00004172,0.000000
 32,0.00000843,0.00016699,0.00082519,-0.00017711,0.00557641,0.29584924,
 -0.00060132,0.00012062,0.00010172,0.00132235,-0.00028591,-0.00001775,0
 .00053762,-0.01524112,0.00689790,0.00462668,0.10407086,-0.09281817,-0.
 00205263,0.02089935,0.00094066,0.00029355,0.00035618,0.00225064,-0.003
 14760,0.00864216,-0.00604018,-0.00113662,-0.00400227,-0.00333182,0.001
 36926,-0.00290257,-0.00266006,0.00002005,0.00003744,-0.00002158,0.0003
 2690,0.00117603,0.00079027,-0.00178429,-0.11169545,0.09372978,-0.00012
 945,-0.00025273,-0.00093142,-0.00010807,-0.00025497,-0.00067077,-0.000
 27214,-0.00019298,0.00021094,-0.00211572,-0.00008307,0.00056636,-0.282
 55703,-0.03965988,0.04958211,-0.01125835,-0.00277072,0.00267319,-0.012
 95188,-0.00088996,0.00396741,0.00042996,0.00001013,0.00011745,-0.00233
 467,0.00170849,0.00047173,0.00000824,-0.00003781,-0.00002616,0.0001187
 0,-0.00001400,0.00006853,-0.00028456,0.00007264,0.00025544,0.31015906,
 -0.00029599,-0.00027207,-0.00015275,0.00008941,0.00020062,-0.00065650,
 0.00015696,0.00059840,-0.00165282,-0.00718788,-0.00073831,-0.00162222,
 -0.04483952,-0.06193944,0.01407029,-0.02142921,-0.00332216,0.00361083,
 0.02677456,0.00382703,-0.00714829,-0.00096988,0.00195777,0.00220021,0.
 00484792,-0.00142381,0.00006955,0.00000506,0.00001676,0.00001549,-0.00
 007997,-0.00012440,0.00009740,-0.00027786,-0.00001688,0.00045793,0.043
 41455,0.06174204,-0.00090492,0.00001772,0.00018381,0.00024561,-0.00050
 595,-0.00065288,0.00135195,0.00093396,0.00074808,0.02432731,0.00320388
 ,-0.00370327,0.04854719,0.01258499,-0.06376193,-0.02169285,-0.00505573
 ,0.00403930,0.00062574,-0.00159123,0.00018873,0.00027134,-0.00053023,-
 0.00030410,0.00356032,-0.00093575,-0.00243227,-0.00008181,0.00002142,0
 .00003420,-0.00025675,0.00027475,0.00018395,0.00064768,-0.00008233,-0.
 00113830,-0.05581748,-0.00449772,0.06764021,0.00011461,-0.00003881,-0.
 00013797,-0.00007928,0.00001950,-0.00003734,-0.00013586,0.00025798,0.0
 0000431,0.00007047,0.00030193,0.00066465,-0.01565028,-0.00230121,0.002
 55219,-0.28702625,-0.04211009,0.05556006,0.00099579,0.00043909,0.00025
 287,0.00019984,0.00024012,0.00053029,0.00069452,-0.00006847,-0.0003147
 4,0.00001723,0.00000946,0.00001800,0.00001627,-0.00005957,-0.00002610,
 -0.00004099,0.00010045,-0.00043227,0.00048698,-0.00190104,-0.00218666,
 0.31467185,0.00011182,-0.00001925,-0.00013420,-0.00011675,-0.00001580,
 0.00008303,-0.00001249,0.00013805,0.00030634,0.00030393,0.00091250,0.0
 0032699,-0.02203601,-0.00477122,0.00571472,-0.04069287,-0.05412638,0.0
 0929925,-0.00055278,0.00080080,0.00131758,0.00019509,0.00027182,0.0004
 7201,0.00066138,0.00041099,-0.00115599,0.00000876,-0.00000028,-0.00000
 308,0.00004318,-0.00004457,0.00001645,0.00020816,-0.00003800,-0.000178
 26,-0.00135679,-0.00208491,-0.00329488,0.04793168,0.05555192,0.0001336
 1,-0.00003623,-0.00014133,-0.00015945,0.00002294,0.00003718,-0.0000547
 7,0.00013856,0.00017898,-0.00064125,0.00061337,0.00101199,-0.02360135,
 -0.00325720,0.00517191,0.05684041,0.00959921,-0.06097334,0.00019398,0.
 00070337,0.00040205,-0.00005571,0.00044278,0.00044980,0.00089699,-0.00
 027059,0.00000128,0.00000475,-0.00000087,-0.00000162,0.00003307,0.0000
 1782,-0.00001449,-0.00001787,0.00017973,-0.00011972,-0.00140301,-0.003
 53482,-0.00221979,-0.05995440,-0.00812031,0.06328767,-0.00009361,-0.00
 000651,0.00005423,0.00016142,0.00000627,-0.00002903,0.00039560,0.00015
 019,-0.00080368,-0.00100888,-0.00181701,-0.00074502,0.00044586,0.00654
 856,-0.01453332,-0.04784966,-0.00635497,0.01412811,0.00062931,-0.00029
 755,0.00080868,-0.00019058,0.00018649,0.00019599,0.00003353,-0.0000652
 1,0.00028205,0.00000723,0.00000055,-0.00001430,-0.00007174,-0.00022751
 ,-0.00007705,-0.00011554,0.00006754,-0.00003299,0.00025734,0.00066389,
 0.00031720,-0.00091809,-0.01214583,0.02911718,0.04803419,-0.00010552,0
 .00000407,0.00003296,0.00020909,0.00003312,-0.00001022,0.00033852,0.00
 010157,-0.00137525,-0.00194291,-0.00296570,-0.00213960,0.00252318,0.00
 785955,-0.02253720,-0.00600066,-0.08478724,0.09491067,-0.00012755,0.00
 234382,0.00164550,-0.00012773,0.00034647,-0.00006050,-0.00040000,0.000
 43427,-0.00019566,0.00000454,0.00000003,-0.00000392,-0.00018742,-0.000
 50238,-0.00018425,-0.00001896,-0.00000556,-0.00017345,0.00035794,0.000
 68574,0.00081433,0.00033734,-0.00265288,0.00384568,0.00788152,0.089324
 62,-0.00021110,-0.00001016,0.00005396,0.00023471,0.00000062,-0.0000343
 1,0.00063114,0.00030601,-0.00123872,-0.00353841,-0.00308156,-0.0004025
 1,0.00244439,0.00761380,-0.02247174,0.01389282,0.09328236,-0.27149335,
 0.00052084,0.00083273,0.00201406,-0.00020344,-0.00006113,-0.00010143,-
 0.00049082,0.00056189,0.00036687,0.00003121,0.00000918,-0.00001429,-0.
 00008040,-0.00052262,-0.00009054,0.00006329,0.00003108,0.00016517,-0.0
 0028932,-0.00011165,0.00089913,0.00010688,0.00232215,-0.00573447,-0.01
 316293,-0.10069652,0.29717385,-0.00002539,0.00000599,0.00002627,-0.000
 00770,0.00003421,0.00002330,-0.00002351,-0.00006148,0.00033394,0.00017
 790,0.00064726,0.00019493,0.00687213,-0.01276320,0.00145347,-0.1110802
 5,0.11302012,-0.00291172,-0.00081607,-0.00218380,-0.00179938,0.0007238
 5,-0.00069509,-0.00007305,-0.00000629,0.00024727,-0.00045454,-0.000004
 42,-0.00000758,-0.00000917,-0.00000086,0.00004630,0.00003538,-0.000002
 79,0.00006879,0.00015639,0.00048964,0.00048022,0.00069838,-0.01389892,
 0.02719441,-0.00140795,0.00022750,-0.00280667,0.00002704,0.11712406,-0
 .00017780,0.00003265,0.00003289,0.00006668,0.00004253,-0.00000786,0.00
 004311,-0.00013972,-0.00010225,0.00013299,0.00057634,0.00046873,0.0122
 2971,-0.01737733,0.00234931,0.11178829,-0.24473397,0.00434857,-0.00297
 451,-0.00214613,-0.00396846,0.00055107,-0.00111952,0.00050318,-0.00042
 894,0.00041081,0.00066901,0.00001740,-0.00002410,-0.00001379,-0.000092
 73,0.00008473,-0.00002485,0.00003005,0.00017149,-0.00059623,-0.0005492
 6,0.00054615,0.00038579,-0.00317636,0.00594176,-0.00012310,0.00557182,
 -0.01009565,-0.00032362,-0.12316749,0.26767585,-0.00004452,0.00001679,
 0.00000214,-0.00002725,0.00003415,-0.00000706,-0.00007463,-0.00005679,
 0.00031448,0.00071274,0.00026327,0.00164948,0.01295630,-0.01784924,-0.
 00003534,-0.00337857,0.00526099,-0.04675557,-0.00185585,-0.00297466,-0
 .00383652,0.00052242,-0.00189770,0.00023310,-0.00078167,-0.00021643,0.
 00109860,0.,-0.00000939,0.00000399,0.00002037,0.00009696,0.00002275,-0
 .00000322,0.00035168,-0.00035294,-0.00009407,0.00073048,0.00066444,0.0
 0350125,-0.00673356,-0.00100049,-0.01552889,0.02597028,0.00078369,0.00
 409221,-0.00304699,0.04787162,-0.00095851,-0.00048633,0.00017734,0.001
 98311,0.00108663,0.00019066,-0.00016227,0.01213368,0.00672022,-0.00046
 331,0.00011207,-0.00368698,0.00026878,0.00003235,0.00255019,-0.0001950
 3,0.00012767,0.00003819,-0.00299488,0.00198747,-0.00382485,-0.05287271
 ,0.04422377,-0.00165472,0.00899214,-0.01568379,-0.00322524,0.00003962,
 -0.00006164,-0.00003509,0.00047477,-0.00067954,0.00012011,0.00132775,0
 .00033246,0.00039097,0.00006942,0.00023312,-0.00024872,0.00009920,0.00
 010106,0.00004392,-0.00005262,0.00003264,0.00001096,0.00016023,0.00009
 076,-0.00000254,0.04355961,0.00030314,0.00004690,-0.00002536,-0.000009
 45,0.00015234,0.00002603,-0.00384550,-0.00428252,-0.00236369,0.0012154
 9,-0.00380875,0.00096411,-0.00081886,0.00036739,0.00158093,0.00006201,
 -0.00002633,0.00014954,-0.00227596,-0.00150443,-0.00199123,0.04249994,
 -0.33706988,-0.03408153,0.00682993,-0.00536728,-0.00215647,-0.00002906
 ,-0.00002880,-0.00001426,0.00007841,-0.00002559,0.00030722,0.00027094,
 -0.00039441,-0.00097328,0.00001090,0.00010690,-0.00012886,0.00001868,0
 .00003034,0.00002878,-0.00003892,0.00000240,-0.00005366,0.00001204,0.0
 0007216,-0.00004658,-0.04426108,0.35086782,-0.00067697,-0.00012431,0.0
 0010360,0.00132139,0.00001500,-0.00005411,0.00137702,0.01279721,0.0036
 2665,-0.00155987,0.00452835,-0.00150485,-0.00499806,-0.00151866,-0.003
 26414,0.00135658,-0.00188757,0.00070608,0.00647414,-0.02836389,-0.0048
 0734,-0.00077549,-0.02843210,-0.04011281,-0.00417990,0.00510968,-0.004
 14170,0.00004814,-0.00000429,-0.00000505,0.00054227,-0.00067410,0.0002
 9864,-0.00015953,0.00102289,0.00120939,0.00013369,0.00016233,-0.000040
 31,-0.00002978,0.00005485,0.00000376,0.00004459,0.00010617,0.00007196,
 -0.00025420,-0.00050727,-0.00063264,0.00153903,0.03843637,0.04791945,-
 0.00027743,-0.00000026,0.00003870,-0.00041770,-0.00038585,-0.00064358,
 -0.00232570,0.00016443,0.00089150,0.00048199,-0.00630336,0.00028176,-0
 .00173147,-0.00067164,0.00002293,-0.00042375,-0.00023672,-0.00009885,-
 0.00233448,-0.00346143,0.00084228,-0.00403356,0.00463713,0.00411538,-0
 .34767942,-0.00819113,0.02749504,0.00002863,0.00002145,0.00003170,-0.0
 0010325,0.00010892,-0.00015607,-0.00012450,0.00029293,-0.00011150,-0.0
 0000746,0.00031565,0.00059649,0.00038291,0.00015406,0.00003183,0.00010
 874,0.00003264,0.00001314,0.00009090,0.00004520,-0.00001408,0.00072471
 ,-0.00002265,-0.00020303,0.35764085,-0.00000402,-0.00001228,-0.0000651
 8,-0.00046998,0.00158460,-0.00014991,0.00066513,-0.00281407,0.00066787
 ,0.00776591,0.00717377,-0.00391268,0.00299738,-0.00123292,-0.00009352,
 -0.00000159,0.00035659,-0.00015632,-0.00592870,-0.00232085,0.00000379,
 -0.01683427,0.00431945,0.00598036,-0.00267036,-0.04652596,0.00645603,0
 .00000335,-0.00011582,0.00001359,-0.00002164,0.00036427,-0.00008917,0.
 00002722,-0.00004536,0.00028796,0.00048755,0.00024057,-0.00161416,-0.0
 0000068,-0.00030488,-0.00024912,-0.00012332,-0.00012625,-0.00009889,-0
 .00007131,0.00008195,0.00010672,0.00067872,0.00086175,-0.00072065,0.01
 350061,0.03851540,-0.00057518,-0.00003540,0.00020852,-0.00113119,-0.00
 002762,-0.00157615,-0.00358777,-0.00096182,0.00131281,-0.00347058,-0.0
 0413335,-0.00174134,0.00432137,0.00253897,-0.00168028,-0.00013656,0.00
 009140,0.00016430,0.02342462,-0.00206092,0.00395075,-0.00947935,0.0069
 8790,-0.00261056,0.02158402,0.00581057,-0.03467779,0.00002035,-0.00000
 362,0.00008893,0.00010640,0.00001215,-0.00015752,0.00019893,0.00012945
 ,0.00041497,0.00118537,-0.00203774,-0.00032900,-0.00007124,-0.00029310
 ,-0.00033938,-0.00002081,0.00005097,0.00005268,-0.00013128,-0.00004306
 ,-0.00002373,0.00089656,0.00034195,0.00062342,-0.03313365,-0.00636673,
 0.03631937\\-0.00018483,-0.00002752,0.00007866,0.00003905,0.00000357,-
 0.00010353,0.00026040,-0.00017534,0.00009864,0.00022528,-0.00010138,0.
 00014450,-0.00013488,0.00005618,-0.00014367,0.00004138,0.00001636,0.00
 006930,0.00005595,-0.00010384,0.00000949,-0.00017169,0.00012492,0.0000
 0844,-0.00008878,0.00020880,-0.00007330,-0.00001481,0.00000360,-0.0000
 2463,-0.00004671,0.00004365,0.00000554,-0.00002285,0.00002377,-0.00002
 552,0.00002582,0.00001431,0.00002043,-0.00000463,-0.00000214,-0.000009
 71,-0.00000548,-0.00000988,-0.00001721,-0.00000805,-0.00000913,-0.0000
 1729,0.00002695,-0.00001438,-0.00002130,0.00000787,-0.00005157,0.00000
 116\\\@


 AND THIS OUR LIFE, EXEMPT FROM PUBLIC HAUNT,
 FINDS TONGUES IN TREES, BOOKS IN THE RUNNING BROOKS,
 SERMONS IN STONES, AND GOOD IN EVERYTHING.
 I WOULD NOT CHANGE IT. -- W. SHAKESPEARE
 AS YOU LIKE IT, ACT II, SCENE 1.
 Job cpu time:       0 days  1 hours 58 minutes 48.0 seconds.
 Elapsed time:       0 days  0 hours 29 minutes 42.7 seconds.
 File lengths (MBytes):  RWF=    126 Int=      0 D2E=      0 Chk=      8 Scr=      1
 Normal termination of Gaussian 16 at Tue Mar  9 01:46:06 2021.
### All Done ###
