### Starting Gaussian ###
 Entering Gaussian System, Link 0=g16
 Initial command:
 /cluster/software/gaussian/gaussian-16-A.03/avx2/g16/l1.exe "/local/scratch/ks29c/Gau-2354.inp" -scrdir="/local/scratch/ks29c/"
 Entering Link 1 = /cluster/software/gaussian/gaussian-16-A.03/avx2/g16/l1.exe PID=      2355.
  
 Copyright (c) 1988,1990,1992,1993,1995,1998,2003,2009,2016,
            Gaussian, Inc.  All Rights Reserved.
  
 This is part of the Gaussian(R) 16 program.  It is based on
 the Gaussian(R) 09 system (copyright 2009, Gaussian, Inc.),
 the Gaussian(R) 03 system (copyright 2003, Gaussian, Inc.),
 the Gaussian(R) 98 system (copyright 1998, Gaussian, Inc.),
 the Gaussian(R) 94 system (copyright 1995, Gaussian, Inc.),
 the Gaussian 92(TM) system (copyright 1992, Gaussian, Inc.),
 the Gaussian 90(TM) system (copyright 1990, Gaussian, Inc.),
 the Gaussian 88(TM) system (copyright 1988, Gaussian, Inc.),
 the Gaussian 86(TM) system (copyright 1986, Carnegie Mellon
 University), and the Gaussian 82(TM) system (copyright 1983,
 Carnegie Mellon University). Gaussian is a federally registered
 trademark of Gaussian, Inc.
  
 This software contains proprietary and confidential information,
 including trade secrets, belonging to Gaussian, Inc.
  
 This software is provided under written license and may be
 used, copied, transmitted, or stored only in accord with that
 written license.
  
 The following legend is applicable only to US Government
 contracts under FAR:
  
                    RESTRICTED RIGHTS LEGEND
  
 Use, reproduction and disclosure by the US Government is
 subject to restrictions as set forth in subparagraphs (a)
 and (c) of the Commercial Computer Software - Restricted
 Rights clause in FAR 52.227-19.
  
 Gaussian, Inc.
 340 Quinnipiac St., Bldg. 40, Wallingford CT 06492
  
  
 ---------------------------------------------------------------
 Warning -- This program may not be used in any manner that
 competes with the business of Gaussian, Inc. or will provide
 assistance to any competitor of Gaussian, Inc.  The licensee
 of this program is prohibited from giving any competitor of
 Gaussian, Inc. access to this program.  By using this program,
 the user acknowledges that Gaussian, Inc. is engaged in the
 business of creating and licensing software in the field of
 computational chemistry and represents and warrants to the
 licensee that it is not a competitor of Gaussian, Inc. and that
 it will not use this program in any manner prohibited above.
 ---------------------------------------------------------------
  

 Cite this work as:
 Gaussian 16, Revision A.03,
 M. J. Frisch, G. W. Trucks, H. B. Schlegel, G. E. Scuseria, 
 M. A. Robb, J. R. Cheeseman, G. Scalmani, V. Barone, 
 G. A. Petersson, H. Nakatsuji, X. Li, M. Caricato, A. V. Marenich, 
 J. Bloino, B. G. Janesko, R. Gomperts, B. Mennucci, H. P. Hratchian, 
 J. V. Ortiz, A. F. Izmaylov, J. L. Sonnenberg, D. Williams-Young, 
 F. Ding, F. Lipparini, F. Egidi, J. Goings, B. Peng, A. Petrone, 
 T. Henderson, D. Ranasinghe, V. G. Zakrzewski, J. Gao, N. Rega, 
 G. Zheng, W. Liang, M. Hada, M. Ehara, K. Toyota, R. Fukuda, 
 J. Hasegawa, M. Ishida, T. Nakajima, Y. Honda, O. Kitao, H. Nakai, 
 T. Vreven, K. Throssell, J. A. Montgomery, Jr., J. E. Peralta, 
 F. Ogliaro, M. J. Bearpark, J. J. Heyd, E. N. Brothers, K. N. Kudin, 
 V. N. Staroverov, T. A. Keith, R. Kobayashi, J. Normand, 
 K. Raghavachari, A. P. Rendell, J. C. Burant, S. S. Iyengar, 
 J. Tomasi, M. Cossi, J. M. Millam, M. Klene, C. Adamo, R. Cammi, 
 J. W. Ochterski, R. L. Martin, K. Morokuma, O. Farkas, 
 J. B. Foresman, and D. J. Fox, Gaussian, Inc., Wallingford CT, 2016.
 
 ******************************************
 Gaussian 16:  ES64L-G16RevA.03 25-Dec-2016
                 9-Mar-2021 
 ******************************************
 %chk=CtCCCCpCppCpCC.chk
 %NProcShared=20
 Will use up to   20 processors via shared memory.
 -----------------------------
 # opt freq b3lyp/6-31g(2df,p)
 -----------------------------
 1/18=20,19=15,26=3,38=1/1,3;
 2/9=110,12=2,17=6,18=5,40=1/2;
 3/5=1,6=6,7=104,11=2,25=1,30=1,71=1,74=-5/1,2,3;
 4//1;
 5/5=2,38=5/2;
 6/7=2,8=2,9=2,10=2,28=1/1;
 7//1,2,3,16;
 1/18=20,19=15,26=3/3(2);
 2/9=110/2;
 99//99;
 2/9=110/2;
 3/5=1,6=6,7=104,11=2,25=1,30=1,71=1,74=-5/1,2,3;
 4/5=5,16=3,69=1/1;
 5/5=2,38=5/2;
 7//1,2,3,16;
 1/18=20,19=15,26=3/3(-5);
 2/9=110/2;
 6/7=2,8=2,9=2,10=2,19=2,28=1/1;
 99/9=1/99;
 -------------------
 Title Card Required
 -------------------
 Symbolic Z-matrix:
 Charge =  0 Multiplicity = 1
 C                     1.06851   0.07102  -0.0162 
 C                     2.37237   0.07102  -0.0162 
 C                     3.89237   0.07102  -0.0162 
 C                     4.45847   0.38106  -1.38993 
 C                     6.0109    0.37996  -1.38505 
 C                     6.51728   1.45407  -0.40097 
 C                     6.51728  -1.01271  -0.9577 
 C                     6.49874   0.70434  -2.82233 
 C                     8.01669   0.73797  -2.97133 
 H                     0.00289   0.07105  -0.01634 
 H                     4.19354  -0.91726   0.34153 
 H                     4.19354   0.80985   0.73132 
 H                     4.08059   1.35576  -1.72788 
 H                     4.08059  -0.35401  -2.11377 
 H                     6.20082   1.2575    0.62827 
 H                     6.14386   2.44426  -0.68127 
 H                     7.60965   1.49692  -0.36479 
 H                     6.20082  -1.27725   0.05619 
 H                     7.60964  -1.06694  -0.94343 
 H                     6.14386  -1.78652  -1.63612 
 H                     6.09678   1.6754   -3.13676 
 H                     6.09678  -0.03755  -3.52336 
 H                     8.46618   1.50251  -2.33428 
 H                     8.29029   0.97135  -4.00539 
 H                     8.46618  -0.22608  -2.72441 
 

 GradGradGradGradGradGradGradGradGradGradGradGradGradGradGradGradGradGrad
 Berny optimization.
 Initialization pass.
                           ----------------------------
                           !    Initial Parameters    !
                           ! (Angstroms and Degrees)  !
 --------------------------                            --------------------------
 ! Name  Definition              Value          Derivative Info.                !
 --------------------------------------------------------------------------------
 ! R1    R(1,2)                  1.3039         estimate D2E/DX2                !
 ! R2    R(1,10)                 1.0656         estimate D2E/DX2                !
 ! R3    R(2,3)                  1.52           estimate D2E/DX2                !
 ! R4    R(3,4)                  1.5178         estimate D2E/DX2                !
 ! R5    R(3,11)                 1.0933         estimate D2E/DX2                !
 ! R6    R(3,12)                 1.0933         estimate D2E/DX2                !
 ! R7    R(4,5)                  1.5524         estimate D2E/DX2                !
 ! R8    R(4,13)                 1.0987         estimate D2E/DX2                !
 ! R9    R(4,14)                 1.0987         estimate D2E/DX2                !
 ! R10   R(5,6)                  1.5423         estimate D2E/DX2                !
 ! R11   R(5,7)                  1.5423         estimate D2E/DX2                !
 ! R12   R(5,8)                  1.5521         estimate D2E/DX2                !
 ! R13   R(6,15)                 1.0946         estimate D2E/DX2                !
 ! R14   R(6,16)                 1.0948         estimate D2E/DX2                !
 ! R15   R(6,17)                 1.0938         estimate D2E/DX2                !
 ! R16   R(7,18)                 1.0946         estimate D2E/DX2                !
 ! R17   R(7,19)                 1.0938         estimate D2E/DX2                !
 ! R18   R(7,20)                 1.0948         estimate D2E/DX2                !
 ! R19   R(8,9)                  1.5256         estimate D2E/DX2                !
 ! R20   R(8,21)                 1.097          estimate D2E/DX2                !
 ! R21   R(8,22)                 1.097          estimate D2E/DX2                !
 ! R22   R(9,23)                 1.092          estimate D2E/DX2                !
 ! R23   R(9,24)                 1.0948         estimate D2E/DX2                !
 ! R24   R(9,25)                 1.092          estimate D2E/DX2                !
 ! A1    A(2,3,4)              111.8991         estimate D2E/DX2                !
 ! A2    A(2,3,11)             105.9895         estimate D2E/DX2                !
 ! A3    A(2,3,12)             105.9896         estimate D2E/DX2                !
 ! A4    A(4,3,11)             112.2122         estimate D2E/DX2                !
 ! A5    A(4,3,12)             112.212          estimate D2E/DX2                !
 ! A6    A(11,3,12)            108.1346         estimate D2E/DX2                !
 ! A7    A(3,4,5)              111.7145         estimate D2E/DX2                !
 ! A8    A(3,4,13)             109.3504         estimate D2E/DX2                !
 ! A9    A(3,4,14)             109.3506         estimate D2E/DX2                !
 ! A10   A(5,4,13)             110.2149         estimate D2E/DX2                !
 ! A11   A(5,4,14)             110.2147         estimate D2E/DX2                !
 ! A12   A(13,4,14)            105.8198         estimate D2E/DX2                !
 ! A13   A(4,5,6)              109.2596         estimate D2E/DX2                !
 ! A14   A(4,5,7)              109.2593         estimate D2E/DX2                !
 ! A15   A(4,5,8)              108.1346         estimate D2E/DX2                !
 ! A16   A(6,5,7)              110.1384         estimate D2E/DX2                !
 ! A17   A(6,5,8)              110.0063         estimate D2E/DX2                !
 ! A18   A(7,5,8)              110.0061         estimate D2E/DX2                !
 ! A19   A(5,6,15)             112.3329         estimate D2E/DX2                !
 ! A20   A(5,6,16)             110.7668         estimate D2E/DX2                !
 ! A21   A(5,6,17)             112.1044         estimate D2E/DX2                !
 ! A22   A(15,6,16)            107.7322         estimate D2E/DX2                !
 ! A23   A(15,6,17)            105.3471         estimate D2E/DX2                !
 ! A24   A(16,6,17)            108.2815         estimate D2E/DX2                !
 ! A25   A(5,7,18)             112.3324         estimate D2E/DX2                !
 ! A26   A(5,7,19)             112.104          estimate D2E/DX2                !
 ! A27   A(5,7,20)             110.7668         estimate D2E/DX2                !
 ! A28   A(18,7,19)            105.3473         estimate D2E/DX2                !
 ! A29   A(18,7,20)            107.7325         estimate D2E/DX2                !
 ! A30   A(19,7,20)            108.2819         estimate D2E/DX2                !
 ! A31   A(5,8,9)              114.0655         estimate D2E/DX2                !
 ! A32   A(5,8,21)             109.5883         estimate D2E/DX2                !
 ! A33   A(5,8,22)             109.5884         estimate D2E/DX2                !
 ! A34   A(9,8,21)             108.4859         estimate D2E/DX2                !
 ! A35   A(9,8,22)             108.4859         estimate D2E/DX2                !
 ! A36   A(21,8,22)            106.3331         estimate D2E/DX2                !
 ! A37   A(8,9,23)             111.5936         estimate D2E/DX2                !
 ! A38   A(8,9,24)             110.2182         estimate D2E/DX2                !
 ! A39   A(8,9,25)             111.5934         estimate D2E/DX2                !
 ! A40   A(23,9,24)            107.3918         estimate D2E/DX2                !
 ! A41   A(23,9,25)            108.4675         estimate D2E/DX2                !
 ! A42   A(24,9,25)            107.3918         estimate D2E/DX2                !
 ! A43   L(2,1,10,14,-1)       179.9929         estimate D2E/DX2                !
 ! A44   L(1,2,3,14,-1)        180.0            estimate D2E/DX2                !
 ! A45   L(2,1,10,14,-2)       180.0053         estimate D2E/DX2                !
 ! A46   L(1,2,3,14,-2)        180.0            estimate D2E/DX2                !
 ! D1    D(2,3,4,5)            179.9999         estimate D2E/DX2                !
 ! D2    D(2,3,4,13)            57.7199         estimate D2E/DX2                !
 ! D3    D(2,3,4,14)           -57.72           estimate D2E/DX2                !
 ! D4    D(11,3,4,5)           -60.999          estimate D2E/DX2                !
 ! D5    D(11,3,4,13)          176.7209         estimate D2E/DX2                !
 ! D6    D(11,3,4,14)           61.2811         estimate D2E/DX2                !
 ! D7    D(12,3,4,5)            60.9989         estimate D2E/DX2                !
 ! D8    D(12,3,4,13)          -61.2811         estimate D2E/DX2                !
 ! D9    D(12,3,4,14)         -176.721          estimate D2E/DX2                !
 ! D10   D(3,4,5,6)            -60.2786         estimate D2E/DX2                !
 ! D11   D(3,4,5,7)             60.2788         estimate D2E/DX2                !
 ! D12   D(3,4,5,8)            179.9999         estimate D2E/DX2                !
 ! D13   D(13,4,5,6)            61.5044         estimate D2E/DX2                !
 ! D14   D(13,4,5,7)          -177.9382         estimate D2E/DX2                !
 ! D15   D(13,4,5,8)           -58.2171         estimate D2E/DX2                !
 ! D16   D(14,4,5,6)           177.9381         estimate D2E/DX2                !
 ! D17   D(14,4,5,7)           -61.5045         estimate D2E/DX2                !
 ! D18   D(14,4,5,8)            58.2166         estimate D2E/DX2                !
 ! D19   D(4,5,6,15)            61.8949         estimate D2E/DX2                !
 ! D20   D(4,5,6,16)           -58.6304         estimate D2E/DX2                !
 ! D21   D(4,5,6,17)          -179.7019         estimate D2E/DX2                !
 ! D22   D(7,5,6,15)           -58.1236         estimate D2E/DX2                !
 ! D23   D(7,5,6,16)          -178.649          estimate D2E/DX2                !
 ! D24   D(7,5,6,17)            60.2795         estimate D2E/DX2                !
 ! D25   D(8,5,6,15)          -179.5442         estimate D2E/DX2                !
 ! D26   D(8,5,6,16)            59.9305         estimate D2E/DX2                !
 ! D27   D(8,5,6,17)           -61.1411         estimate D2E/DX2                !
 ! D28   D(4,5,7,18)           -61.8952         estimate D2E/DX2                !
 ! D29   D(4,5,7,19)           179.7021         estimate D2E/DX2                !
 ! D30   D(4,5,7,20)            58.6303         estimate D2E/DX2                !
 ! D31   D(6,5,7,18)            58.1235         estimate D2E/DX2                !
 ! D32   D(6,5,7,19)           -60.2793         estimate D2E/DX2                !
 ! D33   D(6,5,7,20)           178.649          estimate D2E/DX2                !
 ! D34   D(8,5,7,18)           179.5442         estimate D2E/DX2                !
 ! D35   D(8,5,7,19)            61.1414         estimate D2E/DX2                !
 ! D36   D(8,5,7,20)           -59.9303         estimate D2E/DX2                !
 ! D37   D(4,5,8,9)            180.0            estimate D2E/DX2                !
 ! D38   D(4,5,8,21)            58.1625         estimate D2E/DX2                !
 ! D39   D(4,5,8,22)           -58.1627         estimate D2E/DX2                !
 ! D40   D(6,5,8,9)             60.7496         estimate D2E/DX2                !
 ! D41   D(6,5,8,21)           -61.0878         estimate D2E/DX2                !
 ! D42   D(6,5,8,22)          -177.413          estimate D2E/DX2                !
 ! D43   D(7,5,8,9)            -60.75           estimate D2E/DX2                !
 ! D44   D(7,5,8,21)           177.4125         estimate D2E/DX2                !
 ! D45   D(7,5,8,22)            61.0874         estimate D2E/DX2                !
 ! D46   D(5,8,9,23)           -60.7681         estimate D2E/DX2                !
 ! D47   D(5,8,9,24)          -179.9998         estimate D2E/DX2                !
 ! D48   D(5,8,9,25)            60.7686         estimate D2E/DX2                !
 ! D49   D(21,8,9,23)           61.6747         estimate D2E/DX2                !
 ! D50   D(21,8,9,24)          -57.557          estimate D2E/DX2                !
 ! D51   D(21,8,9,25)         -176.7885         estimate D2E/DX2                !
 ! D52   D(22,8,9,23)          176.789          estimate D2E/DX2                !
 ! D53   D(22,8,9,24)           57.5573         estimate D2E/DX2                !
 ! D54   D(22,8,9,25)          -61.6743         estimate D2E/DX2                !
 --------------------------------------------------------------------------------
 Trust Radius=3.00D-01 FncErr=1.00D-07 GrdErr=1.00D-06 EigMax=2.50D+02 EigMin=1.00D-04
 Number of steps in this run=    134 maximum allowed number of steps=    150.
 GradGradGradGradGradGradGradGradGradGradGradGradGradGradGradGradGradGrad

                          Input orientation:                          
 ---------------------------------------------------------------------
 Center     Atomic      Atomic             Coordinates (Angstroms)
 Number     Number       Type             X           Y           Z
 ---------------------------------------------------------------------
      1          6           0        1.068510    0.071020   -0.016200
      2          6           0        2.372370    0.071020   -0.016200
      3          6           0        3.892370    0.071020   -0.016200
      4          6           0        4.458470    0.381060   -1.389930
      5          6           0        6.010900    0.379960   -1.385050
      6          6           0        6.517280    1.454070   -0.400970
      7          6           0        6.517280   -1.012710   -0.957700
      8          6           0        6.498740    0.704340   -2.822330
      9          6           0        8.016690    0.737970   -2.971330
     10          1           0        0.002890    0.071050   -0.016340
     11          1           0        4.193540   -0.917260    0.341530
     12          1           0        4.193540    0.809850    0.731320
     13          1           0        4.080590    1.355760   -1.727880
     14          1           0        4.080590   -0.354010   -2.113770
     15          1           0        6.200820    1.257500    0.628270
     16          1           0        6.143860    2.444260   -0.681270
     17          1           0        7.609650    1.496920   -0.364790
     18          1           0        6.200820   -1.277250    0.056190
     19          1           0        7.609640   -1.066940   -0.943430
     20          1           0        6.143860   -1.786520   -1.636120
     21          1           0        6.096780    1.675400   -3.136760
     22          1           0        6.096780   -0.037550   -3.523360
     23          1           0        8.466180    1.502510   -2.334280
     24          1           0        8.290290    0.971350   -4.005390
     25          1           0        8.466180   -0.226080   -2.724410
 ---------------------------------------------------------------------
                    Distance matrix (angstroms):
                    1          2          3          4          5
     1  C    0.000000
     2  C    1.303860   0.000000
     3  C    2.823860   1.520000   0.000000
     4  C    3.670843   2.516957   1.517804   0.000000
     5  C    5.137744   3.899756   2.541134   1.552438   0.000000
     6  C    5.634711   4.386474   2.991827   2.523508   1.542254
     7  C    5.634713   4.386476   2.991830   2.523513   1.542264
     8  C    6.145149   5.030148   3.881833   2.513758   1.552090
     9  C    7.579896   6.405932   5.117385   3.910133   2.582179
    10  H    1.065620   2.369480   3.889480   4.672799   6.169682
    11  H    3.297041   2.102695   1.093330   2.180316   2.822526
    12  H    3.297039   2.102693   1.093325   2.180310   2.822521
    13  H    3.695001   2.738324   2.148449   1.098655   2.189935
    14  H    3.695007   2.738333   2.148459   1.098665   2.189941
    15  H    5.306947   4.059570   2.674326   2.806610   2.204451
    16  H    5.642142   4.505410   3.338232   2.756725   2.185022
    17  H    6.703821   5.439100   3.996608   3.496568   2.201030
    18  H    5.306946   4.059569   2.674325   2.806606   2.204447
    19  H    6.703812   5.439091   3.996599   3.496561   2.201026
    20  H    5.642143   4.505411   3.338233   2.756729   2.185029
    21  H    6.131511   5.116948   4.143833   2.722277   2.180373
    22  H    6.131514   5.116951   4.143837   2.722282   2.180381
    23  H    7.883412   6.675116   5.323758   4.267457   2.861740
    24  H    8.299297   7.193470   6.005492   4.676742   3.523002
    25  H    7.883412   6.675117   5.323759   4.267458   2.861742
                    6          7          8          9         10
     6  C    0.000000
     7  C    2.528824   0.000000
     8  C    2.534842   2.534847   0.000000
     9  C    3.060683   3.060689   1.525616   0.000000
    10  H    6.670679   6.670680   7.104274   8.567248   0.000000
    11  H    3.402099   2.663996   4.237162   5.322716   4.320460
    12  H    2.663995   3.402100   4.237158   5.322712   4.320459
    13  H    2.776295   3.484291   2.733060   4.173813   4.605159
    14  H    3.484293   2.776300   2.733059   4.173813   4.605163
    15  H    1.094587   2.787347   3.507333   4.065023   6.343305
    16  H    1.094754   3.488051   2.781618   3.415156   6.617082
    17  H    1.093809   2.800546   2.811015   2.745130   7.747085
    18  H    2.787338   1.094578   3.507326   4.065018   6.343304
    19  H    2.800536   1.093798   2.811013   2.745135   7.747074
    20  H    3.488046   1.094750   2.781621   3.415161   6.617081
    21  H    2.776752   3.485837   1.096994   2.142941   7.031817
    22  H    3.485838   2.776755   1.097003   2.142947   7.031819
    23  H    2.745586   3.466917   2.178552   1.091969   8.890962
    24  H    4.045791   4.045797   2.163464   1.094807   9.241432
    25  H    3.466913   2.745590   2.178552   1.091972   8.890962
                   11         12         13         14         15
    11  H    0.000000
    12  H    1.770549   0.000000
    13  H    3.076010   2.521595   0.000000
    14  H    2.521608   3.076014   1.752776   0.000000
    15  H    2.973378   2.059170   3.171194   3.822450   0.000000
    16  H    4.018667   2.910405   2.556816   3.760247   1.768202
    17  H    4.242282   3.652852   3.785790   4.351912   1.740199
    18  H    2.059171   2.973375   3.822437   3.171194   2.598506
    19  H    3.652843   4.242271   4.351900   3.785784   3.139751
    20  H    2.910406   4.018664   3.760243   2.556818   3.794307
    21  H    4.737374   4.396992   2.480350   3.038097   3.789580
    22  H    4.396997   4.737374   3.038105   2.480345   4.350174
    23  H    5.592021   5.304068   4.429747   4.767462   3.737457
    24  H    6.264657   6.264652   4.801708   4.801706   5.091029
    25  H    5.304071   5.592019   4.767462   4.429746   4.309678
                   16         17         18         19         20
    16  H    0.000000
    17  H    1.773740   0.000000
    18  H    3.794302   3.139752   0.000000
    19  H    3.813891   2.628346   1.740185   0.000000
    20  H    4.337192   3.813895   1.768195   1.773732   0.000000
    21  H    2.573479   3.162981   4.350160   3.823594   3.773464
    22  H    3.773470   3.823603   3.789572   3.162978   2.573478
    23  H    3.002083   2.147688   4.309671   3.044700   4.086357
    24  H    4.222132   3.740784   5.091023   3.740790   4.222138
    25  H    4.086356   3.044697   3.737452   2.147696   3.002086
                   21         22         23         24         25
    21  H    0.000000
    22  H    1.756035   0.000000
    23  H    2.507573   3.065902   0.000000
    24  H    2.462050   2.462056   1.762293   0.000000
    25  H    3.065895   2.507573   1.772068   1.762296   0.000000
 Stoichiometry    C9H16
 Framework group  C1[X(C9H16)]
 Deg. of freedom    69
 Full point group                 C1      NOp   1
 Largest Abelian subgroup         C1      NOp   1
 Largest concise Abelian subgroup C1      NOp   1
                         Standard orientation:                         
 ---------------------------------------------------------------------
 Center     Atomic      Atomic             Coordinates (Angstroms)
 Number     Number       Type             X           Y           Z
 ---------------------------------------------------------------------
      1          6           0        4.283208   -0.581210   -0.000001
      2          6           0        3.087390   -0.061527    0.000001
      3          6           0        1.693343    0.544303    0.000003
      4          6           0        0.612849   -0.521652   -0.000001
      5          6           0       -0.808948    0.101692    0.000003
      6          6           0       -0.985014    0.967033    1.264413
      7          6           0       -0.985014    0.967044   -1.264412
      8          6           0       -1.843633   -1.055206   -0.000004
      9          6           0       -3.296682   -0.590283    0.000000
     10          1           0        5.260471   -1.006068   -0.000005
     11          1           0        1.642931    1.183928   -0.885271
     12          1           0        1.642929    1.183917    0.885278
     13          1           0        0.742496   -1.171414    0.876381
     14          1           0        0.742493   -1.171415   -0.876395
     15          1           0       -0.277367    1.801384    1.299260
     16          1           0       -0.838403    0.367497    2.168597
     17          1           0       -1.976560    1.426137    1.314178
     18          1           0       -0.277370    1.801387   -1.299246
     19          1           0       -1.976550    1.426145   -1.314168
     20          1           0       -0.838402    0.367516   -2.168596
     21          1           0       -1.682437   -1.692788    0.878006
     22          1           0       -1.682438   -1.692782   -0.878029
     23          1           0       -3.528331    0.004425    0.886034
     24          1           0       -3.970125   -1.453462   -0.000002
     25          1           0       -3.528332    0.004431   -0.886034
 ---------------------------------------------------------------------
 Rotational constants (GHZ):           3.6771004           0.6956527           0.6811700
 Standard basis: 6-31G(2df,p) (6D, 7F)
 There are   359 symmetry adapted cartesian basis functions of A   symmetry.
 There are   332 symmetry adapted basis functions of A   symmetry.
   332 basis functions,   508 primitive gaussians,   359 cartesian basis functions
    35 alpha electrons       35 beta electrons
       nuclear repulsion energy       444.3869383714 Hartrees.
 NAtoms=   25 NActive=   25 NUniq=   25 SFac= 1.00D+00 NAtFMM=   60 NAOKFM=F Big=F
 Integral buffers will be    131072 words long.
 Raffenetti 2 integral format.
 Two-electron integral symmetry is turned on.
 One-electron integrals computed using PRISM.
 PrsmSu:  requested number of processors reduced to:  13 ShMem   1 Linda.
 NBasis=   332 RedAO= T EigKep=  2.25D-04  NBF=   332
 NBsUse=   332 1.00D-06 EigRej= -1.00D+00 NBFU=   332
 ExpMin= 1.61D-01 ExpMax= 3.05D+03 ExpMxC= 4.57D+02 IAcc=3 IRadAn=         5 AccDes= 0.00D+00
 Harris functional with IExCor=  402 and IRadAn=       5 diagonalized for initial guess.
 HarFok:  IExCor=  402 AccDes= 0.00D+00 IRadAn=         5 IDoV= 1 UseB2=F ITyADJ=14
 ICtDFT=  3500011 ScaDFX=  1.000000  1.000000  1.000000  1.000000
 FoFCou: FMM=F IPFlag=           0 FMFlag=      100000 FMFlg1=           0
         NFxFlg=           0 DoJE=T BraDBF=F KetDBF=T FulRan=T
         wScrn=  0.000000 ICntrl=       500 IOpCl=  0 I1Cent=   200000004 NGrid=           0
         NMat0=    1 NMatS0=      1 NMatT0=    0 NMatD0=    1 NMtDS0=    0 NMtDT0=    0
 Petite list used in FoFCou.
 Requested convergence on RMS density matrix=1.00D-08 within 128 cycles.
 Requested convergence on MAX density matrix=1.00D-06.
 Requested convergence on             energy=1.00D-06.
 No special actions if energy rises.
 Integral accuracy reduced to 1.0D-05 until final iterations.
 Initial convergence to 1.0D-05 achieved.  Increase integral accuracy.
 SCF Done:  E(RB3LYP) =  -352.539445691     A.U. after   13 cycles
            NFock= 13  Conv=0.66D-08     -V/T= 2.0102

 **********************************************************************

            Population analysis using the SCF density.

 **********************************************************************

 Orbital symmetries:
       Occupied  (A) (A) (A) (A) (A) (A) (A) (A) (A) (A) (A) (A)
                 (A) (A) (A) (A) (A) (A) (A) (A) (A) (A) (A) (A)
                 (A) (A) (A) (A) (A) (A) (A) (A) (A) (A) (A)
       Virtual   (A) (A) (A) (A) (A) (A) (A) (A) (A) (A) (A) (A)
                 (A) (A) (A) (A) (A) (A) (A) (A) (A) (A) (A) (A)
                 (A) (A) (A) (A) (A) (A) (A) (A) (A) (A) (A) (A)
                 (A) (A) (A) (A) (A) (A) (A) (A) (A) (A) (A) (A)
                 (A) (A) (A) (A) (A) (A) (A) (A) (A) (A) (A) (A)
                 (A) (A) (A) (A) (A) (A) (A) (A) (A) (A) (A) (A)
                 (A) (A) (A) (A) (A) (A) (A) (A) (A) (A) (A) (A)
                 (A) (A) (A) (A) (A) (A) (A) (A) (A) (A) (A) (A)
                 (A) (A) (A) (A) (A) (A) (A) (A) (A) (A) (A) (A)
                 (A) (A) (A) (A) (A) (A) (A) (A) (A) (A) (A) (A)
                 (A) (A) (A) (A) (A) (A) (A) (A) (A) (A) (A) (A)
                 (A) (A) (A) (A) (A) (A) (A) (A) (A) (A) (A) (A)
                 (A) (A) (A) (A) (A) (A) (A) (A) (A) (A) (A) (A)
                 (A) (A) (A) (A) (A) (A) (A) (A) (A) (A) (A) (A)
                 (A) (A) (A) (A) (A) (A) (A) (A) (A) (A) (A) (A)
                 (A) (A) (A) (A) (A) (A) (A) (A) (A) (A) (A) (A)
                 (A) (A) (A) (A) (A) (A) (A) (A) (A) (A) (A) (A)
                 (A) (A) (A) (A) (A) (A) (A) (A) (A) (A) (A) (A)
                 (A) (A) (A) (A) (A) (A) (A) (A) (A) (A) (A) (A)
                 (A) (A) (A) (A) (A) (A) (A) (A) (A) (A) (A) (A)
                 (A) (A) (A) (A) (A) (A) (A) (A) (A) (A) (A) (A)
                 (A) (A) (A) (A) (A) (A) (A) (A) (A) (A) (A) (A)
                 (A) (A) (A) (A) (A) (A) (A) (A) (A) (A) (A) (A)
                 (A) (A) (A) (A) (A) (A) (A) (A) (A) (A) (A) (A)
                 (A) (A) (A) (A) (A) (A) (A) (A) (A)
 The electronic state is 1-A.
 Alpha  occ. eigenvalues --  -10.21001 -10.19899 -10.19693 -10.18482 -10.18369
 Alpha  occ. eigenvalues --  -10.17816 -10.17298 -10.17297 -10.17092  -0.83500
 Alpha  occ. eigenvalues --   -0.77717  -0.73041  -0.69353  -0.68760  -0.65421
 Alpha  occ. eigenvalues --   -0.60726  -0.53078  -0.52249  -0.47274  -0.47036
 Alpha  occ. eigenvalues --   -0.45307  -0.43546  -0.41777  -0.40805  -0.39940
 Alpha  occ. eigenvalues --   -0.37590  -0.37076  -0.36187  -0.35544  -0.34144
 Alpha  occ. eigenvalues --   -0.31853  -0.31442  -0.31249  -0.24224  -0.24202
 Alpha virt. eigenvalues --    0.04101   0.04319   0.07319   0.10985   0.11657
 Alpha virt. eigenvalues --    0.11668   0.12801   0.13531   0.14004   0.14325
 Alpha virt. eigenvalues --    0.15487   0.16841   0.17964   0.18401   0.19487
 Alpha virt. eigenvalues --    0.21347   0.21665   0.22314   0.22620   0.23727
 Alpha virt. eigenvalues --    0.24194   0.24784   0.26515   0.27687   0.30478
 Alpha virt. eigenvalues --    0.39396   0.41556   0.43697   0.45689   0.46601
 Alpha virt. eigenvalues --    0.47567   0.48306   0.51713   0.51808   0.54143
 Alpha virt. eigenvalues --    0.54485   0.55185   0.58747   0.59073   0.59776
 Alpha virt. eigenvalues --    0.62587   0.63640   0.64228   0.65603   0.67532
 Alpha virt. eigenvalues --    0.68824   0.70075   0.70148   0.71157   0.72232
 Alpha virt. eigenvalues --    0.72403   0.72916   0.73890   0.74502   0.74848
 Alpha virt. eigenvalues --    0.75169   0.75911   0.76157   0.77629   0.78192
 Alpha virt. eigenvalues --    0.78875   0.79070   0.81150   0.81293   0.83353
 Alpha virt. eigenvalues --    0.85374   0.86348   0.88152   0.88490   0.90024
 Alpha virt. eigenvalues --    0.91236   0.94830   0.95158   1.02273   1.03949
 Alpha virt. eigenvalues --    1.06051   1.06648   1.07784   1.08190   1.08628
 Alpha virt. eigenvalues --    1.13841   1.17471   1.19265   1.23277   1.23628
 Alpha virt. eigenvalues --    1.24690   1.24860   1.30230   1.30707   1.32978
 Alpha virt. eigenvalues --    1.37386   1.38224   1.39444   1.39498   1.43112
 Alpha virt. eigenvalues --    1.44971   1.45341   1.50874   1.50986   1.54867
 Alpha virt. eigenvalues --    1.56205   1.57599   1.57838   1.59443   1.64691
 Alpha virt. eigenvalues --    1.66474   1.68331   1.69896   1.71428   1.75031
 Alpha virt. eigenvalues --    1.78534   1.80322   1.82216   1.84696   1.85660
 Alpha virt. eigenvalues --    1.87372   1.89241   1.89590   1.93578   1.96481
 Alpha virt. eigenvalues --    1.97337   1.98332   2.00789   2.02206   2.02782
 Alpha virt. eigenvalues --    2.15066   2.17109   2.24861   2.27082   2.27147
 Alpha virt. eigenvalues --    2.27646   2.28362   2.29925   2.30198   2.32459
 Alpha virt. eigenvalues --    2.36319   2.38138   2.40652   2.41838   2.44634
 Alpha virt. eigenvalues --    2.47246   2.51608   2.52207   2.53654   2.58137
 Alpha virt. eigenvalues --    2.58329   2.64821   2.65554   2.69432   2.70552
 Alpha virt. eigenvalues --    2.71027   2.71282   2.73898   2.75369   2.76829
 Alpha virt. eigenvalues --    2.78988   2.79380   2.80242   2.81694   2.83434
 Alpha virt. eigenvalues --    2.85713   2.85854   2.86523   2.88815   2.88972
 Alpha virt. eigenvalues --    2.89742   2.91697   2.93264   2.95986   2.97005
 Alpha virt. eigenvalues --    2.97826   2.99584   3.01893   3.02290   3.03846
 Alpha virt. eigenvalues --    3.04707   3.05432   3.06416   3.07187   3.08487
 Alpha virt. eigenvalues --    3.10785   3.16731   3.16936   3.20384   3.27438
 Alpha virt. eigenvalues --    3.27994   3.31293   3.33981   3.36223   3.37270
 Alpha virt. eigenvalues --    3.40873   3.41427   3.41611   3.42727   3.46028
 Alpha virt. eigenvalues --    3.47102   3.49788   3.51305   3.52263   3.54162
 Alpha virt. eigenvalues --    3.55183   3.58272   3.58505   3.61143   3.62094
 Alpha virt. eigenvalues --    3.64119   3.65882   3.68487   3.72076   3.72459
 Alpha virt. eigenvalues --    3.74806   3.80298   3.81857   3.82207   3.84456
 Alpha virt. eigenvalues --    3.85469   3.86853   3.93184   3.93837   3.97061
 Alpha virt. eigenvalues --    3.98647   4.04042   4.09470   4.11342   4.16321
 Alpha virt. eigenvalues --    4.20366   4.21081   4.22478   4.23176   4.24810
 Alpha virt. eigenvalues --    4.30051   4.30865   4.34397   4.35075   4.38918
 Alpha virt. eigenvalues --    4.42870   4.45778   4.48923   4.49377   4.49496
 Alpha virt. eigenvalues --    4.53344   4.55471   4.56232   4.59573   4.60882
 Alpha virt. eigenvalues --    4.63897   4.63963   4.65628   4.65690   4.68413
 Alpha virt. eigenvalues --    4.68721   4.72326   4.72766   4.74351   4.76198
 Alpha virt. eigenvalues --    4.77952   4.79059   4.80985   4.82064   4.83785
 Alpha virt. eigenvalues --    4.84166   4.86156   4.86253   4.89752   4.91708
 Alpha virt. eigenvalues --    4.92519   4.94317   4.94465   4.97100   4.97980
 Alpha virt. eigenvalues --    5.06483   5.08601   5.09681   5.10526   5.16329
 Alpha virt. eigenvalues --    5.19310   5.25047   5.36972   5.45171   5.51436
 Alpha virt. eigenvalues --    5.51584   5.59361   5.62454   5.68493   5.70886
 Alpha virt. eigenvalues --    5.91622   6.05523   6.70164   9.61049  10.92845
 Alpha virt. eigenvalues --   11.35093  11.59389  11.95322  12.04725  12.31743
 Alpha virt. eigenvalues --   12.44964  12.93485
          Condensed to atoms (all electrons):
               1          2          3          4          5          6
     1  C    5.095691   0.924033  -0.034816  -0.001889   0.000007   0.000024
     2  C    0.924033   4.600068   0.402914  -0.041003   0.002256   0.001239
     3  C   -0.034816   0.402914   4.983789   0.403989  -0.027605  -0.006231
     4  C   -0.001889  -0.041003   0.403989   4.918747   0.393112  -0.040543
     5  C    0.000007   0.002256  -0.027605   0.393112   4.361321   0.402592
     6  C    0.000024   0.001239  -0.006231  -0.040543   0.402592   5.081519
     7  C    0.000024   0.001239  -0.006231  -0.040543   0.402590  -0.061298
     8  C   -0.000006  -0.000267   0.001830  -0.031349   0.412797  -0.046456
     9  C    0.000000   0.000001  -0.000141   0.001989  -0.024443  -0.006167
    10  H    0.373224  -0.007889   0.000525   0.000009   0.000000   0.000000
    11  H   -0.000663  -0.018193   0.356024  -0.030042  -0.004505  -0.000678
    12  H   -0.000663  -0.018193   0.356024  -0.030042  -0.004505   0.001394
    13  H    0.001440   0.002833  -0.037767   0.354025  -0.018353  -0.007850
    14  H    0.001440   0.002833  -0.037767   0.354025  -0.018353   0.005860
    15  H   -0.000001   0.000024  -0.001428  -0.005993  -0.019160   0.366215
    16  H    0.000001  -0.000007  -0.000124  -0.004275  -0.018867   0.364236
    17  H   -0.000000  -0.000021   0.000029   0.004385  -0.019470   0.367205
    18  H   -0.000001   0.000024  -0.001428  -0.005993  -0.019160  -0.005009
    19  H   -0.000000  -0.000021   0.000029   0.004385  -0.019470  -0.003961
    20  H    0.000001  -0.000007  -0.000124  -0.004275  -0.018867   0.005515
    21  H    0.000001   0.000022   0.000155  -0.004092  -0.020039  -0.007963
    22  H    0.000001   0.000022   0.000155  -0.004092  -0.020039   0.005851
    23  H    0.000000   0.000000   0.000004   0.000188  -0.005323   0.001212
    24  H   -0.000000  -0.000000   0.000001  -0.000109   0.002545   0.000248
    25  H    0.000000   0.000000   0.000004   0.000188  -0.005323  -0.000591
               7          8          9         10         11         12
     1  C    0.000024  -0.000006   0.000000   0.373224  -0.000663  -0.000663
     2  C    0.001239  -0.000267   0.000001  -0.007889  -0.018193  -0.018193
     3  C   -0.006231   0.001830  -0.000141   0.000525   0.356024   0.356024
     4  C   -0.040543  -0.031349   0.001989   0.000009  -0.030042  -0.030042
     5  C    0.402590   0.412797  -0.024443   0.000000  -0.004505  -0.004505
     6  C   -0.061298  -0.046456  -0.006167   0.000000  -0.000678   0.001394
     7  C    5.081516  -0.046455  -0.006167   0.000000   0.001394  -0.000678
     8  C   -0.046455   4.895214   0.397608  -0.000000   0.000132   0.000132
     9  C   -0.006167   0.397608   4.978198   0.000000   0.000003   0.000003
    10  H    0.000000  -0.000000   0.000000   0.435326  -0.000041  -0.000041
    11  H    0.001394   0.000132   0.000003  -0.000041   0.589287  -0.038444
    12  H   -0.000678   0.000132   0.000003  -0.000041  -0.038444   0.589286
    13  H    0.005860  -0.005046   0.000097   0.000002   0.005835  -0.004903
    14  H   -0.007850  -0.005046   0.000097   0.000002  -0.004903   0.005835
    15  H   -0.005009   0.005047   0.000140  -0.000000   0.000411   0.004241
    16  H    0.005515  -0.004313  -0.000071  -0.000000   0.000057   0.000793
    17  H   -0.003961  -0.006127   0.000384  -0.000000  -0.000051  -0.000234
    18  H    0.366216   0.005047   0.000140  -0.000000   0.004241   0.000411
    19  H    0.367206  -0.006127   0.000384  -0.000000  -0.000234  -0.000051
    20  H    0.364237  -0.004313  -0.000071  -0.000000   0.000793   0.000057
    21  H    0.005851   0.356362  -0.038181   0.000000   0.000002  -0.000004
    22  H   -0.007963   0.356362  -0.038180   0.000000  -0.000004   0.000002
    23  H   -0.000591  -0.028283   0.379638   0.000000  -0.000000  -0.000001
    24  H    0.000248  -0.020693   0.372514  -0.000000   0.000000   0.000000
    25  H    0.001212  -0.028283   0.379637   0.000000  -0.000001  -0.000000
              13         14         15         16         17         18
     1  C    0.001440   0.001440  -0.000001   0.000001  -0.000000  -0.000001
     2  C    0.002833   0.002833   0.000024  -0.000007  -0.000021   0.000024
     3  C   -0.037767  -0.037767  -0.001428  -0.000124   0.000029  -0.001428
     4  C    0.354025   0.354025  -0.005993  -0.004275   0.004385  -0.005993
     5  C   -0.018353  -0.018353  -0.019160  -0.018867  -0.019470  -0.019160
     6  C   -0.007850   0.005860   0.366215   0.364236   0.367205  -0.005009
     7  C    0.005860  -0.007850  -0.005009   0.005515  -0.003961   0.366216
     8  C   -0.005046  -0.005046   0.005047  -0.004313  -0.006127   0.005047
     9  C    0.000097   0.000097   0.000140  -0.000071   0.000384   0.000140
    10  H    0.000002   0.000002  -0.000000  -0.000000  -0.000000  -0.000000
    11  H    0.005835  -0.004903   0.000411   0.000057  -0.000051   0.004241
    12  H   -0.004903   0.005835   0.004241   0.000793  -0.000234   0.000411
    13  H    0.629349  -0.039306  -0.000013   0.004308  -0.000089  -0.000041
    14  H   -0.039306   0.629350  -0.000041  -0.000036  -0.000168  -0.000013
    15  H   -0.000013  -0.000041   0.604171  -0.033817  -0.030813   0.003427
    16  H    0.004308  -0.000036  -0.033817   0.603357  -0.032222  -0.000053
    17  H   -0.000089  -0.000168  -0.030813  -0.032222   0.598804  -0.000021
    18  H   -0.000041  -0.000013   0.003427  -0.000053  -0.000021   0.604169
    19  H   -0.000168  -0.000089  -0.000021  -0.000062   0.003431  -0.030814
    20  H   -0.000036   0.004308  -0.000053  -0.000205  -0.000062  -0.033817
    21  H    0.005288  -0.000229  -0.000088   0.004251   0.000023  -0.000185
    22  H   -0.000229   0.005288  -0.000185  -0.000046  -0.000008  -0.000088
    23  H   -0.000002   0.000005  -0.000209   0.000593   0.004236  -0.000032
    24  H   -0.000002  -0.000002  -0.000000  -0.000034  -0.000123  -0.000000
    25  H    0.000005  -0.000002  -0.000032   0.000046   0.000479  -0.000209
              19         20         21         22         23         24
     1  C   -0.000000   0.000001   0.000001   0.000001   0.000000  -0.000000
     2  C   -0.000021  -0.000007   0.000022   0.000022   0.000000  -0.000000
     3  C    0.000029  -0.000124   0.000155   0.000155   0.000004   0.000001
     4  C    0.004385  -0.004275  -0.004092  -0.004092   0.000188  -0.000109
     5  C   -0.019470  -0.018867  -0.020039  -0.020039  -0.005323   0.002545
     6  C   -0.003961   0.005515  -0.007963   0.005851   0.001212   0.000248
     7  C    0.367206   0.364237   0.005851  -0.007963  -0.000591   0.000248
     8  C   -0.006127  -0.004313   0.356362   0.356362  -0.028283  -0.020693
     9  C    0.000384  -0.000071  -0.038181  -0.038180   0.379638   0.372514
    10  H   -0.000000  -0.000000   0.000000   0.000000   0.000000  -0.000000
    11  H   -0.000234   0.000793   0.000002  -0.000004  -0.000000   0.000000
    12  H   -0.000051   0.000057  -0.000004   0.000002  -0.000001   0.000000
    13  H   -0.000168  -0.000036   0.005288  -0.000229  -0.000002  -0.000002
    14  H   -0.000089   0.004308  -0.000229   0.005288   0.000005  -0.000002
    15  H   -0.000021  -0.000053  -0.000088  -0.000185  -0.000209  -0.000000
    16  H   -0.000062  -0.000205   0.004251  -0.000046   0.000593  -0.000034
    17  H    0.003431  -0.000062   0.000023  -0.000008   0.004236  -0.000123
    18  H   -0.030814  -0.033817  -0.000185  -0.000088  -0.000032  -0.000000
    19  H    0.598803  -0.032222  -0.000008   0.000023   0.000479  -0.000123
    20  H   -0.032222   0.603355  -0.000046   0.004251   0.000046  -0.000034
    21  H   -0.000008  -0.000046   0.648021  -0.039458  -0.003878  -0.002752
    22  H    0.000023   0.004251  -0.039458   0.648022   0.005673  -0.002752
    23  H    0.000479   0.000046  -0.003878   0.005673   0.593920  -0.031524
    24  H   -0.000123  -0.000034  -0.002752  -0.002752  -0.031524   0.603800
    25  H    0.004236   0.000593   0.005673  -0.003878  -0.034377  -0.031524
              25
     1  C    0.000000
     2  C    0.000000
     3  C    0.000004
     4  C    0.000188
     5  C   -0.005323
     6  C   -0.000591
     7  C    0.001212
     8  C   -0.028283
     9  C    0.379637
    10  H    0.000000
    11  H   -0.000001
    12  H   -0.000000
    13  H    0.000005
    14  H   -0.000002
    15  H   -0.000032
    16  H    0.000046
    17  H    0.000479
    18  H   -0.000209
    19  H    0.004236
    20  H    0.000593
    21  H    0.005673
    22  H   -0.003878
    23  H   -0.034377
    24  H   -0.031524
    25  H    0.593921
 Mulliken charges:
               1
     1  C   -0.357848
     2  C    0.148093
     3  C   -0.351807
     4  C   -0.190801
     5  C    0.286262
     6  C   -0.416363
     7  C   -0.416362
     8  C   -0.197766
     9  C   -0.397411
    10  H    0.198882
    11  H    0.139581
    12  H    0.139581
    13  H    0.104762
    14  H    0.104761
    15  H    0.113187
    16  H    0.110976
    17  H    0.114396
    18  H    0.113187
    19  H    0.114397
    20  H    0.110977
    21  H    0.091275
    22  H    0.091274
    23  H    0.118226
    24  H    0.110317
    25  H    0.118226
 Sum of Mulliken charges =  -0.00000
 Mulliken charges with hydrogens summed into heavy atoms:
               1
     1  C   -0.158966
     2  C    0.148093
     3  C   -0.072645
     4  C    0.018722
     5  C    0.286262
     6  C   -0.077804
     7  C   -0.077802
     8  C   -0.015217
     9  C   -0.050642
 Electronic spatial extent (au):  <R**2>=           1810.0406
 Charge=             -0.0000 electrons
 Dipole moment (field-independent basis, Debye):
    X=             -1.1671    Y=              0.2187    Z=              0.0000  Tot=              1.1874
 Quadrupole moment (field-independent basis, Debye-Ang):
   XX=            -59.7817   YY=            -57.8671   ZZ=            -58.7005
   XY=             -1.1024   XZ=             -0.0000   YZ=              0.0000
 Traceless Quadrupole moment (field-independent basis, Debye-Ang):
   XX=             -0.9986   YY=              0.9160   ZZ=              0.0826
   XY=             -1.1024   XZ=             -0.0000   YZ=              0.0000
 Octapole moment (field-independent basis, Debye-Ang**2):
  XXX=             16.6088  YYY=              1.6283  ZZZ=             -0.0001  XYY=             -1.5683
  XXY=            -13.9026  XXZ=             -0.0001  XZZ=             -5.8822  YZZ=             -0.4747
  YYZ=              0.0000  XYZ=              0.0000
 Hexadecapole moment (field-independent basis, Debye-Ang**3):
 XXXX=          -1746.6489 YYYY=           -308.6860 ZZZZ=           -264.4763 XXXY=           -101.4263
 XXXZ=             -0.0008 YYYX=              5.6092 YYYZ=             -0.0001 ZZZX=              0.0001
 ZZZY=             -0.0001 XXYY=           -366.4102 XXZZ=           -389.8311 YYZZ=            -94.9789
 XXYZ=              0.0001 YYXZ=             -0.0000 ZZXY=              4.2170
 N-N= 4.443869383714D+02 E-N=-1.702971841831D+03  KE= 3.489740823945D+02
 PrsmSu:  requested number of processors reduced to:  13 ShMem   1 Linda.
 Calling FoFJK, ICntrl=      2127 FMM=F ISym2X=0 I1Cent= 0 IOpClX= 0 NMat=1 NMatS=1 NMatT=0.
 ***** Axes restored to original set *****
 -------------------------------------------------------------------
 Center     Atomic                   Forces (Hartrees/Bohr)
 Number     Number              X              Y              Z
 -------------------------------------------------------------------
      1        6           0.158188776    0.000137089   -0.000607503
      2        6          -0.132325508   -0.000042133    0.000186654
      3        6          -0.048964920   -0.001664749    0.007362822
      4        6           0.007416279    0.001142074   -0.005081015
      5        6          -0.001810777    0.000405949   -0.001817390
      6        6           0.002357580   -0.000544170    0.001849461
      7        6           0.002352725   -0.000295134    0.001899722
      8        6           0.001556098   -0.000732115    0.003225680
      9        6           0.002495231    0.001278181   -0.005672869
     10        1           0.001675830   -0.000010648    0.000047284
     11        1           0.002267187    0.000867403    0.000148995
     12        1           0.002268078   -0.000845002   -0.000235514
     13        1           0.001716755   -0.000731885    0.001254155
     14        1           0.001718701    0.000126261    0.001451295
     15        1          -0.000681698   -0.000311263   -0.001175272
     16        1           0.000549947    0.000980730    0.000023823
     17        1          -0.000263861    0.000309621   -0.001866028
     18        1          -0.000683457    0.000784036   -0.000922365
     19        1          -0.000257368    0.000521223   -0.001818307
     20        1           0.000549092   -0.000897325   -0.000401211
     21        1          -0.002079178    0.000085762    0.001269139
     22        1          -0.002077097   -0.000618747    0.001113024
     23        1           0.001675619    0.000102683   -0.000120797
     24        1           0.000681063   -0.000009038    0.000039912
     25        1           0.001674905   -0.000038802   -0.000153694
 -------------------------------------------------------------------
 Cartesian Forces:  Max     0.158188776 RMS     0.024550887

 GradGradGradGradGradGradGradGradGradGradGradGradGradGradGradGradGradGrad
 Berny optimization.
 FormGI is forming the generalized inverse of G from B-inverse, IUseBI=4.
 Internal  Forces:  Max     0.159865032 RMS     0.015006390
 Search for a local minimum.
 Step number   1 out of a maximum of  134
 All quantities printed in internal units (Hartrees-Bohrs-Radians)
 Mixed Optimization -- RFO/linear search
 Second derivative matrix not updated -- first step.
 ITU=  0
     Eigenvalues ---    0.00230   0.00230   0.00230   0.00230   0.00427
     Eigenvalues ---    0.00501   0.00501   0.00530   0.00557   0.00557
     Eigenvalues ---    0.03370   0.03593   0.04517   0.04765   0.04767
     Eigenvalues ---    0.04831   0.04927   0.05283   0.05283   0.05309
     Eigenvalues ---    0.05309   0.05431   0.05508   0.05635   0.05644
     Eigenvalues ---    0.08231   0.08561   0.12120   0.12368   0.14316
     Eigenvalues ---    0.14447   0.16000   0.16000   0.16000   0.16000
     Eigenvalues ---    0.16000   0.16000   0.16000   0.16000   0.16000
     Eigenvalues ---    0.16000   0.16000   0.21854   0.21931   0.22185
     Eigenvalues ---    0.27445   0.27474   0.28319   0.28320   0.29832
     Eigenvalues ---    0.30367   0.30579   0.33830   0.33831   0.34016
     Eigenvalues ---    0.34017   0.34263   0.34269   0.34269   0.34288
     Eigenvalues ---    0.34289   0.34376   0.34377   0.34431   0.34431
     Eigenvalues ---    0.34586   0.34586   0.37789   0.66132
 RFO step:  Lambda=-4.49573295D-02 EMin= 2.30000000D-03
 Linear search not attempted -- first point.
 Iteration  1 RMS(Cart)=  0.11682941 RMS(Int)=  0.00484146
 Iteration  2 RMS(Cart)=  0.00841258 RMS(Int)=  0.00017452
 Iteration  3 RMS(Cart)=  0.00003740 RMS(Int)=  0.00017332
 Iteration  4 RMS(Cart)=  0.00000000 RMS(Int)=  0.00017332
 Variable       Old X    -DE/DX   Delta X   Delta X   Delta X     New X
                                 (Linear)    (Quad)   (Total)
    R1        2.46394  -0.15987   0.00000  -0.22635  -0.22635   2.23759
    R2        2.01373  -0.00168   0.00000  -0.00396  -0.00396   2.00977
    R3        2.87238  -0.02754   0.00000  -0.07900  -0.07900   2.79339
    R4        2.86823   0.01287   0.00000   0.03669   0.03669   2.90492
    R5        2.06610  -0.00011   0.00000  -0.00028  -0.00028   2.06581
    R6        2.06608  -0.00011   0.00000  -0.00028  -0.00028   2.06581
    R7        2.93368   0.00602   0.00000   0.01886   0.01886   2.95254
    R8        2.07616  -0.00163   0.00000  -0.00424  -0.00424   2.07192
    R9        2.07618  -0.00163   0.00000  -0.00426  -0.00426   2.07192
   R10        2.91444   0.00020   0.00000   0.00061   0.00061   2.91505
   R11        2.91446   0.00020   0.00000   0.00060   0.00060   2.91506
   R12        2.93303   0.00153   0.00000   0.00478   0.00478   2.93780
   R13        2.06847  -0.00085   0.00000  -0.00220  -0.00220   2.06627
   R14        2.06879   0.00069   0.00000   0.00179   0.00179   2.07057
   R15        2.06700  -0.00031   0.00000  -0.00081  -0.00081   2.06619
   R16        2.06845  -0.00085   0.00000  -0.00218  -0.00218   2.06627
   R17        2.06698  -0.00031   0.00000  -0.00079  -0.00079   2.06619
   R18        2.06878   0.00070   0.00000   0.00179   0.00179   2.07057
   R19        2.88300   0.00710   0.00000   0.02068   0.02068   2.90368
   R20        2.07302   0.00047   0.00000   0.00123   0.00123   2.07425
   R21        2.07304   0.00047   0.00000   0.00122   0.00122   2.07425
   R22        2.06352   0.00069   0.00000   0.00177   0.00177   2.06529
   R23        2.06889   0.00013   0.00000   0.00034   0.00034   2.06922
   R24        2.06353   0.00069   0.00000   0.00176   0.00176   2.06529
    A1        1.95301  -0.00061   0.00000   0.00022   0.00023   1.95324
    A2        1.84987   0.00167   0.00000   0.01118   0.01119   1.86106
    A3        1.84987   0.00167   0.00000   0.01118   0.01119   1.86106
    A4        1.95847  -0.00111   0.00000  -0.00704  -0.00710   1.95137
    A5        1.95847  -0.00111   0.00000  -0.00704  -0.00710   1.95137
    A6        1.88730  -0.00020   0.00000  -0.00679  -0.00690   1.88040
    A7        1.94979   0.02463   0.00000   0.09722   0.09747   2.04726
    A8        1.90852  -0.00738   0.00000  -0.02409  -0.02396   1.88456
    A9        1.90853  -0.00738   0.00000  -0.02410  -0.02397   1.88456
   A10        1.92361  -0.00788   0.00000  -0.02989  -0.03011   1.89351
   A11        1.92361  -0.00788   0.00000  -0.02989  -0.03011   1.89350
   A12        1.84690   0.00463   0.00000   0.00518   0.00414   1.85105
   A13        1.90694   0.00270   0.00000   0.01896   0.01881   1.92575
   A14        1.90694   0.00270   0.00000   0.01896   0.01881   1.92575
   A15        1.88731  -0.00515   0.00000  -0.03526  -0.03516   1.85215
   A16        1.92228  -0.00232   0.00000  -0.00438  -0.00465   1.91763
   A17        1.91997   0.00104   0.00000   0.00076   0.00089   1.92086
   A18        1.91997   0.00104   0.00000   0.00076   0.00089   1.92086
   A19        1.96058  -0.00101   0.00000  -0.00370  -0.00370   1.95688
   A20        1.93324   0.00121   0.00000   0.00515   0.00515   1.93840
   A21        1.95659  -0.00145   0.00000  -0.00754  -0.00754   1.94905
   A22        1.88028   0.00009   0.00000   0.00130   0.00131   1.88159
   A23        1.83865   0.00165   0.00000   0.00947   0.00946   1.84812
   A24        1.88987  -0.00043   0.00000  -0.00437  -0.00437   1.88550
   A25        1.96057  -0.00101   0.00000  -0.00369  -0.00369   1.95688
   A26        1.95658  -0.00145   0.00000  -0.00754  -0.00754   1.94904
   A27        1.93325   0.00121   0.00000   0.00514   0.00515   1.93839
   A28        1.83866   0.00165   0.00000   0.00947   0.00946   1.84812
   A29        1.88029   0.00009   0.00000   0.00130   0.00131   1.88159
   A30        1.88988  -0.00043   0.00000  -0.00437  -0.00437   1.88551
   A31        1.99082   0.01385   0.00000   0.05536   0.05541   2.04623
   A32        1.91268  -0.00553   0.00000  -0.02540  -0.02582   1.88686
   A33        1.91268  -0.00553   0.00000  -0.02540  -0.02582   1.88686
   A34        1.89344  -0.00277   0.00000  -0.00304  -0.00276   1.89068
   A35        1.89344  -0.00277   0.00000  -0.00304  -0.00276   1.89068
   A36        1.85586   0.00209   0.00000  -0.00179  -0.00231   1.85355
   A37        1.94768   0.00170   0.00000   0.00852   0.00849   1.95617
   A38        1.92367   0.00022   0.00000   0.00062   0.00061   1.92428
   A39        1.94767   0.00170   0.00000   0.00852   0.00850   1.95617
   A40        1.87434  -0.00110   0.00000  -0.00583  -0.00583   1.86851
   A41        1.89312  -0.00165   0.00000  -0.00716  -0.00721   1.88591
   A42        1.87434  -0.00110   0.00000  -0.00583  -0.00583   1.86851
   A43        3.14147   0.00009   0.00000   0.00179   0.00179   3.14326
   A44        3.14159  -0.00120   0.00000  -0.02395  -0.02395   3.11764
   A45        3.14169  -0.00002   0.00000  -0.00046  -0.00046   3.14122
   A46        3.14159  -0.00042   0.00000  -0.00840  -0.00840   3.13319
    D1        3.14159  -0.00000   0.00000   0.00000   0.00000   3.14159
    D2        1.00740  -0.00133   0.00000  -0.01029  -0.01023   0.99718
    D3       -1.00740   0.00133   0.00000   0.01029   0.01023  -0.99718
    D4       -1.06463   0.00095   0.00000   0.00963   0.00959  -1.05504
    D5        3.08436  -0.00038   0.00000  -0.00067  -0.00063   3.08373
    D6        1.06956   0.00228   0.00000   0.01992   0.01982   1.08938
    D7        1.06463  -0.00095   0.00000  -0.00963  -0.00959   1.05504
    D8       -1.06956  -0.00228   0.00000  -0.01992  -0.01982  -1.08938
    D9       -3.08436   0.00038   0.00000   0.00067   0.00063  -3.08373
   D10       -1.05206  -0.00023   0.00000  -0.00893  -0.00911  -1.06117
   D11        1.05206   0.00023   0.00000   0.00893   0.00911   1.06117
   D12        3.14159  -0.00000   0.00000  -0.00000  -0.00000   3.14159
   D13        1.07345   0.00163   0.00000   0.00567   0.00521   1.07866
   D14       -3.10561   0.00209   0.00000   0.02353   0.02342  -3.08218
   D15       -1.01608   0.00186   0.00000   0.01460   0.01432  -1.00176
   D16        3.10561  -0.00209   0.00000  -0.02353  -0.02342   3.08218
   D17       -1.07346  -0.00163   0.00000  -0.00567  -0.00521  -1.07866
   D18        1.01607  -0.00186   0.00000  -0.01460  -0.01431   1.00176
   D19        1.08027   0.00257   0.00000   0.02256   0.02254   1.10281
   D20       -1.02329   0.00230   0.00000   0.01981   0.01979  -1.00350
   D21       -3.13639   0.00300   0.00000   0.02697   0.02695  -3.10944
   D22       -1.01445  -0.00100   0.00000  -0.00992  -0.00988  -1.02433
   D23       -3.11801  -0.00127   0.00000  -0.01267  -0.01263  -3.13064
   D24        1.05208  -0.00057   0.00000  -0.00552  -0.00547   1.04661
   D25       -3.13364  -0.00146   0.00000  -0.00853  -0.00855   3.14100
   D26        1.04598  -0.00173   0.00000  -0.01128  -0.01130   1.03468
   D27       -1.06711  -0.00103   0.00000  -0.00412  -0.00414  -1.07126
   D28       -1.08027  -0.00257   0.00000  -0.02256  -0.02254  -1.10281
   D29        3.13639  -0.00300   0.00000  -0.02697  -0.02695   3.10944
   D30        1.02329  -0.00230   0.00000  -0.01981  -0.01979   1.00350
   D31        1.01445   0.00100   0.00000   0.00992   0.00988   1.02433
   D32       -1.05207   0.00057   0.00000   0.00551   0.00547  -1.04660
   D33        3.11801   0.00127   0.00000   0.01267   0.01263   3.13064
   D34        3.13364   0.00146   0.00000   0.00853   0.00855  -3.14099
   D35        1.06712   0.00103   0.00000   0.00412   0.00414   1.07126
   D36       -1.04598   0.00173   0.00000   0.01128   0.01130  -1.03468
   D37        3.14159  -0.00000   0.00000   0.00000   0.00000   3.14159
   D38        1.01513  -0.00191   0.00000  -0.01564  -0.01533   0.99980
   D39       -1.01513   0.00191   0.00000   0.01564   0.01533  -0.99980
   D40        1.06028  -0.00077   0.00000  -0.00223  -0.00232   1.05796
   D41       -1.06618  -0.00269   0.00000  -0.01787  -0.01765  -1.08383
   D42       -3.09644   0.00114   0.00000   0.01340   0.01301  -3.08343
   D43       -1.06029   0.00077   0.00000   0.00223   0.00232  -1.05797
   D44        3.09643  -0.00114   0.00000  -0.01340  -0.01301   3.08342
   D45        1.06618   0.00269   0.00000   0.01787   0.01765   1.08382
   D46       -1.06060  -0.00014   0.00000  -0.00142  -0.00143  -1.06203
   D47       -3.14159  -0.00000   0.00000  -0.00000  -0.00000  -3.14159
   D48        1.06061   0.00014   0.00000   0.00142   0.00143   1.06204
   D49        1.07643   0.00009   0.00000   0.00124   0.00137   1.07780
   D50       -1.00456   0.00023   0.00000   0.00265   0.00280  -1.00176
   D51       -3.08554   0.00037   0.00000   0.00407   0.00423  -3.08131
   D52        3.08555  -0.00037   0.00000  -0.00407  -0.00423   3.08132
   D53        1.00456  -0.00023   0.00000  -0.00265  -0.00280   1.00176
   D54       -1.07642  -0.00009   0.00000  -0.00124  -0.00137  -1.07779
         Item               Value     Threshold  Converged?
 Maximum Force            0.159865     0.000450     NO 
 RMS     Force            0.015006     0.000300     NO 
 Maximum Displacement     0.565230     0.001800     NO 
 RMS     Displacement     0.116269     0.001200     NO 
 Predicted change in Energy=-2.446858D-02
 GradGradGradGradGradGradGradGradGradGradGradGradGradGradGradGradGradGrad

                          Input orientation:                          
 ---------------------------------------------------------------------
 Center     Atomic      Atomic             Coordinates (Angstroms)
 Number     Number       Type             X           Y           Z
 ---------------------------------------------------------------------
      1          6           0        1.137794    0.111532   -0.204247
      2          6           0        2.314921    0.087009   -0.078467
      3          6           0        3.787933    0.059137    0.042061
      4          6           0        4.478943    0.361173   -1.297460
      5          6           0        6.041278    0.364021   -1.313205
      6          6           0        6.585142    1.441272   -0.352324
      7          6           0        6.584025   -1.022000   -0.908318
      8          6           0        6.457616    0.693624   -2.774322
      9          6           0        7.962215    0.761620   -3.078583
     10          1           0        0.080333    0.133666   -0.315447
     11          1           0        4.052155   -0.931654    0.420958
     12          1           0        4.052935    0.790885    0.809759
     13          1           0        4.125903    1.338359   -1.647584
     14          1           0        4.125131   -0.370572   -2.033316
     15          1           0        6.310624    1.242239    0.687196
     16          1           0        6.202316    2.433509   -0.615898
     17          1           0        7.677531    1.484177   -0.370499
     18          1           0        6.309475   -1.288542    0.115963
     19          1           0        7.676380   -1.053876   -0.943373
     20          1           0        6.200394   -1.804485   -1.572473
     21          1           0        6.006110    1.655673   -3.048966
     22          1           0        6.005338   -0.056795   -3.435490
     23          1           0        8.464979    1.536181   -2.494013
     24          1           0        8.124951    0.999962   -4.134853
     25          1           0        8.464198   -0.189377   -2.883497
 ---------------------------------------------------------------------
                    Distance matrix (angstroms):
                    1          2          3          4          5
     1  C    0.000000
     2  C    1.184082   0.000000
     3  C    2.662076   1.478197   0.000000
     4  C    3.524303   2.498820   1.537217   0.000000
     5  C    5.033655   3.935358   2.647123   1.562416   0.000000
     6  C    5.609254   4.488185   3.144871   2.548718   1.542579
     7  C    5.607321   4.488185   3.144870   2.548719   1.542583
     8  C    5.936718   4.979713   3.932149   2.491343   1.554618
     9  C    7.433515   6.430220   5.258948   3.932676   2.639062
    10  H    1.063523   2.247604   3.725542   4.512636   6.048260
    11  H    3.157945   2.074868   1.093180   2.192376   2.939848
    12  H    3.160344   2.074868   1.093179   2.192374   2.939846
    13  H    3.537954   2.703269   2.146051   1.096411   2.174811
    14  H    3.535831   2.703271   2.146053   1.096412   2.174811
    15  H    5.369482   4.229236   2.860053   2.840808   2.201232
    16  H    5.586628   4.572388   3.449608   2.780128   2.189737
    17  H    6.684306   5.549319   4.162921   3.514449   2.195625
    18  H    5.367404   4.229232   2.860049   2.840805   2.201231
    19  H    6.682633   5.549317   4.162919   3.514447   2.195624
    20  H    5.583286   4.572385   3.449605   2.780126   2.189739
    21  H    5.846135   4.990937   4.125977   2.660027   2.163901
    22  H    5.844848   4.990937   4.125977   2.660028   2.163901
    23  H    7.807707   6.764479   5.521602   4.324449   2.939829
    24  H    8.065936   7.144522   6.094381   4.663927   3.564801
    25  H    7.806735   6.764479   5.521603   4.324450   2.939831
                    6          7          8          9         10
     6  C    0.000000
     7  C    2.525240   0.000000
     8  C    2.537974   2.537974   0.000000
     9  C    3.129017   3.129019   1.536560   0.000000
    10  H    6.635038   6.632125   6.857796   8.375758   0.000000
    11  H    3.555948   2.861033   4.317127   5.513850   4.177627
    12  H    2.861033   3.555947   4.317127   5.513849   4.180861
    13  H    2.781392   3.487144   2.668728   4.134934   4.426343
    14  H    3.487143   2.781392   2.668725   4.134931   4.423316
    15  H    1.093425   2.783378   3.507804   4.140029   6.407087
    16  H    1.095701   3.488803   2.784092   3.457930   6.546620
    17  H    1.093383   2.786741   2.809186   2.817242   7.716497
    18  H    2.783374   1.093423   3.507802   4.140029   6.403984
    19  H    2.786736   1.093381   2.809184   2.817242   7.713914
    20  H    3.488801   1.095700   2.784089   3.457929   6.541536
    21  H    2.766428   3.476534   1.097645   2.150943   6.701006
    22  H    3.476534   2.766423   1.097647   2.150943   6.699002
    23  H    2.851250   3.549183   2.194990   1.092904   8.775847
    24  H    4.107711   4.107712   2.173681   1.094986   8.947302
    25  H    3.549183   2.851252   2.194989   1.092905   8.774305
                   11         12         13         14         15
    11  H    0.000000
    12  H    1.765873   0.000000
    13  H    3.072013   2.518648   0.000000
    14  H    2.518651   3.072014   1.751924   0.000000
    15  H    3.146010   2.305624   3.198976   3.844311   0.000000
    16  H    4.125843   3.057866   2.564219   3.766516   1.768872
    17  H    4.427866   3.874449   3.777072   4.338733   1.745190
    18  H    2.305621   3.146005   3.844307   3.198973   2.594449
    19  H    3.874448   4.427862   4.338731   3.777069   3.129886
    20  H    3.057865   4.125840   3.766513   2.564215   3.794837
    21  H    4.748955   4.410500   2.366377   2.945386   3.771282
    22  H    4.410498   4.748955   2.945392   2.366374   4.333270
    23  H    5.836119   5.562059   4.425286   4.762587   3.853276
    24  H    6.408917   6.408916   4.721589   4.721586   5.157774
    25  H    5.562061   5.836119   4.762589   4.425284   4.408770
                   16         17         18         19         20
    16  H    0.000000
    17  H    1.771358   0.000000
    18  H    3.794834   3.129887   0.000000
    19  H    3.800257   2.601903   1.745190   0.000000
    20  H    4.344609   3.800259   1.768873   1.771359   0.000000
    21  H    2.561903   3.161842   4.333268   3.816409   3.767024
    22  H    3.767030   3.816411   3.771275   3.161834   2.561893
    23  H    3.074436   2.265412   4.408768   3.120059   4.139762
    24  H    4.258477   3.821650   5.157774   3.821650   4.258477
    25  H    4.139763   3.120061   3.853278   2.265413   3.074437
                   21         22         23         24         25
    21  H    0.000000
    22  H    1.755548   0.000000
    23  H    2.523547   3.077952   0.000000
    24  H    2.469533   2.469535   1.759405   0.000000
    25  H    3.077951   2.523543   1.768968   1.759405   0.000000
 Stoichiometry    C9H16
 Framework group  C1[X(C9H16)]
 Deg. of freedom    69
 Full point group                 C1      NOp   1
 Largest Abelian subgroup         C1      NOp   1
 Largest concise Abelian subgroup C1      NOp   1
                         Standard orientation:                         
 ---------------------------------------------------------------------
 Center     Atomic      Atomic             Coordinates (Angstroms)
 Number     Number       Type             X           Y           Z
 ---------------------------------------------------------------------
      1          6           0        4.151600   -0.677088   -0.000707
      2          6           0        3.115578   -0.103763    0.002044
      3          6           0        1.804993    0.579925    0.000174
      4          6           0        0.636746   -0.419193    0.001551
      5          6           0       -0.810231    0.170210   -0.000200
      6          6           0       -1.041095    1.028346    1.260695
      7          6           0       -1.039984    1.023567   -1.264540
      8          6           0       -1.773387   -1.050103    0.001684
      9          6           0       -3.281498   -0.755796    0.000464
     10          1           0        5.082970   -1.190534   -0.002686
     11          1           0        1.788633    1.222601   -0.883988
     12          1           0        1.787856    1.225943    0.881881
     13          1           0        0.747027   -1.067581    0.878790
     14          1           0        0.747795   -1.070898   -0.873131
     15          1           0       -0.378875    1.897792    1.293947
     16          1           0       -0.871982    0.443301    2.171564
     17          1           0       -2.059015    1.425771    1.297828
     18          1           0       -0.377732    1.892880   -1.300496
     19          1           0       -2.057868    1.420847   -1.304069
     20          1           0       -0.870069    0.435077   -2.173037
     21          1           0       -1.542540   -1.665591    0.880723
     22          1           0       -1.541769   -1.668908   -0.874822
     23          1           0       -3.590622   -0.191264    0.883745
     24          1           0       -3.850298   -1.691456    0.001985
     25          1           0       -3.589844   -0.194613   -0.885220
 ---------------------------------------------------------------------
 Rotational constants (GHZ):           3.4779769           0.7041459           0.6816738
 Standard basis: 6-31G(2df,p) (6D, 7F)
 There are   359 symmetry adapted cartesian basis functions of A   symmetry.
 There are   332 symmetry adapted basis functions of A   symmetry.
   332 basis functions,   508 primitive gaussians,   359 cartesian basis functions
    35 alpha electrons       35 beta electrons
       nuclear repulsion energy       444.2310384085 Hartrees.
 NAtoms=   25 NActive=   25 NUniq=   25 SFac= 1.00D+00 NAtFMM=   60 NAOKFM=F Big=F
 Integral buffers will be    131072 words long.
 Raffenetti 2 integral format.
 Two-electron integral symmetry is turned on.
 One-electron integrals computed using PRISM.
 PrsmSu:  requested number of processors reduced to:  13 ShMem   1 Linda.
 NBasis=   332 RedAO= T EigKep=  1.39D-04  NBF=   332
 NBsUse=   332 1.00D-06 EigRej= -1.00D+00 NBFU=   332
 Initial guess from the checkpoint file:  "CtCCCCpCppCpCC.chk"
 B after Tr=     0.000000   -0.000000    0.000000
         Rot=    0.999996    0.000831    0.000037   -0.002628 Ang=   0.32 deg.
 ExpMin= 1.61D-01 ExpMax= 3.05D+03 ExpMxC= 4.57D+02 IAcc=2 IRadAn=         4 AccDes= 0.00D+00
 Harris functional with IExCor=  402 and IRadAn=       4 diagonalized for initial guess.
 HarFok:  IExCor=  402 AccDes= 0.00D+00 IRadAn=         4 IDoV= 1 UseB2=F ITyADJ=14
 ICtDFT=  3500011 ScaDFX=  1.000000  1.000000  1.000000  1.000000
 FoFCou: FMM=F IPFlag=           0 FMFlag=      100000 FMFlg1=           0
         NFxFlg=           0 DoJE=T BraDBF=F KetDBF=T FulRan=T
         wScrn=  0.000000 ICntrl=       500 IOpCl=  0 I1Cent=   200000004 NGrid=           0
         NMat0=    1 NMatS0=      1 NMatT0=    0 NMatD0=    1 NMtDS0=    0 NMtDT0=    0
 Petite list used in FoFCou.
 Requested convergence on RMS density matrix=1.00D-08 within 128 cycles.
 Requested convergence on MAX density matrix=1.00D-06.
 Requested convergence on             energy=1.00D-06.
 No special actions if energy rises.
 Integral accuracy reduced to 1.0D-05 until final iterations.
 Initial convergence to 1.0D-05 achieved.  Increase integral accuracy.
 SCF Done:  E(RB3LYP) =  -352.559983719     A.U. after   12 cycles
            NFock= 12  Conv=0.56D-08     -V/T= 2.0090
 PrsmSu:  requested number of processors reduced to:  13 ShMem   1 Linda.
 Calling FoFJK, ICntrl=      2127 FMM=F ISym2X=0 I1Cent= 0 IOpClX= 0 NMat=1 NMatS=1 NMatT=0.
 ***** Axes restored to original set *****
 -------------------------------------------------------------------
 Center     Atomic                   Forces (Hartrees/Bohr)
 Number     Number              X              Y              Z
 -------------------------------------------------------------------
      1        6          -0.041689917    0.000985333   -0.004668678
      2        6           0.048604842   -0.000621437    0.002178712
      3        6          -0.017587661   -0.000125608    0.001211601
      4        6           0.005743261    0.000525752   -0.002319706
      5        6          -0.002006048   -0.000428812    0.001898771
      6        6          -0.000379834   -0.000839039    0.000026821
      7        6          -0.000380907    0.000748748    0.000382380
      8        6           0.001262177    0.000008334   -0.000036404
      9        6          -0.001663158   -0.000012191    0.000056549
     10        1           0.001776347   -0.000087467    0.000586093
     11        1           0.004578952   -0.000447069    0.000821364
     12        1           0.004637897    0.000049737    0.000932672
     13        1           0.000063812    0.000109654   -0.000085797
     14        1           0.000059650   -0.000062283   -0.000119797
     15        1          -0.001785732   -0.000658413    0.000427497
     16        1           0.000312586    0.000229907    0.000010363
     17        1           0.000459498    0.000151787   -0.001446183
     18        1          -0.001785361    0.000412013    0.000670526
     19        1           0.000460167    0.000483372   -0.001370740
     20        1           0.000312817   -0.000212489   -0.000089697
     21        1          -0.000662574   -0.000136977   -0.000143393
     22        1          -0.000662448    0.000186522   -0.000070692
     23        1           0.000529552    0.000283814    0.000626071
     24        1          -0.000727218   -0.000017213    0.000077572
     25        1           0.000529302   -0.000525977    0.000444098
 -------------------------------------------------------------------
 Cartesian Forces:  Max     0.048604842 RMS     0.007793201

 GradGradGradGradGradGradGradGradGradGradGradGradGradGradGradGradGradGrad
 Berny optimization.
 Using GEDIIS/GDIIS optimizer.
 FormGI is forming the generalized inverse of G from B-inverse, IUseBI=4.
 Internal  Forces:  Max     0.040132146 RMS     0.003856105
 Search for a local minimum.
 Step number   2 out of a maximum of  134
 All quantities printed in internal units (Hartrees-Bohrs-Radians)
 Mixed Optimization -- RFO/linear search
 Update second derivatives using D2CorX and points    1    2
 DE= -2.05D-02 DEPred=-2.45D-02 R= 8.39D-01
 TightC=F SS=  1.41D+00  RLast= 2.98D-01 DXNew= 5.0454D-01 8.9484D-01
 Trust test= 8.39D-01 RLast= 2.98D-01 DXMaxT set to 5.05D-01
 ITU=  1  0
 Use linear search instead of GDIIS.
     Eigenvalues ---    0.00230   0.00230   0.00230   0.00230   0.00427
     Eigenvalues ---    0.00501   0.00502   0.00530   0.00557   0.00557
     Eigenvalues ---    0.03098   0.03130   0.04447   0.04683   0.04720
     Eigenvalues ---    0.04766   0.05116   0.05299   0.05300   0.05335
     Eigenvalues ---    0.05336   0.05344   0.05504   0.05607   0.05707
     Eigenvalues ---    0.09079   0.09120   0.12730   0.12752   0.14089
     Eigenvalues ---    0.14670   0.15915   0.16000   0.16000   0.16000
     Eigenvalues ---    0.16000   0.16000   0.16000   0.16000   0.16000
     Eigenvalues ---    0.16000   0.16012   0.21986   0.22117   0.22561
     Eigenvalues ---    0.27472   0.27539   0.28308   0.28320   0.29588
     Eigenvalues ---    0.29867   0.30591   0.33830   0.33832   0.34015
     Eigenvalues ---    0.34017   0.34263   0.34269   0.34269   0.34288
     Eigenvalues ---    0.34293   0.34376   0.34378   0.34431   0.34432
     Eigenvalues ---    0.34583   0.34586   0.37778   0.86434
 RFO step:  Lambda=-1.90415361D-03 EMin= 2.30000000D-03
 Quartic linear search produced a step of -0.13170.
 Iteration  1 RMS(Cart)=  0.03042786 RMS(Int)=  0.00166583
 Iteration  2 RMS(Cart)=  0.00187600 RMS(Int)=  0.00011127
 Iteration  3 RMS(Cart)=  0.00000329 RMS(Int)=  0.00011124
 Iteration  4 RMS(Cart)=  0.00000000 RMS(Int)=  0.00011124
 Variable       Old X    -DE/DX   Delta X   Delta X   Delta X     New X
                                 (Linear)    (Quad)   (Total)
    R1        2.23759   0.04013   0.02981   0.00785   0.03766   2.27525
    R2        2.00977  -0.00183   0.00052  -0.00507  -0.00455   2.00521
    R3        2.79339  -0.00850   0.01040  -0.04327  -0.03287   2.76052
    R4        2.90492   0.00083  -0.00483   0.01120   0.00637   2.91129
    R5        2.06581   0.00180   0.00004   0.00444   0.00447   2.07028
    R6        2.06581   0.00181   0.00004   0.00448   0.00451   2.07032
    R7        2.95254  -0.00620  -0.00248  -0.01474  -0.01722   2.93532
    R8        2.07192   0.00010   0.00056  -0.00072  -0.00017   2.07175
    R9        2.07192   0.00010   0.00056  -0.00073  -0.00017   2.07175
   R10        2.91505  -0.00188  -0.00008  -0.00557  -0.00566   2.90940
   R11        2.91506  -0.00188  -0.00008  -0.00558  -0.00566   2.90940
   R12        2.93780  -0.00132  -0.00063  -0.00293  -0.00356   2.93424
   R13        2.06627   0.00097   0.00029   0.00194   0.00223   2.06850
   R14        2.07057   0.00010  -0.00024   0.00066   0.00042   2.07100
   R15        2.06619   0.00049   0.00011   0.00104   0.00115   2.06734
   R16        2.06627   0.00098   0.00029   0.00195   0.00224   2.06851
   R17        2.06619   0.00049   0.00010   0.00105   0.00115   2.06734
   R18        2.07057   0.00010  -0.00024   0.00066   0.00042   2.07100
   R19        2.90368  -0.00155  -0.00272   0.00055  -0.00217   2.90151
   R20        2.07425   0.00019  -0.00016   0.00076   0.00060   2.07485
   R21        2.07425   0.00019  -0.00016   0.00076   0.00060   2.07485
   R22        2.06529   0.00078  -0.00023   0.00236   0.00212   2.06741
   R23        2.06922  -0.00019  -0.00004  -0.00039  -0.00044   2.06879
   R24        2.06529   0.00078  -0.00023   0.00236   0.00212   2.06742
    A1        1.95324  -0.00230  -0.00003  -0.00034  -0.00030   1.95294
    A2        1.86106   0.00362  -0.00147   0.03368   0.03228   1.89333
    A3        1.86106   0.00368  -0.00147   0.03423   0.03283   1.89389
    A4        1.95137  -0.00225   0.00093  -0.02030  -0.01977   1.93160
    A5        1.95137  -0.00229   0.00093  -0.02040  -0.01987   1.93150
    A6        1.88040   0.00013   0.00091  -0.02298  -0.02295   1.85745
    A7        2.04726  -0.00361  -0.01284   0.01333   0.00046   2.04772
    A8        1.88456   0.00117   0.00316  -0.00057   0.00257   1.88713
    A9        1.88456   0.00117   0.00316  -0.00062   0.00252   1.88708
   A10        1.89351   0.00101   0.00396  -0.00478  -0.00079   1.89272
   A11        1.89350   0.00101   0.00396  -0.00477  -0.00077   1.89273
   A12        1.85105  -0.00051  -0.00055  -0.00417  -0.00458   1.84646
   A13        1.92575  -0.00016  -0.00248   0.00534   0.00286   1.92860
   A14        1.92575  -0.00016  -0.00248   0.00533   0.00285   1.92860
   A15        1.85215  -0.00027   0.00463  -0.01975  -0.01512   1.83703
   A16        1.91763  -0.00013   0.00061   0.00391   0.00454   1.92217
   A17        1.92086   0.00036  -0.00012   0.00227   0.00212   1.92298
   A18        1.92086   0.00036  -0.00012   0.00227   0.00212   1.92298
   A19        1.95688  -0.00156   0.00049  -0.00776  -0.00727   1.94961
   A20        1.93840   0.00064  -0.00068   0.00273   0.00205   1.94045
   A21        1.94905  -0.00092   0.00099  -0.00675  -0.00576   1.94329
   A22        1.88159   0.00030  -0.00017   0.00098   0.00080   1.88239
   A23        1.84812   0.00176  -0.00125   0.01682   0.01558   1.86370
   A24        1.88550  -0.00010   0.00058  -0.00524  -0.00468   1.88083
   A25        1.95688  -0.00156   0.00049  -0.00776  -0.00727   1.94960
[...]
 .00000631,0.00003368,-0.00003151,0.00017902,0.00026853,0.00038247,-0.0
 0025146,-0.00052877,-0.00047398,-0.00343700,-0.00318373,-0.02147437,0.
 00041588,0.00057038,0.00796024,0.00019837,-0.04522102,0.00002174,0.000
 92261,0.00033308,-0.00065639,0.00062395,0.00079127,-0.00007974,-0.0006
 7474,-0.00085522,-0.00000021,-0.00001170,-0.00002588,-0.00002760,0.000
 00644,0.00005417,-0.00018729,0.00032026,0.00049097,0.00033666,-0.00002
 980,0.00004805,-0.00151102,-0.00034729,0.00002476,0.03116226,0.0001269
 5,-0.00077286,-0.00902303,-0.00036765,-0.00055658,-0.00841887,0.001933
 66,0.04968684,0.00012553,0.00001126,0.00002265,0.00003135,-0.00015283,
 -0.00001104,-0.00115816,0.00083005,-0.00006492,0.00054352,-0.00059764,
 -0.00050961,0.00288121,0.00201486,-0.01171028,0.00002004,-0.00046083,0
 .00010679,-0.06510082,-0.01659401,0.06757162,-0.00125138,0.00232273,-0
 .00030954,-0.00029280,0.00033438,0.00030053,-0.00001884,-0.00000206,-0
 .00000099,-0.00193506,0.00038903,0.00042311,0.00005862,-0.00008010,0.0
 0007125,0.00015434,-0.00006792,0.00018783,-0.00008770,0.00006697,-0.00
 002086,0.00029857,-0.00013414,0.00003851,-0.00010867,-0.00007568,-0.00
 015784,-0.00004359,-0.00001457,0.00019030,0.07085851,-0.00014991,-0.00
 001690,-0.00002169,0.00000064,0.00014169,-0.00017091,0.00035102,0.0000
 3772,-0.00007723,-0.00092009,0.00084334,-0.00002091,-0.00963586,-0.006
 51866,0.02779410,-0.00039083,0.00157896,0.00132705,-0.01625093,-0.0602
 3400,0.05418867,0.00278502,-0.00557095,-0.00015954,0.00064145,0.000013
 12,-0.00015691,0.00001030,-0.00000398,0.00001874,0.00050761,0.00044865
 ,-0.00016792,0.00009933,-0.00015947,-0.00008529,-0.00014348,0.00000510
 ,-0.00009392,0.00010242,-0.00000736,-0.00003466,0.00010474,-0.00036992
 ,-0.00080941,0.00017798,0.00036635,-0.00024710,-0.00003161,-0.00009203
 ,-0.00004478,0.01615140,0.06484537,0.00024032,0.00000711,0.00003464,-0
 .00015034,-0.00048218,0.00030498,0.00081761,0.00062156,-0.00028000,0.0
 0073530,0.00025412,-0.00049339,0.00176542,0.00107768,-0.00846706,-0.00
 008110,-0.00077692,0.00045114,0.06675824,0.05524354,-0.27487400,-0.001
 25170,0.00194178,0.00103482,-0.00035508,-0.00012425,0.00020868,-0.0000
 2179,0.00003418,-0.00003403,0.00021292,-0.00097620,0.00068560,-0.00001
 217,-0.00005646,-0.00000105,-0.00016020,-0.00001155,0.00011416,0.00003
 171,0.00005471,0.00003276,0.00009245,0.00031505,0.00066677,-0.00016718
 ,0.00003943,0.00024146,-0.00003150,0.00000952,-0.00001020,-0.07517673,
 -0.06191242,0.29924140,-0.00015313,0.00000255,0.00000163,0.00003967,0.
 00002513,0.00007678,0.00035102,-0.00012027,-0.00033567,0.00082728,0.00
 277675,-0.00061351,-0.01152711,-0.00021546,-0.00023994,0.00030574,-0.0
 0085168,-0.00007668,-0.30900532,0.00341002,0.00868409,-0.00059523,-0.0
 0005954,0.00069947,-0.00052659,0.00011802,0.00095064,0.00003534,-0.000
 00669,-0.00000119,0.00008118,0.00008645,-0.00014095,-0.00005415,0.0000
 7399,0.00006649,-0.00085615,0.00013545,0.00014008,0.00029062,-0.000111
 13,0.00008394,-0.00004334,0.00004176,-0.00001510,0.00033308,0.00006090
 ,-0.00007374,0.00061275,0.00048431,0.00026911,-0.00877420,-0.00035421,
 0.00018962,0.33778239,0.00004896,0.00002098,-0.00002511,-0.00001013,0.
 00013544,-0.00010921,-0.00029480,-0.00025378,0.00053328,0.00059209,-0.
 00592496,0.00168859,0.03038389,-0.00000838,-0.00211956,0.00095864,0.00
 167260,0.00018969,0.00198227,-0.04657475,-0.00096722,0.00004819,0.0011
 3609,-0.00060907,-0.00024097,-0.00013144,0.00039273,-0.00001296,-0.000
 01063,0.00000904,0.00000313,0.00020909,-0.00026615,0.00000758,0.000031
 81,-0.00005355,0.00203008,-0.00001975,0.00020363,0.00004454,0.00010110
 ,0.00023629,-0.00006875,-0.00009061,-0.00004755,-0.00028222,0.00029130
 ,0.00017773,-0.00055402,-0.00043661,-0.00021509,-0.00691111,-0.0006780
 8,-0.00027585,-0.00418408,0.05046170,0.00010645,0.00000007,0.00002479,
 -0.00003990,-0.00024315,0.00013091,0.00028487,0.00038381,-0.00015336,-
 0.00023949,0.00213123,-0.00073674,-0.00930084,-0.00067534,-0.00062817,
 0.00048121,-0.00028323,-0.00001742,0.00979386,-0.00085123,-0.04578361,
 -0.00070521,-0.00045860,0.00020257,-0.00020327,0.00102053,-0.00034507,
 -0.00000638,0.00001902,-0.00001600,-0.00020604,-0.00045612,0.00020931,
 -0.00002765,-0.00001609,0.00002551,-0.00070560,0.00032669,0.00028772,0
 .00039409,0.00005436,0.00017508,0.00017787,0.00000622,-0.00001145,-0.0
 0008457,0.00001526,-0.00014271,0.00003405,-0.00014936,0.00032789,0.031
 22925,-0.00010628,-0.00097978,-0.01135633,-0.00155798,0.04802524,0.000
 03313,-0.00000489,-0.00000976,-0.00005613,-0.00002448,-0.00000710,-0.0
 0003229,-0.00005655,-0.00001043,0.00099947,0.00066307,0.00092513,0.002
 78058,0.00787104,0.00776408,-0.00063670,0.00207402,-0.00055795,-0.0788
 5095,-0.06409706,-0.05590517,0.00021108,-0.00051779,0.00003459,0.00000
 458,-0.00004299,0.00013514,-0.00001095,0.00000288,0.00000109,0.0000176
 2,-0.00000996,0.00010223,0.00007712,-0.00006459,-0.00007750,0.00014466
 ,-0.00019561,-0.00001602,-0.00004982,-0.00005704,-0.00026482,-0.000108
 56,-0.00008856,-0.00022740,0.00073528,0.00059652,0.00023834,0.00033332
 ,0.00029086,0.00004532,0.00277424,0.00748976,0.00610125,-0.01021859,-0
 .02281173,-0.02087564,0.08186595,0.00003265,0.00001557,0.00002014,0.00
 004652,0.00004020,-0.00004112,0.00027335,-0.00001504,-0.00001585,-0.00
 157430,0.00080425,-0.00081485,-0.01115168,-0.02091868,-0.01892931,0.00
 336868,-0.00496544,0.00333341,-0.06351779,-0.17463163,-0.11158211,-0.0
 0051889,0.00074817,-0.00182030,-0.00008431,-0.00006093,0.00033699,0.00
 000135,-0.00000881,-0.00000418,0.00004999,-0.00008330,-0.00016273,-0.0
 0012539,0.00004834,0.00016489,-0.00011789,0.00037121,0.00032001,0.0009
 5375,0.00037995,0.00053591,0.00013648,0.00026221,-0.00002950,-0.000642
 37,-0.00162321,-0.00136737,-0.00002309,0.00028586,0.00018932,0.0032022
 7,0.00544861,0.00466096,0.00018511,0.00022457,0.00074712,0.06904592,0.
 19289699,0.00005467,0.00002429,0.00001802,0.00002297,-0.00000413,0.000
 02377,0.00014133,-0.00006759,0.00001425,0.00002228,-0.00019655,0.00024
 820,0.00365355,0.00605348,0.00435985,-0.00026079,0.00156809,0.00009889
 ,-0.05579160,-0.11233416,-0.14529503,0.00041842,0.00064485,0.00098401,
 -0.00002874,-0.00008611,0.00004470,0.00000151,-0.00000976,-0.00000488,
 -0.00007800,-0.00009697,-0.00026007,-0.00008876,0.00018537,0.00003025,
 0.00022760,0.00006238,0.00006819,0.00024231,-0.00013391,0.00020441,-0.
 00010971,0.00025738,0.00034522,-0.00004176,0.00027150,0.00067316,-0.00
 009276,0.00002694,-0.00013737,-0.01165616,-0.02129643,-0.01771414,0.00
 106879,0.00216523,0.00065607,0.06244128,0.12326746,0.15536748,0.000023
 55,0.00000116,-0.00000285,-0.00003174,0.00000904,-0.00002787,0.0001338
 8,-0.00005618,-0.00018484,0.00040267,-0.00142671,0.00109525,0.00149263
 ,-0.00572274,0.00162284,-0.00018052,0.00029909,-0.00020941,-0.00036475
 ,-0.00065895,0.00144339,-0.08694020,0.08930675,-0.02566504,-0.01711281
 ,0.03026263,-0.00685774,-0.00000367,0.00000094,0.00000448,0.00001754,-
 0.00003740,0.00002889,0.00001575,-0.00000086,-0.00003639,-0.00011837,0
 .00004391,0.00058656,0.00000578,-0.00006956,-0.00007546,-0.00000327,-0
 .00021031,-0.00001634,0.00017761,-0.00017984,-0.00025193,0.00001576,0.
 00006238,0.00002036,0.00035091,-0.00032208,0.00035873,0.00010686,-0.00
 006412,0.00019053,-0.00006325,0.00024250,0.00002747,0.10076593,-0.0000
 4428,0.00002322,-0.00002946,-0.00004393,0.00001069,0.00007449,-0.00037
 702,0.00046522,-0.00007365,0.00100547,-0.00028917,-0.00055322,0.002683
 33,-0.00835816,0.00177815,-0.00015551,0.00053309,-0.00071983,-0.001195
 80,0.00090487,0.00202532,0.08896419,-0.24184617,0.05268116,-0.00110014
 ,0.00195264,-0.00060794,-0.00000220,-0.00001035,0.00000701,0.00014296,
 0.00011632,-0.00025314,0.00000609,-0.00002713,-0.00000521,-0.00085977,
 0.00071450,0.00014393,0.00006013,-0.00008505,0.00008385,-0.00015098,0.
 00022086,0.00004409,0.00012471,0.00064498,0.00032863,-0.00005899,0.000
 02194,-0.00004491,0.00047255,-0.00044647,0.00045302,0.00002859,0.00007
 395,-0.00007733,-0.00001509,0.00046957,-0.00014148,-0.09859097,0.26246
 420,-0.00000902,-0.00000901,-0.00000490,0.00005649,-0.00005869,0.00001
 526,-0.00009571,-0.00033822,0.00007917,-0.00173165,0.00086308,0.000432
 85,-0.01135776,0.02880299,-0.01029544,-0.00046448,0.00139885,0.0014904
 3,0.00268248,-0.00021076,-0.00589250,-0.02543540,0.05165575,-0.0616180
 5,0.00310103,-0.00534646,0.00103236,0.00000316,0.00000818,-0.00000165,
 -0.00015146,-0.00007907,0.00016585,0.00000453,0.00003267,-0.00002951,0
 .00086714,-0.00048977,0.00020334,0.00015943,-0.00013955,0.00001967,0.0
 0026496,-0.00022986,0.00036248,0.00013034,-0.00090994,-0.00028333,0.00
 000797,-0.00006699,-0.00012561,-0.00069325,0.00204288,-0.00059508,-0.0
 0012065,-0.00024692,0.00011553,0.00019811,0.00006947,0.00016966,0.0234
 0934,-0.05987558,0.06914281,0.00002351,0.00000018,-0.00000306,-0.00003
 170,0.00000392,-0.00002899,0.00013401,0.00012983,-0.00014261,0.0004036
 1,0.00081717,0.00160296,0.00149290,0.00446493,0.00392704,-0.00036420,-
 0.00002560,0.00158539,-0.00017981,-0.00017899,-0.00031739,-0.08698079,
 -0.06958533,-0.06163949,-0.01711918,-0.02435778,-0.01921692,-0.0000036
 6,-0.00000279,0.00000364,0.00001570,0.00001642,-0.00003227,0.00001758,
 0.00002141,0.00004219,0.00000542,0.00009485,-0.00003750,-0.00011940,-0
 .00029188,0.00051058,0.00035083,0.00013579,0.00046208,-0.00006360,-0.0
 0023042,-0.00007937,0.00010692,-0.00002437,0.00019968,-0.00000324,0.00
 019693,0.00007582,0.00001557,-0.00006522,-0.00000870,0.00017758,0.0002
 7063,-0.00014946,0.00515531,0.00895184,0.00807727,0.10081199,0.0000438
 0,0.00000311,0.00003323,0.00001537,0.00001771,-0.00007327,0.00038157,0
 .00023370,0.00014760,-0.00016215,-0.00003683,0.00032847,0.00246677,0.0
 0316385,0.00464261,-0.00007540,0.00034969,0.00095236,0.00034082,0.0009
 7408,0.00047450,-0.06937454,-0.16787006,-0.10335984,-0.00033774,-0.000
 52559,-0.00013341,0.00000062,-0.00000290,-0.00000758,-0.00000740,-0.00
 001687,0.00001096,-0.00006391,-0.00000369,0.00017245,-0.00012314,-0.00
 008614,-0.00013439,0.00040390,0.00048563,-0.00000937,-0.00012782,0.000
 49595,0.00006736,-0.00007128,0.00038620,0.00024473,0.00002597,-0.00004
 427,0.00000067,0.00002246,0.00017495,-0.00013347,0.00004978,-0.0000488
 8,0.00008111,-0.00016887,0.00024676,-0.00007518,-0.01156427,-0.0202760
 1,-0.01721848,0.07893606,0.18006835,0.00001091,0.00001295,0.00001524,0
 .00006991,0.00005975,0.00000833,0.00007644,0.00041162,0.00031078,-0.00
 199746,-0.00108464,0.00017773,-0.01141478,-0.02238050,-0.02182095,0.00
 293817,0.00318643,-0.00533755,-0.00035355,-0.00164454,0.00104943,-0.06
 128390,-0.10233218,-0.13555030,0.00327474,0.00460118,0.00351770,0.0000
 0377,-0.00000884,-0.00000917,0.00000163,-0.00002631,-0.00003996,-0.000
 19814,-0.00000209,0.00028583,0.00011767,0.00008888,0.00002193,0.001153
 38,0.00062288,0.00043355,-0.00083063,-0.00152162,-0.00153756,0.0001853
 5,0.00003387,0.00025332,-0.00012122,0.00017055,0.00023359,0.00030426,0
 .00013993,0.00040860,0.00003242,0.00010383,-0.00005494,0.00006537,0.00
 116328,0.00011466,0.00343801,0.00535789,0.00458732,0.06360364,0.112781
 91,0.15149231,-0.00001426,0.00000419,0.00000764,0.00004021,0.00002729,
 0.00003069,0.00004004,0.00009324,0.00008187,-0.00007552,-0.00005068,-0
 .00002486,0.00094047,-0.00033572,-0.00123547,-0.00036426,-0.00002450,-
 0.00003341,-0.00007565,0.00003867,0.00015650,-0.01465321,-0.02419267,-
 0.01902438,-0.09885062,-0.08194910,-0.06331131,0.00000500,-0.00000413,
 -0.00000716,-0.00000233,-0.00000749,0.00000402,-0.00005989,0.00000930,
 0.00012184,-0.00001331,-0.00000444,-0.00005245,0.00027202,0.00021308,0
 .00013248,0.00043905,0.00023879,0.00000498,-0.00016671,0.00015287,0.00
 008197,0.00057927,-0.00005385,0.00099523,0.00004716,-0.00008181,0.0000
 7206,0.00004122,-0.00009125,0.00006119,-0.00000143,0.00018496,-0.00004
 032,0.00138672,0.00050883,-0.00023368,-0.00661456,0.00008381,0.0018124
 9,0.10926242,-0.00000041,0.00000240,0.00000396,-0.00000136,0.00001136,
 0.00003974,-0.00004083,-0.00003783,-0.00003182,-0.00008570,0.00000875,
 0.00021022,-0.00024800,-0.00023569,-0.00099586,-0.00062869,0.00024448,
 -0.00072468,-0.00009904,-0.00001901,0.00028147,-0.00060036,-0.00060068
 ,0.00058247,-0.08265591,-0.18048858,-0.10085438,0.00000140,-0.00000201
 ,-0.00000592,-0.00000362,0.00000264,-0.00000009,-0.00000908,0.00002918
 ,0.00005241,0.00002235,-0.00001961,-0.00000989,0.00007665,0.00004743,0
 .00005912,0.00043832,0.00005615,0.00008081,0.00010082,-0.00011987,0.00
 000433,0.00075499,0.00019022,0.00021516,-0.00006590,-0.00001094,0.0000
 9982,-0.00004667,-0.00015455,-0.00015396,0.00019019,0.00015271,-0.0000
 0832,-0.00033809,0.00074807,0.00047905,0.00009362,0.00156772,0.0001168
 8,0.09179743,0.19279372,-0.00004140,0.00000423,-0.00000181,0.00000343,
 -0.00000631,0.00003337,-0.00004595,-0.00004200,-0.00009693,0.00002215,
 -0.00017670,0.00006972,-0.00033406,0.00051937,0.00024468,0.00063624,-0
 .00009665,-0.00076276,-0.00001946,0.00007209,-0.00006788,0.00244157,0.
 00567814,0.00417398,-0.06407249,-0.10127982,-0.12361277,0.00000741,-0.
 00000130,-0.00000228,0.00000276,0.00000318,0.00000266,0.00003860,0.000
 02046,-0.00000413,0.00000146,0.00000187,0.00000955,-0.00009038,-0.0000
 2059,-0.00000810,0.00000015,0.00010358,0.00012949,-0.00008423,-0.00001
 360,0.00000177,0.00102618,-0.00010848,-0.00170592,-0.00000564,-0.00001
 734,0.00000105,-0.00002243,0.00004247,0.00004300,-0.00004209,-0.000063
 14,0.00000668,-0.00063931,-0.00003652,0.00011719,0.00172070,0.00052659
 ,0.00066053,0.06941379,0.11273368,0.13417219,-0.00017027,0.00000927,-0
 .00004027,0.00003359,-0.00006329,0.00027847,-0.00068666,0.00005345,-0.
 00023375,0.00001938,-0.00043152,0.00190530,-0.00610374,0.00039165,-0.0
 0172713,-0.00043959,-0.00036273,-0.00061552,-0.00043919,0.00059262,-0.
 00039856,-0.00624289,-0.00777665,0.03436912,-0.04919836,-0.00749473,0.
 03311998,0.00002090,0.00000269,-0.00001184,0.00001799,-0.00002609,-0.0
 0001319,0.00001806,0.00002924,-0.00000067,-0.00000576,0.00008820,0.000
 01777,-0.00000574,-0.00008731,-0.00002196,0.00019172,0.00008468,0.0001
 0089,0.00004007,0.00005611,0.00003541,0.00035241,0.00007780,0.00013113
 ,0.00019151,-0.00012001,0.00005457,0.00035208,-0.00012699,0.00008454,0
 .00004009,-0.00006585,0.00000782,0.00138256,0.00049992,-0.00026953,0.0
 0138238,-0.00033550,-0.00045855,0.00134365,0.00415489,-0.01376457,0.05
 656342,-0.00002423,-0.00000269,-0.00000275,0.00000840,0.00002692,0.000
 02404,-0.00003570,-0.00002330,-0.00002953,0.00001064,0.00012986,0.0001
 4412,-0.00015883,-0.00002873,-0.00034968,-0.00017118,0.00017487,-0.000
 29160,0.00027459,0.00011498,0.00031746,0.00002196,-0.00128235,0.000893
 40,-0.00779361,-0.05884344,0.05566192,0.00000414,-0.00000095,-0.000000
 44,0.00001057,0.00002180,-0.00002068,-0.00000408,0.00001148,0.00002264
 ,-0.00004069,0.00001109,-0.00001908,0.00003004,-0.00001135,0.00002071,
 0.00021454,0.00005557,0.00002498,-0.00001422,0.00002380,0.00003389,0.0
 0030945,-0.00007815,0.00024218,-0.00026594,0.00006326,0.00001186,-0.00
 040568,0.00009258,-0.00029872,-0.00001400,0.00001267,-0.00002301,-0.00
 016303,0.00032432,-0.00048815,0.00004859,-0.00005953,0.00030073,0.0035
 4645,0.00535311,-0.02337501,0.00867553,0.06008351,0.00010714,-0.000002
 86,0.00000889,-0.00003714,0.00002418,-0.00007397,0.00015806,-0.0000296
 9,0.00010032,-0.00004696,0.00014450,-0.00047524,0.00070509,-0.00034998
 ,0.00143761,-0.00027812,0.00019331,0.00006024,-0.00017718,-0.00016684,
 0.00011983,-0.00009397,0.00089785,-0.00504753,0.03444056,0.05566137,-0
 .29223507,-0.00001830,-0.00000042,0.00000088,-0.00001251,0.00000117,0.
 00000749,-0.00001585,0.00000075,0.00001778,0.00001544,-0.00002641,-0.0
 0001486,0.00003146,0.00002806,0.00000762,0.00016828,0.00002762,-0.0000
 1404,0.00006136,-0.00004619,-0.00000988,0.00029391,0.00005755,0.000210
 47,0.00005940,0.00000914,-0.00002161,0.00013176,-0.00011419,0.00004036
 ,0.00006155,0.00005698,0.00000111,0.00022820,-0.00050411,0.00033353,0.
 00027622,0.00031655,0.00071727,0.00200374,0.00427903,-0.01677517,-0.03
 834352,-0.06123733,0.31685588,-0.00001423,-0.00000712,0.00000511,0.000
 04018,-0.00003785,0.00001589,0.00003994,-0.00011935,0.00003372,-0.0000
 7520,0.00005619,-0.00000033,0.00094060,0.00083499,-0.00097058,-0.00007
 554,-0.00010230,0.00012466,-0.00036501,0.00003640,-0.00001925,-0.01464
 656,0.03002983,-0.00675470,-0.09880390,0.10118928,-0.02184778,0.000005
 00,0.00000683,-0.00000469,-0.00005994,-0.00006094,0.00010583,-0.000002
 39,0.00000509,0.00000697,0.00027176,-0.00024938,0.00002748,-0.00001308
 ,0.00002688,-0.00004547,0.00004718,0.00004282,0.00010020,-0.00000163,-
 0.00014946,-0.00011607,0.00004127,0.00005604,0.00009468,0.00043896,-0.
 00021775,-0.00009824,0.00057899,-0.00038103,0.00092171,-0.00016602,-0.
 00017260,0.00000807,-0.00661487,-0.00085391,0.00160035,0.00138681,-0.0
 0035893,-0.00042995,0.00649453,-0.01280698,0.00384755,0.00134236,-0.00
 406371,0.00028140,0.10921079,0.00001817,0.00000483,-0.00000084,-0.0000
 0024,0.00002845,-0.00004209,0.00005654,-0.00007755,0.00004095,0.000067
 89,0.00003306,-0.00022777,0.00036740,-0.00033212,0.00072098,0.00009845
 ,0.00010920,-0.00019670,0.00029348,-0.00026234,0.00096238,-0.00050553,
 0.00271024,-0.00127571,0.10215458,-0.24854128,0.04128224,-0.00000446,-
 0.00000488,0.00000470,-0.00000832,0.00005138,-0.00002586,0.00000212,0.
 00000375,0.00000065,-0.00003028,0.00005217,-0.00003037,-0.00002089,-0.
 00001732,-0.00000295,0.00006172,0.00002339,-0.00008924,-0.00015367,0.0
 0009817,0.00005189,0.00005142,-0.00016145,0.00005626,-0.00039521,0.000
 14167,-0.00007505,-0.00112341,-0.00011877,0.00054195,-0.00005503,-0.00
 010060,-0.00005337,-0.00082328,0.00165009,0.00035452,0.00058022,0.0008
 0306,-0.00015187,0.00989674,-0.01951917,0.00553181,0.00217463,-0.00616
 931,0.00077998,-0.11270305,0.26959533,-0.00003716,-0.00000101,-0.00000
 416,0.00000367,0.00000391,0.00001626,-0.00002384,0.00005141,-0.0000572
 2,0.00005694,0.00015903,0.00004535,-0.00019493,-0.00079445,0.00034110,
 0.00002545,0.00001218,-0.00019573,0.00084485,0.00033548,-0.00025659,0.
 00246151,-0.00637533,0.00085653,-0.02222998,0.04170715,-0.05560359,0.0
 0000607,0.00000006,0.00000056,0.00003877,0.00000602,-0.00002623,0.0000
 0405,-0.00000265,0.00000141,-0.00011452,0.00004933,-0.00001274,-0.0000
 0841,-0.00001471,0.00000724,0.00002309,0.00002807,-0.00003324,-0.00011
 986,0.00010685,0.00006154,-0.00000054,-0.00014003,0.00004945,-0.000188
 66,-0.00009779,0.00004427,0.00060136,0.00086494,-0.00139474,-0.0001195
 9,-0.00003548,-0.00001709,0.00151311,-0.00005518,0.00057860,-0.0004314
 4,0.00036387,0.00006230,0.00898258,-0.01645321,0.00337189,-0.01420596,
 0.02843803,-0.00525188,0.02311344,-0.04815649,0.05741672\\0.00000960,0
 .00000515,0.00000256,-0.00002728,0.00000040,0.00000520,0.00002310,0.00
 000266,-0.00003789,-0.00000213,-0.00000325,0.00001416,-0.00000576,0.00
 000242,-0.00000830,0.00000375,-0.00000236,0.00001886,0.00000370,-0.000
 00650,0.00001795,-0.00001130,0.00000016,-0.00000186,0.00001032,0.00000
 383,-0.00001642,-0.00000369,-0.00000338,0.00000163,-0.00000765,-0.0000
 0200,0.00000851,-0.00001012,-0.00000194,0.00000888,0.00000641,0.000000
 60,-0.00000176,0.00001163,0.00000109,0.00000215,0.00000328,0.00000479,
 -0.00000352,-0.00000018,0.00000461,-0.00000048,-0.00001259,-0.00000175
 ,0.00000721,0.00000285,-0.00000320,-0.00000473,-0.00001275,-0.00000150
 ,0.00000735,-0.00000020,-0.00000376,-0.00000244,0.00000213,-0.00000274
 ,-0.00000270,0.00000209,0.00000347,-0.00000095,0.00000265,-0.00000560,
 -0.00000944,0.00000966,-0.00000033,0.00000274,0.00000249,0.00000914,-0
 .00000672\\\@


 THOSE WHO TRY TO PASS CHEMISTRY OFF AS A NEW SCIENCE
 SHOW HOW LITTLE KNOWLEDGE THEY HAVE OF THE CHARACTER
 AND LITERATURE OF THE ANCIENTS.
   -- NICOLAS LEFEVRE
 "COURS DE CHYMIE" J.-N.LELOUP, PARIS, 1751
 Job cpu time:       0 days  2 hours 31 minutes 12.1 seconds.
 Elapsed time:       0 days  0 hours 37 minutes 48.8 seconds.
 File lengths (MBytes):  RWF=    199 Int=      0 D2E=      0 Chk=     10 Scr=      1
 Normal termination of Gaussian 16 at Tue Mar  9 01:51:06 2021.
### All Done ###
