Currently Loaded Modulefiles:
  1) miniconda3/miniconda3-4.3.30   2) gaussian/gaussian-16-A.03
### Starting Gaussian ###
 Entering Gaussian System, Link 0=g16
 Initial command:
 /cluster/software/gaussian/gaussian-16-A.03/avx2/g16/l1.exe "/local/scratch/ks29c/Gau-29027.inp" -scrdir="/local/scratch/ks29c/"
 Entering Link 1 = /cluster/software/gaussian/gaussian-16-A.03/avx2/g16/l1.exe PID=     29028.
  
 Copyright (c) 1988,1990,1992,1993,1995,1998,2003,2009,2016,
            Gaussian, Inc.  All Rights Reserved.
  
 This is part of the Gaussian(R) 16 program.  It is based on
 the Gaussian(R) 09 system (copyright 2009, Gaussian, Inc.),
 the Gaussian(R) 03 system (copyright 2003, Gaussian, Inc.),
 the Gaussian(R) 98 system (copyright 1998, Gaussian, Inc.),
 the Gaussian(R) 94 system (copyright 1995, Gaussian, Inc.),
 the Gaussian 92(TM) system (copyright 1992, Gaussian, Inc.),
 the Gaussian 90(TM) system (copyright 1990, Gaussian, Inc.),
 the Gaussian 88(TM) system (copyright 1988, Gaussian, Inc.),
 the Gaussian 86(TM) system (copyright 1986, Carnegie Mellon
 University), and the Gaussian 82(TM) system (copyright 1983,
 Carnegie Mellon University). Gaussian is a federally registered
 trademark of Gaussian, Inc.
  
 This software contains proprietary and confidential information,
 including trade secrets, belonging to Gaussian, Inc.
  
 This software is provided under written license and may be
 used, copied, transmitted, or stored only in accord with that
 written license.
  
 The following legend is applicable only to US Government
 contracts under FAR:
  
                    RESTRICTED RIGHTS LEGEND
  
 Use, reproduction and disclosure by the US Government is
 subject to restrictions as set forth in subparagraphs (a)
 and (c) of the Commercial Computer Software - Restricted
 Rights clause in FAR 52.227-19.
  
 Gaussian, Inc.
 340 Quinnipiac St., Bldg. 40, Wallingford CT 06492
  
  
 ---------------------------------------------------------------
 Warning -- This program may not be used in any manner that
 competes with the business of Gaussian, Inc. or will provide
 assistance to any competitor of Gaussian, Inc.  The licensee
 of this program is prohibited from giving any competitor of
 Gaussian, Inc. access to this program.  By using this program,
 the user acknowledges that Gaussian, Inc. is engaged in the
 business of creating and licensing software in the field of
 computational chemistry and represents and warrants to the
 licensee that it is not a competitor of Gaussian, Inc. and that
 it will not use this program in any manner prohibited above.
 ---------------------------------------------------------------
  

 Cite this work as:
 Gaussian 16, Revision A.03,
 M. J. Frisch, G. W. Trucks, H. B. Schlegel, G. E. Scuseria, 
 M. A. Robb, J. R. Cheeseman, G. Scalmani, V. Barone, 
 G. A. Petersson, H. Nakatsuji, X. Li, M. Caricato, A. V. Marenich, 
 J. Bloino, B. G. Janesko, R. Gomperts, B. Mennucci, H. P. Hratchian, 
 J. V. Ortiz, A. F. Izmaylov, J. L. Sonnenberg, D. Williams-Young, 
 F. Ding, F. Lipparini, F. Egidi, J. Goings, B. Peng, A. Petrone, 
 T. Henderson, D. Ranasinghe, V. G. Zakrzewski, J. Gao, N. Rega, 
 G. Zheng, W. Liang, M. Hada, M. Ehara, K. Toyota, R. Fukuda, 
 J. Hasegawa, M. Ishida, T. Nakajima, Y. Honda, O. Kitao, H. Nakai, 
 T. Vreven, K. Throssell, J. A. Montgomery, Jr., J. E. Peralta, 
 F. Ogliaro, M. J. Bearpark, J. J. Heyd, E. N. Brothers, K. N. Kudin, 
 V. N. Staroverov, T. A. Keith, R. Kobayashi, J. Normand, 
 K. Raghavachari, A. P. Rendell, J. C. Burant, S. S. Iyengar, 
 J. Tomasi, M. Cossi, J. M. Millam, M. Klene, C. Adamo, R. Cammi, 
 J. W. Ochterski, R. L. Martin, K. Morokuma, O. Farkas, 
 J. B. Foresman, and D. J. Fox, Gaussian, Inc., Wallingford CT, 2016.
 
 ******************************************
 Gaussian 16:  ES64L-G16RevA.03 25-Dec-2016
                18-Feb-2021 
 ******************************************
 %NProcShared=20
 Will use up to   20 processors via shared memory.
 %Chk=OC1CdCC2C3OC3C12.chk
 -----------------------------
 # opt freq b3lyp/6-31g(2df,p)
 -----------------------------
 1/18=20,19=15,26=3,38=1/1,3;
 2/9=110,12=2,17=6,18=5,40=1/2;
 3/5=1,6=6,7=104,11=2,25=1,30=1,71=1,74=-5/1,2,3;
 4//1;
 5/5=2,38=5/2;
 6/7=2,8=2,9=2,10=2,28=1/1;
 7//1,2,3,16;
 1/18=20,19=15,26=3/3(2);
 2/9=110/2;
 99//99;
 2/9=110/2;
 3/5=1,6=6,7=104,11=2,25=1,30=1,71=1,74=-5/1,2,3;
 4/5=5,16=3,69=1/1;
 5/5=2,38=5/2;
 7//1,2,3,16;
 1/18=20,19=15,26=3/3(-5);
 2/9=110/2;
 6/7=2,8=2,9=2,10=2,19=2,28=1/1;
 99/9=1/99;
 -----
 Title
 -----
 Symbolic Z-matrix:
 Charge =  0 Multiplicity = 1
 O                    -1.84702  -2.65807   0.73085 
 C                    -0.83665  -1.91537   1.35839 
 C                    -0.24063  -0.88785   0.45801 
 C                     1.12967  -0.97941   0.42639 
 C                     1.61847  -2.09681   1.28572 
 C                     2.03292  -3.28329   0.41858 
 O                     1.94935  -4.5016    1.10254 
 C                     0.72431  -3.90324   0.73721 
 C                     0.3485   -2.81928   1.73953 
 H                    -2.63291  -2.05644   0.654 
 H                    -1.22619  -1.39034   2.25973 
 H                    -0.80195  -0.1259   -0.06646 
 H                     1.76546  -0.31835  -0.14741 
 H                     2.29115  -1.80089   2.11871 
 H                     2.06404  -3.2724   -0.69236 
 H                     0.10488  -4.72659   0.3245 
 H                     0.30481  -3.30682   2.73831 
 

 GradGradGradGradGradGradGradGradGradGradGradGradGradGradGradGradGradGrad
 Berny optimization.
 Initialization pass.
                           ----------------------------
                           !    Initial Parameters    !
                           ! (Angstroms and Degrees)  !
 --------------------------                            --------------------------
 ! Name  Definition              Value          Derivative Info.                !
 --------------------------------------------------------------------------------
 ! R1    R(1,2)                  1.4022         estimate D2E/DX2                !
 ! R2    R(1,10)                 0.9927         estimate D2E/DX2                !
 ! R3    R(2,3)                  1.4905         estimate D2E/DX2                !
 ! R4    R(2,9)                  1.5385         estimate D2E/DX2                !
 ! R5    R(2,11)                 1.1135         estimate D2E/DX2                !
 ! R6    R(3,4)                  1.3737         estimate D2E/DX2                !
 ! R7    R(3,12)                 1.082          estimate D2E/DX2                !
 ! R8    R(4,5)                  1.492          estimate D2E/DX2                !
 ! R9    R(4,13)                 1.0819         estimate D2E/DX2                !
 ! R10   R(5,6)                  1.5269         estimate D2E/DX2                !
 ! R11   R(5,9)                  1.5299         estimate D2E/DX2                !
 ! R12   R(5,14)                 1.1108         estimate D2E/DX2                !
 ! R13   R(6,7)                  1.3997         estimate D2E/DX2                !
 ! R14   R(6,8)                  1.4827         estimate D2E/DX2                !
 ! R15   R(6,15)                 1.1114         estimate D2E/DX2                !
 ! R16   R(7,8)                  1.4115         estimate D2E/DX2                !
 ! R17   R(8,9)                  1.5234         estimate D2E/DX2                !
 ! R18   R(8,16)                 1.1099         estimate D2E/DX2                !
 ! R19   R(9,17)                 1.1123         estimate D2E/DX2                !
 ! A1    A(2,1,10)             106.5034         estimate D2E/DX2                !
 ! A2    A(1,2,3)              112.514          estimate D2E/DX2                !
 ! A3    A(1,2,9)              110.7777         estimate D2E/DX2                !
 ! A4    A(1,2,11)             111.0964         estimate D2E/DX2                !
 ! A5    A(3,2,9)              104.2787         estimate D2E/DX2                !
 ! A6    A(3,2,11)             107.6872         estimate D2E/DX2                !
 ! A7    A(9,2,11)             110.2426         estimate D2E/DX2                !
 ! A8    A(2,3,4)              111.5202         estimate D2E/DX2                !
 ! A9    A(2,3,12)             124.8068         estimate D2E/DX2                !
 ! A10   A(4,3,12)             123.5916         estimate D2E/DX2                !
 ! A11   A(3,4,5)              111.3133         estimate D2E/DX2                !
 ! A12   A(3,4,13)             123.8961         estimate D2E/DX2                !
 ! A13   A(5,4,13)             124.7901         estimate D2E/DX2                !
 ! A14   A(4,5,6)              110.1083         estimate D2E/DX2                !
 ! A15   A(4,5,9)              104.6291         estimate D2E/DX2                !
 ! A16   A(4,5,14)             115.5178         estimate D2E/DX2                !
 ! A17   A(6,5,9)               91.537          estimate D2E/DX2                !
 ! A18   A(6,5,14)             117.9367         estimate D2E/DX2                !
 ! A19   A(9,5,14)             113.956          estimate D2E/DX2                !
 ! A20   A(5,6,7)              112.4977         estimate D2E/DX2                !
 ! A21   A(5,6,8)               87.8966         estimate D2E/DX2                !
 ! A22   A(5,6,15)             124.5861         estimate D2E/DX2                !
 ! A23   A(7,6,15)             119.9104         estimate D2E/DX2                !
 ! A24   A(8,6,15)             104.1001         estimate D2E/DX2                !
 ! A25   A(6,8,9)               93.5321         estimate D2E/DX2                !
 ! A26   A(6,8,16)             136.2885         estimate D2E/DX2                !
 ! A27   A(7,8,9)              110.2091         estimate D2E/DX2                !
 ! A28   A(7,8,16)             105.4348         estimate D2E/DX2                !
 ! A29   A(9,8,16)             129.4042         estimate D2E/DX2                !
 ! A30   A(2,9,5)              106.7688         estimate D2E/DX2                !
 ! A31   A(2,9,8)              116.4287         estimate D2E/DX2                !
 ! A32   A(2,9,17)             116.7265         estimate D2E/DX2                !
 ! A33   A(5,9,8)               86.3347         estimate D2E/DX2                !
 ! A34   A(5,9,17)             120.3939         estimate D2E/DX2                !
 ! A35   A(8,9,17)             106.7747         estimate D2E/DX2                !
 ! D1    D(10,1,2,3)           -73.1488         estimate D2E/DX2                !
 ! D2    D(10,1,2,9)           170.5667         estimate D2E/DX2                !
 ! D3    D(10,1,2,11)           47.6768         estimate D2E/DX2                !
 ! D4    D(1,2,3,4)           -128.3046         estimate D2E/DX2                !
 ! D5    D(1,2,3,12)            54.8842         estimate D2E/DX2                !
 ! D6    D(9,2,3,4)             -8.1893         estimate D2E/DX2                !
 ! D7    D(9,2,3,12)           174.9995         estimate D2E/DX2                !
 ! D8    D(11,2,3,4)           108.9335         estimate D2E/DX2                !
 ! D9    D(11,2,3,12)          -67.8777         estimate D2E/DX2                !
 ! D10   D(1,2,9,5)            133.2278         estimate D2E/DX2                !
 ! D11   D(1,2,9,8)             38.9146         estimate D2E/DX2                !
 ! D12   D(1,2,9,17)           -88.7552         estimate D2E/DX2                !
 ! D13   D(3,2,9,5)             11.9517         estimate D2E/DX2                !
 ! D14   D(3,2,9,8)            -82.3615         estimate D2E/DX2                !
 ! D15   D(3,2,9,17)           149.9687         estimate D2E/DX2                !
 ! D16   D(11,2,9,5)          -103.3889         estimate D2E/DX2                !
 ! D17   D(11,2,9,8)           162.298          estimate D2E/DX2                !
 ! D18   D(11,2,9,17)           34.6282         estimate D2E/DX2                !
 ! D19   D(2,3,4,5)              0.9644         estimate D2E/DX2                !
 ! D20   D(2,3,4,13)          -178.7609         estimate D2E/DX2                !
 ! D21   D(12,3,4,5)           177.8213         estimate D2E/DX2                !
 ! D22   D(12,3,4,13)           -1.9039         estimate D2E/DX2                !
 ! D23   D(3,4,5,6)            103.934          estimate D2E/DX2                !
 ! D24   D(3,4,5,9)              6.7484         estimate D2E/DX2                !
 ! D25   D(3,4,5,14)          -119.3802         estimate D2E/DX2                !
 ! D26   D(13,4,5,6)           -76.3437         estimate D2E/DX2                !
 ! D27   D(13,4,5,9)          -173.5293         estimate D2E/DX2                !
 ! D28   D(13,4,5,14)           60.3421         estimate D2E/DX2                !
 ! D29   D(4,5,6,7)           -154.3747         estimate D2E/DX2                !
 ! D30   D(4,5,6,8)            -99.8413         estimate D2E/DX2                !
 ! D31   D(4,5,6,15)             5.8699         estimate D2E/DX2                !
 ! D32   D(9,5,6,7)            -48.1817         estimate D2E/DX2                !
 ! D33   D(9,5,6,8)              6.3518         estimate D2E/DX2                !
 ! D34   D(9,5,6,15)           112.063          estimate D2E/DX2                !
 ! D35   D(14,5,6,7)            70.1117         estimate D2E/DX2                !
 ! D36   D(14,5,6,8)           124.6452         estimate D2E/DX2                !
 ! D37   D(14,5,6,15)         -129.6436         estimate D2E/DX2                !
 ! D38   D(4,5,9,2)            -11.4586         estimate D2E/DX2                !
 ! D39   D(4,5,9,8)            105.0608         estimate D2E/DX2                !
 ! D40   D(4,5,9,17)          -147.6194         estimate D2E/DX2                !
 ! D41   D(6,5,9,2)           -122.7091         estimate D2E/DX2                !
 ! D42   D(6,5,9,8)             -6.1897         estimate D2E/DX2                !
 ! D43   D(6,5,9,17)           101.1301         estimate D2E/DX2                !
 ! D44   D(14,5,9,2)           115.6386         estimate D2E/DX2                !
 ! D45   D(14,5,9,8)          -127.8421         estimate D2E/DX2                !
 ! D46   D(14,5,9,17)          -20.5223         estimate D2E/DX2                !
 ! D47   D(5,6,8,9)             -6.3889         estimate D2E/DX2                !
 ! D48   D(5,6,8,16)           163.6512         estimate D2E/DX2                !
 ! D49   D(15,6,8,9)          -131.5899         estimate D2E/DX2                !
 ! D50   D(15,6,8,16)           38.4502         estimate D2E/DX2                !
 ! D51   D(6,8,9,2)            113.303          estimate D2E/DX2                !
 ! D52   D(6,8,9,5)              6.385          estimate D2E/DX2                !
 ! D53   D(6,8,9,17)          -114.2923         estimate D2E/DX2                !
 ! D54   D(7,8,9,2)            170.1769         estimate D2E/DX2                !
 ! D55   D(7,8,9,5)             63.2589         estimate D2E/DX2                !
 ! D56   D(7,8,9,17)           -57.4184         estimate D2E/DX2                !
 ! D57   D(16,8,9,2)           -57.7987         estimate D2E/DX2                !
 ! D58   D(16,8,9,5)          -164.7168         estimate D2E/DX2                !
 ! D59   D(16,8,9,17)           74.6059         estimate D2E/DX2                !
 --------------------------------------------------------------------------------
 Trust Radius=3.00D-01 FncErr=1.00D-07 GrdErr=1.00D-06 EigMax=2.50D+02 EigMin=1.00D-04
 Number of steps in this run=    102 maximum allowed number of steps=    102.
 GradGradGradGradGradGradGradGradGradGradGradGradGradGradGradGradGradGrad

                          Input orientation:                          
 ---------------------------------------------------------------------
 Center     Atomic      Atomic             Coordinates (Angstroms)
 Number     Number       Type             X           Y           Z
 ---------------------------------------------------------------------
      1          8           0       -1.847020   -2.658070    0.730850
      2          6           0       -0.836650   -1.915370    1.358390
      3          6           0       -0.240630   -0.887850    0.458010
      4          6           0        1.129670   -0.979410    0.426390
      5          6           0        1.618470   -2.096810    1.285720
      6          6           0        2.032920   -3.283290    0.418580
      7          8           0        1.949350   -4.501600    1.102540
      8          6           0        0.724310   -3.903240    0.737210
      9          6           0        0.348500   -2.819280    1.739530
     10          1           0       -2.632910   -2.056440    0.654000
     11          1           0       -1.226190   -1.390340    2.259730
     12          1           0       -0.801950   -0.125900   -0.066460
     13          1           0        1.765460   -0.318350   -0.147410
     14          1           0        2.291150   -1.800890    2.118710
     15          1           0        2.064040   -3.272400   -0.692360
     16          1           0        0.104880   -4.726590    0.324500
     17          1           0        0.304810   -3.306820    2.738310
 ---------------------------------------------------------------------
                    Distance matrix (angstroms):
                    1          2          3          4          5
     1  O    0.000000
     2  C    1.402233   0.000000
     3  C    2.405953   1.490544   0.000000
     4  C    3.430930   2.368767   1.373719   0.000000
     5  C    3.554225   2.462888   2.367053   1.491964   0.000000
     6  C    3.942378   3.314948   3.302835   2.474628   1.526904
     7  O    4.236647   3.809966   4.274415   3.678978   2.434348
     8  C    2.856961   2.602708   3.178308   2.968115   2.088917
     9  C    2.421514   1.538474   2.391608   2.391586   1.529945
    10  H    0.992717   1.934584   2.669648   3.920307   4.298248
    11  H    2.080876   1.113468   2.114242   3.013316   3.088671
    12  H    2.853026   2.287707   1.081997   2.168533   3.401663
    13  H    4.392681   3.404245   2.171465   1.081885   2.288752
    14  H    4.448074   3.220920   3.162511   2.210840   1.110828
    15  H    4.207056   3.802776   3.510119   2.717067   2.343789
    16  H    2.872944   3.139803   3.856569   3.886121   3.182867
    17  H    3.013494   2.267872   3.368781   3.382633   2.302139
                    6          7          8          9         10
     6  C    0.000000
     7  O    1.399666   0.000000
     8  C    1.482674   1.411462   0.000000
     9  C    2.190316   2.408044   1.523433   0.000000
    10  H    4.830171   5.213166   3.832561   3.263297   0.000000
    11  H    4.194626   4.593809   3.526639   2.189093   2.236274
    12  H    4.270932   5.299336   4.152548   3.440847   2.756531
    13  H    3.030305   4.369871   3.836402   3.438454   4.796757
    14  H    2.270382   2.905729   2.963681   2.225935   5.143642
    15  H    1.111429   2.178475   2.058277   3.010396   5.035135
    16  H    2.410250   2.014457   1.109923   2.387361   3.838459
    17  H    2.892761   2.609167   2.129812   1.112279   3.812873
                   11         12         13         14         15
    11  H    0.000000
    12  H    2.681408   0.000000
    13  H    3.986660   2.575885   0.000000
    14  H    3.544026   4.140993   2.758546   0.000000
    15  H    4.804435   4.301873   3.018697   3.181043   0.000000
    16  H    4.080126   4.705480   4.734216   4.069237   2.643290
    17  H    2.499179   4.382911   4.403616   2.568516   3.855590
                   16         17
    16  H    0.000000
    17  H    2.807525   0.000000
 Stoichiometry    C7H8O2
 Framework group  C1[X(C7H8O2)]
 Deg. of freedom    45
 Full point group                 C1      NOp   1
 Largest Abelian subgroup         C1      NOp   1
 Largest concise Abelian subgroup C1      NOp   1
                         Standard orientation:                         
 ---------------------------------------------------------------------
 Center     Atomic      Atomic             Coordinates (Angstroms)
 Number     Number       Type             X           Y           Z
 ---------------------------------------------------------------------
      1          8           0       -1.820302   -1.407091   -0.374168
      2          6           0       -1.434304   -0.323398    0.427624
      3          6           0       -1.582886    0.984894   -0.270959
      4          6           0       -0.426305    1.723520   -0.208871
      5          6           0        0.647883    0.988725    0.520617
      6          6           0        1.666853    0.429482   -0.469526
      7          8           0        2.336496   -0.694232    0.028380
      8          6           0        0.987923   -0.882551   -0.343253
      9          6           0        0.063699   -0.403320    0.768949
     10          1           0       -2.811272   -1.380243   -0.426573
     11          1           0       -2.040235   -0.279378    1.360748
     12          1           0       -2.497599    1.342037   -0.725344
     13          1           0       -0.318676    2.712809   -0.633370
     14          1           0        1.031361    1.486886    1.436434
     15          1           0        1.662059    0.632782   -1.562193
     16          1           0        0.968942   -1.834288   -0.914012
     17          1           0        0.338689   -0.974136    1.683124
 ---------------------------------------------------------------------
 Rotational constants (GHZ):           3.1039184           1.6722419           1.2567826
 Standard basis: 6-31G(2df,p) (6D, 7F)
 There are   319 symmetry adapted cartesian basis functions of A   symmetry.
 There are   292 symmetry adapted basis functions of A   symmetry.
   292 basis functions,   452 primitive gaussians,   319 cartesian basis functions
    33 alpha electrons       33 beta electrons
       nuclear repulsion energy       454.9619124242 Hartrees.
 NAtoms=   17 NActive=   17 NUniq=   17 SFac= 1.00D+00 NAtFMM=   60 NAOKFM=F Big=F
 Integral buffers will be    131072 words long.
 Raffenetti 2 integral format.
 Two-electron integral symmetry is turned on.
 One-electron integrals computed using PRISM.
 PrsmSu:  requested number of processors reduced to:  13 ShMem   1 Linda.
 NBasis=   292 RedAO= T EigKep=  2.82D-04  NBF=   292
 NBsUse=   292 1.00D-06 EigRej= -1.00D+00 NBFU=   292
 ExpMin= 1.61D-01 ExpMax= 5.48D+03 ExpMxC= 8.25D+02 IAcc=3 IRadAn=         5 AccDes= 0.00D+00
 Harris functional with IExCor=  402 and IRadAn=       5 diagonalized for initial guess.
 HarFok:  IExCor=  402 AccDes= 0.00D+00 IRadAn=         5 IDoV= 1 UseB2=F ITyADJ=14
 ICtDFT=  3500011 ScaDFX=  1.000000  1.000000  1.000000  1.000000
 FoFCou: FMM=F IPFlag=           0 FMFlag=      100000 FMFlg1=           0
         NFxFlg=           0 DoJE=T BraDBF=F KetDBF=T FulRan=T
         wScrn=  0.000000 ICntrl=       500 IOpCl=  0 I1Cent=   200000004 NGrid=           0
         NMat0=    1 NMatS0=      1 NMatT0=    0 NMatD0=    1 NMtDS0=    0 NMtDT0=    0
 Petite list used in FoFCou.
 Requested convergence on RMS density matrix=1.00D-08 within 128 cycles.
 Requested convergence on MAX density matrix=1.00D-06.
 Requested convergence on             energy=1.00D-06.
 No special actions if energy rises.
 Integral accuracy reduced to 1.0D-05 until final iterations.
 Initial convergence to 1.0D-05 achieved.  Increase integral accuracy.
 SCF Done:  E(RB3LYP) =  -421.883982408     A.U. after   13 cycles
            NFock= 13  Conv=0.93D-08     -V/T= 2.0071

 **********************************************************************

            Population analysis using the SCF density.

 **********************************************************************

 Orbital symmetries:
       Occupied  (A) (A) (A) (A) (A) (A) (A) (A) (A) (A) (A) (A)
                 (A) (A) (A) (A) (A) (A) (A) (A) (A) (A) (A) (A)
                 (A) (A) (A) (A) (A) (A) (A) (A) (A)
       Virtual   (A) (A) (A) (A) (A) (A) (A) (A) (A) (A) (A) (A)
                 (A) (A) (A) (A) (A) (A) (A) (A) (A) (A) (A) (A)
                 (A) (A) (A) (A) (A) (A) (A) (A) (A) (A) (A) (A)
                 (A) (A) (A) (A) (A) (A) (A) (A) (A) (A) (A) (A)
                 (A) (A) (A) (A) (A) (A) (A) (A) (A) (A) (A) (A)
                 (A) (A) (A) (A) (A) (A) (A) (A) (A) (A) (A) (A)
                 (A) (A) (A) (A) (A) (A) (A) (A) (A) (A) (A) (A)
                 (A) (A) (A) (A) (A) (A) (A) (A) (A) (A) (A) (A)
                 (A) (A) (A) (A) (A) (A) (A) (A) (A) (A) (A) (A)
                 (A) (A) (A) (A) (A) (A) (A) (A) (A) (A) (A) (A)
                 (A) (A) (A) (A) (A) (A) (A) (A) (A) (A) (A) (A)
                 (A) (A) (A) (A) (A) (A) (A) (A) (A) (A) (A) (A)
                 (A) (A) (A) (A) (A) (A) (A) (A) (A) (A) (A) (A)
                 (A) (A) (A) (A) (A) (A) (A) (A) (A) (A) (A) (A)
                 (A) (A) (A) (A) (A) (A) (A) (A) (A) (A) (A) (A)
                 (A) (A) (A) (A) (A) (A) (A) (A) (A) (A) (A) (A)
                 (A) (A) (A) (A) (A) (A) (A) (A) (A) (A) (A) (A)
                 (A) (A) (A) (A) (A) (A) (A) (A) (A) (A) (A) (A)
                 (A) (A) (A) (A) (A) (A) (A) (A) (A) (A) (A) (A)
                 (A) (A) (A) (A) (A) (A) (A) (A) (A) (A) (A) (A)
                 (A) (A) (A) (A) (A) (A) (A) (A) (A) (A) (A) (A)
                 (A) (A) (A) (A) (A) (A) (A)
 The electronic state is 1-A.
 Alpha  occ. eigenvalues --  -19.15256 -19.14472 -10.24079 -10.23226 -10.22379
 Alpha  occ. eigenvalues --  -10.20241 -10.19500 -10.18992 -10.18738  -1.09116
 Alpha  occ. eigenvalues --   -1.02688  -0.86162  -0.75054  -0.71302  -0.62731
 Alpha  occ. eigenvalues --   -0.62397  -0.56857  -0.53171  -0.51594  -0.51037
 Alpha  occ. eigenvalues --   -0.48528  -0.45023  -0.41085  -0.40440  -0.39411
 Alpha  occ. eigenvalues --   -0.37778  -0.36203  -0.33743  -0.32807  -0.28152
 Alpha  occ. eigenvalues --   -0.27350  -0.25086  -0.24086
 Alpha virt. eigenvalues --   -0.00305   0.06285   0.06700   0.10864   0.12416
 Alpha virt. eigenvalues --    0.13420   0.13967   0.15032   0.15984   0.16803
 Alpha virt. eigenvalues --    0.18120   0.18521   0.19463   0.22932   0.26115
 Alpha virt. eigenvalues --    0.27430   0.30165   0.32474   0.35294   0.38515
 Alpha virt. eigenvalues --    0.43122   0.44468   0.45411   0.47851   0.49999
 Alpha virt. eigenvalues --    0.50265   0.50968   0.53135   0.53418   0.55411
 Alpha virt. eigenvalues --    0.55823   0.57988   0.58794   0.59562   0.61418
 Alpha virt. eigenvalues --    0.62470   0.65512   0.67763   0.69335   0.71784
 Alpha virt. eigenvalues --    0.72026   0.73546   0.75150   0.76155   0.76331
 Alpha virt. eigenvalues --    0.77378   0.78418   0.80422   0.81264   0.82231
 Alpha virt. eigenvalues --    0.85574   0.88690   0.89988   0.91632   0.92286
 Alpha virt. eigenvalues --    0.95242   0.97064   0.99284   1.00797   1.06046
 Alpha virt. eigenvalues --    1.08392   1.09158   1.10457   1.11766   1.12885
 Alpha virt. eigenvalues --    1.15342   1.20034   1.22959   1.24759   1.26133
 Alpha virt. eigenvalues --    1.28188   1.31558   1.32153   1.34156   1.36271
 Alpha virt. eigenvalues --    1.40582   1.42337   1.45611   1.46250   1.46934
 Alpha virt. eigenvalues --    1.51069   1.52129   1.53134   1.53740   1.55457
 Alpha virt. eigenvalues --    1.56838   1.58187   1.61642   1.63962   1.67599
 Alpha virt. eigenvalues --    1.68987   1.70553   1.72087   1.74403   1.77487
 Alpha virt. eigenvalues --    1.78413   1.80611   1.81510   1.86123   1.87580
 Alpha virt. eigenvalues --    1.90877   1.95719   1.96899   2.02043   2.03831
 Alpha virt. eigenvalues --    2.04966   2.15911   2.18905   2.20111   2.23777
 Alpha virt. eigenvalues --    2.24536   2.32223   2.38747   2.41551   2.46122
 Alpha virt. eigenvalues --    2.46339   2.50870   2.53074   2.53248   2.57777
 Alpha virt. eigenvalues --    2.61158   2.62781   2.66992   2.69831   2.74600
 Alpha virt. eigenvalues --    2.77474   2.78513   2.82439   2.83440   2.84170
 Alpha virt. eigenvalues --    2.87636   2.89027   2.89960   2.92741   2.94711
 Alpha virt. eigenvalues --    2.96866   2.99902   3.01561   3.03533   3.07665
 Alpha virt. eigenvalues --    3.08993   3.10866   3.13765   3.15353   3.17641
 Alpha virt. eigenvalues --    3.19132   3.24123   3.24681   3.27137   3.28378
 Alpha virt. eigenvalues --    3.30679   3.33550   3.36069   3.40521   3.42092
 Alpha virt. eigenvalues --    3.46350   3.47330   3.48779   3.51578   3.56010
 Alpha virt. eigenvalues --    3.59123   3.63989   3.66540   3.69372   3.74107
 Alpha virt. eigenvalues --    3.76072   3.82137   3.87496   3.89106   3.94368
 Alpha virt. eigenvalues --    3.97992   4.00468   4.00867   4.05806   4.06628
 Alpha virt. eigenvalues --    4.12791   4.15680   4.18698   4.21532   4.25204
 Alpha virt. eigenvalues --    4.27549   4.31204   4.33003   4.34938   4.37843
 Alpha virt. eigenvalues --    4.39442   4.41482   4.42798   4.45292   4.46811
 Alpha virt. eigenvalues --    4.49267   4.51727   4.52882   4.53886   4.56416
 Alpha virt. eigenvalues --    4.60425   4.62961   4.63226   4.64751   4.66143
 Alpha virt. eigenvalues --    4.67447   4.70085   4.70440   4.75315   4.77229
 Alpha virt. eigenvalues --    4.80881   4.82011   4.82943   4.84116   4.87765
 Alpha virt. eigenvalues --    4.89179   4.92242   4.93459   4.96184   4.99164
 Alpha virt. eigenvalues --    5.00328   5.02941   5.08715   5.10678   5.15297
 Alpha virt. eigenvalues --    5.18187   5.21660   5.27440   5.29506   5.35931
 Alpha virt. eigenvalues --    5.38808   5.40303   5.41466   5.44646   5.45302
 Alpha virt. eigenvalues --    5.50339   5.52894   5.53728   5.57367   5.58942
 Alpha virt. eigenvalues --    5.65076   5.69260   5.91110   5.95016   5.97777
 Alpha virt. eigenvalues --    5.99326   6.01411   6.09739   6.12637   6.15154
 Alpha virt. eigenvalues --    6.21625   6.39429   6.91427   7.20138   7.28938
 Alpha virt. eigenvalues --   10.32972  11.04300  11.45561  11.76852  12.04193
 Alpha virt. eigenvalues --   12.41704  13.03485  13.19227  13.43878
          Condensed to atoms (all electrons):
               1          2          3          4          5          6
     1  O    7.869132   0.356047  -0.050182   0.005004   0.001001  -0.000019
     2  C    0.356047   4.786425   0.284396   0.015926  -0.055558   0.008807
     3  C   -0.050182   0.284396   5.060808   0.568447   0.000238  -0.004384
     4  C    0.005004   0.015926   0.568447   4.919835   0.317413  -0.003422
     5  C    0.001001  -0.055558   0.000238   0.317413   5.080258   0.255152
     6  C   -0.000019   0.008807  -0.004384  -0.003422   0.255152   4.991110
     7  O    0.000061   0.001518   0.000284   0.002146  -0.037732   0.333377
     8  C    0.007058  -0.006672  -0.007731  -0.003207  -0.032487   0.236847
     9  C   -0.028024   0.285708  -0.008383  -0.029619   0.369974  -0.100869
    10  H    0.299402  -0.059480   0.001474  -0.000085  -0.000367  -0.000026
    11  H   -0.038346   0.375341  -0.073443   0.003738   0.006327  -0.000353
    12  H   -0.000661  -0.049975   0.368264  -0.040499   0.005738  -0.000095
    13  H   -0.000046   0.006389  -0.042025   0.372204  -0.050849  -0.000489
    14  H   -0.000063   0.004062   0.003163  -0.042509   0.343982  -0.022372
    15  H   -0.000033   0.001919  -0.000253   0.007545  -0.059679   0.361267
    16  H    0.002390   0.001723  -0.001283   0.001209   0.006103  -0.020911
    17  H    0.001034  -0.032123   0.005736   0.004957  -0.042447   0.020682
               7          8          9         10         11         12
     1  O    0.000061   0.007058  -0.028024   0.299402  -0.038346  -0.000661
     2  C    0.001518  -0.006672   0.285708  -0.059480   0.375341  -0.049975
     3  C    0.000284  -0.007731  -0.008383   0.001474  -0.073443   0.368264
     4  C    0.002146  -0.003207  -0.029619  -0.000085   0.003738  -0.040499
     5  C   -0.037732  -0.032487   0.369974  -0.000367   0.006327   0.005738
     6  C    0.333377   0.236847  -0.100869  -0.000026  -0.000353  -0.000095
     7  O    7.714114   0.276012  -0.016222  -0.000000  -0.000009   0.000003
     8  C    0.276012   4.796855   0.367685  -0.000037   0.005151  -0.000095
     9  C   -0.016222   0.367685   5.006842   0.008562  -0.051628   0.004973
    10  H   -0.000000  -0.000037   0.008562   0.466700  -0.007405   0.002250
    11  H   -0.000009   0.005151  -0.051628  -0.007405   0.718541  -0.000468
    12  H    0.000003  -0.000095   0.004973   0.002250  -0.000468   0.617818
    13  H   -0.000012  -0.000105   0.003806  -0.000002  -0.000332  -0.003891
    14  H   -0.001221   0.002646  -0.036253   0.000008   0.000449  -0.000208
    15  H   -0.023565  -0.017792   0.001514  -0.000002   0.000027  -0.000010
    16  H   -0.029789   0.373178  -0.052645  -0.000162  -0.000038  -0.000002
    17  H   -0.000020  -0.057804   0.357278  -0.000154  -0.008433  -0.000125
              13         14         15         16         17
     1  O   -0.000046  -0.000063  -0.000033   0.002390   0.001034
     2  C    0.006389   0.004062   0.001919   0.001723  -0.032123
     3  C   -0.042025   0.003163  -0.000253  -0.001283   0.005736
     4  C    0.372204  -0.042509   0.007545   0.001209   0.004957
     5  C   -0.050849   0.343982  -0.059679   0.006103  -0.042447
     6  C   -0.000489  -0.022372   0.361267  -0.020911   0.020682
     7  O   -0.000012  -0.001221  -0.023565  -0.029789  -0.000020
     8  C   -0.000105   0.002646  -0.017792   0.373178  -0.057804
     9  C    0.003806  -0.036253   0.001514  -0.052645   0.357278
    10  H   -0.000002   0.000008  -0.000002  -0.000162  -0.000154
    11  H   -0.000332   0.000449   0.000027  -0.000038  -0.008433
    12  H   -0.003891  -0.000208  -0.000010  -0.000002  -0.000125
    13  H    0.610202  -0.001317   0.001354   0.000033  -0.000086
    14  H   -0.001317   0.668595   0.002316  -0.000534  -0.002829
    15  H    0.001354   0.002316   0.606940  -0.001146  -0.000410
    16  H    0.000033  -0.000534  -0.001146   0.612329   0.001431
    17  H   -0.000086  -0.002829  -0.000410   0.001431   0.670931
 Mulliken charges:
               1
     1  O   -0.423756
     2  C    0.075549
     3  C   -0.105125
     4  C   -0.099084
     5  C   -0.107069
     6  C   -0.054306
     7  O   -0.218944
     8  C    0.060499
     9  C   -0.082700
    10  H    0.289325
    11  H    0.070880
    12  H    0.096983
    13  H    0.105166
    14  H    0.082084
    15  H    0.120006
    16  H    0.108112
    17  H    0.082381
 Sum of Mulliken charges =  -0.00000
 Mulliken charges with hydrogens summed into heavy atoms:
               1
     1  O   -0.134431
     2  C    0.146429
     3  C   -0.008142
     4  C    0.006082
     5  C   -0.024985
     6  C    0.065700
     7  O   -0.218944
     8  C    0.168611
     9  C   -0.000318
 Electronic spatial extent (au):  <R**2>=            981.3777
 Charge=              0.0000 electrons
 Dipole moment (field-independent basis, Debye):
    X=             -2.9264    Y=              1.2537    Z=              0.0001  Tot=              3.1837
 Quadrupole moment (field-independent basis, Debye-Ang):
   XX=            -50.5299   YY=            -51.6043   ZZ=            -51.0533
   XY=              1.9767   XZ=             -0.6324   YZ=             -0.8516
 Traceless Quadrupole moment (field-independent basis, Debye-Ang):
   XX=              0.5326   YY=             -0.5418   ZZ=              0.0092
   XY=              1.9767   XZ=             -0.6324   YZ=             -0.8516
 Octapole moment (field-independent basis, Debye-Ang**2):
  XXX=            -47.4805  YYY=             -5.4797  ZZZ=             -0.8012  XYY=              1.2147
  XXY=             -4.4167  XXZ=             -5.5253  XZZ=              2.3466  YZZ=             -3.3572
  YYZ=             -3.1037  XYZ=              2.2843
 Hexadecapole moment (field-independent basis, Debye-Ang**3):
 XXXX=           -646.6448 YYYY=           -380.8262 ZZZZ=           -147.2770 XXXY=             47.1849
 XXXZ=             16.0318 YYYX=             -0.0865 YYYZ=             -2.3766 ZZZX=              0.6155
 ZZZY=              1.8758 XXYY=           -176.6854 XXZZ=           -136.7369 YYZZ=            -88.0652
 XXYZ=              2.8375 YYXZ=              4.9513 ZZXY=              2.5249
 N-N= 4.549619124242D+02 E-N=-1.894400120939D+03  KE= 4.189154780232D+02
 PrsmSu:  requested number of processors reduced to:  13 ShMem   1 Linda.
 Calling FoFJK, ICntrl=      2127 FMM=F ISym2X=0 I1Cent= 0 IOpClX= 0 NMat=1 NMatS=1 NMatT=0.
 ***** Axes restored to original set *****
 -------------------------------------------------------------------
 Center     Atomic                   Forces (Hartrees/Bohr)
 Number     Number              X              Y              Z
 -------------------------------------------------------------------
      1        8          -0.034442505    0.007849373   -0.003069074
      2        6           0.000415670    0.007865056    0.013852835
      3        6           0.057722492    0.004371080   -0.005463750
      4        6          -0.047784905    0.012204179    0.002931956
      5        6           0.026402323    0.013311599    0.019611041
      6        6          -0.027066747   -0.005825886   -0.056607105
      7        8           0.024395284    0.003157221    0.019937826
      8        6          -0.032503356   -0.039733591    0.009416740
      9        6          -0.015895835   -0.021640627    0.014180260
     10        1           0.019758397   -0.019012859    0.000274770
     11        1          -0.000496674   -0.006926548   -0.001709826
     12        1          -0.004008028   -0.000932748   -0.001036316
     13        1           0.003454651   -0.000853233    0.000085283
     14        1           0.000801385   -0.000385423   -0.012654891
     15        1           0.030569280    0.003543754    0.014460942
     16        1           0.000436450    0.025511934   -0.009598007
     17        1          -0.001757881    0.017496718   -0.004612684
 -------------------------------------------------------------------
 Cartesian Forces:  Max     0.057722492 RMS     0.020017621

 GradGradGradGradGradGradGradGradGradGradGradGradGradGradGradGradGradGrad
 Berny optimization.
 FormGI is forming the generalized inverse of G from B-inverse, IUseBI=4.
 Internal  Forces:  Max     0.034525587 RMS     0.007813981
 Search for a local minimum.
 Step number   1 out of a maximum of  102
 All quantities printed in internal units (Hartrees-Bohrs-Radians)
 Mixed Optimization -- RFO/linear search
 Second derivative matrix not updated -- first step.
 ITU=  0
     Eigenvalues ---    0.00607   0.01009   0.01266   0.01481   0.01643
     Eigenvalues ---    0.01662   0.02448   0.02690   0.03396   0.03912
     Eigenvalues ---    0.04977   0.05746   0.06078   0.06233   0.06875
     Eigenvalues ---    0.07738   0.09129   0.09592   0.12920   0.15401
     Eigenvalues ---    0.15965   0.16000   0.16000   0.16112   0.17288
     Eigenvalues ---    0.17632   0.22530   0.23726   0.26026   0.27558
     Eigenvalues ---    0.29820   0.30540   0.31337   0.32236   0.32360
     Eigenvalues ---    0.32449   0.32512   0.32608   0.32920   0.35754
     Eigenvalues ---    0.35768   0.42086   0.45252   0.46790   0.48992
 RFO step:  Lambda=-3.37618701D-02 EMin= 6.06661082D-03
 Linear search not attempted -- first point.
 Iteration  1 RMS(Cart)=  0.04102189 RMS(Int)=  0.00342376
 Iteration  2 RMS(Cart)=  0.00244022 RMS(Int)=  0.00191836
 Iteration  3 RMS(Cart)=  0.00000395 RMS(Int)=  0.00191836
 Iteration  4 RMS(Cart)=  0.00000001 RMS(Int)=  0.00191836
 Variable       Old X    -DE/DX   Delta X   Delta X   Delta X     New X
                                 (Linear)    (Quad)   (Total)
    R1        2.64984   0.01774   0.00000   0.03649   0.03649   2.68632
    R2        1.87596  -0.02719   0.00000  -0.05191  -0.05191   1.82405
    R3        2.81672   0.01844   0.00000   0.04425   0.04436   2.86108
    R4        2.90729  -0.00462   0.00000  -0.00712  -0.00700   2.90029
    R5        2.10415  -0.00448   0.00000  -0.01257  -0.01257   2.09158
    R6        2.59595  -0.03453   0.00000  -0.07098  -0.07106   2.52489
    R7        2.04468   0.00192   0.00000   0.00492   0.00492   2.04960
    R8        2.81940   0.00537   0.00000   0.01350   0.01333   2.83274
    R9        2.04447   0.00146   0.00000   0.00374   0.00374   2.04821
   R10        2.88543   0.01463   0.00000   0.03492   0.03567   2.92110
   R11        2.89118   0.01617   0.00000   0.06479   0.06381   2.95499
   R12        2.09916  -0.00911   0.00000  -0.02538  -0.02538   2.07378
   R13        2.64499   0.00443   0.00000   0.00148   0.00251   2.64750
   R14        2.80185   0.01716   0.00000   0.03688   0.03699   2.83884
   R15        2.10030  -0.01356   0.00000  -0.03786  -0.03786   2.06244
   R16        2.66728   0.01911   0.00000   0.05170   0.05175   2.71903
   R17        2.87887   0.00761   0.00000   0.03199   0.03115   2.91002
   R18        2.09745  -0.01560   0.00000  -0.04335  -0.04335   2.05410
   R19        2.10190  -0.01174   0.00000  -0.03286  -0.03286   2.06905
    A1        1.85884   0.00672   0.00000   0.03466   0.03466   1.89349
    A2        1.96374   0.00812   0.00000   0.04185   0.04158   2.00532
    A3        1.93344  -0.00170   0.00000  -0.01739  -0.01723   1.91620
    A4        1.93900  -0.00289   0.00000  -0.01769  -0.01844   1.92056
    A5        1.82001  -0.00732   0.00000  -0.01744  -0.01711   1.80290
    A6        1.87950   0.00235   0.00000   0.01915   0.01903   1.89853
    A7        1.92410   0.00138   0.00000  -0.00756  -0.00781   1.91629
    A8        1.94640   0.00947   0.00000   0.02694   0.02677   1.97317
    A9        2.17829  -0.00815   0.00000  -0.03096  -0.03091   2.14738
   A10        2.15708  -0.00129   0.00000   0.00447   0.00454   2.16163
   A11        1.94278   0.00314   0.00000   0.00831   0.00775   1.95053
   A12        2.16239   0.00174   0.00000   0.01299   0.01304   2.17544
   A13        2.17800  -0.00488   0.00000  -0.02116  -0.02110   2.15690
   A14        1.92175   0.00202   0.00000   0.01183   0.01133   1.93309
   A15        1.82612  -0.00384   0.00000  -0.01197  -0.01163   1.81450
   A16        2.01617  -0.00034   0.00000  -0.01266  -0.01247   2.00369
   A17        1.59762   0.00155   0.00000  -0.00593  -0.00533   1.59229
   A18        2.05838  -0.00159   0.00000  -0.00814  -0.00798   2.05041
   A19        1.98891   0.00233   0.00000   0.02955   0.02894   2.01784
   A20        1.96346  -0.01411   0.00000  -0.04933  -0.05508   1.90838
   A21        1.53409  -0.00401   0.00000   0.00670   0.00548   1.53956
   A22        2.17444   0.00685   0.00000   0.07210   0.06038   2.23482
   A23        2.09283   0.01226   0.00000   0.05260   0.04303   2.13586
   A24        1.81689   0.01071   0.00000   0.15944   0.15296   1.96985
   A25        1.63244   0.00371   0.00000   0.00483   0.00550   1.63794
   A26        2.37868  -0.00649   0.00000  -0.04171  -0.04489   2.33380
   A27        1.92351  -0.01168   0.00000  -0.04305  -0.04517   1.87834
   A28        1.84019   0.01218   0.00000   0.09073   0.09386   1.93404
   A29        2.25853   0.00202   0.00000   0.01785   0.01373   2.27226
   A30        1.86347  -0.00113   0.00000  -0.00184  -0.00208   1.86139
   A31        2.03206   0.00116   0.00000   0.00657   0.00708   2.03914
   A32        2.03726  -0.00237   0.00000  -0.03274  -0.03340   2.00387
   A33        1.50682  -0.00116   0.00000  -0.00130  -0.00156   1.50526
   A34        2.10127   0.00062   0.00000  -0.00803  -0.00863   2.09264
   A35        1.86357   0.00362   0.00000   0.04895   0.04893   1.91250
    D1       -1.27669  -0.00377   0.00000  -0.01282  -0.01275  -1.28944
    D2        2.97695   0.00140   0.00000  -0.00597  -0.00572   2.97123
    D3        0.83212   0.00285   0.00000   0.02837   0.02805   0.86017
    D4       -2.23934   0.00183   0.00000   0.00425   0.00460  -2.23474
    D5        0.95791   0.00121   0.00000  -0.00491  -0.00447   0.95344
    D6       -0.14293  -0.00048   0.00000  -0.00531  -0.00519  -0.14812
    D7        3.05432  -0.00109   0.00000  -0.01447  -0.01426   3.04006
    D8        1.90125  -0.00141   0.00000  -0.01385  -0.01414   1.88711
    D9       -1.18469  -0.00203   0.00000  -0.02301  -0.02320  -1.20789
   D10        2.32526   0.00232   0.00000   0.01571   0.01542   2.34068
   D11        0.67919   0.00387   0.00000   0.01596   0.01594   0.69513
   D12       -1.54907  -0.00037   0.00000  -0.03148  -0.03105  -1.58012
   D13        0.20860  -0.00208   0.00000  -0.01458  -0.01484   0.19375
   D14       -1.43748  -0.00053   0.00000  -0.01433  -0.01432  -1.45180
   D15        2.61745  -0.00478   0.00000  -0.06177  -0.06131   2.55614
   D16       -1.80448  -0.00158   0.00000  -0.02412  -0.02440  -1.82887
   D17        2.83263  -0.00002   0.00000  -0.02387  -0.02387   2.80876
   D18        0.60438  -0.00427   0.00000  -0.07131  -0.07086   0.53352
   D19        0.01683   0.00101   0.00000   0.01832   0.01865   0.03548
   D20       -3.11997  -0.00046   0.00000  -0.01245  -0.01259  -3.13256
   D21        3.10357   0.00135   0.00000   0.02601   0.02647   3.13004
   D22       -0.03323  -0.00012   0.00000  -0.00477  -0.00477  -0.03800
   D23        1.81399  -0.00109   0.00000  -0.03378  -0.03338   1.78061
   D24        0.11778  -0.00189   0.00000  -0.02606  -0.02616   0.09162
   D25       -2.08358  -0.00167   0.00000  -0.04650  -0.04617  -2.12975
   D26       -1.33245   0.00042   0.00000  -0.00257  -0.00242  -1.33487
   D27       -3.02866  -0.00038   0.00000   0.00516   0.00480  -3.02386
   D28        1.05317  -0.00016   0.00000  -0.01528  -0.01521   1.03796
   D29       -2.69435  -0.00390   0.00000  -0.04177  -0.04142  -2.73577
   D30       -1.74256   0.00258   0.00000  -0.00639  -0.00762  -1.75018
   D31        0.10245   0.01394   0.00000   0.20483   0.20653   0.30898
   D32       -0.84093  -0.00715   0.00000  -0.05533  -0.05454  -0.89547
   D33        0.11086  -0.00067   0.00000  -0.01995  -0.02074   0.09012
   D34        1.95587   0.01069   0.00000   0.19127   0.19341   2.14928
   D35        1.22368  -0.00396   0.00000  -0.02682  -0.02640   1.19728
   D36        2.17547   0.00252   0.00000   0.00856   0.00740   2.18287
   D37       -2.26271   0.01388   0.00000   0.21977   0.22155  -2.04116
   D38       -0.19999   0.00157   0.00000   0.02189   0.02201  -0.17798
   D39        1.83366   0.00233   0.00000   0.02822   0.02878   1.86243
   D40       -2.57644   0.00593   0.00000   0.08355   0.08367  -2.49278
   D41       -2.14168  -0.00049   0.00000   0.01284   0.01320  -2.12847
   D42       -0.10803   0.00028   0.00000   0.01918   0.01997  -0.08806
   D43        1.76505   0.00388   0.00000   0.07451   0.07487   1.83992
   D44        2.01827  -0.00022   0.00000   0.01626   0.01628   2.03455
   D45       -2.23126   0.00054   0.00000   0.02259   0.02305  -2.20822
   D46       -0.35818   0.00414   0.00000   0.07792   0.07794  -0.28024
   D47       -0.11151   0.00032   0.00000   0.01875   0.01980  -0.09170
   D48        2.85625  -0.00387   0.00000  -0.09807  -0.09305   2.76320
   D49       -2.29668  -0.00709   0.00000  -0.07917  -0.08132  -2.37800
   D50        0.67108  -0.01128   0.00000  -0.19599  -0.19418   0.47691
   D51        1.97751  -0.00214   0.00000  -0.02202  -0.02317   1.95435
   D52        0.11144  -0.00039   0.00000  -0.01985  -0.02064   0.09080
   D53       -1.99478  -0.00105   0.00000  -0.01612  -0.01676  -2.01153
   D54        2.97015  -0.00458   0.00000  -0.03128  -0.03188   2.93827
   D55        1.10408  -0.00283   0.00000  -0.02912  -0.02935   1.07473
   D56       -1.00214  -0.00349   0.00000  -0.02539  -0.02547  -1.02761
   D57       -1.00878   0.00292   0.00000   0.09126   0.09238  -0.91640
   D58       -2.87485   0.00467   0.00000   0.09343   0.09491  -2.77994
   D59        1.30212   0.00401   0.00000   0.09716   0.09879   1.40091
         Item               Value     Threshold  Converged?
 Maximum Force            0.034526     0.000450     NO 
 RMS     Force            0.007814     0.000300     NO 
 Maximum Displacement     0.265536     0.001800     NO 
 RMS     Displacement     0.041060     0.001200     NO 
 Predicted change in Energy=-2.287079D-02
 GradGradGradGradGradGradGradGradGradGradGradGradGradGradGradGradGradGrad

                          Input orientation:                          
 ---------------------------------------------------------------------
 Center     Atomic      Atomic             Coordinates (Angstroms)
 Number     Number       Type             X           Y           Z
 ---------------------------------------------------------------------
      1          8           0       -1.882431   -2.674127    0.759984
      2          6           0       -0.850682   -1.908195    1.367948
      3          6           0       -0.210602   -0.872842    0.467616
      4          6           0        1.122348   -0.959176    0.436111
      5          6           0        1.625224   -2.098703    1.270169
      6          6           0        2.010069   -3.301753    0.379103
      7          8           0        1.960482   -4.477224    1.139760
      8          6           0        0.692671   -3.928415    0.737578
      9          6           0        0.322877   -2.823029    1.743918
     10          1           0       -2.665948   -2.117243    0.672342
     11          1           0       -1.237033   -1.402750    2.273653
     12          1           0       -0.779454   -0.113526   -0.057935
     13          1           0        1.768605   -0.306674   -0.139522
     14          1           0        2.325364   -1.813186    2.065511
     15          1           0        2.204556   -3.308358   -0.694803
     16          1           0        0.071993   -4.690224    0.272888
     17          1           0        0.270172   -3.247226    2.751919
 ---------------------------------------------------------------------
                    Distance matrix (angstroms):
                    1          2          3          4          5
     1  O    0.000000
     2  C    1.421540   0.000000
     3  C    2.474898   1.514019   0.000000
     4  C    3.474859   2.379454   1.336114   0.000000
     5  C    3.590967   2.485148   2.348848   1.499020   0.000000
     6  C    3.961128   3.332223   3.292237   2.505786   1.545779
     7  O    4.261850   3.815052   4.261098   3.684326   2.405570
     8  C    2.864418   2.619273   3.197704   3.015275   2.121592
     9  C    2.419438   1.534768   2.390978   2.413185   1.563711
    10  H    0.965247   1.955188   2.760284   3.968389   4.332655
    11  H    2.079455   1.106817   2.143859   3.023242   3.111887
    12  H    2.905551   2.293262   1.084599   2.139171   3.389286
    13  H    4.443423   3.420234   2.146259   1.083864   2.284547
    14  H    4.489004   3.253135   3.141439   2.198073   1.097400
    15  H    4.384303   3.943333   3.621594   2.822906   2.379076
    16  H    2.849856   3.128924   3.832778   3.879511   3.181678
    17  H    2.988302   2.228160   3.329698   3.365167   2.313191
                    6          7          8          9         10
     6  C    0.000000
     7  O    1.400996   0.000000
     8  C    1.502247   1.438849   0.000000
     9  C    2.222277   2.404812   1.539918   0.000000
    10  H    4.832617   5.214580   3.816402   3.252612   0.000000
    11  H    4.211793   4.578450   3.530193   2.175116   2.261968
    12  H    4.258782   5.289951   4.165737   3.435580   2.847287
    13  H    3.049225   4.366562   3.878652   3.459699   4.858245
    14  H    2.271390   2.843810   2.983837   2.265648   5.191009
    15  H    1.091395   2.188936   2.173012   3.118272   5.197081
    16  H    2.386477   2.088834   1.086983   2.390249   3.778375
    17  H    2.942868   2.639905   2.167970   1.094892   3.771248
                   11         12         13         14         15
    11  H    0.000000
    12  H    2.703290   0.000000
    13  H    4.007325   2.556671   0.000000
    14  H    3.591998   4.127682   2.727953   0.000000
    15  H    4.928245   4.417789   3.083585   3.141571   0.000000
    16  H    4.064984   4.666965   4.718483   4.070446   2.719155
    17  H    2.429506   4.337865   4.387776   2.598354   3.952907
                   16         17
    16  H    0.000000
    17  H    2.875259   0.000000
 Stoichiometry    C7H8O2
 Framework group  C1[X(C7H8O2)]
 Deg. of freedom    45
 Full point group                 C1      NOp   1
 Largest Abelian subgroup         C1      NOp   1
 Largest concise Abelian subgroup C1      NOp   1
                         Standard orientation:                         
 ---------------------------------------------------------------------
 Center     Atomic      Atomic             Coordinates (Angstroms)
 Number     Number       Type             X           Y           Z
 ---------------------------------------------------------------------
      1          8           0       -1.853168   -1.408358   -0.375782
      2          6           0       -1.451082   -0.302206    0.421420
      3          6           0       -1.543220    1.044518   -0.264218
      4          6           0       -0.408801    1.746783   -0.192663
      5          6           0        0.673084    0.984570    0.511339
      6          6           0        1.674169    0.389343   -0.505011
      7          8           0        2.326471   -0.707090    0.073890
      8          6           0        0.970853   -0.929482   -0.354044
      9          6           0        0.040218   -0.422957    0.763408
     10          1           0       -2.815450   -1.397988   -0.450660
     11          1           0       -2.047813   -0.269280    1.353017
     12          1           0       -2.453963    1.413032   -0.723674
     13          1           0       -0.269346    2.736488   -0.611945
     14          1           0        1.086870    1.484096    1.396517
     15          1           0        1.822775    0.673722   -1.548174
     16          1           0        0.902666   -1.819763   -0.973949
     17          1           0        0.256506   -0.960133    1.692627
 ---------------------------------------------------------------------
 Rotational constants (GHZ):           3.0329767           1.6675302           1.2433302
 Standard basis: 6-31G(2df,p) (6D, 7F)
 There are   319 symmetry adapted cartesian basis functions of A   symmetry.
 There are   292 symmetry adapted basis functions of A   symmetry.
   292 basis functions,   452 primitive gaussians,   319 cartesian basis functions
    33 alpha electrons       33 beta electrons
       nuclear repulsion energy       452.5474840598 Hartrees.
 NAtoms=   17 NActive=   17 NUniq=   17 SFac= 1.00D+00 NAtFMM=   60 NAOKFM=F Big=F
 Integral buffers will be    131072 words long.
 Raffenetti 2 integral format.
 Two-electron integral symmetry is turned on.
 One-electron integrals computed using PRISM.
 PrsmSu:  requested number of processors reduced to:  13 ShMem   1 Linda.
 NBasis=   292 RedAO= T EigKep=  3.09D-04  NBF=   292
 NBsUse=   292 1.00D-06 EigRej= -1.00D+00 NBFU=   292
 Initial guess from the checkpoint file:  "OC1CdCC2C3OC3C12.chk"
 B after Tr=     0.000000    0.000000    0.000000
         Rot=    0.999965   -0.000632    0.002177    0.008032 Ang=  -0.96 deg.
 ExpMin= 1.61D-01 ExpMax= 5.48D+03 ExpMxC= 8.25D+02 IAcc=2 IRadAn=         4 AccDes= 0.00D+00
 Harris functional with IExCor=  402 and IRadAn=       4 diagonalized for initial guess.
 HarFok:  IExCor=  402 AccDes= 0.00D+00 IRadAn=         4 IDoV= 1 UseB2=F ITyADJ=14
 ICtDFT=  3500011 ScaDFX=  1.000000  1.000000  1.000000  1.000000
 FoFCou: FMM=F IPFlag=           0 FMFlag=      100000 FMFlg1=           0
         NFxFlg=           0 DoJE=T BraDBF=F KetDBF=T FulRan=T
         wScrn=  0.000000 ICntrl=       500 IOpCl=  0 I1Cent=   200000004 NGrid=           0
         NMat0=    1 NMatS0=      1 NMatT0=    0 NMatD0=    1 NMtDS0=    0 NMtDT0=    0
 Petite list used in FoFCou.
 Requested convergence on RMS density matrix=1.00D-08 within 128 cycles.
 Requested convergence on MAX density matrix=1.00D-06.
 Requested convergence on             energy=1.00D-06.
 No special actions if energy rises.
 Integral accuracy reduced to 1.0D-05 until final iterations.
 Initial convergence to 1.0D-05 achieved.  Increase integral accuracy.
 SCF Done:  E(RB3LYP) =  -421.907465867     A.U. after   12 cycles
            NFock= 12  Conv=0.32D-08     -V/T= 2.0073
 PrsmSu:  requested number of processors reduced to:  13 ShMem   1 Linda.
 Calling FoFJK, ICntrl=      2127 FMM=F ISym2X=0 I1Cent= 0 IOpClX= 0 NMat=1 NMatS=1 NMatT=0.
 ***** Axes restored to original set *****
 -------------------------------------------------------------------
 Center     Atomic                   Forces (Hartrees/Bohr)
 Number     Number              X              Y              Z
 -------------------------------------------------------------------
      1        8          -0.003424353    0.000544372   -0.000596945
      2        6           0.000560027    0.004262424    0.002957896
      3        6           0.006804107    0.003100429   -0.002954091
      4        6          -0.011038236    0.002324344    0.003939794
      5        6           0.011787741    0.005299023    0.005846160
      6        6          -0.039750073   -0.002885901   -0.018488815
      7        8           0.008281051   -0.002075822    0.005918561
      8        6           0.002104178   -0.010714209    0.010875100
      9        6           0.000526572   -0.012921375   -0.003064848
     10        1           0.002849939   -0.001620450    0.000069465
     11        1          -0.000823394   -0.002881734   -0.001410567
     12        1          -0.002796360   -0.000989691   -0.000544480
     13        1           0.001768492   -0.000369668    0.000756213
     14        1           0.003334748   -0.000417251   -0.005198961
     15        1           0.021054409    0.001639411    0.007233499
     16        1          -0.001606944    0.009716114   -0.006360121
     17        1           0.000368097    0.007989984    0.001022141
 -------------------------------------------------------------------
 Cartesian Forces:  Max     0.039750073 RMS     0.008487853

 GradGradGradGradGradGradGradGradGradGradGradGradGradGradGradGradGradGrad
 Berny optimization.
 Using GEDIIS/GDIIS optimizer.
 FormGI is forming the generalized inverse of G from B-inverse, IUseBI=4.
 Internal  Forces:  Max     0.010252619 RMS     0.002411451
 Search for a local minimum.
 Step number   2 out of a maximum of  102
 All quantities printed in internal units (Hartrees-Bohrs-Radians)
 Mixed Optimization -- RFO/linear search
 Update second derivatives using D2CorX and points    1    2
 DE= -2.35D-02 DEPred=-2.29D-02 R= 1.03D+00
 TightC=F SS=  1.41D+00  RLast= 5.86D-01 DXNew= 5.0454D-01 1.7587D+00
 Trust test= 1.03D+00 RLast= 5.86D-01 DXMaxT set to 5.05D-01
 ITU=  1  0
 Use linear search instead of GDIIS.
     Eigenvalues ---    0.00615   0.01028   0.01280   0.01594   0.01661
     Eigenvalues ---    0.01662   0.02103   0.02696   0.03156   0.03820
     Eigenvalues ---    0.04944   0.05900   0.06047   0.06114   0.06723
     Eigenvalues ---    0.07797   0.09258   0.09710   0.12746   0.14539
     Eigenvalues ---    0.15718   0.15990   0.16079   0.16633   0.17433
     Eigenvalues ---    0.17791   0.22742   0.24234   0.26665   0.27706
     Eigenvalues ---    0.29976   0.30099   0.31677   0.32047   0.32386
     Eigenvalues ---    0.32414   0.32529   0.32616   0.32880   0.35745
     Eigenvalues ---    0.35766   0.41626   0.45369   0.46845   0.48902
 RFO step:  Lambda=-1.07883201D-02 EMin= 6.14790685D-03
 Quartic linear search produced a step of  0.63984.
 Iteration  1 RMS(Cart)=  0.03527823 RMS(Int)=  0.02063353
 Iteration  2 RMS(Cart)=  0.01461130 RMS(Int)=  0.00529851
 Iteration  3 RMS(Cart)=  0.00054732 RMS(Int)=  0.00525729
 Iteration  4 RMS(Cart)=  0.00000200 RMS(Int)=  0.00525729
 Iteration  5 RMS(Cart)=  0.00000003 RMS(Int)=  0.00525729
 Variable       Old X    -DE/DX   Delta X   Delta X   Delta X     New X
                                 (Linear)    (Quad)   (Total)
    R1        2.68632   0.00122   0.02334  -0.01713   0.00621   2.69253
    R2        1.82405  -0.00325  -0.03322   0.02005  -0.01316   1.81089
    R3        2.86108   0.00187   0.02838  -0.02164   0.00628   2.86737
    R4        2.90029   0.00121  -0.00448   0.00994   0.00538   2.90567
    R5        2.09158  -0.00218  -0.00804  -0.00264  -0.01068   2.08090
    R6        2.52489  -0.00328  -0.04547   0.02961  -0.01611   2.50878
    R7        2.04960   0.00104   0.00315   0.00144   0.00459   2.05418
    R8        2.83274   0.00278   0.00853   0.00685   0.01567   2.84841
    R9        2.04821   0.00043   0.00239  -0.00040   0.00199   2.05020
   R10        2.92110   0.00199   0.02282  -0.01531   0.01042   2.93152
   R11        2.95499   0.00109   0.04083  -0.01767   0.02051   2.97550
   R12        2.07378  -0.00175  -0.01624   0.00699  -0.00924   2.06454
   R13        2.64750   0.00247   0.00161   0.01003   0.01330   2.66080
   R14        2.83884  -0.00287   0.02367  -0.05697  -0.03079   2.80804
   R15        2.06244  -0.00338  -0.02422   0.00690  -0.01732   2.04512
   R16        2.71903   0.00547   0.03311  -0.00395   0.02802   2.74705
   R17        2.91002  -0.00090   0.01993  -0.01787  -0.00055   2.90947
   R18        2.05410  -0.00317  -0.02774   0.01114  -0.01660   2.03750
   R19        2.06905  -0.00217  -0.02102   0.00944  -0.01159   2.05746
    A1        1.89349  -0.00037   0.02218  -0.02507  -0.00290   1.89060
    A2        2.00532   0.00021   0.02660  -0.02681  -0.00023   2.00509
    A3        1.91620  -0.00114  -0.01102   0.00014  -0.01045   1.90575
    A4        1.92056  -0.00033  -0.01180  -0.00029  -0.01264   1.90791
    A5        1.80290   0.00103  -0.01095   0.02033   0.00917   1.81207
    A6        1.89853   0.00017   0.01218  -0.00022   0.01191   1.91044
    A7        1.91629   0.00014  -0.00500   0.00913   0.00371   1.91999
    A8        1.97317  -0.00120   0.01713  -0.02643  -0.00989   1.96328
    A9        2.14738  -0.00198  -0.01977   0.00107  -0.01850   2.12888
   A10        2.16163   0.00320   0.00291   0.02583   0.02898   2.19060
   A11        1.95053   0.00195   0.00496   0.01453   0.01928   1.96981
   A12        2.17544   0.00088   0.00834  -0.00123   0.00672   2.18216
   A13        2.15690  -0.00286  -0.01350  -0.01374  -0.02761   2.12929
   A14        1.93309   0.00128   0.00725   0.01829   0.02404   1.95712
   A15        1.81450  -0.00098  -0.00744  -0.00482  -0.01280   1.80169
   A16        2.00369  -0.00026  -0.00798   0.00641  -0.00103   2.00266
   A17        1.59229  -0.00157  -0.00341  -0.03024  -0.03104   1.56125
   A18        2.05041  -0.00032  -0.00510  -0.01410  -0.01902   2.03139
   A19        2.01784   0.00163   0.01851   0.01936   0.03715   2.05499
   A20        1.90838  -0.00163  -0.03524   0.03092  -0.01771   1.89067
   A21        1.53956   0.00058   0.00351   0.03042   0.02952   1.56908
   A22        2.23482   0.00057   0.03863   0.00640   0.00329   2.23811
   A23        2.13586   0.00214   0.02753  -0.01876  -0.01444   2.12142
   A24        1.96985   0.00652   0.09787   0.12965   0.21731   2.18716
   A25        1.63794   0.00087   0.00352  -0.01598  -0.01015   1.62779
   A26        2.33380  -0.00226  -0.02872  -0.01134  -0.04748   2.28632
   A27        1.87834  -0.00153  -0.02890   0.01238  -0.02185   1.85649
   A28        1.93404   0.00216   0.06005   0.01094   0.07589   2.00993
   A29        2.27226   0.00046   0.00879   0.00880   0.00932   2.28158
   A30        1.86139  -0.00077  -0.00133  -0.00029  -0.00106   1.86033
   A31        2.03914   0.00086   0.00453  -0.00741  -0.00196   2.03718
   A32        2.00387  -0.00112  -0.02137  -0.00435  -0.02736   1.97651
   A33        1.50526   0.00023  -0.00100   0.01744   0.01538   1.52064
   A34        2.09264   0.00008  -0.00552  -0.01934  -0.02658   2.06605
   A35        1.91250   0.00116   0.03131   0.01712   0.04901   1.96151
    D1       -1.28944   0.00038  -0.00816   0.01776   0.00954  -1.27990
    D2        2.97123  -0.00027  -0.00366   0.00866   0.00529   2.97653
    D3        0.86017   0.00050   0.01795  -0.00257   0.01515   0.87532
    D4       -2.23474   0.00022   0.00294  -0.00057   0.00262  -2.23212
    D5        0.95344  -0.00030  -0.00286  -0.01210  -0.01443   0.93901
    D6       -0.14812  -0.00038  -0.00332  -0.00117  -0.00420  -0.15232
    D7        3.04006  -0.00089  -0.00912  -0.01270  -0.02125   3.01881
    D8        1.88711   0.00036  -0.00905   0.01930   0.01009   1.89720
    D9       -1.20789  -0.00015  -0.01485   0.00778  -0.00697  -1.21486
   D10        2.34068   0.00025   0.00986  -0.02976  -0.02036   2.32032
   D11        0.69513   0.00010   0.01020  -0.04752  -0.03715   0.65798
   D12       -1.58012  -0.00138  -0.01987  -0.06137  -0.08087  -1.66099
   D13        0.19375  -0.00001  -0.00950  -0.01000  -0.01999   0.17376
   D14       -1.45180  -0.00016  -0.00916  -0.02776  -0.03678  -1.48857
   D15        2.55614  -0.00164  -0.03923  -0.04161  -0.08050   2.47564
   D16       -1.82887  -0.00079  -0.01561  -0.02421  -0.04022  -1.86909
   D17        2.80876  -0.00095  -0.01527  -0.04197  -0.05700   2.75176
   D18        0.53352  -0.00242  -0.04534  -0.05582  -0.10073   0.43279
   D19        0.03548   0.00059   0.01193   0.01589   0.02849   0.06397
   D20       -3.13256  -0.00054  -0.00806  -0.00241  -0.01080   3.13983
   D21        3.13004   0.00095   0.01694   0.02674   0.04475  -3.10840
   D22       -0.03800  -0.00018  -0.00305   0.00844   0.00546  -0.03254
   D23        1.78061  -0.00237  -0.02136  -0.05299  -0.07332   1.70729
   D24        0.09162  -0.00060  -0.01674  -0.02285  -0.04027   0.05135
   D25       -2.12975  -0.00177  -0.02954  -0.04830  -0.07755  -2.20730
   D26       -1.33487  -0.00132  -0.00155  -0.03513  -0.03597  -1.37084
   D27       -3.02386   0.00045   0.00307  -0.00500  -0.00291  -3.02678
   D28        1.03796  -0.00072  -0.00973  -0.03045  -0.04020   0.99776
   D29       -2.73577  -0.00255  -0.02650  -0.00942  -0.03400  -2.76977
   D30       -1.75018   0.00089  -0.00487   0.00615   0.00019  -1.74998
   D31        0.30898   0.01025   0.13214   0.20690   0.33689   0.64587
   D32       -0.89547  -0.00407  -0.03490  -0.02436  -0.05785  -0.95332
   D33        0.09012  -0.00063  -0.01327  -0.00878  -0.02366   0.06646
   D34        2.14928   0.00873   0.12375   0.19197   0.31304   2.46232
   D35        1.19728  -0.00323  -0.01689  -0.02474  -0.03887   1.15841
   D36        2.18287   0.00021   0.00474  -0.00917  -0.00468   2.17819
   D37       -2.04116   0.00958   0.14175   0.19158   0.33202  -1.70914
   D38       -0.17798   0.00054   0.01408   0.02238   0.03661  -0.14138
   D39        1.86243   0.00145   0.01841   0.01986   0.03916   1.90160
   D40       -2.49278   0.00294   0.05353   0.04724   0.10037  -2.39240
   D41       -2.12847  -0.00023   0.00845   0.01234   0.02127  -2.10720
   D42       -0.08806   0.00068   0.01278   0.00983   0.02383  -0.06422
   D43        1.83992   0.00217   0.04790   0.03721   0.08504   1.92496
   D44        2.03455   0.00052   0.01041   0.03984   0.05026   2.08481
   D45       -2.20822   0.00144   0.01475   0.03733   0.05282  -2.15540
   D46       -0.28024   0.00293   0.04987   0.06471   0.11403  -0.16621
   D47       -0.09170   0.00057   0.01267   0.00896   0.02362  -0.06808
   D48        2.76320  -0.00243  -0.05954  -0.05526  -0.10391   2.65929
   D49       -2.37800  -0.00251  -0.05203  -0.05661  -0.11993  -2.49793
   D50        0.47691  -0.00551  -0.12424  -0.12083  -0.24747   0.22944
   D51        1.95435  -0.00122  -0.01482  -0.00090  -0.01717   1.93718
   D52        0.09080  -0.00054  -0.01321  -0.00882  -0.02364   0.06716
   D53       -2.01153  -0.00086  -0.01072   0.00307  -0.00875  -2.02028
   D54        2.93827  -0.00006  -0.02040   0.00980  -0.01070   2.92757
   D55        1.07473   0.00062  -0.01878   0.00188  -0.01718   1.05755
   D56       -1.02761   0.00029  -0.01630   0.01377  -0.00228  -1.02989
   D57       -0.91640   0.00232   0.05911   0.06466   0.12441  -0.79199
   D58       -2.77994   0.00300   0.06072   0.05674   0.11793  -2.66201
   D59        1.40091   0.00268   0.06321   0.06863   0.13282   1.53373
         Item               Value     Threshold  Converged?
 Maximum Force            0.010253     0.000450     NO 
 RMS     Force            0.002411     0.000300     NO 
 Maximum Displacement     0.294828     0.001800     NO 
 RMS     Displacement     0.043929     0.001200     NO 
 Predicted change in Energy=-1.102896D-02
 GradGradGradGradGradGradGradGradGradGradGradGradGradGradGradGradGradGrad

                          Input orientation:                          
 ---------------------------------------------------------------------
 Center     Atomic      Atomic             Coordinates (Angstroms)
 Number     Number       Type             X           Y           Z
 ---------------------------------------------------------------------
      1          8           0       -1.876423   -2.682138    0.756476
      2          6           0       -0.852284   -1.906571    1.372731
      3          6           0       -0.221883   -0.855400    0.478321
      4          6           0        1.102942   -0.937538    0.454113
      5          6           0        1.631949   -2.104310    1.248330
      6          6           0        1.947738   -3.328325    0.349121
      7          8           0        1.953386   -4.481514    1.157013
      8          6           0        0.661122   -3.953062    0.752077
      9          6           0        0.323142   -2.825509    1.744471
     10          1           0       -2.656532   -2.133105    0.665407
     11          1           0       -1.254729   -1.424922    2.277506
     12          1           0       -0.818223   -0.113455   -0.046582
     13          1           0        1.756761   -0.288188   -0.118521
     14          1           0        2.384317   -1.844541    1.996686
     15          1           0        2.360572   -3.335756   -0.651245
     16          1           0        0.021638   -4.651202    0.236158
     17          1           0        0.284717   -3.177114    2.774178
 ---------------------------------------------------------------------
                    Distance matrix (angstroms):
                    1          2          3          4          5
     1  O    0.000000
     2  C    1.424828   0.000000
     3  C    2.480291   1.517345   0.000000
     4  C    3.465785   2.367656   1.327590   0.000000
     5  C    3.589496   2.495194   2.364188   1.507311   0.000000
     6  C    3.899706   3.302921   3.292311   2.537827   1.551294
     7  O    4.250367   3.814269   4.282654   3.711750   2.400574
     8  C    2.838028   2.619873   3.232670   3.062250   2.146312
     9  C    2.415528   1.537616   2.404479   2.416101   1.574567
    10  H    0.958280   1.951137   2.755911   3.950654   4.328013
    11  H    2.068968   1.101165   2.151323   3.020085   3.139057
    12  H    2.891854   2.287110   1.087026   2.149577   3.412278
    13  H    4.438090   3.413226   2.143125   1.084917   2.276436
    14  H    4.515927   3.296780   3.174290   2.200934   1.092508
    15  H    4.512318   4.057276   3.754619   2.924876   2.378179
    16  H    2.783986   3.096536   3.811307   3.874019   3.178718
    17  H    2.997774   2.207057   3.304233   3.326844   2.300902
                    6          7          8          9         10
     6  C    0.000000
     7  O    1.408036   0.000000
     8  C    1.485951   1.453678   0.000000
     9  C    2.199805   2.396905   1.539627   0.000000
    10  H    4.767378   5.196926   3.785047   3.243803   0.000000
    11  H    4.194926   4.570585   3.519787   2.176107   2.250653
    12  H    4.259402   5.311345   4.191527   3.444679   2.822285
    13  H    3.081817   4.387440   3.922966   3.458901   4.847207
    14  H    2.259798   2.800781   2.994046   2.296597   5.221660
    15  H    1.082228   2.179073   2.288779   3.186052   5.324591
    16  H    2.339364   2.146723   1.078198   2.387271   3.701035
    17  H    2.944386   2.664796   2.198333   1.088760   3.766671
                   11         12         13         14         15
    11  H    0.000000
    12  H    2.704046   0.000000
    13  H    4.012752   2.581908   0.000000
    14  H    3.673907   4.174670   2.700030   0.000000
    15  H    5.029837   4.566571   3.152150   3.039050   0.000000
    16  H    4.025555   4.623467   4.708751   4.069282   2.826392
    17  H    2.384691   4.308035   4.345171   2.605488   4.008474
                   16         17
    16  H    0.000000
    17  H    2.946810   0.000000
 Stoichiometry    C7H8O2
 Framework group  C1[X(C7H8O2)]
 Deg. of freedom    45
 Full point group                 C1      NOp   1
 Largest Abelian subgroup         C1      NOp   1
 Largest concise Abelian subgroup C1      NOp   1
                         Standard orientation:                         
 ---------------------------------------------------------------------
 Center     Atomic      Atomic             Coordinates (Angstroms)
 Number     Number       Type             X           Y           Z
 ---------------------------------------------------------------------
      1          8           0       -1.818860   -1.428700   -0.375732
      2          6           0       -1.444041   -0.311837    0.425680
      3          6           0       -1.569853    1.036305   -0.259169
      4          6           0       -0.453712    1.751021   -0.182315
      5          6           0        0.673692    1.006337    0.485812
      6          6           0        1.640479    0.363683   -0.543184
      7          8           0        2.338179   -0.678989    0.096046
      8          6           0        0.978462   -0.951074   -0.340210
      9          6           0        0.052111   -0.413033    0.765609
     10          1           0       -2.773745   -1.434911   -0.456096
     11          1           0       -2.041335   -0.310532    1.350776
     12          1           0       -2.496555    1.360768   -0.725614
     13          1           0       -0.318586    2.741938   -0.602871
     14          1           0        1.136421    1.533031    1.323695
     15          1           0        1.964270    0.760530   -1.496541
     16          1           0        0.869216   -1.797248   -0.999428
     17          1           0        0.242945   -0.880473    1.730224
 ---------------------------------------------------------------------
 Rotational constants (GHZ):           3.0149066           1.6705359           1.2415610
 Standard basis: 6-31G(2df,p) (6D, 7F)
 There are   319 symmetry adapted cartesian basis functions of A   symmetry.
 There are   292 symmetry adapted basis functions of A   symmetry.
   292 basis functions,   452 primitive gaussians,   319 cartesian basis functions
    33 alpha electrons       33 beta electrons
       nuclear repulsion energy       452.0028146912 Hartrees.
 NAtoms=   17 NActive=   17 NUniq=   17 SFac= 1.00D+00 NAtFMM=   60 NAOKFM=F Big=F
 Integral buffers will be    131072 words long.
 Raffenetti 2 integral format.
 Two-electron integral symmetry is turned on.
 One-electron integrals computed using PRISM.
 PrsmSu:  requested number of processors reduced to:  13 ShMem   1 Linda.
 NBasis=   292 RedAO= T EigKep=  2.96D-04  NBF=   292
 NBsUse=   292 1.00D-06 EigRej= -1.00D+00 NBFU=   292
 Initial guess from the checkpoint file:  "OC1CdCC2C3OC3C12.chk"
 B after Tr=    -0.000000   -0.000000    0.000000
         Rot=    0.999978    0.003507   -0.000438   -0.005596 Ang=   0.76 deg.
 ExpMin= 1.61D-01 ExpMax= 5.48D+03 ExpMxC= 8.25D+02 IAcc=2 IRadAn=         4 AccDes= 0.00D+00
 Harris functional with IExCor=  402 and IRadAn=       4 diagonalized for initial guess.
 HarFok:  IExCor=  402 AccDes= 0.00D+00 IRadAn=         4 IDoV= 1 UseB2=F ITyADJ=14
 ICtDFT=  3500011 ScaDFX=  1.000000  1.000000  1.000000  1.000000
 FoFCou: FMM=F IPFlag=           0 FMFlag=      100000 FMFlg1=           0
         NFxFlg=           0 DoJE=T BraDBF=F KetDBF=T FulRan=T
         wScrn=  0.000000 ICntrl=       500 IOpCl=  0 I1Cent=   200000004 NGrid=           0
         NMat0=    1 NMatS0=      1 NMatT0=    0 NMatD0=    1 NMtDS0=    0 NMtDT0=    0
 Petite list used in FoFCou.
 Requested convergence on RMS density matrix=1.00D-08 within 128 cycles.
 Requested convergence on MAX density matrix=1.00D-06.
 Requested convergence on             energy=1.00D-06.
 No special actions if energy rises.
 Integral accuracy reduced to 1.0D-05 until final iterations.
 Initial convergence to 1.0D-05 achieved.  Increase integral accuracy.
 SCF Done:  E(RB3LYP) =  -421.919218901     A.U. after   11 cycles
            NFock= 11  Conv=0.61D-08     -V/T= 2.0073
 PrsmSu:  requested number of processors reduced to:  13 ShMem   1 Linda.
 Calling FoFJK, ICntrl=      2127 FMM=F ISym2X=0 I1Cent= 0 IOpClX= 0 NMat=1 NMatS=1 NMatT=0.
 ***** Axes restored to original set *****
 -------------------------------------------------------------------
 Center     Atomic                   Forces (Hartrees/Bohr)
 Number     Number              X              Y              Z
 -------------------------------------------------------------------
      1        8           0.002594053   -0.002335689   -0.000531198
      2        6          -0.000065545    0.000560670   -0.000581216
      3        6          -0.004334575    0.000113056    0.000344638
      4        6           0.004280197   -0.001625786   -0.000356726
      5        6           0.001745722    0.002834808   -0.000627546
      6        6          -0.021737306    0.004024804   -0.001825283
      7        8          -0.001747269   -0.002224731    0.000505780
      8        6           0.011674670   -0.000564063    0.004105277
      9        6           0.001897765   -0.003390192   -0.002740390
     10        1          -0.002973080    0.002149294   -0.000740741
     11        1          -0.000700007   -0.000536838    0.000898667
     12        1           0.000331633   -0.000727832    0.000512981
     13        1           0.000464388    0.000699210    0.000601948
     14        1           0.002148911    0.000059402   -0.001010021
     15        1           0.008590728   -0.001183678    0.001461131
     16        1          -0.002690754    0.000852100   -0.001921999
     17        1           0.000520469    0.001295465    0.001904698
 -------------------------------------------------------------------
 Cartesian Forces:  Max     0.021737306 RMS     0.004103473

 GradGradGradGradGradGradGradGradGradGradGradGradGradGradGradGradGradGrad
 Berny optimization.
 Using GEDIIS/GDIIS optimizer.
 FormGI is forming the generalized inverse of G from B-inverse, IUseBI=4.
 Internal  Forces:  Max     0.004682007 RMS     0.001232676
 Search for a local minimum.
 Step number   3 out of a maximum of  102
 All quantities printed in internal units (Hartrees-Bohrs-Radians)
 Mixed Optimization -- RFO/linear search
 Update second derivatives using D2CorX and points    2    3
 DE= -1.18D-02 DEPred=-1.10D-02 R= 1.07D+00
 TightC=F SS=  1.41D+00  RLast= 7.92D-01 DXNew= 8.4853D-01 2.3752D+00
 Trust test= 1.07D+00 RLast= 7.92D-01 DXMaxT set to 8.49D-01
 ITU=  1  1  0
 Use linear search instead of GDIIS.
     Eigenvalues ---    0.00613   0.01022   0.01287   0.01626   0.01667
     Eigenvalues ---    0.01700   0.01817   0.02737   0.03121   0.03720
     Eigenvalues ---    0.04957   0.05864   0.05885   0.06110   0.06735
     Eigenvalues ---    0.07793   0.09263   0.09997   0.12877   0.13296
     Eigenvalues ---    0.15724   0.15971   0.16089   0.16901   0.17398
     Eigenvalues ---    0.18332   0.22903   0.24136   0.26423   0.27618
     Eigenvalues ---    0.29784   0.30175   0.31819   0.32191   0.32394
     Eigenvalues ---    0.32465   0.32533   0.32700   0.32971   0.35756
     Eigenvalues ---    0.35776   0.41747   0.45380   0.47151   0.49213
 RFO step:  Lambda=-1.54300326D-03 EMin= 6.13159659D-03
 Quartic linear search produced a step of  0.41815.
 Iteration  1 RMS(Cart)=  0.03172682 RMS(Int)=  0.00365049
 Iteration  2 RMS(Cart)=  0.00141249 RMS(Int)=  0.00334300
[...]
   yx        -0.436986D+01     -0.647547D+00     -0.720493D+00
   yy         0.580964D+02      0.860900D+01      0.957880D+01
   zx        -0.631699D+01     -0.936082D+00     -0.104153D+01
   zy         0.435616D+00      0.645517D-01      0.718234D-01
   zz         0.776018D+02      0.114994D+02      0.127948D+02

 ----------------------------------------------------------------------
 1\1\GINC-LEWIS4-R630-HPC4-NODE235\Freq\RB3LYP\6-31G(2df,p)\C7H8O2\KS29
 C\18-Feb-2021\0\\#N Geom=AllCheck Guess=TCheck SCRF=Check GenChk RB3LY
 P/6-31G(2df,p) Freq\\Title\\0,1\O,-1.8219502141,-2.7087663486,0.692964
 8782\C,-0.8524517027,-1.9188166726,1.3852271309\C,-0.2359102938,-0.826
 0718829,0.5364495377\C,1.090298282,-0.9146387159,0.4614267382\C,1.6385
 188392,-2.100742665,1.2046660241\C,1.8746430591,-3.3392047669,0.310813
 7278\O,1.9390462989,-4.4813200041,1.1655702149\C,0.6448174636,-3.97587
 52248,0.8022178598\C,0.3454826654,-2.8136396823,1.7653569651\H,-2.5721
 579764,-2.1445384263,0.4813665458\H,-1.3162525019,-1.4920391298,2.2888
 112715\H,-0.8426744482,-0.0623736897,0.0589316319\H,1.7288367116,-0.23
 65438951,-0.0958400985\H,2.4514497538,-1.8671054898,1.8978370324\H,2.3
 750980499,-3.3984787299,-0.6493616476\H,-0.0459785654,-4.656304198,0.3
 238809481\H,0.3473945789,-3.1061904781,2.8159212395\\Version=ES64L-G16
 RevA.03\State=1-A\HF=-421.9216403\RMSD=2.583e-09\RMSF=1.230e-05\ZeroPo
 int=0.1369226\Thermal=0.1441058\Dipole=-0.5072339,1.0336992,-0.2569381
 \DipoleDeriv=-0.7934635,-0.2303736,-0.0712277,-0.3639156,-0.4109557,-0
 .063567,-0.1299536,-0.0821702,-0.5228778,0.6907136,0.1826666,0.013233,
 0.2947039,0.3961287,0.1541035,0.0795394,0.1192643,0.4442992,-0.0631781
 ,-0.0363296,0.0093901,-0.1226653,-0.0846596,-0.1206462,0.0632976,-0.07
 49573,-0.1446023,0.0838177,-0.0324843,-0.0418272,-0.0512066,0.0392602,
 -0.1262042,-0.052631,-0.2095559,-0.0709943,0.0530269,0.0097445,0.13378
 84,0.0418036,-0.0025058,0.0883521,0.167571,0.0119712,0.0723765,0.12461
 32,-0.1219664,-0.0907032,-0.1798689,0.4456724,-0.0128636,-0.1664381,0.
 0139522,0.2533226,-0.4350741,0.303972,-0.051182,0.3286207,-0.7538855,0
 .027584,-0.1180193,0.1541538,-0.3651277,0.3009906,-0.0910675,0.0376011
 ,-0.1134859,0.3867616,0.0668421,0.0169941,0.0993567,0.0940501,-0.07772
 84,-0.0644175,-0.0168175,0.0434033,-0.0432959,-0.0567544,0.0429763,-0.
 1004477,0.1344788,0.2590553,0.0678197,-0.0345113,0.1292161,0.1620284,0
 .0087459,-0.0346876,-0.0009346,0.2896335,-0.1221028,0.0375255,0.094783
 5,-0.0252521,-0.0418553,-0.0772685,0.0785806,-0.0701667,-0.1428856,-0.
 0031469,0.0764675,-0.0333937,0.0774309,-0.0150912,0.0868439,-0.0268617
 ,0.112143,0.059675,0.0073069,-0.0424549,0.0459276,-0.0474354,-0.017408
 4,0.0870566,0.055152,0.1134737,0.0528275,-0.0845568,-0.0387077,-0.0895
 81,-0.0137193,-0.026957,-0.020526,-0.103704,-0.0310282,-0.0221932,0.03
 76615,-0.0071935,0.0956913,0.0226767,-0.0081133,-0.0227408,0.1044127,-
 0.0267425,-0.0598606,0.0014548,-0.0249953,-0.0175784,-0.0475423,-0.021
 1584,-0.0638166,-0.0087468,-0.0645566,0.0593503,0.02061,0.0117945,0.01
 64069,0.0272361,-0.003965,0.0448591,0.0325183,0.0362448,-0.1314719\Pol
 ar=84.1738087,-3.8267421,72.4193513,-3.1485793,-3.583253,58.6834594\Qu
 adrupole=2.0477042,-2.2193035,0.1715994,0.1975695,-1.1127744,0.3234105
 \PG=C01 [X(C7H8O2)]\NImag=0\\0.49263888,-0.15171991,0.36291051,0.17385
 927,0.01685339,0.13644816,-0.12934825,-0.01516973,-0.04160334,0.510753
 30,-0.05920579,-0.12954893,-0.05180762,-0.03227405,0.45528214,-0.05692
 812,-0.03538346,-0.09545817,-0.05431446,0.02795983,0.51131705,-0.02062
 001,-0.03202184,0.00399372,-0.09198605,-0.01614480,0.03025984,0.837072
 18,-0.01762336,-0.01724347,0.00498730,-0.01563619,-0.12619167,0.049240
 66,-0.12273235,0.44223365,-0.01087778,-0.01640643,0.01376886,0.0257543
 9,0.05451882,-0.12152625,0.01500215,-0.19993352,0.29031945,0.00177003,
 0.00153009,0.00082749,-0.02575313,-0.01448240,0.01201818,-0.54263042,0
 .02951329,0.02917940,0.83628960,-0.00300762,-0.00559766,-0.00004460,-0
 .02077254,0.00573458,0.00956846,0.03210607,-0.08720032,0.02296681,0.04
 006735,0.43626102,0.00108875,0.00335313,0.00040686,0.01929414,0.003658
 45,-0.00175616,0.02874089,0.02231710,-0.06906753,-0.10507057,-0.202258
 35,0.29545440,-0.00379967,0.00223667,0.00012493,-0.02884652,-0.0059446
 8,-0.00107886,-0.02554976,0.02639616,-0.01570924,-0.09348778,0.0285109
 8,-0.02114938,0.51516815,0.00084979,-0.00214392,0.00190424,0.00458637,
 0.00647226,-0.00920234,0.01978010,-0.00859290,0.01039989,0.03366025,-0
 .14989242,0.04878338,0.02881792,0.47330114,-0.00410301,0.00111435,-0.0
 0137582,0.00195231,-0.01033760,-0.00357733,-0.00916439,0.00736641,0.00
 482373,-0.02759104,0.05527372,-0.10621033,0.13837420,0.00366211,0.4473
 1355,0.00021534,-0.00023388,-0.00056391,-0.00300971,0.00034912,0.00219
 185,-0.00035358,0.00213228,-0.00111580,-0.00502269,0.00760203,0.004774
 88,-0.04909097,0.00977528,-0.00151918,0.42192694,-0.00119055,-0.000725
 91,-0.00035910,0.00009238,-0.00134890,0.00104315,-0.00384869,-0.001137
 79,-0.00122407,0.01606644,-0.02553068,-0.00444628,0.01360797,-0.099562
 52,-0.05924861,0.06491730,0.39756879,-0.00027803,-0.00047018,-0.000277
 46,0.00107117,0.00288890,0.00095554,-0.00222550,0.00222359,-0.00105177
 ,-0.00378989,0.01086332,0.01658625,0.00515156,-0.04328021,-0.11612080,
 -0.23273051,-0.00644601,0.60108240,-0.00003055,0.00014809,-0.00007964,
 0.00356677,0.00250764,0.00452309,-0.00042694,0.00020229,0.00071193,0.0
 0023030,-0.00056118,-0.00134165,0.00087618,-0.00976945,0.00524705,-0.0
 2251848,0.03739264,-0.01941799,0.23149935,0.00073640,0.00183637,0.0002
 3918,-0.00385978,-0.00431322,-0.00345510,0.00081546,-0.00208497,0.0012
 6915,0.00262115,-0.00379859,-0.00964849,0.01783291,-0.03770399,0.02644
 613,0.00238759,-0.15486072,0.07497384,-0.09649088,0.26778087,-0.000855
 85,0.00084382,0.00073785,-0.00007745,-0.00484730,-0.00461948,0.0012363
 4,-0.00025522,0.00000030,0.00041139,-0.00272669,0.00068425,0.00517292,
 0.00060929,0.01410734,0.00671072,0.08197195,-0.13023204,0.05716184,-0.
 10490070,0.17432003,0.00080037,-0.00052094,0.00209301,-0.00520642,0.02
 192864,0.01093163,-0.00006630,0.00094847,-0.00037277,-0.00345620,0.001
 51887,0.00320158,-0.01997454,-0.03030220,-0.01191026,-0.20114473,-0.14
 027452,0.09930086,-0.17038170,0.07476058,-0.07449494,0.61075254,-0.000
 56178,-0.00167840,-0.00166034,0.00607078,-0.01212584,-0.00446842,0.000
 30480,0.00022756,0.00068852,-0.00116603,0.00088965,-0.00027956,-0.0434
 8905,-0.05575043,-0.02466361,-0.08821861,-0.05159513,0.02416252,0.0420
 0381,-0.06912294,0.00354190,0.18721220,0.47344132,0.00084869,-0.002065
 89,-0.00031570,0.00566761,0.00885639,0.01145891,-0.00193731,-0.0001289
 3,-0.00010048,0.00186938,0.00183121,-0.00143503,-0.01003375,-0.0114198
 3,-0.00755461,0.06503142,0.02818627,-0.05012111,-0.04068273,-0.0009046
 0,-0.06005409,0.04828572,0.14564214,0.35312928,-0.02879293,0.01035877,
 -0.01250630,-0.11664931,0.04093274,-0.01210394,0.00570124,0.00732765,-
 0.00628388,0.00242931,-0.00893146,0.00478421,-0.10742236,-0.02049565,0
 .01602336,-0.03473316,0.00971000,0.03163136,-0.02719765,0.01729119,0.0
 2177347,-0.05127810,0.00933479,-0.00965966,0.41987822,-0.01546888,0.01
 381193,-0.00469927,0.04853076,-0.11273146,0.00906932,0.01432686,-0.022
 89215,0.01226858,-0.01874006,-0.01912848,0.01924265,-0.02144978,-0.068
 48226,0.02248080,0.00601158,0.00094925,-0.00648837,0.02428370,-0.01439
 061,-0.01297350,0.01213335,-0.11350774,-0.05693596,-0.05828104,0.42211
 467,-0.01644440,0.00820175,-0.00431979,-0.01500792,0.01072434,-0.08730
 979,-0.01111101,0.02087104,-0.00859842,0.01121750,0.01113693,-0.012121
 00,0.00698084,0.01647339,-0.07454134,0.04343752,-0.01925866,-0.0454322
 6,-0.00640673,0.01320687,0.01716099,0.00322950,-0.05316357,-0.12150089
 ,-0.02480018,-0.05773510,0.62071820,-0.31271168,0.20184705,-0.09625329
 ,-0.02427250,0.01992337,-0.00558221,0.00110070,0.00052214,0.00156792,-
 0.00017603,0.00072031,-0.00046283,-0.00064971,0.00019438,-0.00112161,0
 .00013516,0.00017069,0.00013849,0.00008276,-0.00039166,0.00004919,0.00
 054662,-0.00048040,-0.00016851,-0.00214465,-0.00369677,-0.00221649,0.3
 3688168,0.24744962,-0.21405509,0.06169198,-0.02573294,0.00986411,-0.00
 964990,-0.00106558,0.00155077,-0.00089591,-0.00001401,-0.00022388,0.00
 018331,-0.00058218,0.00016302,-0.00017054,0.00006126,-0.00002875,0.000
 13968,0.00025499,-0.00005405,0.00002490,-0.00020301,-0.00003595,0.0001
 4736,-0.00164719,-0.00189736,-0.00159520,-0.21796206,0.20465284,-0.082
 99664,0.03896094,-0.03179407,-0.01874673,0.01328127,-0.00714240,0.0010
 2297,-0.00127386,0.00132891,0.00027832,0.00023022,-0.00037530,-0.00038
 322,0.00067856,-0.00059132,-0.00013951,-0.00025140,-0.00000367,0.00026
 381,0.00007437,-0.00001999,0.00009762,-0.00041279,-0.00007609,-0.00267
 077,-0.00313148,-0.00086683,0.10334844,-0.04993547,0.03878344,0.004116
 17,-0.01951476,-0.02874860,-0.09694089,0.04608025,0.08915258,-0.005315
 41,0.00225932,0.01113241,0.00059148,-0.00184826,0.00147886,-0.00121658
 ,0.00113670,0.00125139,-0.00077838,-0.00043289,-0.00038685,-0.00093809
 ,0.00078354,0.00107315,-0.00146582,-0.00058856,-0.00304179,-0.00816215
 ,0.01151389,0.01732458,0.00223867,-0.00025705,0.00020746,0.10729195,-0
 .00305105,-0.01229385,-0.02496945,0.04076704,-0.07989174,-0.06321430,-
 0.01322468,0.01009164,0.02003876,0.00001919,-0.00278176,0.00240985,0.0
 0080949,-0.00065836,0.00107248,0.00011618,-0.00010803,-0.00036343,0.00
 122249,-0.00024190,-0.00082763,0.00124956,0.00027741,0.00194433,0.0099
 4740,-0.00715940,-0.01513769,0.00044365,0.00011910,0.00093996,-0.03785
 759,0.09260796,-0.00696908,-0.01699533,-0.01841782,0.08743558,-0.06805
 831,-0.20371894,0.01333090,-0.00493770,-0.01377967,-0.00005834,0.00248
 699,-0.00167810,0.00006895,-0.00008308,-0.00083788,-0.00003415,0.00029
 296,0.00029236,-0.00061136,0.00002911,0.00039288,-0.00122827,0.0001639
 8,-0.00033005,-0.00418913,0.00599363,0.00702659,0.00029891,-0.00071770
 ,0.00024215,-0.08873893,0.08097434,0.22811565,0.00122678,0.00169554,-0
 .00011929,0.00913889,-0.01052248,0.00567874,-0.14257242,0.10732540,-0.
 06489459,-0.00901476,0.02419836,-0.01512235,-0.00417052,-0.00000940,0.
 00164763,-0.00034872,-0.00027002,-0.00089926,0.00028436,0.00076862,-0.
 00008179,-0.00015746,0.00001709,0.00042798,-0.00189186,-0.00253555,0.0
 0165218,-0.00030077,0.00021945,-0.00026141,0.00001990,0.00080445,-0.00
 032135,0.14630875,-0.00042141,0.00151107,-0.00166703,0.01391220,-0.007
 77582,0.00561490,0.11270668,-0.18870547,0.09438260,-0.00347727,0.00254
 391,0.00150376,0.00068407,0.00464144,0.00637953,-0.00056748,0.00046278
 ,-0.00111190,0.00021540,0.00071763,-0.00028672,-0.00047818,0.00018860,
 0.00046763,-0.00146064,-0.00121595,0.00296203,-0.00079201,-0.00072021,
 0.00022954,-0.00051894,0.00001549,0.00040044,-0.12170060,0.19180662,0.
 00114635,-0.00016586,0.00065292,-0.01275484,0.00627325,-0.00256260,-0.
 06729947,0.09598302,-0.09808717,0.00419941,-0.00206995,0.00475274,0.00
 314351,0.00644426,0.00745413,-0.00067227,0.00098812,-0.00122595,-0.000
 54701,0.00141364,0.00019773,-0.00061410,-0.00012254,-0.00056771,0.0007
 9552,0.00182236,-0.00020776,0.00030525,0.00027936,0.00027074,0.0002471
 1,-0.00068237,0.00004541,0.07282858,-0.10620478,0.09169582,-0.00095703
 ,-0.00129240,-0.00028806,-0.00370535,0.00314285,0.00053269,-0.01080929
 ,-0.02231665,0.01751245,-0.15244278,-0.09959637,0.08418203,0.00983898,
 0.00803621,-0.00625087,0.00008487,-0.00060091,0.00004560,0.00010693,0.
 00016223,0.00005001,0.00022490,-0.00013697,-0.00019483,-0.00147610,0.0
 0270594,-0.00167784,0.00021103,-0.00003266,0.00004191,-0.00031488,-0.0
 0090638,0.00091367,0.00099792,0.00014583,-0.00083367,0.15757426,0.0013
 3958,0.00197759,-0.00129142,0.00154215,0.00217302,0.00732039,0.0055281
 0,0.00563469,-0.00198113,-0.10381940,-0.16059485,0.09767510,-0.0147077
 7,-0.00729199,0.00731574,-0.00024578,0.00118288,0.00045387,0.00022612,
 -0.00057033,-0.00032258,-0.00020553,0.00056219,0.00046767,0.00129964,-
 0.00107014,0.00261070,-0.00027865,-0.00000227,0.00001177,-0.00083648,-
 0.00099060,0.00049047,-0.00083828,-0.00143569,-0.00269759,0.11119694,0
 .16137106,0.00217405,0.00195326,-0.00127137,-0.00065016,0.00466728,0.0
 0959060,-0.00162827,0.00133768,0.00293967,0.08801306,0.09728735,-0.118
 25021,0.00935796,0.00613185,-0.00430270,-0.00021662,0.00011754,-0.0004
 9870,0.00014089,0.00031191,0.00020390,0.00066398,0.00022087,-0.0001138
 2,-0.00198603,0.00253397,0.00004450,-0.00016916,0.00004752,-0.00000970
 ,-0.00094085,-0.00186142,0.00090004,-0.00018715,-0.00285864,-0.0033017
 4,-0.09451244,-0.10978913,0.11343013,-0.00135572,0.00059874,-0.0002121
 6,-0.00079744,-0.00240778,-0.00110914,-0.00015450,0.00034348,-0.000958
 37,-0.00691683,-0.00080325,-0.00462212,-0.19417218,-0.04164424,-0.1216
 3120,0.00733328,0.00020636,0.00540137,0.00028414,-0.00254497,0.0000456
 2,-0.00061247,0.00013188,-0.00041816,-0.00914786,0.00150344,-0.0138397
 7,-0.00031553,-0.00020759,-0.00011714,-0.00007722,0.00027088,0.0001062
 8,-0.00028924,0.00068457,0.00046258,0.00017874,0.00048728,-0.00018773,
 0.20454233,0.00011058,0.00096482,-0.00037320,0.00018395,-0.00189596,0.
 00146775,0.00072101,-0.00325764,0.00213049,0.02179819,0.00755145,0.016
 34016,-0.04228423,-0.05448428,-0.03193572,-0.01721371,-0.00671538,-0.0
 1479771,0.00227016,0.00382757,0.00197179,-0.00312047,-0.00388169,-0.00
 400745,-0.00517997,-0.00178523,-0.00706075,-0.00027290,-0.00003429,-0.
 00004783,-0.00001216,0.00016223,-0.00009862,0.00097042,-0.00113474,-0.
 00181727,-0.00095606,0.00035693,-0.00071746,0.04331382,0.06187632,0.00
 070891,-0.00078625,0.00056043,0.00084796,0.00226961,-0.00077648,0.0001
 2681,0.00229318,-0.00161886,-0.01126716,-0.00397344,-0.00737598,-0.123
 22533,-0.03382611,-0.15329967,-0.01461778,-0.00311751,-0.01136896,0.00
 149464,0.00149518,0.00265466,0.00086364,-0.00149822,-0.00242977,0.0097
 2430,0.00020449,0.01021358,0.00040439,0.00014061,0.00015321,-0.0000683
 2,-0.00023268,0.00004333,-0.00042681,0.00019793,0.00078915,0.00030011,
 0.00025982,0.00041759,0.13688790,0.03800524,0.16125862,0.00001679,0.00
 006631,-0.00020713,0.00042162,-0.00009658,0.00031823,-0.00012682,-0.00
 005524,-0.00001220,0.00031900,0.00020049,-0.00054100,-0.00131020,-0.00
 136776,-0.00227070,-0.10484758,0.00316809,0.12335665,0.00394029,-0.001
 50447,-0.01235042,0.00146862,0.00703719,0.01956744,-0.00033320,-0.0014
 8992,0.00503769,-0.00006376,0.00000680,0.00007662,-0.00004071,0.000120
 20,-0.00014176,0.00002936,0.00010035,-0.00000287,-0.00002149,0.0001715
 1,-0.00003883,-0.00010012,-0.00029325,-0.00052094,0.10119692,0.0002899
 5,0.00004047,0.00018583,0.00010093,0.00053461,-0.00057449,0.00044378,-
 0.00014723,0.00055189,-0.00133081,0.00245900,0.00012296,0.00795498,0.0
 0630466,-0.01311555,0.01173678,-0.04956085,-0.02995669,-0.01612093,-0.
 00305815,0.02445082,0.00209736,-0.00584907,0.00683984,0.00153961,-0.00
 231530,-0.00275965,0.00000990,0.00004967,0.00005642,0.00009306,-0.0000
 9650,0.00002195,0.00011883,-0.00005322,-0.00002022,0.00005231,-0.00049
 905,0.00018172,0.00032985,-0.00061795,-0.00096191,-0.00777587,0.051167
 41,0.00021271,0.00005518,0.00016146,-0.00010676,0.00004719,-0.00054224
 ,0.00025032,-0.00042201,0.00031490,0.00010319,0.00015880,-0.00022065,0
 .00282500,0.00448035,-0.00281364,0.12271218,-0.02600334,-0.27112246,0.
 00959671,0.00502207,-0.01436123,-0.00428513,0.00331782,0.00321218,0.00
 002959,-0.00172198,-0.00024835,-0.00002927,-0.00001031,0.00000432,0.00
 013045,-0.00004712,0.00003480,0.00007073,0.00004266,0.00014183,0.00010
 797,-0.00037252,0.00011223,0.00012871,-0.00033414,-0.00063985,-0.13234
 973,0.01519501,0.28525057,-0.00165745,0.00100542,-0.00016482,0.0007371
 1,-0.00089173,-0.00014134,-0.00007710,-0.00017482,0.00004307,0.0005036
 8,0.00008259,-0.00036453,-0.00067985,0.00118075,0.00002729,-0.00676449
 ,0.00192542,-0.00950918,-0.02068143,-0.01356851,-0.00537318,-0.1581176
 6,-0.11968722,-0.07871848,0.00796581,0.00391813,0.00384454,0.00012557,
 -0.00009898,0.00010867,-0.00012711,-0.00004832,-0.00006118,0.00004075,
 0.00007387,-0.00001149,-0.00006530,0.00012715,-0.00007440,0.00050590,-
 0.00026294,-0.00010618,0.00076800,-0.00047324,0.00017041,0.17742833,0.
 00081936,0.00068754,0.00077031,-0.00194604,0.00034855,-0.00083411,0.00
 028343,-0.00000613,0.00016075,-0.00065870,0.00035275,-0.00017299,-0.00
 275453,-0.00286781,-0.00355098,0.00055863,-0.00714574,-0.00930529,0.01
 551627,0.01377674,0.01009713,-0.12791971,-0.17007993,-0.09317171,-0.01
 033067,-0.00352455,-0.00007380,-0.00000855,0.00049440,0.00028417,0.000
 26683,0.00014429,0.00015886,0.00002801,-0.00013827,0.00000508,0.000094
 18,-0.00012573,0.00018134,-0.00066380,-0.00174534,0.00024376,0.0005160
 2,0.00100458,0.00018810,0.12636150,0.16939288,0.00016807,0.00070897,0.
 00029408,-0.00166167,0.00010481,-0.00069199,0.00007752,0.00006997,0.00
 000216,-0.00043300,-0.00036178,0.00044600,0.00274911,-0.00125930,-0.00
 008058,0.00712656,0.00949625,0.01243176,-0.00968186,-0.00532689,-0.005
 27297,-0.07770731,-0.09558211,-0.10584900,-0.00918096,-0.00339041,-0.0
 0178015,0.00004155,0.00033458,0.00017728,0.00021112,-0.00008398,0.0000
 9794,-0.00003196,-0.00007257,0.00008481,0.00011167,-0.00016663,0.00010
 697,-0.00033209,0.00105331,0.00108793,-0.00103488,0.00001339,0.0001110
 1,0.08985990,0.09522756,0.09970079,-0.00151107,0.00098677,-0.00015187,
 0.00189788,0.00710566,-0.02434877,-0.00318552,0.00156812,-0.00067910,-
 0.00323278,0.00051362,0.00112909,0.00448733,-0.00442905,0.02103902,-0.
 00108310,-0.00063971,0.00314014,0.00130377,0.00020061,-0.00045102,-0.0
 0193165,0.00221608,0.00315698,-0.04674525,-0.00326564,-0.00122002,-0.0
 0068757,-0.00018886,-0.00013041,0.00111907,-0.00068252,0.00019927,0.00
 069904,0.00089355,-0.00039258,0.00057459,-0.00098660,0.00024170,0.0010
 9472,0.00022756,-0.00112614,-0.00131672,0.00093353,0.00043293,0.000095
 24,-0.00016222,-0.00028178,0.04842202,0.00065508,-0.00045307,0.0002398
 0,-0.00039528,-0.00458572,0.01549767,0.00202164,-0.00227857,0.00106480
 ,-0.00158727,-0.00104370,0.00121582,0.00436107,-0.00345164,0.01191134,
 0.00083142,-0.00184328,-0.00348592,-0.00330114,0.00226030,0.00362873,0
 .00117553,0.00804041,-0.02574848,-0.00141519,-0.06677522,0.07059737,0.
 00005149,0.00015796,0.00030561,-0.00026689,0.00080402,-0.00012200,-0.0
 0026985,-0.00070817,0.00057150,0.00030190,-0.00067771,0.00025436,0.000
 40133,0.00081318,-0.00071370,0.00119613,0.00063691,0.00040424,0.000530
 93,-0.00056823,-0.00076517,-0.00429091,0.06967254,-0.00075388,0.000228
 60,0.00019957,0.00290013,-0.00019932,-0.00364028,-0.00067550,0.0002612
 8,0.00033218,0.00009269,-0.00036902,0.00015980,-0.00236920,-0.00049645
 ,-0.00239272,-0.00037542,-0.00174125,-0.00389313,-0.00037099,-0.000245
 66,0.00409988,0.00194522,0.00411342,-0.01735200,-0.00138097,0.07346027
 ,-0.29823727,-0.00015077,-0.00001427,-0.00008069,-0.00028377,0.0000403
 6,0.00157130,0.00004012,0.00002061,-0.00013235,-0.00004039,0.00001548,
 0.00000262,0.00039543,0.00022139,0.00033106,0.00111381,-0.00023131,0.0
 0060512,0.00047090,-0.00020817,-0.00086602,-0.00055742,-0.07485595,0.3
 1929294\\0.00000470,0.00000296,-0.00000002,-0.00000263,-0.00001635,0.0
 0000080,0.00000424,-0.00000177,-0.00000075,-0.00000916,0.00000442,-0.0
 0001060,0.00001511,-0.00003457,0.00001258,-0.00002435,0.00004044,-0.00
 000885,-0.00001769,-0.00000984,0.00001056,0.00002282,-0.00001283,-0.00
 001504,-0.00001650,0.00003178,0.00000608,0.00000311,-0.00000179,0.0000
 0316,0.00000226,0.00000051,0.00000303,-0.00000014,-0.00000207,0.000001
 75,0.00000079,0.00000220,0.00000496,-0.00000015,0.00001121,-0.00000534
 ,0.00000670,-0.00000762,0.00000137,0.00000103,0.00000213,-0.00000350,0
 .00000985,-0.00000880,-0.00000017\\\@


 MEMORIES ARE LIKE AN ENGLISH GRAMMER LESSON -
 PRESENT TENSE, AND PAST PERFECT.
 Job cpu time:       0 days  1 hours 50 minutes 26.3 seconds.
 Elapsed time:       0 days  0 hours 27 minutes 37.5 seconds.
 File lengths (MBytes):  RWF=    117 Int=      0 D2E=      0 Chk=      8 Scr=      1
 Normal termination of Gaussian 16 at Thu Feb 18 11:08:45 2021.
### All Done ###
