Currently Loaded Modulefiles:
  1) miniconda3/miniconda3-4.3.30   2) gaussian/gaussian-16-A.03
### Starting Gaussian ###
 Entering Gaussian System, Link 0=g16
 Initial command:
 /cluster/software/gaussian/gaussian-16-A.03/avx2/g16/l1.exe "/local/scratch/ks29c/Gau-23647.inp" -scrdir="/local/scratch/ks29c/"
 Entering Link 1 = /cluster/software/gaussian/gaussian-16-A.03/avx2/g16/l1.exe PID=     23648.
  
 Copyright (c) 1988,1990,1992,1993,1995,1998,2003,2009,2016,
            Gaussian, Inc.  All Rights Reserved.
  
 This is part of the Gaussian(R) 16 program.  It is based on
 the Gaussian(R) 09 system (copyright 2009, Gaussian, Inc.),
 the Gaussian(R) 03 system (copyright 2003, Gaussian, Inc.),
 the Gaussian(R) 98 system (copyright 1998, Gaussian, Inc.),
 the Gaussian(R) 94 system (copyright 1995, Gaussian, Inc.),
 the Gaussian 92(TM) system (copyright 1992, Gaussian, Inc.),
 the Gaussian 90(TM) system (copyright 1990, Gaussian, Inc.),
 the Gaussian 88(TM) system (copyright 1988, Gaussian, Inc.),
 the Gaussian 86(TM) system (copyright 1986, Carnegie Mellon
 University), and the Gaussian 82(TM) system (copyright 1983,
 Carnegie Mellon University). Gaussian is a federally registered
 trademark of Gaussian, Inc.
  
 This software contains proprietary and confidential information,
 including trade secrets, belonging to Gaussian, Inc.
  
 This software is provided under written license and may be
 used, copied, transmitted, or stored only in accord with that
 written license.
  
 The following legend is applicable only to US Government
 contracts under FAR:
  
                    RESTRICTED RIGHTS LEGEND
  
 Use, reproduction and disclosure by the US Government is
 subject to restrictions as set forth in subparagraphs (a)
 and (c) of the Commercial Computer Software - Restricted
 Rights clause in FAR 52.227-19.
  
 Gaussian, Inc.
 340 Quinnipiac St., Bldg. 40, Wallingford CT 06492
  
  
 ---------------------------------------------------------------
 Warning -- This program may not be used in any manner that
 competes with the business of Gaussian, Inc. or will provide
 assistance to any competitor of Gaussian, Inc.  The licensee
 of this program is prohibited from giving any competitor of
 Gaussian, Inc. access to this program.  By using this program,
 the user acknowledges that Gaussian, Inc. is engaged in the
 business of creating and licensing software in the field of
 computational chemistry and represents and warrants to the
 licensee that it is not a competitor of Gaussian, Inc. and that
 it will not use this program in any manner prohibited above.
 ---------------------------------------------------------------
  

 Cite this work as:
 Gaussian 16, Revision A.03,
 M. J. Frisch, G. W. Trucks, H. B. Schlegel, G. E. Scuseria, 
 M. A. Robb, J. R. Cheeseman, G. Scalmani, V. Barone, 
 G. A. Petersson, H. Nakatsuji, X. Li, M. Caricato, A. V. Marenich, 
 J. Bloino, B. G. Janesko, R. Gomperts, B. Mennucci, H. P. Hratchian, 
 J. V. Ortiz, A. F. Izmaylov, J. L. Sonnenberg, D. Williams-Young, 
 F. Ding, F. Lipparini, F. Egidi, J. Goings, B. Peng, A. Petrone, 
 T. Henderson, D. Ranasinghe, V. G. Zakrzewski, J. Gao, N. Rega, 
 G. Zheng, W. Liang, M. Hada, M. Ehara, K. Toyota, R. Fukuda, 
 J. Hasegawa, M. Ishida, T. Nakajima, Y. Honda, O. Kitao, H. Nakai, 
 T. Vreven, K. Throssell, J. A. Montgomery, Jr., J. E. Peralta, 
 F. Ogliaro, M. J. Bearpark, J. J. Heyd, E. N. Brothers, K. N. Kudin, 
 V. N. Staroverov, T. A. Keith, R. Kobayashi, J. Normand, 
 K. Raghavachari, A. P. Rendell, J. C. Burant, S. S. Iyengar, 
 J. Tomasi, M. Cossi, J. M. Millam, M. Klene, C. Adamo, R. Cammi, 
 J. W. Ochterski, R. L. Martin, K. Morokuma, O. Farkas, 
 J. B. Foresman, and D. J. Fox, Gaussian, Inc., Wallingford CT, 2016.
 
 ******************************************
 Gaussian 16:  ES64L-G16RevA.03 25-Dec-2016
                17-Feb-2021 
 ******************************************
 %chk=OCC1CCCOCC1.chk
 -----------------------------------------------
 # opt freq b3lyp/6-31g(2df,p) geom=connectivity
 -----------------------------------------------
 1/18=20,19=15,26=3,38=1,57=2/1,3;
 2/9=110,12=2,17=6,18=5,40=1/2;
 3/5=1,6=6,7=104,11=2,25=1,30=1,71=1,74=-5/1,2,3;
 4//1;
 5/5=2,38=5/2;
 6/7=2,8=2,9=2,10=2,28=1/1;
 7//1,2,3,16;
 1/18=20,19=15,26=3/3(2);
 2/9=110/2;
 99//99;
 2/9=110/2;
 3/5=1,6=6,7=104,11=2,25=1,30=1,71=1,74=-5/1,2,3;
 4/5=5,16=3,69=1/1;
 5/5=2,38=5/2;
 7//1,2,3,16;
 1/18=20,19=15,26=3/3(-5);
 2/9=110/2;
 6/7=2,8=2,9=2,10=2,19=2,28=1/1;
 99/9=1/99;
 -------------------
 Title Card Required
 -------------------
 Symbolic Z-matrix:
 Charge =  0 Multiplicity = 1
 C                    -4.73684   0.41179  -0.0001 
 H                    -4.38017   0.91619   0.87355 
 H                    -4.38017   0.91619  -0.87375 
 C                    -4.22352  -1.04014  -0.0001 
 H                    -4.5802   -1.54454   0.87355 
 C                    -4.73687  -1.7661   -1.25751 
 H                    -4.38021  -2.77491  -1.25751 
 H                    -4.3802   -1.2617   -2.13116 
 C                    -6.27687  -1.76608  -1.2575 
 H                    -6.63354  -2.58874  -1.84138 
 H                    -6.63353  -1.8604   -0.25312 
 C                    -6.79019  -0.4463   -1.86272 
 H                    -7.56333  -0.6561   -2.57203 
 H                    -5.98409   0.05871  -2.3527 
 O                    -7.22988   0.4256   -0.76863 
 C                    -6.1442    0.97431  -0.05429 
 H                    -5.78753   1.47871   0.81936 
 H                    -5.78753   1.47871  -0.92794 
 C                    -2.68352  -1.04016  -0.0001 
 H                    -2.32687  -2.04897   0.00044 
 H                    -2.32685  -0.53624  -0.87403 
 O                    -2.20685  -0.36543   1.16712 
 H                    -1.28193  -0.58132   1.3068 
 

 GradGradGradGradGradGradGradGradGradGradGradGradGradGradGradGradGradGrad
 Berny optimization.
 Initialization pass.
                           ----------------------------
                           !    Initial Parameters    !
                           ! (Angstroms and Degrees)  !
 --------------------------                            --------------------------
 ! Name  Definition              Value          Derivative Info.                !
 --------------------------------------------------------------------------------
 ! R1    R(1,2)                  1.07           estimate D2E/DX2                !
 ! R2    R(1,3)                  1.07           estimate D2E/DX2                !
 ! R3    R(1,4)                  1.54           estimate D2E/DX2                !
 ! R4    R(1,16)                 1.5166         estimate D2E/DX2                !
 ! R5    R(4,5)                  1.07           estimate D2E/DX2                !
 ! R6    R(4,6)                  1.54           estimate D2E/DX2                !
 ! R7    R(4,19)                 1.54           estimate D2E/DX2                !
 ! R8    R(6,7)                  1.07           estimate D2E/DX2                !
 ! R9    R(6,8)                  1.07           estimate D2E/DX2                !
 ! R10   R(6,9)                  1.54           estimate D2E/DX2                !
 ! R11   R(9,10)                 1.07           estimate D2E/DX2                !
 ! R12   R(9,11)                 1.07           estimate D2E/DX2                !
 ! R13   R(9,12)                 1.54           estimate D2E/DX2                !
 ! R14   R(12,13)                1.07           estimate D2E/DX2                !
 ! R15   R(12,14)                1.07           estimate D2E/DX2                !
 ! R16   R(12,15)                1.4665         estimate D2E/DX2                !
 ! R17   R(15,16)                1.4107         estimate D2E/DX2                !
 ! R18   R(16,17)                1.07           estimate D2E/DX2                !
 ! R19   R(16,18)                1.07           estimate D2E/DX2                !
 ! R20   R(19,20)                1.07           estimate D2E/DX2                !
 ! R21   R(19,21)                1.07           estimate D2E/DX2                !
 ! R22   R(19,22)                1.43           estimate D2E/DX2                !
 ! R23   R(22,23)                0.96           estimate D2E/DX2                !
 ! A1    A(2,1,3)              109.4713         estimate D2E/DX2                !
 ! A2    A(2,1,4)              109.4712         estimate D2E/DX2                !
 ! A3    A(2,1,16)              99.4192         estimate D2E/DX2                !
 ! A4    A(3,1,4)              109.4712         estimate D2E/DX2                !
 ! A5    A(3,1,16)              96.0451         estimate D2E/DX2                !
 ! A6    A(4,1,16)             131.2249         estimate D2E/DX2                !
 ! A7    A(1,4,5)              109.4712         estimate D2E/DX2                !
 ! A8    A(1,4,6)              109.4712         estimate D2E/DX2                !
 ! A9    A(1,4,19)             109.4712         estimate D2E/DX2                !
 ! A10   A(5,4,6)              109.4712         estimate D2E/DX2                !
 ! A11   A(5,4,19)             109.4712         estimate D2E/DX2                !
 ! A12   A(6,4,19)             109.4713         estimate D2E/DX2                !
 ! A13   A(4,6,7)              109.4712         estimate D2E/DX2                !
 ! A14   A(4,6,8)              109.4712         estimate D2E/DX2                !
 ! A15   A(4,6,9)              109.4712         estimate D2E/DX2                !
 ! A16   A(7,6,8)              109.4712         estimate D2E/DX2                !
 ! A17   A(7,6,9)              109.4713         estimate D2E/DX2                !
 ! A18   A(8,6,9)              109.4712         estimate D2E/DX2                !
 ! A19   A(6,9,10)             109.4712         estimate D2E/DX2                !
 ! A20   A(6,9,11)             109.4712         estimate D2E/DX2                !
 ! A21   A(6,9,12)             109.4712         estimate D2E/DX2                !
 ! A22   A(10,9,11)            109.4712         estimate D2E/DX2                !
 ! A23   A(10,9,12)            109.4713         estimate D2E/DX2                !
 ! A24   A(11,9,12)            109.4712         estimate D2E/DX2                !
 ! A25   A(9,12,13)            109.4712         estimate D2E/DX2                !
 ! A26   A(9,12,14)            109.4712         estimate D2E/DX2                !
 ! A27   A(9,12,15)            108.4377         estimate D2E/DX2                !
 ! A28   A(13,12,14)           109.4712         estimate D2E/DX2                !
 ! A29   A(13,12,15)           113.2348         estimate D2E/DX2                !
 ! A30   A(14,12,15)           106.6727         estimate D2E/DX2                !
 ! A31   A(12,15,16)           112.2279         estimate D2E/DX2                !
 ! A32   A(1,16,15)            126.0153         estimate D2E/DX2                !
 ! A33   A(1,16,17)             80.5808         estimate D2E/DX2                !
 ! A34   A(1,16,18)             83.9549         estimate D2E/DX2                !
 ! A35   A(15,16,17)           148.5779         estimate D2E/DX2                !
 ! A36   A(15,16,18)            91.5153         estimate D2E/DX2                !
 ! A37   A(17,16,18)           109.4713         estimate D2E/DX2                !
 ! A38   A(4,19,20)            109.4712         estimate D2E/DX2                !
 ! A39   A(4,19,21)            109.4712         estimate D2E/DX2                !
 ! A40   A(4,19,22)            109.4712         estimate D2E/DX2                !
 ! A41   A(20,19,21)           109.4712         estimate D2E/DX2                !
 ! A42   A(20,19,22)           109.4713         estimate D2E/DX2                !
 ! A43   A(21,19,22)           109.4712         estimate D2E/DX2                !
 ! A44   A(19,22,23)           109.5            estimate D2E/DX2                !
 ! D1    D(2,1,4,5)             60.0            estimate D2E/DX2                !
 ! D2    D(2,1,4,6)            179.9999         estimate D2E/DX2                !
 ! D3    D(2,1,4,19)           -60.0            estimate D2E/DX2                !
 ! D4    D(3,1,4,5)            180.0            estimate D2E/DX2                !
 ! D5    D(3,1,4,6)            -60.0            estimate D2E/DX2                !
 ! D6    D(3,1,4,19)            60.0            estimate D2E/DX2                !
 ! D7    D(16,1,4,5)           -62.7229         estimate D2E/DX2                !
 ! D8    D(16,1,4,6)            57.2771         estimate D2E/DX2                !
 ! D9    D(16,1,4,19)          177.2771         estimate D2E/DX2                !
 ! D10   D(2,1,16,15)         -161.5907         estimate D2E/DX2                !
 ! D11   D(2,1,16,17)            0.0            estimate D2E/DX2                !
 ! D12   D(2,1,16,18)          110.9374         estimate D2E/DX2                !
 ! D13   D(3,1,16,15)           87.4719         estimate D2E/DX2                !
 ! D14   D(3,1,16,17)         -110.9374         estimate D2E/DX2                !
 ! D15   D(3,1,16,18)            0.0            estimate D2E/DX2                !
 ! D16   D(4,1,16,15)          -35.1066         estimate D2E/DX2                !
 ! D17   D(4,1,16,17)          126.4841         estimate D2E/DX2                !
 ! D18   D(4,1,16,18)         -122.5785         estimate D2E/DX2                !
 ! D19   D(1,4,6,7)            179.9999         estimate D2E/DX2                !
 ! D20   D(1,4,6,8)             60.0            estimate D2E/DX2                !
 ! D21   D(1,4,6,9)            -60.0            estimate D2E/DX2                !
 ! D22   D(5,4,6,7)            -60.0001         estimate D2E/DX2                !
 ! D23   D(5,4,6,8)            180.0            estimate D2E/DX2                !
 ! D24   D(5,4,6,9)             60.0            estimate D2E/DX2                !
 ! D25   D(19,4,6,7)            60.0            estimate D2E/DX2                !
 ! D26   D(19,4,6,8)           -60.0            estimate D2E/DX2                !
 ! D27   D(19,4,6,9)           180.0            estimate D2E/DX2                !
 ! D28   D(1,4,19,20)          179.969          estimate D2E/DX2                !
 ! D29   D(1,4,19,21)          -60.031          estimate D2E/DX2                !
 ! D30   D(1,4,19,22)           59.969          estimate D2E/DX2                !
 ! D31   D(5,4,19,20)           59.969          estimate D2E/DX2                !
 ! D32   D(5,4,19,21)          179.969          estimate D2E/DX2                !
 ! D33   D(5,4,19,22)          -60.031          estimate D2E/DX2                !
 ! D34   D(6,4,19,20)          -60.031          estimate D2E/DX2                !
 ! D35   D(6,4,19,21)           59.969          estimate D2E/DX2                !
 ! D36   D(6,4,19,22)          179.9689         estimate D2E/DX2                !
 ! D37   D(4,6,9,10)          -155.3649         estimate D2E/DX2                !
 ! D38   D(4,6,9,11)           -35.3649         estimate D2E/DX2                !
 ! D39   D(4,6,9,12)            84.635          estimate D2E/DX2                !
 ! D40   D(7,6,9,10)           -35.365          estimate D2E/DX2                !
 ! D41   D(7,6,9,11)            84.635          estimate D2E/DX2                !
 ! D42   D(7,6,9,12)          -155.365          estimate D2E/DX2                !
 ! D43   D(8,6,9,10)            84.6351         estimate D2E/DX2                !
 ! D44   D(8,6,9,11)          -155.3649         estimate D2E/DX2                !
 ! D45   D(8,6,9,12)           -35.365          estimate D2E/DX2                !
 ! D46   D(6,9,12,13)          133.4629         estimate D2E/DX2                !
 ! D47   D(6,9,12,14)           13.4629         estimate D2E/DX2                !
 ! D48   D(6,9,12,15)         -102.5544         estimate D2E/DX2                !
 ! D49   D(10,9,12,13)          13.4629         estimate D2E/DX2                !
 ! D50   D(10,9,12,14)        -106.537          estimate D2E/DX2                !
 ! D51   D(10,9,12,15)         137.4456         estimate D2E/DX2                !
 ! D52   D(11,9,12,13)        -106.5371         estimate D2E/DX2                !
 ! D53   D(11,9,12,14)         133.4629         estimate D2E/DX2                !
 ! D54   D(11,9,12,15)          17.4456         estimate D2E/DX2                !
 ! D55   D(9,12,15,16)          74.015          estimate D2E/DX2                !
 ! D56   D(13,12,15,16)       -164.2823         estimate D2E/DX2                !
 ! D57   D(14,12,15,16)        -43.8012         estimate D2E/DX2                !
 ! D58   D(12,15,16,1)         -21.9355         estimate D2E/DX2                !
 ! D59   D(12,15,16,17)       -165.2383         estimate D2E/DX2                !
 ! D60   D(12,15,16,18)         61.6908         estimate D2E/DX2                !
 ! D61   D(4,19,22,23)         163.5143         estimate D2E/DX2                !
 ! D62   D(20,19,22,23)         43.5143         estimate D2E/DX2                !
 ! D63   D(21,19,22,23)        -76.4857         estimate D2E/DX2                !
 --------------------------------------------------------------------------------
 Trust Radius=3.00D-01 FncErr=1.00D-07 GrdErr=1.00D-06 EigMax=2.50D+02 EigMin=1.00D-04
 Number of steps in this run=    138 maximum allowed number of steps=    138.
 GradGradGradGradGradGradGradGradGradGradGradGradGradGradGradGradGradGrad

                          Input orientation:                          
 ---------------------------------------------------------------------
 Center     Atomic      Atomic             Coordinates (Angstroms)
 Number     Number       Type             X           Y           Z
 ---------------------------------------------------------------------
      1          6           0       -4.736839    0.411788   -0.000102
      2          1           0       -4.380167    0.916186    0.873550
      3          1           0       -4.380167    0.916186   -0.873753
      4          6           0       -4.223524   -1.040144   -0.000102
      5          1           0       -4.580196   -1.544542    0.873550
      6          6           0       -4.736867   -1.766101   -1.257506
      7          1           0       -4.380212   -2.774910   -1.257507
      8          1           0       -4.380196   -1.261702   -2.131158
      9          6           0       -6.276867   -1.766082   -1.257504
     10          1           0       -6.633544   -2.588741   -1.841382
     11          1           0       -6.633534   -1.860401   -0.253117
     12          6           0       -6.790185   -0.446302   -1.862719
     13          1           0       -7.563333   -0.656104   -2.572033
     14          1           0       -5.984094    0.058711   -2.352696
     15          8           0       -7.229884    0.425600   -0.768631
     16          6           0       -6.144200    0.974308   -0.054289
     17          1           0       -5.787527    1.478706    0.819363
     18          1           0       -5.787527    1.478706   -0.927940
     19          6           0       -2.683524   -1.040162   -0.000103
     20          1           0       -2.326869   -2.048972    0.000444
     21          1           0       -2.326851   -0.536237   -0.874027
     22          8           0       -2.206849   -0.365427    1.167122
     23          1           0       -1.281925   -0.581315    1.306795
 ---------------------------------------------------------------------
                    Distance matrix (angstroms):
                    1          2          3          4          5
     1  C    0.000000
     2  H    1.070000   0.000000
     3  H    1.070000   1.747303   0.000000
     4  C    1.540000   2.148263   2.148263   0.000000
     5  H    2.148263   2.468845   3.024610   1.070000   0.000000
     6  C    2.514809   3.444314   2.732977   1.540000   2.148263
     7  H    3.444314   4.262112   3.710992   2.148263   2.468846
     8  H    2.732977   3.710992   2.514809   2.148263   3.024610
     9  C    2.948875   3.915792   3.307462   2.514809   2.732977
    10  H    3.998872   4.973237   4.277678   3.405388   3.560540
    11  H    2.970574   3.749197   3.629365   2.558317   2.363332
    12  C    2.902049   3.892523   2.939833   3.226413   3.684746
    13  H    3.967907   4.947392   3.935581   4.232805   4.643325
    14  H    2.686076   3.703580   2.344166   3.137162   3.866525
    15  O    2.608850   3.325405   2.893547   3.431799   3.687691
    16  C    1.516585   1.994010   1.945948   2.783873   3.106703
    17  H    1.706980   1.516585   2.272385   3.076075   3.255859
    18  H    1.761574   2.354243   1.516585   3.106702   3.720625
    19  C    2.514809   2.732977   2.732977   1.540000   2.148263
    20  H    3.444314   3.710864   3.711120   2.148263   2.468652
    21  H    2.733229   3.062623   2.515082   2.148263   3.024610
    22  O    2.892633   2.540084   3.245152   2.425826   2.666322
    23  H    3.825005   3.468330   4.073868   3.251385   3.463249
                    6          7          8          9         10
     6  C    0.000000
     7  H    1.070000   0.000000
     8  H    1.070000   1.747303   0.000000
     9  C    1.540000   2.148263   2.148263   0.000000
    10  H    2.148263   2.335182   2.631080   1.070000   0.000000
    11  H    2.148263   2.631081   2.993829   1.070000   1.747303
    12  C    2.514809   3.405388   2.558317   1.540000   2.148263
    13  H    3.308924   4.043461   3.270089   2.148263   2.265710
    14  H    2.466770   3.435300   2.089272   2.148263   2.773487
    15  O    3.355247   4.313107   3.581088   2.439407   3.254638
    16  C    3.307288   4.314629   3.524888   2.995841   4.016028
    17  H    3.993249   4.938337   4.265676   3.883488   4.933501
    18  H    3.426554   4.492483   3.307287   3.297987   4.253733
    19  C    2.514810   2.732978   2.732979   3.875582   4.625048
    20  H    2.733229   2.515083   3.062625   4.155110   4.714989
    21  H    2.732727   3.061863   2.514538   4.154780   4.867869
    22  O    3.773818   4.050672   4.050357   4.940212   5.795676
    23  H    4.462732   4.581144   4.677791   5.738357   6.525381
                   11         12         13         14         15
    11  H    0.000000
    12  C    2.148263   0.000000
    13  H    2.773487   1.070000   0.000000
    14  H    2.917704   1.070000   1.747303   0.000000
    15  O    2.418096   1.466484   2.129209   2.048380   0.000000
    16  C    2.883497   2.388692   3.318315   2.479239   1.410700
    17  H    3.607710   3.450296   4.383202   3.480945   2.389801
    18  H    3.510092   2.363216   3.227064   2.021126   1.792988
    19  C    4.042201   4.548261   5.529454   4.199521   4.838232
    20  H    4.318241   5.095205   5.998189   4.832689   5.545677
    21  H    4.548236   4.572412   5.506208   3.989467   4.997596
    22  O    4.883397   5.494857   6.538937   5.180404   5.440932
    23  H    5.719187   6.356491   7.382884   5.992653   6.379615
                   16         17         18         19         20
    16  C    0.000000
    17  H    1.070000   0.000000
    18  H    1.070000   1.747303   0.000000
    19  C    4.004661   4.080571   4.103708   0.000000
    20  H    4.869829   5.009121   5.028177   1.070000   0.000000
    21  H    4.186391   4.347855   4.004895   1.070000   1.747303
    22  O    4.334682   4.042650   4.539975   1.430000   2.051796
    23  H    5.283392   4.978125   5.434904   1.970533   2.225416
                   21         22         23
    21  H    0.000000
    22  O    2.051796   0.000000
    23  H    2.418654   0.960000   0.000000
 Stoichiometry    C7H14O2
 Framework group  C1[X(C7H14O2)]
 Deg. of freedom    63
 Full point group                 C1      NOp   1
 Largest Abelian subgroup         C1      NOp   1
 Largest concise Abelian subgroup C1      NOp   1
                         Standard orientation:                         
 ---------------------------------------------------------------------
 Center     Atomic      Atomic             Coordinates (Angstroms)
 Number     Number       Type             X           Y           Z
 ---------------------------------------------------------------------
      1          6           0        0.271747   -0.999293    0.135547
      2          1           0        0.891525   -1.806996   -0.193682
      3          1           0        0.207182   -1.011665    1.203526
      4          6           0        0.881788    0.337142   -0.326395
      5          1           0        0.946354    0.349514   -1.394374
      6          6           0       -0.010229    1.499629    0.147449
      7          1           0        0.413631    2.428191   -0.173511
      8          1           0       -0.074796    1.487257    1.215427
      9          6           0       -1.419361    1.343488   -0.453857
     10          1           0       -1.894887    2.300829   -0.501533
     11          1           0       -1.343225    0.933591   -1.439296
     12          6           0       -2.253667    0.399435    0.431749
     13          1           0       -3.218640    0.829510    0.601346
     14          1           0       -1.756796    0.257441    1.368689
     15          8           0       -2.311773   -0.914438   -0.217048
     16          6           0       -1.091613   -1.614917   -0.114022
     17          1           0       -0.471835   -2.422619   -0.443252
     18          1           0       -1.156179   -1.627289    0.953956
     19          6           0        2.290920    0.493282    0.274910
     20          1           0        2.714994    1.421596   -0.046487
     21          1           0        2.226293    0.481454    1.342891
     22          8           0        3.119017   -0.586564   -0.164508
     23          1           0        4.040913   -0.365394   -0.013536
 ---------------------------------------------------------------------
 Rotational constants (GHZ):           2.9966009           1.0393668           0.8250121
 Standard basis: 6-31G(2df,p) (6D, 7F)
 There are   349 symmetry adapted cartesian basis functions of A   symmetry.
 There are   322 symmetry adapted basis functions of A   symmetry.
   322 basis functions,   494 primitive gaussians,   349 cartesian basis functions
    36 alpha electrons       36 beta electrons
       nuclear repulsion energy       499.0946837199 Hartrees.
 NAtoms=   23 NActive=   23 NUniq=   23 SFac= 1.00D+00 NAtFMM=   60 NAOKFM=F Big=F
 Integral buffers will be    131072 words long.
 Raffenetti 2 integral format.
 Two-electron integral symmetry is turned on.
 One-electron integrals computed using PRISM.
 NBasis=   322 RedAO= T EigKep=  5.88D-04  NBF=   322
 NBsUse=   322 1.00D-06 EigRej= -1.00D+00 NBFU=   322
 ExpMin= 1.61D-01 ExpMax= 5.48D+03 ExpMxC= 8.25D+02 IAcc=3 IRadAn=         5 AccDes= 0.00D+00
 Harris functional with IExCor=  402 and IRadAn=       5 diagonalized for initial guess.
 HarFok:  IExCor=  402 AccDes= 0.00D+00 IRadAn=         5 IDoV= 1 UseB2=F ITyADJ=14
 ICtDFT=  3500011 ScaDFX=  1.000000  1.000000  1.000000  1.000000
 FoFCou: FMM=F IPFlag=           0 FMFlag=      100000 FMFlg1=           0
         NFxFlg=           0 DoJE=T BraDBF=F KetDBF=T FulRan=T
         wScrn=  0.000000 ICntrl=       500 IOpCl=  0 I1Cent=   200000004 NGrid=           0
         NMat0=    1 NMatS0=      1 NMatT0=    0 NMatD0=    1 NMtDS0=    0 NMtDT0=    0
 Petite list used in FoFCou.
 Requested convergence on RMS density matrix=1.00D-08 within 128 cycles.
 Requested convergence on MAX density matrix=1.00D-06.
 Requested convergence on             energy=1.00D-06.
 No special actions if energy rises.
 Integral accuracy reduced to 1.0D-05 until final iterations.
 Initial convergence to 1.0D-05 achieved.  Increase integral accuracy.
 SCF Done:  E(RB3LYP) =  -425.482185294     A.U. after   12 cycles
            NFock= 12  Conv=0.69D-08     -V/T= 2.0057

 **********************************************************************

            Population analysis using the SCF density.

 **********************************************************************

 Orbital symmetries:
       Occupied  (A) (A) (A) (A) (A) (A) (A) (A) (A) (A) (A) (A)
                 (A) (A) (A) (A) (A) (A) (A) (A) (A) (A) (A) (A)
                 (A) (A) (A) (A) (A) (A) (A) (A) (A) (A) (A) (A)
       Virtual   (A) (A) (A) (A) (A) (A) (A) (A) (A) (A) (A) (A)
                 (A) (A) (A) (A) (A) (A) (A) (A) (A) (A) (A) (A)
                 (A) (A) (A) (A) (A) (A) (A) (A) (A) (A) (A) (A)
                 (A) (A) (A) (A) (A) (A) (A) (A) (A) (A) (A) (A)
                 (A) (A) (A) (A) (A) (A) (A) (A) (A) (A) (A) (A)
                 (A) (A) (A) (A) (A) (A) (A) (A) (A) (A) (A) (A)
                 (A) (A) (A) (A) (A) (A) (A) (A) (A) (A) (A) (A)
                 (A) (A) (A) (A) (A) (A) (A) (A) (A) (A) (A) (A)
                 (A) (A) (A) (A) (A) (A) (A) (A) (A) (A) (A) (A)
                 (A) (A) (A) (A) (A) (A) (A) (A) (A) (A) (A) (A)
                 (A) (A) (A) (A) (A) (A) (A) (A) (A) (A) (A) (A)
                 (A) (A) (A) (A) (A) (A) (A) (A) (A) (A) (A) (A)
                 (A) (A) (A) (A) (A) (A) (A) (A) (A) (A) (A) (A)
                 (A) (A) (A) (A) (A) (A) (A) (A) (A) (A) (A) (A)
                 (A) (A) (A) (A) (A) (A) (A) (A) (A) (A) (A) (A)
                 (A) (A) (A) (A) (A) (A) (A) (A) (A) (A) (A) (A)
                 (A) (A) (A) (A) (A) (A) (A) (A) (A) (A) (A) (A)
                 (A) (A) (A) (A) (A) (A) (A) (A) (A) (A) (A) (A)
                 (A) (A) (A) (A) (A) (A) (A) (A) (A) (A) (A) (A)
                 (A) (A) (A) (A) (A) (A) (A) (A) (A) (A) (A) (A)
                 (A) (A) (A) (A) (A) (A) (A) (A) (A) (A) (A) (A)
                 (A) (A) (A) (A) (A) (A) (A) (A) (A) (A) (A) (A)
                 (A) (A) (A) (A) (A) (A) (A) (A) (A) (A) (A) (A)
                 (A) (A) (A) (A) (A) (A) (A) (A) (A) (A)
 The electronic state is 1-A.
 Alpha  occ. eigenvalues --  -19.12951 -19.12751 -10.22366 -10.21885 -10.19962
 Alpha  occ. eigenvalues --  -10.18034 -10.17366 -10.17167 -10.16500  -1.01182
 Alpha  occ. eigenvalues --   -1.00875  -0.81992  -0.78637  -0.72842  -0.67357
 Alpha  occ. eigenvalues --   -0.62393  -0.59227  -0.53765  -0.52245  -0.50728
 Alpha  occ. eigenvalues --   -0.47721  -0.46958  -0.44490  -0.42611  -0.41287
 Alpha  occ. eigenvalues --   -0.39428  -0.38569  -0.36131  -0.35214  -0.33917
 Alpha  occ. eigenvalues --   -0.32982  -0.31629  -0.29704  -0.26779  -0.26464
 Alpha  occ. eigenvalues --   -0.21303
 Alpha virt. eigenvalues --    0.06111   0.07598   0.08312   0.11190   0.11465
 Alpha virt. eigenvalues --    0.12309   0.13609   0.15237   0.16492   0.17323
 Alpha virt. eigenvalues --    0.18239   0.19229   0.21004   0.21737   0.22927
 Alpha virt. eigenvalues --    0.23699   0.24509   0.24944   0.26544   0.28051
 Alpha virt. eigenvalues --    0.30084   0.31013   0.33427   0.44357   0.45422
 Alpha virt. eigenvalues --    0.46421   0.47148   0.47874   0.50253   0.50954
 Alpha virt. eigenvalues --    0.52199   0.54132   0.55778   0.57954   0.58612
 Alpha virt. eigenvalues --    0.59830   0.60802   0.63268   0.64021   0.65237
 Alpha virt. eigenvalues --    0.66776   0.69685   0.71507   0.72421   0.72646
 Alpha virt. eigenvalues --    0.74400   0.75121   0.75468   0.76861   0.77182
 Alpha virt. eigenvalues --    0.78593   0.79479   0.80760   0.82794   0.83735
 Alpha virt. eigenvalues --    0.84344   0.86998   0.88036   0.88723   0.90706
 Alpha virt. eigenvalues --    0.91709   0.92216   0.93191   0.95270   0.96186
 Alpha virt. eigenvalues --    1.00075   1.00611   1.03705   1.05959   1.07725
 Alpha virt. eigenvalues --    1.10843   1.12667   1.13541   1.17002   1.18474
 Alpha virt. eigenvalues --    1.19567   1.23809   1.28487   1.30065   1.31642
 Alpha virt. eigenvalues --    1.34525   1.36288   1.37399   1.38404   1.40221
 Alpha virt. eigenvalues --    1.42784   1.43812   1.43962   1.49107   1.50393
 Alpha virt. eigenvalues --    1.51054   1.52965   1.54322   1.55210   1.57762
 Alpha virt. eigenvalues --    1.58333   1.59695   1.63167   1.65352   1.67421
 Alpha virt. eigenvalues --    1.71483   1.72772   1.74034   1.78603   1.81555
 Alpha virt. eigenvalues --    1.83788   1.85641   1.85788   1.92182   1.93534
 Alpha virt. eigenvalues --    1.96708   1.99059   2.03127   2.05971   2.08074
 Alpha virt. eigenvalues --    2.09882   2.13895   2.15671   2.20093   2.21670
 Alpha virt. eigenvalues --    2.24153   2.26488   2.28160   2.31408   2.34086
 Alpha virt. eigenvalues --    2.37438   2.41246   2.44320   2.47340   2.47806
 Alpha virt. eigenvalues --    2.52949   2.54465   2.55992   2.58690   2.60284
 Alpha virt. eigenvalues --    2.62460   2.63435   2.66513   2.70503   2.72286
 Alpha virt. eigenvalues --    2.74143   2.75543   2.78352   2.80688   2.82615
 Alpha virt. eigenvalues --    2.83420   2.86451   2.87270   2.89944   2.90486
 Alpha virt. eigenvalues --    2.92869   2.95208   2.96564   2.97872   2.98520
 Alpha virt. eigenvalues --    3.01510   3.03682   3.04496   3.06470   3.10320
 Alpha virt. eigenvalues --    3.10972   3.12399   3.17110   3.18196   3.22944
 Alpha virt. eigenvalues --    3.23789   3.25857   3.28134   3.29881   3.32882
 Alpha virt. eigenvalues --    3.34790   3.39048   3.40560   3.43253   3.43988
 Alpha virt. eigenvalues --    3.48517   3.48622   3.49478   3.51962   3.54898
 Alpha virt. eigenvalues --    3.55214   3.57239   3.61150   3.63309   3.66267
 Alpha virt. eigenvalues --    3.66727   3.68077   3.69591   3.72679   3.76918
 Alpha virt. eigenvalues --    3.78626   3.80654   3.82946   3.87437   3.88464
 Alpha virt. eigenvalues --    3.91670   3.96037   4.02685   4.05290   4.07468
 Alpha virt. eigenvalues --    4.13427   4.17297   4.17954   4.21970   4.28869
 Alpha virt. eigenvalues --    4.31507   4.32748   4.35935   4.37613   4.38173
 Alpha virt. eigenvalues --    4.42667   4.43897   4.44775   4.46372   4.48304
 Alpha virt. eigenvalues --    4.50268   4.52742   4.52861   4.54947   4.56560
 Alpha virt. eigenvalues --    4.59464   4.61601   4.62418   4.64667   4.67472
 Alpha virt. eigenvalues --    4.69041   4.70644   4.71744   4.73450   4.74899
 Alpha virt. eigenvalues --    4.76397   4.77987   4.79208   4.80010   4.82395
 Alpha virt. eigenvalues --    4.85546   4.85879   4.88744   4.89401   4.90834
 Alpha virt. eigenvalues --    4.91343   4.93259   4.95012   4.97713   5.00673
 Alpha virt. eigenvalues --    5.04239   5.08193   5.09713   5.15440   5.22291
 Alpha virt. eigenvalues --    5.22723   5.28688   5.32918   5.35304   5.39037
 Alpha virt. eigenvalues --    5.41602   5.43140   5.48060   5.49015   5.50167
 Alpha virt. eigenvalues --    5.51960   5.55777   5.61863   5.72828   5.80460
 Alpha virt. eigenvalues --    5.81116   5.94066   5.94811   5.99158   6.06791
 Alpha virt. eigenvalues --    6.13632   6.17248   6.32947   6.55237   6.60829
 Alpha virt. eigenvalues --    7.08153   7.23470  11.08176  11.23110  11.63879
 Alpha virt. eigenvalues --   12.08907  12.34609  12.60356  12.74777  13.21961
 Alpha virt. eigenvalues --   13.55406
          Condensed to atoms (all electrons):
               1          2          3          4          5          6
     1  C    5.158292   0.358167   0.388231   0.363587  -0.046977  -0.031730
     2  H    0.358167   0.641135  -0.038608  -0.017571  -0.003894   0.005553
     3  H    0.388231  -0.038608   0.697853  -0.041039   0.007588  -0.007751
     4  C    0.363587  -0.017571  -0.041039   4.777918   0.348124   0.386814
     5  H   -0.046977  -0.003894   0.007588   0.348124   0.685667  -0.041924
     6  C   -0.031730   0.005553  -0.007751   0.386814  -0.041924   4.900539
     7  H    0.005890  -0.000230   0.000015  -0.033062  -0.004315   0.360885
     8  H   -0.010526   0.000004   0.005755  -0.028428   0.007002   0.366495
     9  C    0.003865   0.000033  -0.001406  -0.018756  -0.004312   0.388625
    10  H    0.000013   0.000011  -0.000024   0.002335  -0.000007  -0.026444
    11  H   -0.002549  -0.000059   0.000074  -0.005608   0.005219  -0.035601
    12  C    0.001478  -0.000624   0.001568  -0.005000  -0.000263  -0.017361
    13  H   -0.000371   0.000001   0.000031   0.000313   0.000009   0.003167
    14  H   -0.004965   0.000162  -0.001286   0.001227  -0.000025  -0.008741
    15  O   -0.039780   0.002805   0.002884   0.000037  -0.000019   0.002982
    16  C    0.282970  -0.049149  -0.061129  -0.027772  -0.000354  -0.006113
    17  H   -0.076030  -0.031921   0.019351  -0.000829   0.000721   0.000099
    18  H   -0.087434   0.012507  -0.071202   0.013936  -0.000633   0.000840
    19  C   -0.020718  -0.007848  -0.004984   0.387068  -0.032949  -0.037648
    20  H    0.005833   0.000410   0.000023  -0.027924  -0.006175  -0.000952
    21  H   -0.014328   0.000333   0.007721  -0.031691   0.008072  -0.000879
    22  O   -0.004233   0.013700  -0.000512  -0.035354   0.002533   0.001841
    23  H    0.000376  -0.000567  -0.000056   0.006056  -0.000097  -0.000325
               7          8          9         10         11         12
     1  C    0.005890  -0.010526   0.003865   0.000013  -0.002549   0.001478
     2  H   -0.000230   0.000004   0.000033   0.000011  -0.000059  -0.000624
     3  H    0.000015   0.005755  -0.001406  -0.000024   0.000074   0.001568
     4  C   -0.033062  -0.028428  -0.018756   0.002335  -0.005608  -0.005000
     5  H   -0.004315   0.007002  -0.004312  -0.000007   0.005219  -0.000263
     6  C    0.360885   0.366495   0.388625  -0.026444  -0.035601  -0.017361
     7  H    0.658631  -0.040724  -0.029328  -0.007591   0.000984   0.003831
     8  H   -0.040724   0.641939  -0.037504   0.001718   0.005882  -0.014772
     9  C   -0.029328  -0.037504   4.932975   0.347953   0.366229   0.388974
    10  H   -0.007591   0.001718   0.347953   0.655038  -0.032935  -0.028050
    11  H    0.000984   0.005882   0.366229  -0.032935   0.599326  -0.032006
    12  C    0.003831  -0.014772   0.388974  -0.028050  -0.032006   4.758644
    13  H   -0.000403   0.000631  -0.039877  -0.007313   0.002502   0.376166
    14  H    0.000273   0.008586  -0.060568   0.005759   0.006531   0.354251
    15  O   -0.000123   0.000054  -0.054400   0.003030   0.001813   0.369665
    16  C    0.000001  -0.000215   0.002699  -0.000257   0.002522  -0.077939
    17  H    0.000012  -0.000008   0.000048   0.000004  -0.000343   0.003549
    18  H   -0.000009  -0.000271  -0.003546   0.000083   0.000692  -0.007556
    19  C   -0.003396  -0.005668   0.002839  -0.000229   0.000260   0.000169
    20  H    0.004843  -0.000573   0.000022   0.000007   0.000005  -0.000007
    21  H   -0.000561   0.006172  -0.000025   0.000005   0.000010  -0.000012
    22  O    0.000026  -0.000000  -0.000029   0.000000  -0.000001  -0.000000
    23  H   -0.000004   0.000001   0.000002  -0.000000   0.000000   0.000000
              13         14         15         16         17         18
     1  C   -0.000371  -0.004965  -0.039780   0.282970  -0.076030  -0.087434
     2  H    0.000001   0.000162   0.002805  -0.049149  -0.031921   0.012507
     3  H    0.000031  -0.001286   0.002884  -0.061129   0.019351  -0.071202
     4  C    0.000313   0.001227   0.000037  -0.027772  -0.000829   0.013936
     5  H    0.000009  -0.000025  -0.000019  -0.000354   0.000721  -0.000633
     6  C    0.003167  -0.008741   0.002982  -0.006113   0.000099   0.000840
     7  H   -0.000403   0.000273  -0.000123   0.000001   0.000012  -0.000009
     8  H    0.000631   0.008586   0.000054  -0.000215  -0.000008  -0.000271
     9  C   -0.039877  -0.060568  -0.054400   0.002699   0.000048  -0.003546
    10  H   -0.007313   0.005759   0.003030  -0.000257   0.000004   0.000083
    11  H    0.002502   0.006531   0.001813   0.002522  -0.000343   0.000692
    12  C    0.376166   0.354251   0.369665  -0.077939   0.003549  -0.007556
    13  H    0.605982  -0.042615  -0.012520   0.002201  -0.000142  -0.000013
    14  H   -0.042615   0.675697  -0.038831  -0.002117  -0.000240   0.021243
    15  O   -0.012520  -0.038831   7.782212   0.356519  -0.002937  -0.062722
    16  C    0.002201  -0.002117   0.356519   4.868522   0.372259   0.379379
    17  H   -0.000142  -0.000240  -0.002937   0.372259   0.611561  -0.048957
    18  H   -0.000013   0.021243  -0.062722   0.379379  -0.048957   0.766709
    19  C    0.000003  -0.000235  -0.000012   0.002747  -0.000109  -0.000517
    20  H   -0.000000   0.000003   0.000000  -0.000083   0.000008   0.000011
    21  H   -0.000000  -0.000055   0.000002   0.000017   0.000030  -0.000175
    22  O   -0.000000   0.000001  -0.000000   0.000336  -0.000195   0.000008
    23  H    0.000000  -0.000000   0.000000  -0.000004   0.000002   0.000001
              19         20         21         22         23
     1  C   -0.020718   0.005833  -0.014328  -0.004233   0.000376
     2  H   -0.007848   0.000410   0.000333   0.013700  -0.000567
     3  H   -0.004984   0.000023   0.007721  -0.000512  -0.000056
     4  C    0.387068  -0.027924  -0.031691  -0.035354   0.006056
     5  H   -0.032949  -0.006175   0.008072   0.002533  -0.000097
     6  C   -0.037648  -0.000952  -0.000879   0.001841  -0.000325
     7  H   -0.003396   0.004843  -0.000561   0.000026  -0.000004
     8  H   -0.005668  -0.000573   0.006172  -0.000000   0.000001
     9  C    0.002839   0.000022  -0.000025  -0.000029   0.000002
    10  H   -0.000229   0.000007   0.000005   0.000000  -0.000000
    11  H    0.000260   0.000005   0.000010  -0.000001   0.000000
    12  C    0.000169  -0.000007  -0.000012  -0.000000   0.000000
    13  H    0.000003  -0.000000  -0.000000  -0.000000   0.000000
    14  H   -0.000235   0.000003  -0.000055   0.000001  -0.000000
    15  O   -0.000012   0.000000   0.000002  -0.000000   0.000000
    16  C    0.002747  -0.000083   0.000017   0.000336  -0.000004
    17  H   -0.000109   0.000008   0.000030  -0.000195   0.000002
    18  H   -0.000517   0.000011  -0.000175   0.000008   0.000001
    19  C    4.783176   0.360726   0.350843   0.343713  -0.048032
    20  H    0.360726   0.671894  -0.058298  -0.027138  -0.007273
    21  H    0.350843  -0.058298   0.679224  -0.032073  -0.000389
    22  O    0.343713  -0.027138  -0.032073   7.871796   0.303854
    23  H   -0.048032  -0.007273  -0.000389   0.303854   0.461140
 Mulliken charges:
               1
     1  C   -0.229062
     2  H    0.115648
     3  H    0.096902
     4  C   -0.014382
     5  H    0.077009
     6  C   -0.202371
     7  H    0.084356
     8  H    0.094448
     9  C   -0.184515
    10  H    0.086893
    11  H    0.117052
    12  C   -0.074703
    13  H    0.112247
    14  H    0.085945
    15  O   -0.310660
    16  C   -0.045039
    17  H    0.154068
    18  H    0.087626
    19  C   -0.069198
    20  H    0.084638
    21  H    0.086057
    22  O   -0.438274
    23  H    0.285315
 Sum of Mulliken charges =  -0.00000
 Mulliken charges with hydrogens summed into heavy atoms:
               1
     1  C   -0.016511
     4  C    0.062627
     6  C   -0.023567
     9  C    0.019430
    12  C    0.123489
    15  O   -0.310660
    16  C    0.196655
    19  C    0.101496
    22  O   -0.152959
 Electronic spatial extent (au):  <R**2>=           1421.7255
 Charge=             -0.0000 electrons
 Dipole moment (field-independent basis, Debye):
    X=              1.9118    Y=              2.1335    Z=              0.9973  Tot=              3.0334
 Quadrupole moment (field-independent basis, Debye-Ang):
   XX=            -54.1864   YY=            -56.5189   ZZ=            -55.7429
   XY=             -2.0061   XZ=             -0.6519   YZ=             -0.0956
 Traceless Quadrupole moment (field-independent basis, Debye-Ang):
   XX=              1.2963   YY=             -1.0361   ZZ=             -0.2602
   XY=             -2.0061   XZ=             -0.6519   YZ=             -0.0956
 Octapole moment (field-independent basis, Debye-Ang**2):
  XXX=             56.0485  YYY=             -4.9539  ZZZ=             -1.0256  XYY=              3.7872
  XXY=             20.3777  XXZ=              9.4838  XZZ=              1.0177  YZZ=             -1.4174
  YYZ=             -2.5984  XYZ=             -0.4332
 Hexadecapole moment (field-independent basis, Debye-Ang**3):
 XXXX=           -963.9202 YYYY=           -474.7754 ZZZZ=           -128.9300 XXXY=            -24.9590
 XXXZ=             -0.0933 YYYX=            -10.9898 YYYZ=              4.0676 ZZZX=              0.0318
 ZZZY=              0.6108 XXYY=           -290.8669 XXZZ=           -223.5921 YYZZ=           -103.7737
 XXYZ=             -2.6562 YYXZ=             -2.2473 ZZXY=             -0.4982
 N-N= 4.990946837199D+02 E-N=-1.990637155642D+03  KE= 4.230548212550D+02
 Calling FoFJK, ICntrl=      2127 FMM=F ISym2X=0 I1Cent= 0 IOpClX= 0 NMat=1 NMatS=1 NMatT=0.
 ***** Axes restored to original set *****
 -------------------------------------------------------------------
 Center     Atomic                   Forces (Hartrees/Bohr)
 Number     Number              X              Y              Z
 -------------------------------------------------------------------
      1        6           0.044834528   -0.054730958   -0.006491040
      2        1           0.027974296   -0.000994501    0.008577749
      3        1           0.041031149   -0.008606281   -0.004599721
      4        6           0.007572179    0.015014376   -0.020780808
      5        1          -0.003955879   -0.010787981    0.014781932
      6        6          -0.014589041   -0.000129580    0.029382649
      7        1           0.008739135   -0.016113739   -0.002085124
      8        1           0.008258921    0.004292828   -0.015350748
      9        6           0.021337297    0.013712935   -0.021557889
     10        1          -0.007016551   -0.014083547   -0.007670622
     11        1          -0.009593658   -0.002647975    0.012183639
     12        6           0.003311964    0.002148529    0.054454108
     13        1          -0.019967314    0.009494356   -0.002082576
     14        1           0.011386641    0.008833611   -0.015871859
     15        8          -0.049781456   -0.036261160    0.017958098
     16        6           0.032433629    0.005077765   -0.079992646
     17        1          -0.081952867    0.027480095    0.028364499
     18        1          -0.014010846    0.059869679    0.007172801
     19        6          -0.013059168    0.009761816    0.025446097
     20        1           0.005753808   -0.019093468   -0.003058467
     21        1           0.006057151    0.007408910   -0.018766059
     22        8          -0.005335222    0.001116795    0.002265813
     23        1           0.000571304   -0.000762506   -0.002279827
 -------------------------------------------------------------------
 Cartesian Forces:  Max     0.081952867 RMS     0.024550601

 GradGradGradGradGradGradGradGradGradGradGradGradGradGradGradGradGradGrad
 Berny optimization.
 FormGI is forming the generalized inverse of G from B-inverse, IUseBI=4.
 Internal  Forces:  Max     0.128628073 RMS     0.019685818
 Search for a local minimum.
 Step number   1 out of a maximum of  138
 All quantities printed in internal units (Hartrees-Bohrs-Radians)
 Mixed Optimization -- RFO/linear search
 Second derivative matrix not updated -- first step.
 ITU=  0
     Eigenvalues ---    0.00237   0.00457   0.00535   0.00702   0.01157
     Eigenvalues ---    0.01295   0.01913   0.02488   0.03202   0.03402
     Eigenvalues ---    0.04236   0.04391   0.04524   0.04783   0.04980
     Eigenvalues ---    0.05139   0.05235   0.05402   0.05816   0.05872
     Eigenvalues ---    0.07015   0.07459   0.07655   0.07655   0.09083
     Eigenvalues ---    0.10804   0.11059   0.11239   0.11305   0.11992
     Eigenvalues ---    0.13118   0.13657   0.13704   0.14417   0.15842
     Eigenvalues ---    0.16000   0.17104   0.20174   0.21420   0.22071
     Eigenvalues ---    0.27172   0.27853   0.28132   0.28519   0.28519
     Eigenvalues ---    0.30273   0.35325   0.37230   0.37230   0.37230
     Eigenvalues ---    0.37230   0.37230   0.37230   0.37230   0.37230
     Eigenvalues ---    0.37230   0.37230   0.37230   0.37230   0.37230
     Eigenvalues ---    0.40989   0.42966   0.55473
 RFO step:  Lambda=-1.54516747D-01 EMin= 2.36824209D-03
 Linear search not attempted -- first point.
 Maximum step size (   0.300) exceeded in Quadratic search.
    -- Step size scaled by   0.509
 Iteration  1 RMS(Cart)=  0.05470416 RMS(Int)=  0.00301825
 Iteration  2 RMS(Cart)=  0.00252586 RMS(Int)=  0.00148536
 Iteration  3 RMS(Cart)=  0.00001359 RMS(Int)=  0.00148531
 Iteration  4 RMS(Cart)=  0.00000011 RMS(Int)=  0.00148531
 Variable       Old X    -DE/DX   Delta X   Delta X   Delta X     New X
                                 (Linear)    (Quad)   (Total)
    R1        2.02201   0.01586   0.00000   0.01532   0.01532   2.03732
    R2        2.02201   0.01338   0.00000   0.01292   0.01292   2.03492
    R3        2.91018   0.00609   0.00000   0.00716   0.00709   2.91727
    R4        2.86593   0.12863   0.00000   0.14327   0.14326   3.00919
    R5        2.02201   0.01847   0.00000   0.01784   0.01784   2.03985
    R6        2.91018  -0.00048   0.00000  -0.00005   0.00006   2.91024
    R7        2.91018  -0.00601   0.00000  -0.00696  -0.00696   2.90322
    R8        2.02201   0.01811   0.00000   0.01748   0.01748   2.03949
    R9        2.02201   0.01731   0.00000   0.01672   0.01672   2.03872
   R10        2.91018   0.00423   0.00000   0.00293   0.00290   2.91308
   R11        2.02201   0.01735   0.00000   0.01676   0.01676   2.03876
   R12        2.02201   0.01487   0.00000   0.01436   0.01436   2.03636
   R13        2.91018   0.00178   0.00000   0.00259   0.00272   2.91290
   R14        2.02201   0.01395   0.00000   0.01347   0.01347   2.03547
   R15        2.02201   0.02002   0.00000   0.01933   0.01933   2.04134
   R16        2.77125  -0.02633   0.00000  -0.02728  -0.02738   2.74387
   R17        2.66584   0.02209   0.00000   0.01957   0.01953   2.68537
   R18        2.02201   0.00880   0.00000   0.00849   0.00849   2.03050
   R19        2.02201   0.01770   0.00000   0.01709   0.01709   2.03909
   R20        2.02201   0.01992   0.00000   0.01923   0.01923   2.04124
   R21        2.02201   0.02084   0.00000   0.02012   0.02012   2.04213
   R22        2.70231  -0.00143   0.00000  -0.00129  -0.00129   2.70102
   R23        1.81414   0.00039   0.00000   0.00028   0.00028   1.81442
    A1        1.91063  -0.00306   0.00000  -0.00971  -0.01224   1.89839
    A2        1.91063  -0.01220   0.00000  -0.02702  -0.02687   1.88376
    A3        1.73519   0.02513   0.00000   0.04233   0.04196   1.77716
    A4        1.91063  -0.01772   0.00000  -0.03513  -0.03494   1.87569
    A5        1.67630   0.03467   0.00000   0.06488   0.06474   1.74105
    A6        2.29031  -0.02073   0.00000  -0.02569  -0.02566   2.26465
    A7        1.91063   0.00318   0.00000   0.00470   0.00466   1.91530
    A8        1.91063   0.00824   0.00000   0.01396   0.01386   1.92450
    A9        1.91063  -0.00889   0.00000  -0.01095  -0.01088   1.89975
   A10        1.91063  -0.00581   0.00000  -0.00908  -0.00905   1.90158
   A11        1.91063  -0.00004   0.00000  -0.00325  -0.00327   1.90736
   A12        1.91063   0.00331   0.00000   0.00461   0.00465   1.91529
   A13        1.91063   0.00316   0.00000   0.00486   0.00484   1.91547
   A14        1.91063  -0.00182   0.00000  -0.00114  -0.00102   1.90962
   A15        1.91063  -0.00212   0.00000  -0.00607  -0.00624   1.90440
   A16        1.91063  -0.00247   0.00000  -0.00561  -0.00563   1.90500
   A17        1.91063  -0.00295   0.00000  -0.00285  -0.00273   1.90791
   A18        1.91063   0.00621   0.00000   0.01081   0.01079   1.92143
   A19        1.91063  -0.00609   0.00000  -0.00150  -0.00158   1.90905
   A20        1.91063  -0.00614   0.00000  -0.00933  -0.00926   1.90137
   A21        1.91063   0.02604   0.00000   0.03233   0.03233   1.94296
   A22        1.91063   0.00247   0.00000  -0.00174  -0.00182   1.90881
   A23        1.91063  -0.00394   0.00000  -0.00130  -0.00158   1.90905
   A24        1.91063  -0.01235   0.00000  -0.01846  -0.01835   1.89228
   A25        1.91063   0.00444   0.00000   0.00799   0.00803   1.91867
   A26        1.91063   0.00331   0.00000   0.01147   0.01148   1.92211
   A27        1.89259   0.01206   0.00000   0.01445   0.01415   1.90674
   A28        1.91063  -0.00195   0.00000  -0.00458  -0.00475   1.90589
   A29        1.97632  -0.01721   0.00000  -0.03026  -0.03008   1.94624
   A30        1.86179  -0.00020   0.00000   0.00200   0.00174   1.86353
   A31        1.95875   0.00248   0.00000  -0.00136  -0.00202   1.95672
   A32        2.19938  -0.01348   0.00000  -0.01495  -0.01523   2.18415
   A33        1.40640   0.08276   0.00000   0.13835   0.13870   1.54510
   A34        1.46529   0.04458   0.00000   0.09932   0.10035   1.56564
   A35        2.59317  -0.07920   0.00000  -0.14624  -0.14807   2.44511
   A36        1.59724   0.01150   0.00000   0.03591   0.03461   1.63185
   A37        1.91063   0.01217   0.00000   0.00438  -0.00923   1.90140
   A38        1.91063   0.00020   0.00000  -0.00040  -0.00040   1.91024
   A39        1.91063  -0.00042   0.00000  -0.00160  -0.00159   1.90904
   A40        1.91063  -0.00450   0.00000  -0.00581  -0.00581   1.90482
   A41        1.91063  -0.00135   0.00000  -0.00262  -0.00263   1.90800
   A42        1.91063   0.00299   0.00000   0.00522   0.00522   1.91585
   A43        1.91063   0.00308   0.00000   0.00520   0.00519   1.91583
   A44        1.91114  -0.00416   0.00000  -0.00672  -0.00672   1.90441
    D1        1.04720   0.00584   0.00000   0.01199   0.01190   1.05910
    D2        3.14159   0.00572   0.00000   0.01231   0.01226  -3.12934
    D3       -1.04720   0.00938   0.00000   0.01980   0.01971  -1.02749
    D4        3.14159  -0.01623   0.00000  -0.03795  -0.03777   3.10383
    D5       -1.04720  -0.01635   0.00000  -0.03764  -0.03741  -1.08461
    D6        1.04720  -0.01269   0.00000  -0.03015  -0.02996   1.01724
    D7       -1.09472   0.00015   0.00000   0.00155   0.00149  -1.09323
    D8        0.99967   0.00003   0.00000   0.00186   0.00185   1.00152
    D9        3.09407   0.00369   0.00000   0.00935   0.00930   3.10337
   D10       -2.82029   0.03033   0.00000   0.06506   0.06532  -2.75497
   D11       -0.00000  -0.00663   0.00000  -0.01278  -0.01529  -0.01529
   D12        1.93622  -0.01848   0.00000  -0.05441  -0.04985   1.88637
   D13        1.52667   0.02147   0.00000   0.05341   0.05222   1.57889
   D14       -1.93622  -0.01549   0.00000  -0.02443  -0.02840  -1.96462
   D15       -0.00000  -0.02734   0.00000  -0.06606  -0.06296  -0.06296
   D16       -0.61273   0.02380   0.00000   0.05172   0.05132  -0.56140
   D17        2.20756  -0.01316   0.00000  -0.02612  -0.02929   2.17828
   D18       -2.13940  -0.02500   0.00000  -0.06775  -0.06385  -2.20325
   D19        3.14159  -0.00637   0.00000  -0.01223  -0.01208   3.12951
   D20        1.04720  -0.00416   0.00000  -0.00763  -0.00752   1.03968
   D21       -1.04720  -0.00935   0.00000  -0.01646  -0.01629  -1.06349
   D22       -1.04720  -0.00098   0.00000  -0.00347  -0.00347  -1.05067
   D23        3.14159   0.00123   0.00000   0.00112   0.00109  -3.14050
   D24        1.04720  -0.00396   0.00000  -0.00771  -0.00767   1.03952
   D25        1.04720  -0.00256   0.00000  -0.01019  -0.01018   1.03702
   D26       -1.04720  -0.00035   0.00000  -0.00560  -0.00561  -1.05281
   D27        3.14159  -0.00554   0.00000  -0.01442  -0.01438   3.12721
   D28        3.14105  -0.00175   0.00000  -0.00284  -0.00279   3.13826
   D29       -1.04774  -0.00354   0.00000  -0.00727  -0.00722  -1.05496
   D30        1.04666  -0.00278   0.00000  -0.00544  -0.00539   1.04127
   D31        1.04666  -0.00018   0.00000   0.00009   0.00008   1.04674
   D32        3.14105  -0.00197   0.00000  -0.00434  -0.00435   3.13670
   D33       -1.04774  -0.00121   0.00000  -0.00250  -0.00251  -1.05025
   D34       -1.04774   0.00493   0.00000   0.01037   0.01033  -1.03741
   D35        1.04666   0.00315   0.00000   0.00594   0.00590   1.05255
   D36        3.14105   0.00390   0.00000   0.00778   0.00774  -3.13440
   D37       -2.71163   0.00134   0.00000   0.00246   0.00254  -2.70909
   D38       -0.61723  -0.00313   0.00000  -0.00630  -0.00625  -0.62348
   D39        1.47716  -0.00606   0.00000  -0.01482  -0.01480   1.46236
   D40       -0.61723   0.00209   0.00000   0.00295   0.00301  -0.61423
   D41        1.47716  -0.00237   0.00000  -0.00581  -0.00578   1.47138
   D42       -2.71163  -0.00530   0.00000  -0.01433  -0.01434  -2.72597
   D43        1.47716   0.00106   0.00000   0.00095   0.00103   1.47819
   D44       -2.71163  -0.00340   0.00000  -0.00781  -0.00776  -2.71939
   D45       -0.61723  -0.00633   0.00000  -0.01633  -0.01631  -0.63355
   D46        2.32937   0.00750   0.00000   0.02383   0.02405   2.35342
   D47        0.23497   0.00514   0.00000   0.01752   0.01772   0.25270
   D48       -1.78991  -0.00313   0.00000   0.00086   0.00109  -1.78882
   D49        0.23497   0.00143   0.00000   0.00667   0.00671   0.24168
   D50       -1.85942  -0.00093   0.00000   0.00036   0.00038  -1.85904
   D51        2.39888  -0.00920   0.00000  -0.01630  -0.01625   2.38263
   D52       -1.85942   0.00838   0.00000   0.02090   0.02089  -1.83854
   D53        2.32937   0.00601   0.00000   0.01459   0.01456   2.34393
   D54        0.30448  -0.00225   0.00000  -0.00206  -0.00207   0.30241
   D55        1.29181   0.00697   0.00000   0.02459   0.02483   1.31663
   D56       -2.86727   0.00988   0.00000   0.02514   0.02509  -2.84217
   D57       -0.76448  -0.00301   0.00000   0.00263   0.00286  -0.76161
   D58       -0.38285  -0.02164   0.00000  -0.05387  -0.05364  -0.43648
   D59       -2.88395  -0.02526   0.00000  -0.04086  -0.03861  -2.92256
   D60        1.07671   0.04263   0.00000   0.09602   0.09433   1.17104
   D61        2.85386   0.00071   0.00000   0.00194   0.00194   2.85580
   D62        0.75947   0.00139   0.00000   0.00279   0.00281   0.76227
   D63       -1.33493  -0.00067   0.00000  -0.00039  -0.00040  -1.33533
         Item               Value     Threshold  Converged?
 Maximum Force            0.128628     0.000450     NO 
 RMS     Force            0.019686     0.000300     NO 
 Maximum Displacement     0.327846     0.001800     NO 
 RMS     Displacement     0.054817     0.001200     NO 
 Predicted change in Energy=-6.877380D-02
 GradGradGradGradGradGradGradGradGradGradGradGradGradGradGradGradGradGrad

                          Input orientation:                          
 ---------------------------------------------------------------------
 Center     Atomic      Atomic             Coordinates (Angstroms)
 Number     Number       Type             X           Y           Z
 ---------------------------------------------------------------------
      1          6           0       -4.687670    0.422359   -0.014210
      2          1           0       -4.299422    0.900501    0.870636
      3          1           0       -4.264632    0.901428   -0.880873
      4          6           0       -4.204499   -1.043831   -0.013029
      5          1           0       -4.577821   -1.549992    0.864252
      6          6           0       -4.716130   -1.775087   -1.268095
      7          1           0       -4.363682   -2.795163   -1.264904
      8          1           0       -4.346198   -1.275621   -2.149908
      9          6           0       -6.257642   -1.768220   -1.263075
     10          1           0       -6.621261   -2.600819   -1.844896
     11          1           0       -6.604536   -1.863505   -0.247300
     12          6           0       -6.814214   -0.454547   -1.846626
     13          1           0       -7.616086   -0.668437   -2.533251
     14          1           0       -6.033880    0.080898   -2.367463
     15          8           0       -7.257140    0.401757   -0.760879
     16          6           0       -6.167534    1.006838   -0.078255
     17          1           0       -5.961016    1.553325    0.823543
     18          1           0       -5.886030    1.611480   -0.926486
     19          6           0       -2.668398   -1.060180    0.006942
     20          1           0       -2.319628   -2.082493    0.011316
     21          1           0       -2.292968   -0.558094   -0.873263
     22          8           0       -2.207827   -0.387198    1.180790
     23          1           0       -1.286665   -0.612352    1.331288
 ---------------------------------------------------------------------
                    Distance matrix (angstroms):
                    1          2          3          4          5
     1  C    0.000000
     2  H    1.078104   0.000000
     3  H    1.076835   1.751855   0.000000
     4  C    1.543752   2.137827   2.130916   0.000000
     5  H    2.161928   2.466265   3.025394   1.079440   0.000000
     6  C    2.530179   3.450593   2.741811   1.540030   2.148652
     7  H    3.467225   4.268793   3.717805   2.158632   2.475805
     8  H    2.749717   3.723088   2.521239   2.154079   3.035472
     9  C    2.970373   3.938201   3.353385   2.510528   2.719365
    10  H    4.028622   5.002429   4.329986   3.408913   3.552375
    11  H    2.992303   3.768695   3.677149   2.546944   2.332683
    12  C    2.940901   3.942568   3.044950   3.243447   3.681075
    13  H    4.013854   5.004825   4.053033   4.258094   4.642329
    14  H    2.732522   3.763692   2.452236   3.186692   3.901780
    15  O    2.675839   3.414481   3.036310   3.459425   3.691765
    16  C    1.592392   2.097985   2.067932   2.839543   3.154820
    17  H    1.897979   1.785858   2.491530   3.245062   3.397861
    18  H    1.918938   2.500493   1.770646   3.273015   3.861743
    19  C    2.505161   2.692671   2.680314   1.536318   2.149604
    20  H    3.447109   3.681884   3.671897   2.152243   2.471941
    21  H    2.726511   3.032250   2.453104   2.151719   3.037001
    22  O    2.869326   2.475709   3.184565   2.417244   2.658789
    23  H    3.801030   3.402592   4.006678   3.241469   3.453839
                    6          7          8          9         10
     6  C    0.000000
     7  H    1.079252   0.000000
     8  H    1.078846   1.758563   0.000000
     9  C    1.541535   2.154460   2.163965   0.000000
    10  H    2.155007   2.338979   2.650490   1.078868   0.000000
    11  H    2.148469   2.631527   3.010916   1.077597   1.759610
    12  C    2.545679   3.438312   2.618634   1.541441   2.154929
    13  H    3.351870   4.087762   3.347804   2.160611   2.279827
    14  H    2.527796   3.503844   2.176176   2.165405   2.794584
    15  O    3.384176   4.341248   3.635461   2.441311   3.254981
    16  C    3.355801   4.372325   3.580311   3.018753   4.042534
    17  H    4.123471   5.081578   4.410440   3.933780   4.981306
    18  H    3.599194   4.674459   3.493307   3.416689   4.373500
    19  C    2.515954   2.738932   2.741064   3.872589   4.629040
    20  H    2.733974   2.512925   3.070654   4.150999   4.713622
    21  H    2.740198   3.073389   2.521988   4.163533   4.883741
    22  O    3.770260   4.053076   4.056535   4.927545   5.790794
    23  H    4.457576   4.579619   4.681815   5.725152   6.519208
                   11         12         13         14         15
    11  H    0.000000
    12  C    2.141721   0.000000
    13  H    2.770739   1.077127   0.000000
    14  H    2.932821   1.080228   1.758512   0.000000
    15  O    2.412689   1.451994   2.101300   2.044609   0.000000
    16  C    2.908335   2.383480   3.306336   2.472994   1.421035
    17  H    3.638069   3.448086   4.352419   3.515092   2.348710
    18  H    3.612902   2.444718   3.282196   2.107357   1.835973
    19  C    4.025314   4.581517   5.575452   4.273912   4.876819
    20  H    4.298287   5.128690   6.043744   4.912689   5.580932
    21  H    4.548137   4.625995   5.577036   4.078648   5.057366
    22  O    4.852831   5.512584   6.566770   5.239074   5.467000
    23  H    5.686570   6.377918   7.416157   6.057838   6.407196
                   16         17         18         19         20
    16  C    0.000000
    17  H    1.074494   0.000000
    18  H    1.079042   1.752601   0.000000
    19  C    4.064944   4.282357   4.285115   0.000000
    20  H    4.935419   5.209471   5.219591   1.080178   0.000000
    21  H    4.253623   4.559805   4.197616   1.080647   1.762664
    22  O    4.382671   4.240245   4.686630   1.429318   2.062570
    23  H    5.332117   5.176632   5.585439   1.965611   2.229497
                   21         22         23
    21  H    0.000000
    22  O    2.062908   0.000000
    23  H    2.423971   0.960148   0.000000
 Stoichiometry    C7H14O2
 Framework group  C1[X(C7H14O2)]
 Deg. of freedom    63
 Full point group                 C1      NOp   1
 Largest Abelian subgroup         C1      NOp   1
 Largest concise Abelian subgroup C1      NOp   1
                         Standard orientation:                         
 ---------------------------------------------------------------------
 Center     Atomic      Atomic             Coordinates (Angstroms)
 Number     Number       Type             X           Y           Z
 ---------------------------------------------------------------------
      1          6           0        0.296777   -1.005566    0.168879
      2          1           0        0.943352   -1.798499   -0.170984
      3          1           0        0.298991   -0.994174    1.245651
      4          6           0        0.895692    0.334272   -0.309978
      5          1           0        0.946012    0.346472   -1.388176
      6          6           0        0.020017    1.509425    0.163204
      7          1           0        0.452544    2.441981   -0.165496
      8          1           0       -0.034447    1.504914    1.240665
      9          6           0       -1.391341    1.361697   -0.438940
     10          1           0       -1.860727    2.331585   -0.493236
     11          1           0       -1.306974    0.949491   -1.431001
     12          6           0       -2.266135    0.416770    0.408344
     13          1           0       -3.243278    0.847843    0.548239
     14          1           0       -1.808999    0.252254    1.373152
     15          8           0       -2.343812   -0.877740   -0.244721
     16          6           0       -1.146092   -1.626937   -0.091394
     17          1           0       -0.666759   -2.504505   -0.484652
     18          1           0       -1.279793   -1.747836    0.972486
     19          6           0        2.312746    0.478454    0.265733
     20          1           0        2.742597    1.412115   -0.066366
     21          1           0        2.263663    0.471387    1.345241
     22          8           0        3.116468   -0.612588   -0.188808
     23          1           0        4.042584   -0.399098   -0.052374
 ---------------------------------------------------------------------
 Rotational constants (GHZ):           2.9599080           1.0263333           0.8140995
 Standard basis: 6-31G(2df,p) (6D, 7F)
 There are   349 symmetry adapted cartesian basis functions of A   symmetry.
 There are   322 symmetry adapted basis functions of A   symmetry.
   322 basis functions,   494 primitive gaussians,   349 cartesian basis functions
    36 alpha electrons       36 beta electrons
       nuclear repulsion energy       495.6052771051 Hartrees.
 NAtoms=   23 NActive=   23 NUniq=   23 SFac= 1.00D+00 NAtFMM=   60 NAOKFM=F Big=F
 Integral buffers will be    131072 words long.
 Raffenetti 2 integral format.
 Two-electron integral symmetry is turned on.
 One-electron integrals computed using PRISM.
 NBasis=   322 RedAO= T EigKep=  6.32D-04  NBF=   322
 NBsUse=   322 1.00D-06 EigRej= -1.00D+00 NBFU=   322
 Initial guess from the checkpoint file:  "OCC1CCCOCC1.chk"
 B after Tr=    -0.000000   -0.000000   -0.000000
         Rot=    0.999983   -0.001176   -0.000222    0.005660 Ang=  -0.66 deg.
 ExpMin= 1.61D-01 ExpMax= 5.48D+03 ExpMxC= 8.25D+02 IAcc=2 IRadAn=         4 AccDes= 0.00D+00
 Harris functional with IExCor=  402 and IRadAn=       4 diagonalized for initial guess.
 HarFok:  IExCor=  402 AccDes= 0.00D+00 IRadAn=         4 IDoV= 1 UseB2=F ITyADJ=14
 ICtDFT=  3500011 ScaDFX=  1.000000  1.000000  1.000000  1.000000
 FoFCou: FMM=F IPFlag=           0 FMFlag=      100000 FMFlg1=           0
         NFxFlg=           0 DoJE=T BraDBF=F KetDBF=T FulRan=T
         wScrn=  0.000000 ICntrl=       500 IOpCl=  0 I1Cent=   200000004 NGrid=           0
         NMat0=    1 NMatS0=      1 NMatT0=    0 NMatD0=    1 NMtDS0=    0 NMtDT0=    0
 Petite list used in FoFCou.
 Requested convergence on RMS density matrix=1.00D-08 within 128 cycles.
 Requested convergence on MAX density matrix=1.00D-06.
 Requested convergence on             energy=1.00D-06.
 No special actions if energy rises.
 Integral accuracy reduced to 1.0D-05 until final iterations.
 Initial convergence to 1.0D-05 achieved.  Increase integral accuracy.
 SCF Done:  E(RB3LYP) =  -425.543154636     A.U. after   11 cycles
            NFock= 11  Conv=0.32D-08     -V/T= 2.0067
 Calling FoFJK, ICntrl=      2127 FMM=F ISym2X=0 I1Cent= 0 IOpClX= 0 NMat=1 NMatS=1 NMatT=0.
 ***** Axes restored to original set *****
 -------------------------------------------------------------------
 Center     Atomic                   Forces (Hartrees/Bohr)
 Number     Number              X              Y              Z
 -------------------------------------------------------------------
      1        6           0.003356899   -0.026420944   -0.002096133
      2        1           0.012673916    0.002216286    0.004995402
      3        1           0.020394964   -0.001442757   -0.004540844
      4        6           0.002539195    0.011632369   -0.016400709
      5        1          -0.001898405   -0.006675912    0.009658905
      6        6          -0.012450317    0.000936605    0.023473074
      7        1           0.006291413   -0.009921613   -0.001700826
      8        1           0.005199349    0.001946207   -0.010764261
      9        6           0.015835713    0.008503517   -0.018851159
     10        1          -0.005048286   -0.009120770   -0.004264934
     11        1          -0.007737194   -0.003303567    0.007430809
     12        6           0.006596871    0.003763551    0.040934919
     13        1          -0.014618913    0.007387517    0.000334063
     14        1           0.006927812    0.004487910   -0.012576229
     15        8          -0.031240580   -0.027034658    0.025251011
     16        6           0.059447640   -0.003038720   -0.071831511
     17        1          -0.062058058    0.008008719    0.018164755
     18        1          -0.000621688    0.040005436    0.008829428
     19        6          -0.008854294    0.006643705    0.019608167
     20        1           0.003744154   -0.012231826   -0.002680590
     21        1           0.004432775    0.003978072   -0.012442143
     22        8          -0.003557141   -0.000029542    0.001177071
     23        1           0.000644174   -0.000289584   -0.001708264
 -------------------------------------------------------------------
 Cartesian Forces:  Max     0.071831511 RMS     0.018613559

 GradGradGradGradGradGradGradGradGradGradGradGradGradGradGradGradGradGrad
 Berny optimization.
 Using GEDIIS/GDIIS optimizer.
 FormGI is forming the generalized inverse of G from B-inverse, IUseBI=4.
 Internal  Forces:  Max     0.062544373 RMS     0.011340396
 Search for a local minimum.
 Step number   2 out of a maximum of  138
 All quantities printed in internal units (Hartrees-Bohrs-Radians)
 Mixed Optimization -- RFO/linear search
 Update second derivatives using D2CorX and points    1    2
 DE= -6.10D-02 DEPred=-6.88D-02 R= 8.87D-01
 TightC=F SS=  1.41D+00  RLast= 3.68D-01 DXNew= 5.0454D-01 1.1035D+00
 Trust test= 8.87D-01 RLast= 3.68D-01 DXMaxT set to 5.05D-01
 ITU=  1  0
 Use linear search instead of GDIIS.
 Linear search step of   0.603 exceeds DXMaxT=   0.505 but not scaled.
 Quartic linear search produced a step of  2.00000.
 Iteration  1 RMS(Cart)=  0.09040715 RMS(Int)=  0.01682701
 Iteration  2 RMS(Cart)=  0.02230430 RMS(Int)=  0.00805740
 Iteration  3 RMS(Cart)=  0.00096918 RMS(Int)=  0.00801396
 Iteration  4 RMS(Cart)=  0.00003553 RMS(Int)=  0.00801392
 Iteration  5 RMS(Cart)=  0.00000176 RMS(Int)=  0.00801392
 Iteration  6 RMS(Cart)=  0.00000009 RMS(Int)=  0.00801392
 Variable       Old X    -DE/DX   Delta X   Delta X   Delta X     New X
                                 (Linear)    (Quad)   (Total)
    R1        2.03732   0.00965   0.03063   0.00000   0.03063   2.06795
    R2        2.03492   0.01102   0.02583   0.00000   0.02583   2.06075
    R3        2.91727   0.00423   0.01418   0.00000   0.01427   2.93154
    R4        3.00919   0.04185   0.28651   0.00000   0.28597   3.29516
    R5        2.03985   0.01164   0.03568   0.00000   0.03568   2.07552
    R6        2.91024  -0.00089   0.00011   0.00000   0.00032   2.91056
    R7        2.90322  -0.00352  -0.01392   0.00000  -0.01392   2.88931
    R8        2.03949   0.01143   0.03497   0.00000   0.03497   2.07446
    R9        2.03872   0.01148   0.03343   0.00000   0.03343   2.07216
   R10        2.91308  -0.00005   0.00580   0.00000   0.00650   2.91958
   R11        2.03876   0.01104   0.03351   0.00000   0.03351   2.07228
   R12        2.03636   0.00979   0.02871   0.00000   0.02871   2.06508
   R13        2.91290  -0.00130   0.00545   0.00000   0.00542   2.91832
   R14        2.03547   0.00920   0.02694   0.00000   0.02694   2.06241
   R15        2.04134   0.01329   0.03866   0.00000   0.03866   2.07999
   R16        2.74387  -0.02038  -0.05477   0.00000  -0.05457   2.68930
   R17        2.68537   0.00775   0.03906   0.00000   0.03847   2.72384
   R18        2.03050   0.00739   0.01699   0.00000   0.01699   2.04749
   R19        2.03909   0.01531   0.03417   0.00000   0.03417   2.07327
   R20        2.04124   0.01277   0.03847   0.00000   0.03847   2.07971
   R21        2.04213   0.01352   0.04024   0.00000   0.04024   2.08237
   R22        2.70102  -0.00152  -0.00258   0.00000  -0.00258   2.69844
   R23        1.81442   0.00042   0.00056   0.00000   0.00056   1.81498
    A1        1.89839  -0.00332  -0.02448   0.00000  -0.03902   1.85937
    A2        1.88376  -0.00491  -0.05375   0.00000  -0.05274   1.83102
    A3        1.77716   0.01056   0.08392   0.00000   0.08151   1.85866
    A4        1.87569  -0.00587  -0.06988   0.00000  -0.06684   1.80885
    A5        1.74105   0.01456   0.12949   0.00000   0.12711   1.86816
    A6        2.26465  -0.00978  -0.05132   0.00000  -0.05127   2.21338
    A7        1.91530   0.00179   0.00933   0.00000   0.00922   1.92452
    A8        1.92450   0.00542   0.02773   0.00000   0.02792   1.95242
    A9        1.89975  -0.00505  -0.02176   0.00000  -0.02216   1.87760
   A10        1.90158  -0.00404  -0.01811   0.00000  -0.01891   1.88267
   A11        1.90736  -0.00072  -0.00655   0.00000  -0.00645   1.90091
   A12        1.91529   0.00260   0.00930   0.00000   0.01018   1.92546
   A13        1.91547   0.00309   0.00968   0.00000   0.00982   1.92530
   A14        1.90962  -0.00030  -0.00203   0.00000  -0.00115   1.90847
   A15        1.90440  -0.00406  -0.01247   0.00000  -0.01416   1.89024
   A16        1.90500  -0.00242  -0.01127   0.00000  -0.01151   1.89349
   A17        1.90791  -0.00071  -0.00545   0.00000  -0.00491   1.90300
   A18        1.92143   0.00444   0.02159   0.00000   0.02211   1.94354
   A19        1.90905  -0.00118  -0.00317   0.00000  -0.00368   1.90536
   A20        1.90137  -0.00296  -0.01853   0.00000  -0.01777   1.88360
   A21        1.94296   0.01194   0.06465   0.00000   0.06397   2.00693
   A22        1.90881  -0.00001  -0.00365   0.00000  -0.00426   1.90455
   A23        1.90905  -0.00093  -0.00316   0.00000  -0.00457   1.90448
   A24        1.89228  -0.00705  -0.03670   0.00000  -0.03588   1.85641
   A25        1.91867   0.00395   0.01606   0.00000   0.01652   1.93519
   A26        1.92211   0.00133   0.02296   0.00000   0.02157   1.94369
   A27        1.90674   0.00830   0.02829   0.00000   0.02904   1.93578
   A28        1.90589  -0.00163  -0.00950   0.00000  -0.01021   1.89567
   A29        1.94624  -0.01229  -0.06016   0.00000  -0.06015   1.88609
   A30        1.86353   0.00026   0.00349   0.00000   0.00140   1.86493
   A31        1.95672  -0.00122  -0.00405   0.00000  -0.00934   1.94738
   A32        2.18415  -0.00297  -0.03046   0.00000  -0.03054   2.15361
   A33        1.54510   0.05691   0.27740   0.00000   0.26554   1.81063
   A34        1.56564   0.02113   0.20070   0.00000   0.19109   1.75672
   A35        2.44511  -0.06254  -0.29614   0.00000  -0.29581   2.14930
   A36        1.63185   0.01539   0.06922   0.00000   0.06609   1.69795
   A37        1.90140  -0.00096  -0.01846   0.00000  -0.09038   1.81103
   A38        1.91024   0.00003  -0.00079   0.00000  -0.00076   1.90948
   A39        1.90904  -0.00038  -0.00319   0.00000  -0.00316   1.90588
   A40        1.90482  -0.00200  -0.01162   0.00000  -0.01160   1.89323
   A41        1.90800  -0.00134  -0.00526   0.00000  -0.00534   1.90266
   A42        1.91585   0.00175   0.01044   0.00000   0.01041   1.92626
   A43        1.91583   0.00194   0.01039   0.00000   0.01034   1.92617
   A44        1.90441  -0.00282  -0.01344   0.00000  -0.01344   1.89097
    D1        1.05910   0.00114   0.02380   0.00000   0.02257   1.08166
    D2       -3.12934   0.00068   0.02451   0.00000   0.02293  -3.10640
    D3       -1.02749   0.00401   0.03941   0.00000   0.03834  -0.98915
    D4        3.10383  -0.00839  -0.07553   0.00000  -0.07488   3.02895
    D5       -1.08461  -0.00885  -0.07482   0.00000  -0.07451  -1.15912
    D6        1.01724  -0.00552  -0.05992   0.00000  -0.05911   0.95813
    D7       -1.09323  -0.00071   0.00298   0.00000   0.00208  -1.09115
    D8        1.00152  -0.00117   0.00369   0.00000   0.00245   1.00397
    D9        3.10337   0.00217   0.01859   0.00000   0.01785   3.12122
   D10       -2.75497   0.02109   0.13064   0.00000   0.13408  -2.62089
   D11       -0.01529  -0.01013  -0.03058   0.00000  -0.04598  -0.06127
   D12        1.88637  -0.01252  -0.09970   0.00000  -0.07714   1.80923
   D13        1.57889   0.01749   0.10443   0.00000   0.09983   1.67872
   D14       -1.96462  -0.01373  -0.05679   0.00000  -0.08023  -2.04484
   D15       -0.06296  -0.01612  -0.12592   0.00000  -0.11139  -0.17435
   D16       -0.56140   0.01749   0.10265   0.00000   0.10188  -0.45952
   D17        2.17828  -0.01373  -0.05858   0.00000  -0.07818   2.10010
   D18       -2.20325  -0.01612  -0.12770   0.00000  -0.10935  -2.31259
   D19        3.12951  -0.00377  -0.02417   0.00000  -0.02346   3.10605
   D20        1.03968  -0.00250  -0.01504   0.00000  -0.01462   1.02505
   D21       -1.06349  -0.00525  -0.03258   0.00000  -0.03224  -1.09573
   D22       -1.05067  -0.00077  -0.00694   0.00000  -0.00702  -1.05769
   D23       -3.14050   0.00050   0.00219   0.00000   0.00181  -3.13869
   D24        1.03952  -0.00226  -0.01535   0.00000  -0.01581   1.02372
   D25        1.03702  -0.00255  -0.02035   0.00000  -0.02033   1.01669
   D26       -1.05281  -0.00128  -0.01123   0.00000  -0.01149  -1.06430
   D27        3.12721  -0.00404  -0.02877   0.00000  -0.02911   3.09810
   D28        3.13826  -0.00109  -0.00558   0.00000  -0.00562   3.13264
   D29       -1.05496  -0.00294  -0.01445   0.00000  -0.01449  -1.06945
   D30        1.04127  -0.00202  -0.01077   0.00000  -0.01080   1.03047
   D31        1.04674   0.00019   0.00017   0.00000  -0.00003   1.04671
   D32        3.13670  -0.00166  -0.00870   0.00000  -0.00890   3.12780
   D33       -1.05025  -0.00074  -0.00502   0.00000  -0.00521  -1.05546
   D34       -1.03741   0.00400   0.02066   0.00000   0.02089  -1.01652
   D35        1.05255   0.00214   0.01180   0.00000   0.01202   1.06457
   D36       -3.13440   0.00306   0.01547   0.00000   0.01571  -3.11869
   D37       -2.70909   0.00029   0.00508   0.00000   0.00557  -2.70352
   D38       -0.62348  -0.00218  -0.01249   0.00000  -0.01207  -0.63555
   D39        1.46236  -0.00546  -0.02961   0.00000  -0.02938   1.43298
[...]
 396,-0.00010052,-0.00000524,-0.00011444,-0.00149081,0.00151242,-0.0001
 6028,-0.00011943,0.00021308,-0.00036667,0.00109074,0.00025679,-0.00036
 666,-0.01385009,-0.01751858,0.02063446,-0.00019953,0.00040142,-0.00061
 691,0.00333467,-0.00520182,0.00006034,-0.06639689,-0.14132854,0.096996
 52,-0.00145227,-0.00180221,0.00301967,0.06994748,0.15005648,-0.0003288
 1,0.00001259,-0.00074918,-0.00024891,-0.00006442,0.00041871,-0.0009184
 3,-0.00012931,0.00052567,-0.00009955,0.00008736,-0.00003253,0.00014480
 ,-0.00016104,0.00018614,0.00027511,-0.00034229,-0.00008720,-0.00006181
 ,-0.00013254,0.00013806,-0.00052715,0.00012425,-0.00001174,0.00165287,
 0.00314041,0.00043239,-0.00034658,0.00105361,0.00007760,0.00041006,-0.
 00004790,0.00091887,0.06483733,0.09216449,-0.15013831,-0.00268110,-0.0
 0386475,0.00707794,-0.07880079,-0.10224706,0.17764808,-0.03296831,-0.0
 2937381,-0.01339934,-0.00749722,0.00188183,0.00382836,-0.00004257,-0.0
 0031778,0.00088566,0.00350852,-0.00331471,-0.00048501,-0.00018054,0.00
 064198,0.00010150,0.00076365,-0.00176913,-0.00026886,0.00101884,0.0002
 3409,0.00028010,0.00018948,0.00003035,0.00005515,0.00448474,0.00766739
 ,0.01386226,0.00024269,0.00271082,-0.00013365,0.00024100,-0.00055456,-
 0.00033580,-0.08299103,-0.01720388,0.00776617,0.00636614,-0.01694783,-
 0.03045841,0.00236102,0.00799381,0.01255627,0.25427029,-0.00368929,0.0
 0461542,-0.00122883,0.00092268,0.00084602,0.00058924,-0.00006239,0.000
 29631,0.00030420,0.00042211,-0.00101476,0.00246333,0.00047687,0.000815
 13,-0.00111804,-0.00338899,0.00195765,-0.00041511,0.00030907,0.0003824
 2,0.00073153,0.00058182,-0.00012211,-0.00008353,0.00042374,-0.02103808
 ,-0.04129451,0.00531931,-0.00767897,-0.00042868,-0.00134284,0.00406709
 ,-0.00081270,-0.00407031,-0.09644584,-0.06554008,-0.00361149,-0.007436
 99,-0.01988718,0.00152914,0.00955116,0.00828793,0.13745246,0.28532072,
 0.00027514,0.00449782,0.00327050,0.00047493,0.00026641,0.00076900,-0.0
 0126072,0.00007359,0.00121887,-0.00022786,-0.00108048,-0.00057556,0.00
 015907,-0.00041695,0.00107193,-0.00147637,-0.00090140,-0.00070078,0.00
 092196,0.00031925,0.00073141,-0.00008202,0.00015710,0.00019826,0.00492
 889,-0.01483564,-0.01445936,0.00133018,-0.00202504,0.00103036,-0.00057
 602,0.00024898,0.00217294,0.03235770,-0.04495111,-0.18508288,-0.003506
 68,-0.01259379,-0.02093155,0.00262213,-0.01688611,-0.03952729,-0.00124
 631,0.14689501,0.33727280,-0.15315596,0.03519360,0.02731609,-0.0185940
 4,0.00502718,0.00516659,-0.00726967,0.00365340,-0.00001513,-0.00574735
 ,0.00981330,-0.00545539,0.00005831,-0.00149769,0.00113876,0.00259857,-
 0.00046658,0.00194306,-0.00087618,-0.00080774,-0.00088899,-0.00035763,
 0.00012101,0.00006215,0.00202826,0.00184060,0.00532507,-0.00170400,0.0
 0206783,0.00029798,-0.00026103,-0.00049906,-0.00023137,-0.00263209,-0.
 00209132,-0.01644742,0.00155998,0.00036863,0.00131042,-0.00000422,0.00
 076679,0.00498930,-0.14191836,-0.08215979,-0.01242510,0.43028409,0.033
 36998,-0.09524117,-0.00965579,-0.01882018,0.00495244,0.00450261,-0.003
 20635,-0.00087818,-0.00001504,0.03356349,-0.00933938,-0.00623681,0.000
 37566,0.00110587,0.00073463,0.00236955,-0.00023501,0.00021577,-0.00076
 679,-0.00018136,-0.00028021,-0.00032070,-0.00015067,0.00016258,-0.0004
 7970,-0.00143164,-0.00020740,-0.00014916,0.00089785,0.00029193,-0.0000
 5153,-0.00020432,-0.00037030,-0.01163257,-0.01970841,-0.01164595,0.002
 16526,0.00143182,0.00346061,-0.00026989,0.00401181,0.00415648,-0.06780
 352,-0.13230115,-0.03271863,-0.02082210,0.51949095,0.02448799,-0.01011
 752,-0.08790650,-0.01744847,0.00456684,0.00286529,0.03283147,-0.011196
 95,-0.00641190,-0.00772966,0.00228143,0.00020335,-0.00069597,0.0007095
 5,0.00064740,0.00098173,-0.00026999,-0.00025142,-0.00023232,0.00000872
 ,0.00014725,-0.00018660,-0.00008321,0.00023915,-0.00043607,0.00007154,
 0.00020561,0.00006242,0.00027337,0.00047373,-0.00008031,-0.00022273,-0
 .00001544,-0.03087100,-0.02697752,-0.01939960,0.00028529,-0.00334145,-
 0.00485386,-0.00165339,-0.00053421,0.00250377,0.01006514,-0.01006810,-
 0.08754733,-0.01431779,-0.01341698,0.61240478,-0.00754365,0.00366600,0
 .02998349,0.00121998,-0.00003847,0.00046212,-0.00523880,0.00290213,0.0
 0139268,0.00031275,-0.00143619,0.00055874,0.00020271,0.00046450,-0.000
 52674,-0.00003223,-0.00010920,0.00014742,0.00012459,0.00011368,-0.0000
 3774,0.00009764,-0.00002386,-0.00021302,-0.00030330,-0.00005069,-0.000
 48403,0.00017671,-0.00018315,0.00007333,0.00006932,-0.00002671,0.00003
 381,-0.00329841,-0.00145753,-0.00010479,-0.00007555,-0.00063580,-0.000
 99910,-0.00004285,0.00015181,-0.00017278,-0.00305657,-0.01475081,-0.02
 987821,-0.04801115,0.00898092,0.03246737,0.06309868,0.00163367,-0.0009
 9446,-0.01163033,-0.00087828,0.00103346,0.00060129,0.00187836,0.000228
 61,-0.00035022,-0.00011753,0.00088966,-0.00089186,-0.00019283,-0.00026
 447,0.00033307,-0.00006114,-0.00004988,0.00001159,0.00007365,-0.000017
 01,0.00002704,-0.00002346,-0.00002756,0.00009637,-0.00006104,0.0001522
 4,-0.00036659,0.00016438,-0.00017492,0.00005071,-0.00004604,-0.0000058
 0,0.00004420,-0.00444986,-0.00041818,0.00005993,-0.00007897,-0.0007066
 6,-0.00120564,0.00014259,-0.00014803,-0.00037627,-0.00609436,-0.013270
 86,-0.03056779,0.00831672,-0.05517297,-0.03145619,0.00209386,0.0638347
 2,0.00144523,0.00064004,-0.00556276,0.00048783,0.00025188,0.00110830,0
 .00110539,-0.00049978,0.00134262,0.00004647,0.00005466,0.00034833,0.00
 007902,-0.00062966,0.00002420,-0.00016281,0.00000241,0.00009233,0.0000
 4988,-0.00004001,0.00002381,0.00002730,0.00010803,0.00007295,-0.000102
 18,0.00007443,-0.00012626,0.00006324,-0.00009918,-0.00000919,0.0000224
 0,-0.00005918,0.00002192,-0.00167841,0.00124060,0.00262134,-0.00009083
 ,-0.00051220,-0.00045923,0.00008907,0.00013481,0.00035885,-0.00484863,
 -0.00880768,-0.00796081,0.02619319,-0.03936268,-0.29727444,-0.02523130
 ,0.04885043,0.32091645,-0.00533975,0.02821200,-0.01276428,0.00032954,-
 0.00090868,-0.00034063,0.00151317,-0.00022368,0.00036529,-0.00589964,-
 0.00076352,0.00127962,0.00010290,-0.00029165,-0.00004795,-0.00048479,-
 0.00005491,-0.00053886,0.00015259,0.00016087,0.00019612,0.00005031,0.0
 0004142,0.00009469,-0.00018924,-0.00034408,-0.00073057,0.00032561,-0.0
 0027240,-0.00011564,0.00004801,0.00019123,-0.00003758,0.00027320,0.001
 44767,0.00504421,-0.00011953,-0.00008039,0.00007762,0.00040208,0.00072
 478,-0.00063047,-0.00469434,-0.03449875,0.00801066,-0.05695645,0.04326
 243,-0.02644738,0.00216049,-0.00216851,0.00258691,0.06858080,0.0047568
 8,-0.00823415,0.00744908,0.00138789,-0.00054850,-0.00014174,-0.0007351
 3,0.00066839,-0.00054061,0.00216140,0.00104423,-0.00021495,-0.00021623
 ,0.00016163,-0.00014114,-0.00026143,0.00012121,0.00015077,0.00006329,-
 0.00003287,0.00001128,0.00007493,-0.00000514,-0.00005378,0.00032538,-0
 .00031148,-0.00100994,0.00021004,-0.00036849,-0.00019823,-0.00008199,0
 .00037075,-0.00003187,-0.00008332,0.00167296,0.00609982,-0.00005732,-0
 .00005863,-0.00030219,0.00061291,0.00007218,-0.00163642,-0.01560547,-0
 .03048431,0.00362513,0.04359700,-0.21038495,0.09688527,0.00025984,0.00
 513250,-0.00123805,-0.03647811,0.24193336,0.00480551,-0.00730902,0.003
 29525,0.00002056,0.00009728,0.00009204,-0.00071862,-0.00061158,0.00130
 508,0.00167453,-0.00042866,0.00049478,0.00001631,-0.00035987,0.0001727
 2,-0.00005937,0.00011793,0.00006035,-0.00002818,-0.00000683,-0.0000187
 5,0.00000982,0.00004103,0.00004552,0.00015153,-0.00003506,-0.00029040,
 0.00002397,-0.00002930,-0.00000747,0.00002972,0.00002965,-0.00014460,0
 .00007249,-0.00109981,0.00286300,-0.00000881,0.00012254,0.00038149,0.0
 0036072,0.00125018,0.00018206,0.00182301,-0.00905781,0.00839570,-0.025
 17394,0.10009450,-0.11564196,-0.00715029,0.02651537,-0.01573039,0.0241
 0525,-0.10886519,0.11431681,-0.00891188,0.01161240,-0.00177457,0.00012
 292,-0.00187689,-0.00093363,0.00078588,-0.00150917,0.00061671,-0.17390
 434,0.02425593,0.00011973,-0.02307575,0.00338092,-0.00359670,-0.009143
 29,-0.00564255,-0.00836965,0.00014900,0.00139256,0.00056715,0.00080950
 ,0.00053055,0.00210617,-0.00004135,0.00094901,0.00137291,0.00086233,0.
 00024866,0.00026742,0.00007309,0.00002538,-0.00017967,-0.00031740,0.00
 038248,-0.00016945,0.00015639,-0.00009347,0.00002019,-0.00004608,-0.00
 003932,-0.00000898,0.00025143,-0.00022823,-0.00007438,0.00004549,-0.00
 075811,-0.00006636,-0.00000329,-0.00001419,-0.00015289,0.00047954,-0.0
 0029171,0.00004394,0.50228823,0.03608570,-0.00978821,0.00491016,0.0013
 1818,-0.00119104,-0.00086983,-0.00038580,-0.00000061,-0.00025418,0.018
 72482,-0.07909286,0.00540781,-0.00849766,0.00113824,-0.00152555,-0.020
 07487,0.00163039,-0.00396010,-0.00172426,-0.00107940,-0.00131881,0.000
 43144,0.00001825,0.00054174,-0.00004205,-0.00295476,-0.00343502,-0.001
 37151,0.00002465,-0.00043744,0.00011472,0.00004197,0.00009124,0.000323
 60,-0.00008801,-0.00002337,0.00008350,0.00000098,0.00004617,-0.0000258
 1,0.00004374,-0.00001875,-0.00108914,0.00091497,0.00001480,-0.00080823
 ,-0.00696912,0.00239714,0.00006138,-0.00007564,-0.00016500,0.00201018,
 -0.00077075,-0.00040633,-0.00351887,0.56052295,-0.00638629,0.00534767,
 -0.00124726,0.00033058,-0.00256604,0.00074888,-0.00082458,0.00019310,-
 0.00086373,-0.01234460,0.00696005,-0.07617453,0.02888566,-0.00459939,0
 .00343545,-0.02843545,-0.00015570,-0.00890843,-0.00053433,0.00099085,0
 .00057251,-0.00061555,0.00020967,-0.00050316,-0.00012900,-0.00186491,-
 0.00382568,-0.00118313,-0.00032673,-0.00002822,0.00010497,-0.00015340,
 0.00014986,0.00002607,-0.00014996,-0.00027574,0.00007768,0.00001882,0.
 00002876,-0.00003894,0.00006454,0.00003201,0.00039183,-0.00101071,0.00
 034870,0.00047265,0.00044206,-0.00009662,0.00010255,0.00005469,-0.0000
 8270,0.00015174,-0.00006388,0.00018251,-0.03907524,-0.03529293,0.50844
 562,-0.00644871,-0.00083601,-0.00025118,0.00014033,-0.00022674,0.00032
 386,0.00000505,0.00030949,-0.00033065,-0.00668547,0.03164501,-0.008581
 22,0.00152160,-0.00033201,0.00061700,0.00069784,0.00187479,0.00094963,
 0.00002556,-0.00096156,-0.00046423,-0.00004487,-0.00015630,-0.00009059
 ,-0.00001400,-0.00028894,0.00011615,0.00000804,-0.00006007,-0.00001075
 ,-0.00003369,-0.00000152,0.00001599,0.00017492,0.00027525,0.00040459,-
 0.00000681,-0.00008904,-0.00003886,0.00002096,-0.00003656,0.00000292,-
 0.00016162,-0.00050259,-0.00029726,0.00088571,0.00200540,-0.00088306,-
 0.00003311,0.00000435,0.00005233,-0.00072350,0.00025314,0.00015136,-0.
 05737435,0.03525654,-0.00403403,0.06001162,0.00157866,0.00113349,-0.00
 074994,-0.00034052,0.00046454,-0.00018254,-0.00004665,0.00016258,0.000
 06963,0.00072054,-0.00648550,0.00248328,0.00015071,0.00052732,-0.00047
 926,-0.00068049,-0.00012969,-0.00048820,-0.00009892,0.00112640,0.00036
 167,-0.00004992,0.00011723,-0.00014405,0.00000582,0.00075831,0.0000366
 0,0.00008822,0.00003604,0.00004289,0.00003277,-0.00002099,-0.00000535,
 -0.00025799,-0.00043028,-0.00045624,-0.00002981,0.00011997,0.00004037,
 -0.00001102,0.00003168,-0.00000109,0.00040830,0.00038645,0.00036729,-0
 .00084808,-0.00056711,0.00014594,0.00007035,-0.00000426,-0.00001732,0.
 00022182,-0.00005854,-0.00004733,0.03665827,-0.26980279,0.04806235,-0.
 03777078,0.30268019,-0.00227631,-0.00007383,0.00072237,-0.00022265,0.0
 0001643,-0.00028812,0.00020606,-0.00028563,0.00014928,0.00073331,0.004
 60721,-0.00053743,-0.00022150,-0.00066288,0.00047367,-0.00033421,0.001
 28979,0.00003572,-0.00049970,-0.00047043,-0.00014415,-0.00004245,0.000
 02313,0.00003264,-0.00000635,-0.00020291,-0.00011487,-0.00003906,0.000
 00598,-0.00002325,0.00000899,0.00000493,0.00000378,0.00010129,0.000076
 47,0.00011926,-0.00000732,-0.00003978,-0.00000679,0.00000657,-0.000016
 14,0.00000180,-0.00016539,-0.00020899,-0.00012787,0.00046089,0.0005862
 2,-0.00014735,-0.00009580,0.00002481,0.00005309,-0.00021723,0.00010250
 ,0.00004683,-0.00602005,0.05007682,-0.05961721,0.01025729,-0.03924111,
 0.06685484,0.00194337,-0.00162545,0.00049054,0.00004646,0.00044135,0.0
 0010678,-0.00013973,0.00061989,-0.00068046,-0.02024979,-0.01076961,0.0
 2572609,-0.00608002,0.00127671,-0.00175835,0.00099682,0.00039391,0.001
 87694,-0.00007403,-0.00012100,-0.00018765,0.00003701,-0.00003828,-0.00
 118768,0.00005688,0.00012903,-0.00040274,-0.00010199,0.00001059,-0.000
 10543,0.00027945,0.00008731,-0.00002622,0.00008561,0.00001750,0.000320
 14,-0.00001111,-0.00001011,-0.00001940,-0.00000291,0.00003868,-0.00005
 766,-0.00002826,0.00042952,-0.00028153,-0.00023749,-0.00034343,-0.0001
 6425,0.00016978,-0.00009782,-0.00008950,-0.00003809,0.00003199,-0.0000
 6901,-0.12543331,-0.03958915,0.10021893,0.00384881,0.00260103,-0.00318
 471,0.13441445,0.00023101,0.00064864,-0.00110222,-0.00008192,0.0001520
 9,-0.00017136,0.00000367,0.00037122,0.00016775,0.00372421,0.00198333,-
 0.00347703,0.00097531,0.00076666,-0.00053911,-0.00009178,0.00000018,0.
 00022076,0.00000793,0.00002858,0.00023961,-0.00026236,0.00026254,-0.00
 025539,0.00003617,-0.00008129,-0.00011021,-0.00004232,-0.00002399,-0.0
 0000542,0.00004207,-0.00001004,-0.00001337,0.00003826,0.00004227,0.000
 03048,-0.00001199,-0.00001290,-0.00000049,0.00000342,0.00000230,0.0000
 0463,-0.00001384,-0.00009466,0.00001753,0.00000055,0.00001042,-0.00005
 705,-0.00002297,-0.00001416,0.00004446,-0.00002555,0.00001268,0.000008
 23,-0.04227071,-0.07762221,0.05929096,-0.01785202,-0.00954008,0.023974
 96,0.04450479,0.07699009,-0.00005630,-0.00014832,0.00039560,-0.0000224
 4,0.00013499,-0.00030418,0.00032420,-0.00039646,0.00025992,-0.00242240
 ,-0.00105702,0.00472764,-0.00181436,0.00009664,0.00039089,0.00031919,0
 .00024172,0.00046788,0.00008917,-0.00011250,0.00000278,-0.00000614,0.0
 0013194,0.00045234,-0.00002453,-0.00007631,0.00045803,0.00008602,0.000
 03067,0.00001560,-0.00013554,-0.00001530,-0.00009109,0.00005057,0.0000
 0647,-0.00003853,0.00000319,-0.00001074,0.00000950,0.00000881,-0.00000
 981,0.00001352,-0.00009570,0.00008653,0.00001907,-0.00001674,-0.000258
 10,0.00014681,-0.00009305,0.00005260,0.00000648,0.00006526,-0.00001483
 ,-0.00000620,0.09799417,0.05715438,-0.18207994,0.00574629,0.00475509,-
 0.00329091,-0.10937051,-0.05498537,0.21418914,0.00082536,-0.00036555,-
 0.00156577,-0.00156372,-0.00000467,-0.00079430,-0.00068072,-0.00016821
 ,-0.00057305,-0.01275347,-0.02273558,-0.03826478,0.00348609,-0.0005390
 2,0.00046980,-0.00853620,0.00277299,-0.00037999,0.00003502,0.00004600,
 0.00041754,-0.00014547,0.00010206,-0.00051090,0.00063901,-0.00123070,-
 0.00227239,-0.00103356,-0.00013657,-0.00025154,-0.00005534,-0.00003683
 ,0.00012217,0.00020442,-0.00054264,-0.00005099,-0.00014174,0.00012544,
 0.00001611,0.00004649,0.00006146,0.00001342,-0.00021362,0.00040270,0.0
 0021327,0.00035151,-0.00059242,-0.00006555,-0.00002068,-0.00001850,0.0
 0012461,-0.00001503,0.00010298,-0.00007020,-0.09759782,-0.02200244,-0.
 04181077,0.00365496,-0.00305923,0.00022217,0.00881134,0.00992452,0.008
 13595,0.61121003,0.00007503,-0.00271209,0.00001365,0.00149719,0.000993
 37,0.00215285,0.00016457,0.00027072,0.00035082,-0.00268488,0.00210393,
 -0.00131543,0.00038742,-0.00003438,0.00036602,0.00023456,0.00016336,0.
 00038452,0.00022501,0.00114440,0.00041502,-0.00009732,0.00001158,-0.00
 029153,0.00044470,0.00055277,-0.00011156,-0.00009380,0.00002763,-0.000
 03902,-0.00002971,0.00000351,0.00001298,-0.00011809,-0.00073090,-0.000
 50413,-0.00008744,0.00018303,0.00005295,0.00000483,0.00007520,-0.00001
 058,0.00096344,0.00073859,0.00045550,-0.00055203,0.00084016,0.00029821
 ,-0.00002416,0.00003379,0.00005097,-0.00021885,0.00010843,-0.00003954,
 0.00268287,-0.11380882,-0.06933204,-0.01172279,-0.02049126,-0.03972536
 ,0.00106977,0.00543474,-0.00513264,-0.03057559,0.14529106,-0.00083837,
 -0.00075619,-0.00018308,-0.00062192,0.00051372,-0.00090657,0.00005816,
 -0.00022204,0.00022568,-0.00927149,-0.00745311,-0.01320400,-0.00043240
 ,0.00028049,0.00120946,-0.00246546,0.00168568,0.00068681,0.00037330,0.
 00022749,0.00028156,0.00003350,0.00003988,0.00062031,0.00085257,-0.000
 47004,-0.00038697,-0.00043328,-0.00005303,-0.00014430,-0.00031409,-0.0
 0005776,0.00003846,0.00016597,-0.00050426,-0.00013339,-0.00016751,0.00
 013771,0.00001525,0.00005689,0.00001435,0.00003888,-0.00036083,0.00048
 855,0.00032103,0.00051703,-0.00048578,-0.00034711,-0.00023077,0.000089
 16,0.00021893,-0.00014232,0.00014575,-0.00000463,-0.00344625,-0.075108
 20,-0.17044421,-0.00418711,-0.01411579,-0.00518429,-0.01103627,-0.0244
 9863,-0.03663139,0.11163121,0.12857870,0.25844244,0.00059170,-0.000324
 45,0.00005340,-0.00017996,-0.00002165,0.00004578,-0.00004742,-0.000004
 70,-0.00003367,0.00031290,-0.00225359,-0.00281176,0.00068292,0.0000806
 1,-0.00000667,-0.00051794,0.00068253,0.00014427,-0.00002259,-0.0001016
 2,0.00001090,-0.00002866,-0.00007120,-0.00015973,0.00008108,-0.0001619
 4,-0.00025877,-0.00008468,0.00001062,0.00002558,0.00000763,-0.00000090
 ,0.00001053,0.00001999,-0.00001495,-0.00003002,0.00001373,0.00000158,0
 .00000187,-0.00000516,0.00000445,0.00000094,0.00005464,0.00003605,0.00
 003851,-0.00008629,-0.00007623,0.00009673,0.00002692,-0.00000506,-0.00
 001631,0.00004212,-0.00002695,-0.00001030,-0.01017495,0.00471972,0.004
 64925,0.00053073,0.00065694,0.00133616,0.00170676,0.00118357,0.0012348
 7,-0.50650686,0.03845526,-0.07974056,0.51358338,0.00049937,-0.00000108
 ,0.00049712,-0.00002659,0.00079750,-0.00035965,0.00022590,0.00005271,0
 .00026273,0.00024550,-0.00292807,-0.00281147,0.00030957,-0.00009396,0.
 00007250,-0.00104550,0.00042794,-0.00036538,-0.00006344,-0.00000947,0.
 00004245,0.00001021,-0.00002352,-0.00000696,0.00003099,-0.00012885,-0.
 00027004,-0.00010127,-0.00000629,-0.00001471,-0.00001130,-0.00000380,0
 .00001362,0.00000363,-0.00003172,-0.00005149,0.00000964,0.00000871,0.0
 0000509,-0.00000971,0.00000492,0.00000066,0.00010356,-0.00000420,0.000
 03855,-0.00021399,0.00002409,0.00010387,-0.00000492,0.00003990,-0.0000
 2197,0.00005669,-0.00004051,0.00001962,-0.02587582,-0.00109193,-0.0061
 1905,-0.00078704,-0.00001372,0.00013782,0.00094281,0.00069360,-0.00047
 364,0.06846980,-0.02019884,-0.00847665,-0.04276808,0.02252660,0.000196
 50,-0.00057820,-0.00010101,0.00004100,0.00018766,0.00002393,-0.0000573
 4,-0.00000086,-0.00006804,-0.00016673,-0.00365309,-0.00583185,0.000133
 46,-0.00019933,0.00029990,-0.00195833,0.00032725,0.00039062,0.00002072
 ,-0.00002830,0.00008514,0.00005159,0.00014267,-0.00006340,0.00004998,-
 0.00035855,-0.00051286,-0.00019977,-0.00001233,-0.00002407,0.00002561,
 -0.00000879,0.00000504,0.00002215,-0.00010779,-0.00007328,0.00001792,0
 .00002171,0.00001117,-0.00000543,0.00002793,-0.00000811,0.00018244,0.0
 0011565,0.00009284,-0.00022131,0.00000626,0.00005638,-0.00000385,0.000
 03363,-0.00000381,0.00003554,-0.00001678,0.00001024,-0.03924058,0.0021
 7526,-0.00979688,0.00053151,-0.00043689,0.00098896,-0.00011805,0.00121
 626,0.00088701,-0.03475603,-0.01663035,-0.03452886,0.07541898,0.017776
 99,0.04816094\\-0.00002899,0.00003772,0.00000141,0.00000784,-0.0000099
 7,0.00000139,0.00000708,-0.00000947,0.00000068,0.00000295,-0.00002056,
 -0.00000778,-0.00000359,-0.00000061,-0.00000221,-0.00000065,0.00000351
 ,0.00001096,0.00000835,-0.00000438,0.00000299,-0.00000170,-0.00000092,
 -0.00000482,-0.00000059,-0.00002504,0.00000075,-0.00000125,0.00000564,
 -0.00000357,0.00000563,0.00000061,-0.00000491,-0.00000747,0.00002109,0
 .00004085,-0.00000444,0.00000395,0.00000121,0.00000714,-0.00000360,-0.
 00000657,-0.00004637,-0.00002789,-0.00004617,0.00006840,0.00003416,0.0
 0001337,-0.00000102,0.00000214,-0.00000095,-0.00001918,-0.00001244,0.0
 0000665,0.00001626,0.00000955,0.00001823,-0.00000246,-0.00000095,-0.00
 000074,-0.00000414,0.00000311,-0.00000327,-0.00000060,-0.00000408,-0.0
 0001967,-0.00000119,-0.00000158,0.00000215\\\@


 Until you make peace with who you are,
 you'll never be content with what you have.
                           -- Doris Mortman
 Job cpu time:       0 days  0 hours 54 minutes 54.3 seconds.
 Elapsed time:       0 days  0 hours 54 minutes 53.9 seconds.
 File lengths (MBytes):  RWF=    202 Int=      0 D2E=      0 Chk=     10 Scr=      1
 Normal termination of Gaussian 16 at Thu Feb 18 01:47:35 2021.
### All Done ###
