### Starting Gaussian ###
 Entering Gaussian System, Link 0=g16
 Initial command:
 /cluster/software/gaussian/gaussian-16-A.03/avx2/g16/l1.exe "/local/scratch/ks29c/Gau-5090.inp" -scrdir="/local/scratch/ks29c/"
 Entering Link 1 = /cluster/software/gaussian/gaussian-16-A.03/avx2/g16/l1.exe PID=      5091.
  
 Copyright (c) 1988,1990,1992,1993,1995,1998,2003,2009,2016,
            Gaussian, Inc.  All Rights Reserved.
  
 This is part of the Gaussian(R) 16 program.  It is based on
 the Gaussian(R) 09 system (copyright 2009, Gaussian, Inc.),
 the Gaussian(R) 03 system (copyright 2003, Gaussian, Inc.),
 the Gaussian(R) 98 system (copyright 1998, Gaussian, Inc.),
 the Gaussian(R) 94 system (copyright 1995, Gaussian, Inc.),
 the Gaussian 92(TM) system (copyright 1992, Gaussian, Inc.),
 the Gaussian 90(TM) system (copyright 1990, Gaussian, Inc.),
 the Gaussian 88(TM) system (copyright 1988, Gaussian, Inc.),
 the Gaussian 86(TM) system (copyright 1986, Carnegie Mellon
 University), and the Gaussian 82(TM) system (copyright 1983,
 Carnegie Mellon University). Gaussian is a federally registered
 trademark of Gaussian, Inc.
  
 This software contains proprietary and confidential information,
 including trade secrets, belonging to Gaussian, Inc.
  
 This software is provided under written license and may be
 used, copied, transmitted, or stored only in accord with that
 written license.
  
 The following legend is applicable only to US Government
 contracts under FAR:
  
                    RESTRICTED RIGHTS LEGEND
  
 Use, reproduction and disclosure by the US Government is
 subject to restrictions as set forth in subparagraphs (a)
 and (c) of the Commercial Computer Software - Restricted
 Rights clause in FAR 52.227-19.
  
 Gaussian, Inc.
 340 Quinnipiac St., Bldg. 40, Wallingford CT 06492
  
  
 ---------------------------------------------------------------
 Warning -- This program may not be used in any manner that
 competes with the business of Gaussian, Inc. or will provide
 assistance to any competitor of Gaussian, Inc.  The licensee
 of this program is prohibited from giving any competitor of
 Gaussian, Inc. access to this program.  By using this program,
 the user acknowledges that Gaussian, Inc. is engaged in the
 business of creating and licensing software in the field of
 computational chemistry and represents and warrants to the
 licensee that it is not a competitor of Gaussian, Inc. and that
 it will not use this program in any manner prohibited above.
 ---------------------------------------------------------------
  

 Cite this work as:
 Gaussian 16, Revision A.03,
 M. J. Frisch, G. W. Trucks, H. B. Schlegel, G. E. Scuseria, 
 M. A. Robb, J. R. Cheeseman, G. Scalmani, V. Barone, 
 G. A. Petersson, H. Nakatsuji, X. Li, M. Caricato, A. V. Marenich, 
 J. Bloino, B. G. Janesko, R. Gomperts, B. Mennucci, H. P. Hratchian, 
 J. V. Ortiz, A. F. Izmaylov, J. L. Sonnenberg, D. Williams-Young, 
 F. Ding, F. Lipparini, F. Egidi, J. Goings, B. Peng, A. Petrone, 
 T. Henderson, D. Ranasinghe, V. G. Zakrzewski, J. Gao, N. Rega, 
 G. Zheng, W. Liang, M. Hada, M. Ehara, K. Toyota, R. Fukuda, 
 J. Hasegawa, M. Ishida, T. Nakajima, Y. Honda, O. Kitao, H. Nakai, 
 T. Vreven, K. Throssell, J. A. Montgomery, Jr., J. E. Peralta, 
 F. Ogliaro, M. J. Bearpark, J. J. Heyd, E. N. Brothers, K. N. Kudin, 
 V. N. Staroverov, T. A. Keith, R. Kobayashi, J. Normand, 
 K. Raghavachari, A. P. Rendell, J. C. Burant, S. S. Iyengar, 
 J. Tomasi, M. Cossi, J. M. Millam, M. Klene, C. Adamo, R. Cammi, 
 J. W. Ochterski, R. L. Martin, K. Morokuma, O. Farkas, 
 J. B. Foresman, and D. J. Fox, Gaussian, Inc., Wallingford CT, 2016.
 
 ******************************************
 Gaussian 16:  ES64L-G16RevA.03 25-Dec-2016
                 3-Jul-2022 
 ******************************************
 %chk=C1C2C3CN1CC1C2C31.chk
 %NProcShared=20
 Will use up to   20 processors via shared memory.
 -----------------------------
 # opt freq b3lyp/6-31g(2df,p)
 -----------------------------
 1/18=20,19=15,26=3,38=1/1,3;
 2/9=110,12=2,17=6,18=5,40=1/2;
 3/5=1,6=6,7=104,11=2,25=1,30=1,71=1,74=-5/1,2,3;
 4//1;
 5/5=2,38=5/2;
 6/7=2,8=2,9=2,10=2,28=1/1;
 7//1,2,3,16;
 1/18=20,19=15,26=3/3(2);
 2/9=110/2;
 99//99;
 2/9=110/2;
 3/5=1,6=6,7=104,11=2,25=1,30=1,71=1,74=-5/1,2,3;
 4/5=5,16=3,69=1/1;
 5/5=2,38=5/2;
 7//1,2,3,16;
 1/18=20,19=15,26=3/3(-5);
 2/9=110/2;
 6/7=2,8=2,9=2,10=2,19=2,28=1/1;
 99/9=1/99;
 -------------------
 Title Card Required
 -------------------
 Symbolic Z-matrix:
 Charge =  0 Multiplicity = 1
 C                    -0.88213   1.35651   0.64244 
 C                    -1.02898  -0.19038   0.9893 
 C                     0.57022  -0.42561   1.13394 
 C                     1.29798   0.84714   0.67306 
 N                     0.31508   1.49678  -0.21003 
 C                     0.14607   0.69737  -1.48201 
 C                     0.07233  -0.81992  -1.27933 
 C                    -0.86855  -1.22706  -0.17907 
 C                     0.56028  -1.36891   0.02116 
 H                    -0.74114   1.8893    1.59833 
 H                    -1.77044   1.81525   0.18965 
 H                    -2.02079  -0.14703   0.49626 
 H                     0.92723  -0.8481    2.07468 
 H                     2.25004   0.65575   0.16516 
 H                     1.51471   1.49332   1.53283 
 H                     0.97162   0.93273  -2.15816 
 H                    -0.77762   1.02105  -1.98123 
 H                     0.32997  -1.41293  -2.1472 
 H                    -1.42166  -2.15226  -0.04148 
 H                     0.93585  -2.36713   0.19687 
 

 GradGradGradGradGradGradGradGradGradGradGradGradGradGradGradGradGradGrad
 Berny optimization.
 Initialization pass.
                           ----------------------------
                           !    Initial Parameters    !
                           ! (Angstroms and Degrees)  !
 --------------------------                            --------------------------
 ! Name  Definition              Value          Derivative Info.                !
 --------------------------------------------------------------------------------
 ! R1    R(1,2)                  1.5921         estimate D2E/DX2                !
 ! R2    R(1,5)                  1.4764         estimate D2E/DX2                !
 ! R3    R(1,10)                 1.1034         estimate D2E/DX2                !
 ! R4    R(1,11)                 1.0975         estimate D2E/DX2                !
 ! R5    R(2,3)                  1.6229         estimate D2E/DX2                !
 ! R6    R(2,8)                  1.5702         estimate D2E/DX2                !
 ! R7    R(2,12)                 1.1084         estimate D2E/DX2                !
 ! R8    R(3,4)                  1.5369         estimate D2E/DX2                !
 ! R9    R(3,9)                  1.4588         estimate D2E/DX2                !
 ! R10   R(3,13)                 1.0913         estimate D2E/DX2                !
 ! R11   R(4,5)                  1.4724         estimate D2E/DX2                !
 ! R12   R(4,14)                 1.0959         estimate D2E/DX2                !
 ! R13   R(4,15)                 1.0971         estimate D2E/DX2                !
 ! R14   R(5,6)                  1.5118         estimate D2E/DX2                !
 ! R15   R(6,7)                  1.5325         estimate D2E/DX2                !
 ! R16   R(6,16)                 1.0928         estimate D2E/DX2                !
 ! R17   R(6,17)                 1.0987         estimate D2E/DX2                !
 ! R18   R(7,8)                  1.5039         estimate D2E/DX2                !
 ! R19   R(7,9)                  1.4936         estimate D2E/DX2                !
 ! R20   R(7,18)                 1.0822         estimate D2E/DX2                !
 ! R21   R(8,9)                  1.4497         estimate D2E/DX2                !
 ! R22   R(8,19)                 1.0867         estimate D2E/DX2                !
 ! R23   R(9,20)                 1.0809         estimate D2E/DX2                !
 ! A1    A(2,1,5)              107.032          estimate D2E/DX2                !
 ! A2    A(2,1,10)             106.9899         estimate D2E/DX2                !
 ! A3    A(2,1,11)             114.9191         estimate D2E/DX2                !
 ! A4    A(5,1,10)             110.5317         estimate D2E/DX2                !
 ! A5    A(5,1,11)             112.2351         estimate D2E/DX2                !
 ! A6    A(10,1,11)            105.0108         estimate D2E/DX2                !
 ! A7    A(1,2,3)               93.9771         estimate D2E/DX2                !
 ! A8    A(1,2,8)              118.0306         estimate D2E/DX2                !
 ! A9    A(1,2,12)              86.9978         estimate D2E/DX2                !
 ! A10   A(3,2,8)               82.5269         estimate D2E/DX2                !
 ! A11   A(3,2,12)             157.9777         estimate D2E/DX2                !
 ! A12   A(8,2,12)              77.6589         estimate D2E/DX2                !
 ! A13   A(2,3,4)              108.6548         estimate D2E/DX2                !
 ! A14   A(2,3,9)               91.0902         estimate D2E/DX2                !
 ! A15   A(2,3,13)             117.0852         estimate D2E/DX2                !
 ! A16   A(4,3,9)              108.0575         estimate D2E/DX2                !
 ! A17   A(4,3,13)             115.1006         estimate D2E/DX2                !
 ! A18   A(9,3,13)             114.17           estimate D2E/DX2                !
 ! A19   A(3,4,5)              103.2464         estimate D2E/DX2                !
 ! A20   A(3,4,14)             113.9372         estimate D2E/DX2                !
 ! A21   A(3,4,15)             110.2607         estimate D2E/DX2                !
 ! A22   A(5,4,14)             112.273          estimate D2E/DX2                !
 ! A23   A(5,4,15)             109.9993         estimate D2E/DX2                !
 ! A24   A(14,4,15)            107.1232         estimate D2E/DX2                !
 ! A25   A(1,5,4)               98.8064         estimate D2E/DX2                !
 ! A26   A(1,5,6)              110.1767         estimate D2E/DX2                !
 ! A27   A(4,5,6)              110.2394         estimate D2E/DX2                !
 ! A28   A(5,6,7)              114.6847         estimate D2E/DX2                !
 ! A29   A(5,6,16)             108.7994         estimate D2E/DX2                !
 ! A30   A(5,6,17)             108.6928         estimate D2E/DX2                !
 ! A31   A(7,6,16)             109.3551         estimate D2E/DX2                !
 ! A32   A(7,6,17)             108.1378         estimate D2E/DX2                !
 ! A33   A(16,6,17)            106.8899         estimate D2E/DX2                !
 ! A34   A(6,7,8)              113.2596         estimate D2E/DX2                !
 ! A35   A(6,7,9)              117.6031         estimate D2E/DX2                !
 ! A36   A(6,7,18)             115.1497         estimate D2E/DX2                !
 ! A37   A(8,7,18)             125.9658         estimate D2E/DX2                !
 ! A38   A(9,7,18)             114.7759         estimate D2E/DX2                !
 ! A39   A(2,8,7)              115.4406         estimate D2E/DX2                !
 ! A40   A(2,8,9)               93.5849         estimate D2E/DX2                !
 ! A41   A(2,8,19)             114.5759         estimate D2E/DX2                !
 ! A42   A(7,8,19)             129.9102         estimate D2E/DX2                !
 ! A43   A(9,8,19)             113.6318         estimate D2E/DX2                !
 ! A44   A(3,9,7)              115.387          estimate D2E/DX2                !
 ! A45   A(3,9,8)               92.7971         estimate D2E/DX2                !
 ! A46   A(3,9,20)             118.085          estimate D2E/DX2                !
 ! A47   A(7,9,20)             126.4774         estimate D2E/DX2                !
 ! A48   A(8,9,20)             117.0813         estimate D2E/DX2                !
 ! D1    D(5,1,2,3)             37.7524         estimate D2E/DX2                !
 ! D2    D(5,1,2,8)            -45.8928         estimate D2E/DX2                !
 ! D3    D(5,1,2,12)          -120.2053         estimate D2E/DX2                !
 ! D4    D(10,1,2,3)           -80.7471         estimate D2E/DX2                !
 ! D5    D(10,1,2,8)          -164.3923         estimate D2E/DX2                !
 ! D6    D(10,1,2,12)          121.2952         estimate D2E/DX2                !
 ! D7    D(11,1,2,3)           163.1126         estimate D2E/DX2                !
 ! D8    D(11,1,2,8)            79.4674         estimate D2E/DX2                !
 ! D9    D(11,1,2,12)            5.1549         estimate D2E/DX2                !
 ! D10   D(2,1,5,4)            -54.9507         estimate D2E/DX2                !
 ! D11   D(2,1,5,6)             60.5096         estimate D2E/DX2                !
 ! D12   D(10,1,5,4)            61.2212         estimate D2E/DX2                !
 ! D13   D(10,1,5,6)           176.6815         estimate D2E/DX2                !
 ! D14   D(11,1,5,4)           178.0863         estimate D2E/DX2                !
 ! D15   D(11,1,5,6)           -66.4534         estimate D2E/DX2                !
 ! D16   D(1,2,3,4)             -8.0636         estimate D2E/DX2                !
 ! D17   D(1,2,3,9)           -117.5536         estimate D2E/DX2                !
 ! D18   D(1,2,3,13)           124.4319         estimate D2E/DX2                !
 ! D19   D(8,2,3,4)            109.7109         estimate D2E/DX2                !
 ! D20   D(8,2,3,9)              0.2209         estimate D2E/DX2                !
 ! D21   D(8,2,3,13)          -117.7936         estimate D2E/DX2                !
 ! D22   D(12,2,3,4)            83.7631         estimate D2E/DX2                !
 ! D23   D(12,2,3,9)           -25.7269         estimate D2E/DX2                !
 ! D24   D(12,2,3,13)         -143.7415         estimate D2E/DX2                !
 ! D25   D(1,2,8,7)             31.1708         estimate D2E/DX2                !
 ! D26   D(1,2,8,9)             90.3165         estimate D2E/DX2                !
 ! D27   D(1,2,8,19)          -151.6295         estimate D2E/DX2                !
 ! D28   D(3,2,8,7)            -59.3684         estimate D2E/DX2                !
 ! D29   D(3,2,8,9)             -0.2227         estimate D2E/DX2                !
 ! D30   D(3,2,8,19)           117.8313         estimate D2E/DX2                !
 ! D31   D(12,2,8,7)           110.963          estimate D2E/DX2                !
 ! D32   D(12,2,8,9)           170.1087         estimate D2E/DX2                !
 ! D33   D(12,2,8,19)          -71.8373         estimate D2E/DX2                !
 ! D34   D(2,3,4,5)            -23.0677         estimate D2E/DX2                !
 ! D35   D(2,3,4,14)          -145.1083         estimate D2E/DX2                !
 ! D36   D(2,3,4,15)            94.4114         estimate D2E/DX2                !
 ! D37   D(9,3,4,5)             74.4707         estimate D2E/DX2                !
 ! D38   D(9,3,4,14)           -47.57           estimate D2E/DX2                !
 ! D39   D(9,3,4,15)          -168.0503         estimate D2E/DX2                !
 ! D40   D(13,3,4,5)          -156.6049         estimate D2E/DX2                !
 ! D41   D(13,3,4,14)           81.3545         estimate D2E/DX2                !
 ! D42   D(13,3,4,15)          -39.1259         estimate D2E/DX2                !
 ! D43   D(2,3,9,7)             59.3135         estimate D2E/DX2                !
 ! D44   D(2,3,9,8)             -0.2376         estimate D2E/DX2                !
 ! D45   D(2,3,9,20)          -123.1053         estimate D2E/DX2                !
 ! D46   D(4,3,9,7)            -50.7281         estimate D2E/DX2                !
 ! D47   D(4,3,9,8)           -110.2791         estimate D2E/DX2                !
 ! D48   D(4,3,9,20)           126.8531         estimate D2E/DX2                !
 ! D49   D(13,3,9,7)           179.824          estimate D2E/DX2                !
 ! D50   D(13,3,9,8)           120.2729         estimate D2E/DX2                !
 ! D51   D(13,3,9,20)           -2.5948         estimate D2E/DX2                !
 ! D52   D(3,4,5,1)             45.7753         estimate D2E/DX2                !
 ! D53   D(3,4,5,6)            -69.6365         estimate D2E/DX2                !
 ! D54   D(14,4,5,1)           168.9263         estimate D2E/DX2                !
 ! D55   D(14,4,5,6)            53.5145         estimate D2E/DX2                !
 ! D56   D(15,4,5,1)           -71.8873         estimate D2E/DX2                !
 ! D57   D(15,4,5,6)           172.701          estimate D2E/DX2                !
 ! D58   D(1,5,6,7)            -65.5138         estimate D2E/DX2                !
 ! D59   D(1,5,6,16)           171.682          estimate D2E/DX2                !
 ! D60   D(1,5,6,17)            55.6309         estimate D2E/DX2                !
 ! D61   D(4,5,6,7)             42.5049         estimate D2E/DX2                !
 ! D62   D(4,5,6,16)           -80.2993         estimate D2E/DX2                !
 ! D63   D(4,5,6,17)           163.6496         estimate D2E/DX2                !
 ! D64   D(5,6,7,8)             47.1809         estimate D2E/DX2                !
 ! D65   D(5,6,7,9)            -17.4219         estimate D2E/DX2                !
 ! D66   D(5,6,7,18)          -157.5875         estimate D2E/DX2                !
 ! D67   D(16,6,7,8)           169.6853         estimate D2E/DX2                !
 ! D68   D(16,6,7,9)           105.0825         estimate D2E/DX2                !
 ! D69   D(16,6,7,18)          -35.0831         estimate D2E/DX2                !
 ! D70   D(17,6,7,8)           -74.2677         estimate D2E/DX2                !
 ! D71   D(17,6,7,9)          -138.8705         estimate D2E/DX2                !
 ! D72   D(17,6,7,18)           80.964          estimate D2E/DX2                !
 ! D73   D(6,7,8,2)            -29.7951         estimate D2E/DX2                !
 ! D74   D(6,7,8,19)           153.5255         estimate D2E/DX2                !
 ! D75   D(18,7,8,2)           178.1455         estimate D2E/DX2                !
 ! D76   D(18,7,8,19)            1.4661         estimate D2E/DX2                !
 ! D77   D(6,7,9,3)             22.7575         estimate D2E/DX2                !
 ! D78   D(6,7,9,20)          -154.5884         estimate D2E/DX2                !
 ! D79   D(18,7,9,3)           163.0679         estimate D2E/DX2                !
 ! D80   D(18,7,9,20)          -14.278          estimate D2E/DX2                !
 ! D81   D(2,8,9,3)              0.246          estimate D2E/DX2                !
 ! D82   D(2,8,9,20)           123.913          estimate D2E/DX2                !
 ! D83   D(19,8,9,3)          -118.5878         estimate D2E/DX2                !
 ! D84   D(19,8,9,20)            5.0792         estimate D2E/DX2                !
 --------------------------------------------------------------------------------
 Trust Radius=3.00D-01 FncErr=1.00D-07 GrdErr=1.00D-06 EigMax=2.50D+02 EigMin=1.00D-04
 Number of steps in this run=    120 maximum allowed number of steps=    120.
 GradGradGradGradGradGradGradGradGradGradGradGradGradGradGradGradGradGrad

                          Input orientation:                          
 ---------------------------------------------------------------------
 Center     Atomic      Atomic             Coordinates (Angstroms)
 Number     Number       Type             X           Y           Z
 ---------------------------------------------------------------------
      1          6           0       -0.882130    1.356510    0.642440
      2          6           0       -1.028980   -0.190380    0.989300
      3          6           0        0.570220   -0.425610    1.133940
      4          6           0        1.297980    0.847140    0.673060
      5          7           0        0.315080    1.496780   -0.210030
      6          6           0        0.146070    0.697370   -1.482010
      7          6           0        0.072330   -0.819920   -1.279330
      8          6           0       -0.868550   -1.227060   -0.179070
      9          6           0        0.560280   -1.368910    0.021160
     10          1           0       -0.741140    1.889300    1.598330
     11          1           0       -1.770440    1.815250    0.189650
     12          1           0       -2.020790   -0.147030    0.496260
     13          1           0        0.927230   -0.848100    2.074680
     14          1           0        2.250040    0.655750    0.165160
     15          1           0        1.514710    1.493320    1.532830
     16          1           0        0.971620    0.932730   -2.158160
     17          1           0       -0.777620    1.021050   -1.981230
     18          1           0        0.329970   -1.412930   -2.147200
     19          1           0       -1.421660   -2.152260   -0.041480
     20          1           0        0.935850   -2.367130    0.196870
 ---------------------------------------------------------------------
                    Distance matrix (angstroms):
                    1          2          3          4          5
     1  C    0.000000
     2  C    1.592088   0.000000
     3  C    2.350924   1.622866   0.000000
     4  C    2.239034   2.567333   1.536860   0.000000
     5  N    1.476378   2.468076   2.359435   1.472404   0.000000
     6  C    2.450500   2.876841   2.878225   2.448194   1.511805
     7  C    3.056312   2.599209   2.495445   2.844843   2.563090
     8  C    2.711069   1.570201   2.106271   3.118058   2.970058
     9  C    3.145544   2.202720   1.458833   2.424882   2.885438
    10  H    1.103390   2.186055   2.700765   2.469865   2.130690
    11  H    1.097523   2.282927   3.375178   3.253632   2.147222
    12  H    1.891705   1.108447   2.682830   3.468986   2.942320
    13  H    3.191457   2.331824   1.091305   2.230657   3.330629
    14  H    3.244896   3.485271   2.220286   1.095906   2.142935
    15  H    2.560538   3.098488   2.175653   1.097144   2.115818
    16  H    3.385165   3.894904   3.583871   2.851253   2.131762
    17  H    2.647093   3.217886   3.689686   3.373961   2.134821
    18  H    4.113524   3.630290   3.434880   3.741501   3.495606
    19  H    3.615288   2.250706   2.886264   4.111376   4.044770
    20  H    4.167623   3.037555   2.186615   3.269469   3.934555
                    6          7          8          9         10
     6  C    0.000000
     7  C    1.532542   0.000000
     8  C    2.535850   1.503858   0.000000
     9  C    2.588552   1.493573   1.449748   0.000000
    10  H    3.419990   4.035162   3.589858   3.846699   0.000000
    11  H    2.777969   3.535226   3.194528   3.949623   1.746231
    12  H    3.053170   2.826067   1.717612   2.894932   2.645506
    13  H    3.955848   3.461363   2.906514   2.150079   3.240945
    14  H    2.672376   3.001095   3.659108   2.641074   3.538754
    15  H    3.405286   3.916604   4.001374   3.374677   2.291277
    16  H    1.092752   2.157046   3.459439   3.196276   4.237899
    17  H    1.098723   2.145751   2.882715   3.392853   3.683536
    18  H    2.220284   1.082237   2.311825   2.181001   5.106956
    19  H    3.557147   2.353595   1.086672   2.132052   4.414328
    20  H    3.582395   2.306229   2.167245   1.080912   4.784724
                   11         12         13         14         15
    11  H    0.000000
    12  H    2.001806   0.000000
    13  H    4.233698   3.416684   0.000000
    14  H    4.184411   4.358219   2.767247   0.000000
    15  H    3.563703   4.032987   2.474062   1.764300   0.000000
    16  H    3.716174   4.143229   4.592413   2.666250   3.772614
    17  H    2.515783   3.007963   4.780234   3.729230   4.222136
    18  H    4.504857   3.757187   4.301165   3.648714   4.836581
    19  H    3.989512   2.160803   3.419978   4.626986   4.938722
    20  H    4.981602   3.709474   2.415305   3.296347   4.125887
                   16         17         18         19         20
    16  H    0.000000
    17  H    1.760382   0.000000
    18  H    2.431863   2.679284   0.000000
    19  H    4.441316   3.774561   2.837054   0.000000
    20  H    4.054198   4.377198   2.602355   2.379251   0.000000
 Stoichiometry    C8H11N
 Framework group  C1[X(C8H11N)]
 Deg. of freedom    54
 Full point group                 C1      NOp   1
 Largest Abelian subgroup         C1      NOp   1
 Largest concise Abelian subgroup C1      NOp   1
                         Standard orientation:                         
 ---------------------------------------------------------------------
 Center     Atomic      Atomic             Coordinates (Angstroms)
 Number     Number       Type             X           Y           Z
 ---------------------------------------------------------------------
      1          6           0       -1.320917   -0.361989   -0.992719
      2          6           0        0.075154   -1.123570   -0.917058
      3          6           0        0.115075   -1.124516    0.705317
      4          6           0       -1.039730   -0.254301    1.225977
      5          7           0       -1.326363    0.639784    0.091769
      6          6           0       -0.192846    1.621647   -0.099639
      7          6           0        1.208400    1.014889    0.030904
      8          6           0        1.376921   -0.262703   -0.744304
      9          6           0        1.327510   -0.313226    0.703720
     10          1           0       -2.109025   -1.116198   -0.826819
     11          1           0       -1.553237    0.081834   -1.969245
     12          1           0        0.260625   -0.764768   -1.949297
     13          1           0        0.225126   -2.091485    1.199083
     14          1           0       -0.801655    0.299220    2.141371
     15          1           0       -1.916395   -0.876993    1.443781
     16          1           0       -0.304610    2.433743    0.622935
     17          1           0       -0.279895    2.069480   -1.099170
     18          1           0        1.993522    1.718773    0.274563
     19          1           0        2.273475   -0.709589   -1.165422
     20          1           0        2.199204   -0.699893    1.212649
 ---------------------------------------------------------------------
 Rotational constants (GHZ):           2.7242867           2.2340061           2.0050065
 Standard basis: 6-31G(2df,p) (6D, 7F)
 There are   334 symmetry adapted cartesian basis functions of A   symmetry.
 There are   307 symmetry adapted basis functions of A   symmetry.
   307 basis functions,   473 primitive gaussians,   334 cartesian basis functions
    33 alpha electrons       33 beta electrons
       nuclear repulsion energy       480.7255244691 Hartrees.
 NAtoms=   20 NActive=   20 NUniq=   20 SFac= 1.00D+00 NAtFMM=   60 NAOKFM=F Big=F
 Integral buffers will be    131072 words long.
 Raffenetti 2 integral format.
 Two-electron integral symmetry is turned on.
 One-electron integrals computed using PRISM.
 PrsmSu:  requested number of processors reduced to:  13 ShMem   1 Linda.
 NBasis=   307 RedAO= T EigKep=  2.97D-04  NBF=   307
 NBsUse=   307 1.00D-06 EigRej= -1.00D+00 NBFU=   307
 ExpMin= 1.61D-01 ExpMax= 4.17D+03 ExpMxC= 6.27D+02 IAcc=3 IRadAn=         5 AccDes= 0.00D+00
 Harris functional with IExCor=  402 and IRadAn=       5 diagonalized for initial guess.
 HarFok:  IExCor=  402 AccDes= 0.00D+00 IRadAn=         5 IDoV= 1 UseB2=F ITyADJ=14
 ICtDFT=  3500011 ScaDFX=  1.000000  1.000000  1.000000  1.000000
 FoFCou: FMM=F IPFlag=           0 FMFlag=      100000 FMFlg1=           0
         NFxFlg=           0 DoJE=T BraDBF=F KetDBF=T FulRan=T
         wScrn=  0.000000 ICntrl=       500 IOpCl=  0 I1Cent=   200000004 NGrid=           0
         NMat0=    1 NMatS0=      1 NMatT0=    0 NMatD0=    1 NMtDS0=    0 NMtDT0=    0
 Petite list used in FoFCou.
 Requested convergence on RMS density matrix=1.00D-08 within 128 cycles.
 Requested convergence on MAX density matrix=1.00D-06.
 Requested convergence on             energy=1.00D-06.
 No special actions if energy rises.
 Integral accuracy reduced to 1.0D-05 until final iterations.
 Initial convergence to 1.0D-05 achieved.  Increase integral accuracy.
 SCF Done:  E(RB3LYP) =  -365.990505478     A.U. after   13 cycles
            NFock= 13  Conv=0.32D-08     -V/T= 2.0073

 **********************************************************************

            Population analysis using the SCF density.

 **********************************************************************

 Orbital symmetries:
       Occupied  (A) (A) (A) (A) (A) (A) (A) (A) (A) (A) (A) (A)
                 (A) (A) (A) (A) (A) (A) (A) (A) (A) (A) (A) (A)
                 (A) (A) (A) (A) (A) (A) (A) (A) (A)
       Virtual   (A) (A) (A) (A) (A) (A) (A) (A) (A) (A) (A) (A)
                 (A) (A) (A) (A) (A) (A) (A) (A) (A) (A) (A) (A)
                 (A) (A) (A) (A) (A) (A) (A) (A) (A) (A) (A) (A)
                 (A) (A) (A) (A) (A) (A) (A) (A) (A) (A) (A) (A)
                 (A) (A) (A) (A) (A) (A) (A) (A) (A) (A) (A) (A)
                 (A) (A) (A) (A) (A) (A) (A) (A) (A) (A) (A) (A)
                 (A) (A) (A) (A) (A) (A) (A) (A) (A) (A) (A) (A)
                 (A) (A) (A) (A) (A) (A) (A) (A) (A) (A) (A) (A)
                 (A) (A) (A) (A) (A) (A) (A) (A) (A) (A) (A) (A)
                 (A) (A) (A) (A) (A) (A) (A) (A) (A) (A) (A) (A)
                 (A) (A) (A) (A) (A) (A) (A) (A) (A) (A) (A) (A)
                 (A) (A) (A) (A) (A) (A) (A) (A) (A) (A) (A) (A)
                 (A) (A) (A) (A) (A) (A) (A) (A) (A) (A) (A) (A)
                 (A) (A) (A) (A) (A) (A) (A) (A) (A) (A) (A) (A)
                 (A) (A) (A) (A) (A) (A) (A) (A) (A) (A) (A) (A)
                 (A) (A) (A) (A) (A) (A) (A) (A) (A) (A) (A) (A)
                 (A) (A) (A) (A) (A) (A) (A) (A) (A) (A) (A) (A)
                 (A) (A) (A) (A) (A) (A) (A) (A) (A) (A) (A) (A)
                 (A) (A) (A) (A) (A) (A) (A) (A) (A) (A) (A) (A)
                 (A) (A) (A) (A) (A) (A) (A) (A) (A) (A) (A) (A)
                 (A) (A) (A) (A) (A) (A) (A) (A) (A) (A) (A) (A)
                 (A) (A) (A) (A) (A) (A) (A) (A) (A) (A) (A) (A)
                 (A) (A) (A) (A) (A) (A) (A) (A) (A) (A)
 The electronic state is 1-A.
 Alpha  occ. eigenvalues --  -14.31467 -10.20689 -10.20617 -10.19980 -10.19878
 Alpha  occ. eigenvalues --  -10.19819 -10.18215 -10.17182 -10.16676  -0.95091
 Alpha  occ. eigenvalues --   -0.87797  -0.76875  -0.73179  -0.66359  -0.62407
 Alpha  occ. eigenvalues --   -0.62362  -0.54736  -0.51765  -0.50187  -0.47578
 Alpha  occ. eigenvalues --   -0.44580  -0.43455  -0.43052  -0.40348  -0.38550
 Alpha  occ. eigenvalues --   -0.36806  -0.34959  -0.34429  -0.30316  -0.29523
 Alpha  occ. eigenvalues --   -0.25367  -0.22783  -0.18478
 Alpha virt. eigenvalues --   -0.00354   0.08875   0.09920   0.11265   0.13102
 Alpha virt. eigenvalues --    0.13902   0.14118   0.15437   0.15531   0.16816
 Alpha virt. eigenvalues --    0.18199   0.18688   0.19790   0.21382   0.21408
 Alpha virt. eigenvalues --    0.23096   0.25002   0.26123   0.26570   0.28435
 Alpha virt. eigenvalues --    0.31351   0.32873   0.35235   0.43660   0.44298
 Alpha virt. eigenvalues --    0.47011   0.47417   0.48641   0.50167   0.50838
 Alpha virt. eigenvalues --    0.52392   0.53075   0.53222   0.56868   0.58391
 Alpha virt. eigenvalues --    0.58887   0.59733   0.60919   0.63278   0.63469
 Alpha virt. eigenvalues --    0.63940   0.67243   0.69250   0.70169   0.71905
 Alpha virt. eigenvalues --    0.72732   0.73686   0.74420   0.75306   0.75629
 Alpha virt. eigenvalues --    0.76997   0.78711   0.80164   0.80723   0.82767
 Alpha virt. eigenvalues --    0.83138   0.83933   0.85536   0.89754   0.92046
 Alpha virt. eigenvalues --    0.93892   0.95363   1.02392   1.02590   1.06331
 Alpha virt. eigenvalues --    1.09270   1.10240   1.12986   1.17094   1.20283
 Alpha virt. eigenvalues --    1.23385   1.26909   1.28889   1.29960   1.33986
 Alpha virt. eigenvalues --    1.34534   1.35852   1.37411   1.38193   1.42887
 Alpha virt. eigenvalues --    1.43909   1.45801   1.46937   1.48339   1.49896
 Alpha virt. eigenvalues --    1.51074   1.52572   1.53834   1.55988   1.58579
 Alpha virt. eigenvalues --    1.59560   1.60397   1.62361   1.62834   1.65059
 Alpha virt. eigenvalues --    1.66396   1.68212   1.68710   1.71022   1.71696
 Alpha virt. eigenvalues --    1.74397   1.79193   1.80323   1.84959   1.88291
 Alpha virt. eigenvalues --    1.92209   1.92865   1.94397   1.98919   2.00607
 Alpha virt. eigenvalues --    2.03518   2.08402   2.09738   2.12256   2.16591
 Alpha virt. eigenvalues --    2.24909   2.26820   2.28334   2.31354   2.36231
 Alpha virt. eigenvalues --    2.37363   2.38933   2.41105   2.41779   2.43408
 Alpha virt. eigenvalues --    2.47154   2.47833   2.52827   2.55634   2.56809
 Alpha virt. eigenvalues --    2.61226   2.64288   2.68989   2.71743   2.74106
 Alpha virt. eigenvalues --    2.75248   2.76419   2.78829   2.81894   2.83085
 Alpha virt. eigenvalues --    2.86609   2.89200   2.90533   2.92417   2.92471
 Alpha virt. eigenvalues --    2.94950   2.97472   2.97971   3.00643   3.01877
 Alpha virt. eigenvalues --    3.04534   3.08540   3.10524   3.11791   3.13974
 Alpha virt. eigenvalues --    3.17354   3.18653   3.20114   3.23261   3.25700
 Alpha virt. eigenvalues --    3.27495   3.27653   3.30524   3.32122   3.33872
 Alpha virt. eigenvalues --    3.36813   3.38574   3.41328   3.42205   3.46419
 Alpha virt. eigenvalues --    3.47147   3.48195   3.51194   3.52198   3.56653
 Alpha virt. eigenvalues --    3.59944   3.61567   3.62393   3.64248   3.68571
 Alpha virt. eigenvalues --    3.69340   3.72870   3.74447   3.77458   3.79499
 Alpha virt. eigenvalues --    3.83671   3.86223   3.89352   3.93700   3.96280
 Alpha virt. eigenvalues --    4.02581   4.05517   4.06613   4.08646   4.09439
 Alpha virt. eigenvalues --    4.16872   4.19335   4.26809   4.31016   4.34749
 Alpha virt. eigenvalues --    4.35565   4.36566   4.39126   4.43040   4.43203
 Alpha virt. eigenvalues --    4.45180   4.47152   4.48970   4.51077   4.53023
 Alpha virt. eigenvalues --    4.54273   4.56514   4.58615   4.60563   4.61972
 Alpha virt. eigenvalues --    4.64631   4.65852   4.67271   4.70104   4.70552
 Alpha virt. eigenvalues --    4.71457   4.74359   4.76057   4.78274   4.80990
 Alpha virt. eigenvalues --    4.82778   4.83638   4.86918   4.88883   4.89933
 Alpha virt. eigenvalues --    4.93100   4.95508   4.97904   5.00642   5.02022
 Alpha virt. eigenvalues --    5.04192   5.06244   5.07289   5.12702   5.14192
 Alpha virt. eigenvalues --    5.15602   5.18792   5.22724   5.25942   5.29204
 Alpha virt. eigenvalues --    5.31714   5.33216   5.36772   5.39946   5.41502
 Alpha virt. eigenvalues --    5.42863   5.48332   5.50864   5.54389   5.57908
 Alpha virt. eigenvalues --    5.60040   5.62887   5.64794   5.65054   5.74959
 Alpha virt. eigenvalues --    6.23495   6.31113   6.64483   7.18108  10.72167
 Alpha virt. eigenvalues --   11.21936  11.53080  11.77759  11.83771  12.32498
 Alpha virt. eigenvalues --   12.43638  12.63146  13.06960  16.58532
          Condensed to atoms (all electrons):
               1          2          3          4          5          6
     1  C    5.016201   0.338464  -0.067046  -0.091686   0.387740  -0.054959
     2  C    0.338464   5.247454   0.371351  -0.045578  -0.095481  -0.027346
     3  C   -0.067046   0.371351   4.931423   0.348204  -0.047551  -0.013624
     4  C   -0.091686  -0.045578   0.348204   4.974797   0.401678  -0.056865
     5  N    0.387740  -0.095481  -0.047551   0.401678   6.231635   0.396141
     6  C   -0.054959  -0.027346  -0.013624  -0.056865   0.396141   4.909996
     7  C   -0.011615  -0.019782   0.028765  -0.025864  -0.027991   0.355405
     8  C   -0.019628   0.333653  -0.115319  -0.002229  -0.014524   0.001928
     9  C   -0.002246  -0.069455   0.419684  -0.016747  -0.012728  -0.008890
    10  H    0.368633  -0.030616  -0.011343  -0.000526  -0.025923   0.003892
    11  H    0.354221  -0.044428   0.006490   0.006578  -0.023319  -0.001245
    12  H   -0.034043   0.327334  -0.002351   0.003237   0.008410  -0.001188
    13  H    0.004740  -0.032555   0.353081  -0.043646   0.003299   0.000106
    14  H    0.006986   0.002585  -0.031030   0.365609  -0.020151  -0.003315
    15  H   -0.001088  -0.004781  -0.038453   0.359585  -0.026019   0.004080
    16  H    0.003490   0.000725  -0.000795  -0.001523  -0.024259   0.367453
    17  H   -0.001603  -0.000862   0.001021   0.004862  -0.026115   0.362462
    18  H    0.000092   0.004088   0.001893  -0.000054   0.003033  -0.044245
    19  H    0.003346  -0.041673   0.005830  -0.000367  -0.000322   0.002016
    20  H   -0.000408   0.011911  -0.052508   0.003564  -0.000386   0.003187
               7          8          9         10         11         12
     1  C   -0.011615  -0.019628  -0.002246   0.368633   0.354221  -0.034043
     2  C   -0.019782   0.333653  -0.069455  -0.030616  -0.044428   0.327334
     3  C    0.028765  -0.115319   0.419684  -0.011343   0.006490  -0.002351
     4  C   -0.025864  -0.002229  -0.016747  -0.000526   0.006578   0.003237
     5  N   -0.027991  -0.014524  -0.012728  -0.025923  -0.023319   0.008410
     6  C    0.355405   0.001928  -0.008890   0.003892  -0.001245  -0.001188
     7  C    4.913100   0.314321   0.344892   0.000474  -0.000695   0.010701
     8  C    0.314321   5.005056   0.290501   0.002589  -0.001062  -0.061035
     9  C    0.344892   0.290501   4.797263   0.000065  -0.000001   0.004476
    10  H    0.000474   0.002589   0.000065   0.613654  -0.038366  -0.001348
    11  H   -0.000695  -0.001062  -0.000001  -0.038366   0.650060   0.000317
    12  H    0.010701  -0.061035   0.004476  -0.001348   0.000317   0.542054
    13  H    0.004388   0.011397  -0.045273   0.000535  -0.000148  -0.000549
    14  H   -0.000540   0.000765  -0.003428   0.000076  -0.000277  -0.000133
    15  H    0.000905  -0.000582   0.003919   0.003941   0.000190   0.000008
    16  H   -0.046455   0.002694  -0.000502  -0.000169   0.000136   0.000039
    17  H   -0.039305  -0.004231   0.001063   0.000101   0.004031  -0.000295
    18  H    0.371912  -0.028551  -0.032151   0.000017  -0.000043  -0.000329
    19  H   -0.033654   0.383756  -0.035655  -0.000131   0.000029  -0.008574
    20  H   -0.045424  -0.029310   0.378412   0.000007   0.000016  -0.000593
              13         14         15         16         17         18
     1  C    0.004740   0.006986  -0.001088   0.003490  -0.001603   0.000092
     2  C   -0.032555   0.002585  -0.004781   0.000725  -0.000862   0.004088
     3  C    0.353081  -0.031030  -0.038453  -0.000795   0.001021   0.001893
     4  C   -0.043646   0.365609   0.359585  -0.001523   0.004862  -0.000054
     5  N    0.003299  -0.020151  -0.026019  -0.024259  -0.026115   0.003033
     6  C    0.000106  -0.003315   0.004080   0.367453   0.362462  -0.044245
     7  C    0.004388  -0.000540   0.000905  -0.046455  -0.039305   0.371912
     8  C    0.011397   0.000765  -0.000582   0.002694  -0.004231  -0.028551
     9  C   -0.045273  -0.003428   0.003919  -0.000502   0.001063  -0.032151
    10  H    0.000535   0.000076   0.003941  -0.000169   0.000101   0.000017
    11  H   -0.000148  -0.000277   0.000190   0.000136   0.004031  -0.000043
    12  H   -0.000549  -0.000133   0.000008   0.000039  -0.000295  -0.000329
    13  H    0.679425   0.003211  -0.002675  -0.000004   0.000036  -0.000020
    14  H    0.003211   0.607600  -0.039527   0.003292   0.000054  -0.000265
    15  H   -0.002675  -0.039527   0.644025   0.000063  -0.000144   0.000015
    16  H   -0.000004   0.003292   0.000063   0.633461  -0.037111  -0.002753
    17  H    0.000036   0.000054  -0.000144  -0.037111   0.628723   0.001993
    18  H   -0.000020  -0.000265   0.000015  -0.002753   0.001993   0.643173
    19  H   -0.000451   0.000002   0.000022  -0.000103   0.000251  -0.004444
    20  H   -0.009536   0.000526  -0.000260   0.000074  -0.000119  -0.005239
              19         20
     1  C    0.003346  -0.000408
     2  C   -0.041673   0.011911
     3  C    0.005830  -0.052508
     4  C   -0.000367   0.003564
     5  N   -0.000322  -0.000386
     6  C    0.002016   0.003187
     7  C   -0.033654  -0.045424
     8  C    0.383756  -0.029310
     9  C   -0.035655   0.378412
    10  H   -0.000131   0.000007
    11  H    0.000029   0.000016
    12  H   -0.008574  -0.000593
    13  H   -0.000451  -0.009536
    14  H    0.000002   0.000526
    15  H    0.000022  -0.000260
    16  H   -0.000103   0.000074
    17  H    0.000251  -0.000119
    18  H   -0.004444  -0.005239
    19  H    0.651900  -0.009568
    20  H   -0.009568   0.683516
 Mulliken charges:
               1
     1  C   -0.199591
     2  C   -0.225010
     3  C   -0.087723
     4  C   -0.183028
     5  N   -0.087165
     6  C   -0.194991
     7  C   -0.093536
     8  C   -0.070187
     9  C   -0.013200
    10  H    0.114437
    11  H    0.087514
    12  H    0.213863
    13  H    0.074639
    14  H    0.107958
    15  H    0.096777
    16  H    0.102248
    17  H    0.105189
    18  H    0.091877
    19  H    0.087790
    20  H    0.072138
 Sum of Mulliken charges =  -0.00000
 Mulliken charges with hydrogens summed into heavy atoms:
               1
     1  C    0.002361
     2  C   -0.011147
     3  C   -0.013083
     4  C    0.021706
     5  N   -0.087165
     6  C    0.012446
     7  C   -0.001659
     8  C    0.017603
     9  C    0.058938
 Electronic spatial extent (au):  <R**2>=            833.6939
 Charge=             -0.0000 electrons
 Dipole moment (field-independent basis, Debye):
    X=              1.1914    Y=              0.2744    Z=              0.3967  Tot=              1.2853
 Quadrupole moment (field-independent basis, Debye-Ang):
   XX=            -55.1737   YY=            -55.5623   ZZ=            -52.3781
   XY=              2.2303   XZ=              0.5542   YZ=             -1.9213
 Traceless Quadrupole moment (field-independent basis, Debye-Ang):
   XX=             -0.8023   YY=             -1.1909   ZZ=              1.9933
   XY=              2.2303   XZ=              0.5542   YZ=             -1.9213
 Octapole moment (field-independent basis, Debye-Ang**2):
  XXX=              7.7941  YYY=             10.9072  ZZZ=             -0.5100  XYY=              1.7798
  XXY=             -6.9491  XXZ=              0.2282  XZZ=             -3.2781  YZZ=              2.6018
  YYZ=              6.5696  XYZ=              0.9436
 Hexadecapole moment (field-independent basis, Debye-Ang**3):
 XXXX=           -467.9919 YYYY=           -370.4823 ZZZZ=           -289.5494 XXXY=             10.4388
 XXXZ=              3.7801 YYYX=              4.3622 YYYZ=            -11.6407 ZZZX=             -1.2767
 ZZZY=             -4.5549 XXYY=           -137.5905 XXZZ=           -127.4611 YYZZ=           -114.4364
 XXYZ=              0.6849 YYXZ=              2.3317 ZZXY=             -3.9100
 N-N= 4.807255244691D+02 E-N=-1.809926155320D+03  KE= 3.633243959963D+02
 PrsmSu:  requested number of processors reduced to:  13 ShMem   1 Linda.
 Calling FoFJK, ICntrl=      2127 FMM=F ISym2X=0 I1Cent= 0 IOpClX= 0 NMat=1 NMatS=1 NMatT=0.
 ***** Axes restored to original set *****
 -------------------------------------------------------------------
 Center     Atomic                   Forces (Hartrees/Bohr)
 Number     Number              X              Y              Z
 -------------------------------------------------------------------
      1        6          -0.001592808   -0.003789325   -0.026955035
      2        6           0.006836657    0.048986455   -0.037268168
      3        6           0.010670574   -0.000461124    0.046562086
      4        6          -0.007967251    0.011065151    0.011576449
      5        7           0.001519598    0.006503566   -0.005398072
      6        6           0.001803690    0.002755579    0.007290659
      7        6           0.003211023    0.011057368    0.004398255
      8        6          -0.008288252   -0.021390532   -0.035325673
      9        6           0.025385029   -0.042474439    0.000770673
     10        1           0.001467642   -0.004205594   -0.003654256
     11        1           0.001810022   -0.000780357   -0.005474383
     12        1          -0.027957778   -0.015231817    0.069637469
     13        1           0.001214658    0.002363526    0.001677903
     14        1          -0.003291230   -0.006306386    0.000045076
     15        1          -0.000938310    0.004957210   -0.003623479
     16        1           0.003302739    0.002883130    0.001919913
     17        1           0.002232383    0.003441522    0.002315230
     18        1          -0.009395563   -0.004532306   -0.001889869
     19        1          -0.012037285    0.006878365   -0.013263611
     20        1           0.012014463   -0.001719993   -0.013341164
 -------------------------------------------------------------------
 Cartesian Forces:  Max     0.069637469 RMS     0.017594396

 GradGradGradGradGradGradGradGradGradGradGradGradGradGradGradGradGradGrad
 Berny optimization.
 FormGI is forming the generalized inverse of G from B-inverse, IUseBI=4.
 Internal  Forces:  Max     0.039448383 RMS     0.008281189
 Search for a local minimum.
 Step number   1 out of a maximum of  120
 All quantities printed in internal units (Hartrees-Bohrs-Radians)
 Mixed Optimization -- RFO/linear search
 Second derivative matrix not updated -- first step.
 ITU=  0
     Eigenvalues ---    0.00619   0.00836   0.01371   0.01392   0.01699
     Eigenvalues ---    0.01790   0.02433   0.02861   0.03081   0.03979
     Eigenvalues ---    0.04976   0.05148   0.05288   0.05563   0.05772
     Eigenvalues ---    0.06054   0.06453   0.07211   0.07778   0.07943
     Eigenvalues ---    0.08365   0.08616   0.09113   0.09204   0.09559
     Eigenvalues ---    0.09649   0.09876   0.10983   0.11398   0.13179
     Eigenvalues ---    0.15262   0.16766   0.17453   0.20828   0.21806
     Eigenvalues ---    0.25219   0.25872   0.27846   0.29098   0.31073
     Eigenvalues ---    0.31330   0.32765   0.32861   0.33310   0.33824
     Eigenvalues ---    0.33856   0.33958   0.34000   0.34139   0.34497
     Eigenvalues ---    0.34662   0.35200   0.35725   0.35884
 RFO step:  Lambda=-6.25755251D-02 EMin= 6.19201494D-03
 Linear search not attempted -- first point.
 Maximum step size (   0.300) exceeded in Quadratic search.
    -- Step size scaled by   0.780
 Iteration  1 RMS(Cart)=  0.04117409 RMS(Int)=  0.00811689
 Iteration  2 RMS(Cart)=  0.00484081 RMS(Int)=  0.00226613
 Iteration  3 RMS(Cart)=  0.00030550 RMS(Int)=  0.00224339
 Iteration  4 RMS(Cart)=  0.00000167 RMS(Int)=  0.00224339
 Iteration  5 RMS(Cart)=  0.00000003 RMS(Int)=  0.00224339
 Variable       Old X    -DE/DX   Delta X   Delta X   Delta X     New X
                                 (Linear)    (Quad)   (Total)
    R1        3.00861   0.00571   0.00000   0.01841   0.02031   3.02892
    R2        2.78995  -0.00957   0.00000  -0.01683  -0.01636   2.77359
    R3        2.08510  -0.00501   0.00000  -0.00988  -0.00988   2.07522
    R4        2.07402   0.00047   0.00000   0.00091   0.00091   2.07493
    R5        3.06677   0.01127   0.00000   0.03010   0.02957   3.09634
    R6        2.96725   0.03938   0.00000   0.09295   0.09200   3.05925
    R7        2.09466  -0.00655   0.00000  -0.01311  -0.01311   2.08156
    R8        2.90424   0.00524   0.00000   0.01277   0.01110   2.91535
    R9        2.75679   0.03945   0.00000   0.07945   0.08112   2.83791
   R10        2.06227   0.00093   0.00000   0.00177   0.00177   2.06404
   R11        2.78244   0.00227   0.00000  -0.00024  -0.00214   2.78030
   R12        2.07096  -0.00178   0.00000  -0.00344  -0.00344   2.06752
   R13        2.07330  -0.00010   0.00000  -0.00020  -0.00020   2.07310
   R14        2.85690  -0.01527   0.00000  -0.03905  -0.03981   2.81709
   R15        2.89609   0.00534   0.00000   0.00617   0.00628   2.90236
   R16        2.06500   0.00193   0.00000   0.00369   0.00369   2.06869
   R17        2.07629  -0.00191   0.00000  -0.00373  -0.00373   2.07256
   R18        2.84188   0.00285   0.00000  -0.00723  -0.00829   2.83359
   R19        2.82244   0.01330   0.00000   0.02514   0.02512   2.84756
   R20        2.04513   0.00176   0.00000   0.00328   0.00328   2.04841
   R21        2.73963   0.02342   0.00000   0.05807   0.06087   2.80049
   R22        2.05351  -0.00141   0.00000  -0.00265  -0.00265   2.05086
   R23        2.04263   0.00359   0.00000   0.00666   0.00666   2.04928
    A1        1.86806   0.00898   0.00000   0.03324   0.03392   1.90198
    A2        1.86733  -0.00342   0.00000  -0.02383  -0.02331   1.84402
    A3        2.00572  -0.00164   0.00000   0.00763   0.00620   2.01191
    A4        1.92914  -0.00972   0.00000  -0.04693  -0.04735   1.88179
    A5        1.95887   0.00105   0.00000   0.01072   0.01009   1.96896
    A6        1.83278   0.00354   0.00000   0.01279   0.01304   1.84583
    A7        1.64021  -0.00295   0.00000  -0.00247  -0.00563   1.63458
    A8        2.06002  -0.01140   0.00000  -0.05888  -0.06047   1.99955
    A9        1.51840   0.00028   0.00000   0.01076   0.00759   1.52598
   A10        1.44037   0.00345   0.00000   0.00681   0.00860   1.44896
   A11        2.75723   0.02784   0.00000   0.17191   0.17316   2.93039
   A12        1.35540   0.02009   0.00000   0.12946   0.13802   1.49343
   A13        1.89638  -0.00612   0.00000  -0.01952  -0.01705   1.87934
   A14        1.58982   0.00231   0.00000   0.00643   0.00516   1.59499
   A15        2.04352   0.00135   0.00000   0.00188   0.00039   2.04391
   A16        1.88596  -0.00404   0.00000  -0.00368  -0.00318   1.88277
   A17        2.00888   0.00183   0.00000  -0.00744  -0.00832   2.00056
   A18        1.99264   0.00411   0.00000   0.02466   0.02487   2.01752
   A19        1.80199   0.00640   0.00000   0.02602   0.02522   1.82721
   A20        1.98858  -0.00669   0.00000  -0.03446  -0.03403   1.95455
   A21        1.92441   0.00307   0.00000   0.02186   0.02201   1.94642
   A22        1.95953  -0.00229   0.00000  -0.00932  -0.00891   1.95063
   A23        1.91985  -0.00290   0.00000  -0.01284  -0.01316   1.90668
   A24        1.86965   0.00240   0.00000   0.00911   0.00913   1.87878
   A25        1.72450  -0.00465   0.00000  -0.01347  -0.01395   1.71054
   A26        1.92295  -0.00077   0.00000  -0.01097  -0.01113   1.91182
   A27        1.92404   0.00421   0.00000   0.01198   0.01246   1.93650
   A28        2.00162   0.00822   0.00000   0.01401   0.01410   2.01572
   A29        1.89891  -0.00380   0.00000  -0.00935  -0.00959   1.88932
   A30        1.89705  -0.00666   0.00000  -0.02613  -0.02616   1.87089
   A31        1.90861  -0.00095   0.00000   0.00930   0.00993   1.91854
   A32        1.88736   0.00159   0.00000   0.00922   0.00861   1.89597
   A33        1.86558   0.00119   0.00000   0.00215   0.00191   1.86749
   A34        1.97675   0.00138   0.00000   0.01435   0.01326   1.99001
   A35        2.05256  -0.00006   0.00000   0.00525   0.00407   2.05663
   A36        2.00974   0.00076   0.00000  -0.00462  -0.00455   2.00519
   A37        2.19852  -0.00406   0.00000  -0.02357  -0.02369   2.17483
   A38        2.00322  -0.00209   0.00000   0.00248   0.00363   2.00685
   A39        2.01482  -0.00700   0.00000  -0.00801  -0.00668   2.00814
   A40        1.63336  -0.00325   0.00000  -0.01106  -0.01210   1.62126
   A41        1.99973   0.00672   0.00000   0.02191   0.02061   2.02034
   A42        2.26736   0.00043   0.00000  -0.01245  -0.01289   2.25447
   A43        1.98325   0.00220   0.00000   0.02627   0.02849   2.01174
   A44        2.01388  -0.00903   0.00000  -0.01959  -0.01978   1.99411
   A45        1.61961  -0.00250   0.00000  -0.00208  -0.00178   1.61784
   A46        2.06097   0.00941   0.00000   0.04180   0.04194   2.10291
   A47        2.20745  -0.00039   0.00000  -0.02328  -0.02360   2.18384
   A48        2.04345   0.00398   0.00000   0.02522   0.02486   2.06831
    D1        0.65890  -0.00112   0.00000  -0.03195  -0.03216   0.62675
    D2       -0.80098  -0.00335   0.00000  -0.03774  -0.03817  -0.83915
    D3       -2.09798  -0.02896   0.00000  -0.20488  -0.20620  -2.30418
    D4       -1.40930   0.00735   0.00000   0.01792   0.01808  -1.39122
    D5       -2.86919   0.00512   0.00000   0.01213   0.01207  -2.85712
    D6        2.11700  -0.02049   0.00000  -0.15501  -0.15596   1.96104
    D7        2.84685   0.00617   0.00000   0.01362   0.01403   2.86088
    D8        1.38697   0.00394   0.00000   0.00783   0.00802   1.39498
    D9        0.08997  -0.02167   0.00000  -0.15931  -0.16001  -0.07004
   D10       -0.95907   0.00158   0.00000   0.02760   0.02700  -0.93207
   D11        1.05609   0.00380   0.00000   0.03074   0.03057   1.08667
   D12        1.06851  -0.00250   0.00000  -0.00655  -0.00707   1.06144
   D13        3.08367  -0.00028   0.00000  -0.00340  -0.00349   3.08018
   D14        3.10819  -0.00371   0.00000  -0.01426  -0.01515   3.09304
   D15       -1.15983  -0.00149   0.00000  -0.01112  -0.01157  -1.17140
   D16       -0.14074   0.00573   0.00000   0.04222   0.04126  -0.09948
   D17       -2.05170   0.01004   0.00000   0.04652   0.04516  -2.00653
   D18        2.17175   0.00351   0.00000   0.01355   0.01299   2.18474
   D19        1.91482  -0.00541   0.00000  -0.01683  -0.01898   1.89583
   D20        0.00386  -0.00109   0.00000  -0.01253  -0.01508  -0.01122
   D21       -2.05589  -0.00762   0.00000  -0.04550  -0.04725  -2.10314
   D22        1.46194   0.00330   0.00000   0.09035   0.09324   1.55519
   D23       -0.44902   0.00761   0.00000   0.09465   0.09715  -0.35187
   D24       -2.50876   0.00108   0.00000   0.06168   0.06498  -2.44379
   D25        0.54403   0.00091   0.00000   0.02430   0.02540   0.56943
   D26        1.57632   0.00098   0.00000   0.02084   0.02050   1.59682
   D27       -2.64643   0.00382   0.00000   0.05168   0.05313  -2.59330
   D28       -1.03617   0.00100   0.00000   0.01606   0.02017  -1.01600
   D29       -0.00389   0.00108   0.00000   0.01261   0.01527   0.01139
   D30        2.05654   0.00391   0.00000   0.04344   0.04790   2.10445
   D31        1.93667   0.01653   0.00000   0.13082   0.11861   2.05528
   D32        2.96896   0.01660   0.00000   0.12737   0.11371   3.08267
   D33       -1.25380   0.01944   0.00000   0.15821   0.14634  -1.10745
   D34       -0.40261  -0.00373   0.00000  -0.03016  -0.03008  -0.43269
   D35       -2.53262  -0.00150   0.00000  -0.01703  -0.01681  -2.54943
   D36        1.64779  -0.00224   0.00000  -0.02105  -0.02076   1.62703
   D37        1.29976  -0.00499   0.00000  -0.03167  -0.03182   1.26793
   D38       -0.83025  -0.00276   0.00000  -0.01854  -0.01855  -0.84880
   D39       -2.93303  -0.00349   0.00000  -0.02256  -0.02250  -2.95553
   D40       -2.73327  -0.00142   0.00000  -0.00720  -0.00734  -2.74062
   D41        1.41990   0.00081   0.00000   0.00593   0.00593   1.42583
   D42       -0.68287   0.00007   0.00000   0.00191   0.00198  -0.68090
   D43        1.03522  -0.00555   0.00000  -0.00645  -0.00400   1.03121
   D44       -0.00415   0.00115   0.00000   0.01343   0.01633   0.01218
   D45       -2.14859  -0.00577   0.00000  -0.03237  -0.03138  -2.17997
   D46       -0.88537   0.00068   0.00000   0.01249   0.01270  -0.87268
   D47       -1.92473   0.00739   0.00000   0.03238   0.03303  -1.89170
   D48        2.21401   0.00047   0.00000  -0.01342  -0.01468   2.19932
   D49        3.13852  -0.00162   0.00000   0.00617   0.00680  -3.13786
   D50        2.09916   0.00509   0.00000   0.02605   0.02713   2.12629
   D51       -0.04529  -0.00183   0.00000  -0.01975  -0.02058  -0.06586
   D52        0.79893   0.00089   0.00000   0.00117   0.00077   0.79970
   D53       -1.21539   0.00253   0.00000   0.01580   0.01578  -1.19961
   D54        2.94832  -0.00436   0.00000  -0.02898  -0.02929   2.91903
   D55        0.93401  -0.00272   0.00000  -0.01435  -0.01429   0.91972
   D56       -1.25467  -0.00476   0.00000  -0.03218  -0.03222  -1.28689
   D57        3.01420  -0.00312   0.00000  -0.01755  -0.01722   2.99698
   D58       -1.14343   0.00121   0.00000   0.01749   0.01901  -1.12443
   D59        2.99642  -0.00042   0.00000   0.00269   0.00347   2.99989
   D60        0.97094   0.00386   0.00000   0.01944   0.01998   0.99092
   D61        0.74185  -0.00253   0.00000   0.00210   0.00310   0.74495
   D62       -1.40149  -0.00415   0.00000  -0.01270  -0.01243  -1.41392
   D63        2.85622   0.00012   0.00000   0.00405   0.00408   2.86030
   D64        0.82346   0.00210   0.00000  -0.00419  -0.00364   0.81982
   D65       -0.30407  -0.00568   0.00000  -0.03378  -0.03422  -0.33829
   D66       -2.75042  -0.00294   0.00000  -0.03893  -0.03990  -2.79032
   D67        2.96157   0.00224   0.00000   0.00067   0.00170   2.96327
   D68        1.83404  -0.00554   0.00000  -0.02893  -0.02888   1.80516
   D69       -0.61232  -0.00281   0.00000  -0.03408  -0.03456  -0.64687
   D70       -1.29622   0.00402   0.00000   0.01329   0.01428  -1.28193
   D71       -2.42375  -0.00376   0.00000  -0.01631  -0.01629  -2.44004
   D72        1.41309  -0.00103   0.00000  -0.02146  -0.02197   1.39111
   D73       -0.52002  -0.00014   0.00000  -0.01235  -0.01485  -0.53487
   D74        2.67953  -0.00375   0.00000  -0.04601  -0.04824   2.63129
   D75        3.10923   0.00391   0.00000   0.01967   0.01847   3.12769
   D76        0.02559   0.00030   0.00000  -0.01400  -0.01493   0.01066
   D77        0.39719   0.00555   0.00000   0.02533   0.02458   0.42177
   D78       -2.69808   0.00554   0.00000   0.05194   0.05159  -2.64649
   D79        2.84607   0.00393   0.00000   0.02770   0.02709   2.87317
   D80       -0.24920   0.00392   0.00000   0.05431   0.05410  -0.19510
   D81        0.00429  -0.00123   0.00000  -0.01400  -0.01664  -0.01234
   D82        2.16269   0.00996   0.00000   0.04456   0.04371   2.20640
   D83       -2.06975  -0.00781   0.00000  -0.04118  -0.04273  -2.11248
   D84        0.08865   0.00338   0.00000   0.01738   0.01761   0.10626
         Item               Value     Threshold  Converged?
 Maximum Force            0.039448     0.000450     NO 
 RMS     Force            0.008281     0.000300     NO 
 Maximum Displacement     0.399407     0.001800     NO 
 RMS     Displacement     0.045139     0.001200     NO 
 Predicted change in Energy=-3.885303D-02
 GradGradGradGradGradGradGradGradGradGradGradGradGradGradGradGradGradGrad

                          Input orientation:                          
 ---------------------------------------------------------------------
 Center     Atomic      Atomic             Coordinates (Angstroms)
 Number     Number       Type             X           Y           Z
 ---------------------------------------------------------------------
      1          6           0       -0.881183    1.343294    0.600516
      2          6           0       -1.035560   -0.196575    1.017715
      3          6           0        0.580176   -0.428745    1.159886
      4          6           0        1.282217    0.860892    0.686592
      5          7           0        0.320408    1.494971   -0.228561
      6          6           0        0.167852    0.696770   -1.478322
      7          6           0        0.074867   -0.823937   -1.284200
      8          6           0       -0.878912   -1.244458   -0.206293
      9          6           0        0.578317   -1.399625    0.014170
     10          1           0       -0.713311    1.889051    1.538559
     11          1           0       -1.771782    1.797539    0.146525
     12          1           0       -2.089993   -0.123517    0.707617
     13          1           0        0.944602   -0.822356    2.111336
     14          1           0        2.235019    0.650597    0.191654
     15          1           0        1.485320    1.539263    1.524481
     16          1           0        1.003616    0.937579   -2.143070
     17          1           0       -0.746742    1.043209   -1.974666
     18          1           0        0.305739   -1.411300   -2.165505
     19          1           0       -1.459790   -2.157377   -0.122829
     20          1           0        0.979209   -2.399404    0.139563
 ---------------------------------------------------------------------
                    Distance matrix (angstroms):
                    1          2          3          4          5
     1  C    0.000000
     2  C    1.602835   0.000000
     3  C    2.364020   1.638512   0.000000
     4  C    2.218203   2.569040   1.542735   0.000000
     5  N    1.467719   2.500636   2.386619   1.471271   0.000000
     6  C    2.416617   2.911437   2.897747   2.440409   1.490738
     7  C    3.027058   2.631625   2.526870   2.860133   2.559687
     8  C    2.710609   1.618887   2.158882   3.146461   2.990541
     9  C    3.161890   2.249230   1.501757   2.461211   2.916182
    10  H    1.098161   2.173697   2.681172   2.401060   2.084847
    11  H    1.098004   2.297278   3.393369   3.239736   2.146974
    12  H    1.903740   1.101512   2.725347   3.513020   3.050569
    13  H    3.210313   2.347051   1.092242   2.230964   3.351827
    14  H    3.218341   3.478041   2.200218   1.094084   2.134311
    15  H    2.548029   3.102383   2.196650   1.097039   2.105264
    16  H    3.353258   3.928754   3.599397   2.844378   2.107795
    17  H    2.596091   3.251896   3.708474   3.351449   2.095658
    18  H    4.080128   3.661629   3.478355   3.775026   3.492617
    19  H    3.621148   2.307717   2.965634   4.157368   4.064472
    20  H    4.204917   3.111737   2.254725   3.319726   3.966824
                    6          7          8          9         10
     6  C    0.000000
     7  C    1.535864   0.000000
     8  C    2.546004   1.499472   0.000000
     9  C    2.605932   1.506866   1.481957   0.000000
    10  H    3.361481   3.993683   3.590378   3.848046   0.000000
    11  H    2.759348   3.511299   3.189897   3.970181   1.751141
    12  H    3.247933   3.023995   1.886388   3.037960   2.576073
    13  H    3.974510   3.505154   2.979056   2.205790   3.229315
    14  H    2.657844   3.003108   3.666901   2.641888   3.469952
    15  H    3.385607   3.932274   4.041568   3.426478   2.226326
    16  H    1.094706   2.168679   3.472218   3.208907   4.172233
    17  H    1.096750   2.153606   2.894483   3.417410   3.613768
    18  H    2.221529   1.083972   2.295592   2.196683   5.064669
    19  H    3.554256   2.341371   1.085268   2.178724   4.437457
    20  H    3.586383   2.308036   2.214979   1.084434   4.817952
                   11         12         13         14         15
    11  H    0.000000
    12  H    2.026460   0.000000
    13  H    4.254771   3.415782   0.000000
    14  H    4.167969   4.423936   2.742252   0.000000
    15  H    3.546009   4.026782   2.492794   1.768672   0.000000
    16  H    3.699271   4.338521   4.604435   2.655118   3.747664
    17  H    2.473695   3.218729   4.799624   3.706479   4.179976
    18  H    4.467462   3.956355   4.364214   3.678280   4.869622
    19  H    3.976337   2.285472   3.543286   4.651369   5.005242
    20  H    5.018200   3.862946   2.525107   3.298831   4.205620
                   16         17         18         19         20
    16  H    0.000000
    17  H    1.761610   0.000000
    18  H    2.450463   2.677452   0.000000
    19  H    4.441677   3.765832   2.801115   0.000000
    20  H    4.043076   4.393228   2.596776   2.464983   0.000000
 Stoichiometry    C8H11N
 Framework group  C1[X(C8H11N)]
 Deg. of freedom    54
 Full point group                 C1      NOp   1
 Largest Abelian subgroup         C1      NOp   1
 Largest concise Abelian subgroup C1      NOp   1
                         Standard orientation:                         
 ---------------------------------------------------------------------
 Center     Atomic      Atomic             Coordinates (Angstroms)
 Number     Number       Type             X           Y           Z
 ---------------------------------------------------------------------
      1          6           0       -1.296006   -0.346750   -0.997295
      2          6           0        0.079413   -1.164915   -0.908361
      3          6           0        0.109509   -1.140863    0.729697
      4          6           0       -1.063060   -0.259166    1.206903
      5          7           0       -1.329533    0.648998    0.080463
      6          6           0       -0.210344    1.617039   -0.100127
      7          6           0        1.201663    1.025528    0.023284
      8          6           0        1.401283   -0.243950   -0.749369
      9          6           0        1.351379   -0.296450    0.730817
     10          1           0       -2.090028   -1.079867   -0.802295
     11          1           0       -1.522675    0.083584   -1.981696
     12          1           0        0.194092   -0.993067   -1.990325
     13          1           0        0.192595   -2.102921    1.240123
     14          1           0       -0.817392    0.289553    2.121000
     15          1           0       -1.960121   -0.857415    1.409077
     16          1           0       -0.339227    2.428855    0.622869
     17          1           0       -0.319974    2.056733   -1.098882
     18          1           0        1.982190    1.747932    0.232822
     19          1           0        2.307831   -0.638928   -1.196551
     20          1           0        2.236415   -0.620278    1.267327
 ---------------------------------------------------------------------
 Rotational constants (GHZ):           2.6921225           2.2114201           1.9790087
 Standard basis: 6-31G(2df,p) (6D, 7F)
 There are   334 symmetry adapted cartesian basis functions of A   symmetry.
 There are   307 symmetry adapted basis functions of A   symmetry.
   307 basis functions,   473 primitive gaussians,   334 cartesian basis functions
    33 alpha electrons       33 beta electrons
       nuclear repulsion energy       477.8678380881 Hartrees.
 NAtoms=   20 NActive=   20 NUniq=   20 SFac= 1.00D+00 NAtFMM=   60 NAOKFM=F Big=F
 Integral buffers will be    131072 words long.
 Raffenetti 2 integral format.
 Two-electron integral symmetry is turned on.
 One-electron integrals computed using PRISM.
 PrsmSu:  requested number of processors reduced to:  13 ShMem   1 Linda.
 NBasis=   307 RedAO= T EigKep=  3.25D-04  NBF=   307
 NBsUse=   307 1.00D-06 EigRej= -1.00D+00 NBFU=   307
 Initial guess from the checkpoint file:  "C1C2C3CN1CC1C2C31.chk"
 B after Tr=     0.000000    0.000000   -0.000000
         Rot=    0.999983    0.004122    0.003073   -0.002714 Ang=   0.67 deg.
 ExpMin= 1.61D-01 ExpMax= 4.17D+03 ExpMxC= 6.27D+02 IAcc=2 IRadAn=         4 AccDes= 0.00D+00
 Harris functional with IExCor=  402 and IRadAn=       4 diagonalized for initial guess.
 HarFok:  IExCor=  402 AccDes= 0.00D+00 IRadAn=         4 IDoV= 1 UseB2=F ITyADJ=14
 ICtDFT=  3500011 ScaDFX=  1.000000  1.000000  1.000000  1.000000
 FoFCou: FMM=F IPFlag=           0 FMFlag=      100000 FMFlg1=           0
         NFxFlg=           0 DoJE=T BraDBF=F KetDBF=T FulRan=T
         wScrn=  0.000000 ICntrl=       500 IOpCl=  0 I1Cent=   200000004 NGrid=           0
         NMat0=    1 NMatS0=      1 NMatT0=    0 NMatD0=    1 NMtDS0=    0 NMtDT0=    0
 Petite list used in FoFCou.
 Requested convergence on RMS density matrix=1.00D-08 within 128 cycles.
 Requested convergence on MAX density matrix=1.00D-06.
 Requested convergence on             energy=1.00D-06.
 No special actions if energy rises.
 Integral accuracy reduced to 1.0D-05 until final iterations.
 Initial convergence to 1.0D-05 achieved.  Increase integral accuracy.
 SCF Done:  E(RB3LYP) =  -366.032281841     A.U. after   11 cycles
            NFock= 11  Conv=0.86D-08     -V/T= 2.0080
 PrsmSu:  requested number of processors reduced to:  13 ShMem   1 Linda.
 Calling FoFJK, ICntrl=      2127 FMM=F ISym2X=0 I1Cent= 0 IOpClX= 0 NMat=1 NMatS=1 NMatT=0.
 ***** Axes restored to original set *****
 -------------------------------------------------------------------
 Center     Atomic                   Forces (Hartrees/Bohr)
 Number     Number              X              Y              Z
 -------------------------------------------------------------------
      1        6          -0.003810589   -0.001496921   -0.016330573
      2        6           0.015054954    0.037774787   -0.077632011
      3        6           0.004153690   -0.010438865    0.029959226
      4        6          -0.003101480    0.006245896    0.008034488
      5        7          -0.001695459   -0.001468662    0.002239608
      6        6           0.003925489    0.000976226   -0.000772350
      7        6           0.003267185    0.013744996    0.008865078
      8        6          -0.001208308   -0.006774113   -0.007021257
      9        6           0.006701172   -0.021588530    0.010513639
     10        1          -0.002630813   -0.001019069    0.000429794
     11        1           0.001849004   -0.002198438   -0.005273546
     12        1          -0.017204639   -0.018540009    0.069545807
     13        1           0.001513107    0.000334395   -0.000911007
     14        1          -0.000993429   -0.004435759    0.000312469
     15        1          -0.000684595    0.002215460   -0.002288024
     16        1           0.002189915    0.000759915    0.001056762
     17        1           0.001204991    0.001442394   -0.000447696
     18        1          -0.008010217   -0.003594686   -0.000443863
     19        1          -0.009220773    0.005636814   -0.011117677
     20        1           0.008700794    0.002424168   -0.008718866
 -------------------------------------------------------------------
 Cartesian Forces:  Max     0.077632011 RMS     0.016413785

 GradGradGradGradGradGradGradGradGradGradGradGradGradGradGradGradGradGrad
 Berny optimization.
 Using GEDIIS/GDIIS optimizer.
 FormGI is forming the generalized inverse of G from B-inverse, IUseBI=4.
 Internal  Forces:  Max     0.026527835 RMS     0.005322922
 Search for a local minimum.
 Step number   2 out of a maximum of  120
 All quantities printed in internal units (Hartrees-Bohrs-Radians)
 Mixed Optimization -- RFO/linear search
 Update second derivatives using D2CorX and points    1    2
 DE= -4.18D-02 DEPred=-3.89D-02 R= 1.08D+00
 TightC=F SS=  1.41D+00  RLast= 5.52D-01 DXNew= 5.0454D-01 1.6555D+00
 Trust test= 1.08D+00 RLast= 5.52D-01 DXMaxT set to 5.05D-01
 ITU=  1  0
 Use linear search instead of GDIIS.
     Eigenvalues ---    0.00409   0.00751   0.01203   0.01360   0.01719
     Eigenvalues ---    0.01828   0.02387   0.02732   0.03142   0.03461
     Eigenvalues ---    0.04124   0.04824   0.05154   0.05281   0.05692
     Eigenvalues ---    0.05888   0.06153   0.07227   0.07766   0.08243
     Eigenvalues ---    0.08534   0.08807   0.09065   0.09509   0.09671
     Eigenvalues ---    0.09762   0.09898   0.10979   0.11375   0.13853
     Eigenvalues ---    0.15474   0.16708   0.17173   0.20979   0.21810
     Eigenvalues ---    0.25690   0.26646   0.27925   0.29756   0.30943
     Eigenvalues ---    0.31304   0.32683   0.32976   0.33333   0.33824
     Eigenvalues ---    0.33957   0.33999   0.34138   0.34494   0.34657
     Eigenvalues ---    0.35199   0.35722   0.35826   0.39591
 RFO step:  Lambda=-2.76397525D-02 EMin= 4.09294674D-03
 Quartic linear search produced a step of  1.60426.
 Iteration  1 RMS(Cart)=  0.00913498 RMS(Int)=  0.09560665
 Iteration  2 RMS(Cart)=  0.00450121 RMS(Int)=  0.09098153
 Iteration  3 RMS(Cart)=  0.00358207 RMS(Int)=  0.08728868
 Iteration  4 RMS(Cart)=  0.00307306 RMS(Int)=  0.08411111
 Iteration  5 RMS(Cart)=  0.00272242 RMS(Int)=  0.08128861
 Iteration  6 RMS(Cart)=  0.00245564 RMS(Int)=  0.07873666
 Iteration  7 RMS(Cart)=  0.00224116 RMS(Int)=  0.07640271
 Iteration  8 RMS(Cart)=  0.00206142 RMS(Int)=  0.07425197
 Iteration  9 RMS(Cart)=  0.00190395 RMS(Int)=  0.07226207
 Iteration 10 RMS(Cart)=  0.00176532 RMS(Int)=  0.07041361
 Iteration 11 RMS(Cart)=  0.00164481 RMS(Int)=  0.06868843
 Iteration 12 RMS(Cart)=  0.00153880 RMS(Int)=  0.06707193
 Iteration 13 RMS(Cart)=  0.00144461 RMS(Int)=  0.06555222
 Iteration 14 RMS(Cart)=  0.00136019 RMS(Int)=  0.06411942
 Iteration 15 RMS(Cart)=  0.00128390 RMS(Int)=  0.06276522
 Iteration 16 RMS(Cart)=  0.00121280 RMS(Int)=  0.06148424
 Iteration 17 RMS(Cart)=  0.00114709 RMS(Int)=  0.06027073
 Iteration 18 RMS(Cart)=  0.00108651 RMS(Int)=  0.05911885
 Iteration 19 RMS(Cart)=  0.00102977 RMS(Int)=  0.05802306
 Iteration 20 RMS(Cart)=  0.00097502 RMS(Int)=  0.05697529
 Iteration 21 RMS(Cart)=  0.00091712 RMS(Int)=  0.05582754
 Iteration 22 RMS(Cart)=  0.00072549 RMS(Int)=  0.43525857
 Iteration 23 RMS(Cart)=  0.03003943 RMS(Int)=  0.43234154
 Iteration 24 RMS(Cart)=  0.01059024 RMS(Int)=  0.41394268
 Iteration 25 RMS(Cart)=  0.00559135 RMS(Int)=  0.38839981
 Iteration 26 RMS(Cart)=  0.00525817 RMS(Int)=  0.36213902
 Iteration 27 RMS(Cart)=  0.00520419 RMS(Int)=  0.33655770
 Iteration 28 RMS(Cart)=  0.00507150 RMS(Int)=  0.31232340
 Iteration 29 RMS(Cart)=  0.00491573 RMS(Int)=  0.28918046
 Iteration 30 RMS(Cart)=  0.00473617 RMS(Int)=  0.26689140
 Iteration 31 RMS(Cart)=  0.00455455 RMS(Int)=  0.24523706
 Iteration 32 RMS(Cart)=  0.00439514 RMS(Int)=  0.22405032
 Iteration 33 RMS(Cart)=  0.00424527 RMS(Int)=  0.20343297
 Iteration 34 RMS(Cart)=  0.00393666 RMS(Int)=  0.18456152
 Iteration 35 RMS(Cart)=  0.00286913 RMS(Int)=  0.17181474
 Iteration 36 RMS(Cart)=  0.00112971 RMS(Int)=  0.16767227
 Iteration 37 RMS(Cart)=  0.00068614 RMS(Int)=  0.16526600
 Iteration 38 RMS(Cart)=  0.00059146 RMS(Int)=  0.16319897
 Iteration 39 RMS(Cart)=  0.00055568 RMS(Int)=  0.16124996
 Iteration 40 RMS(Cart)=  0.00053959 RMS(Int)=  0.15934504
 Iteration 41 RMS(Cart)=  0.00053148 RMS(Int)=  0.15744725
 Iteration 42 RMS(Cart)=  0.00052837 RMS(Int)=  0.15553339
 Iteration 43 RMS(Cart)=  0.00052866 RMS(Int)=  0.15358247
 Iteration 44 RMS(Cart)=  0.00053160 RMS(Int)=  0.15156928
 Iteration 45 RMS(Cart)=  0.00053697 RMS(Int)=  0.14945473
 Iteration 46 RMS(Cart)=  0.00054500 RMS(Int)=  0.14716090
 Iteration 47 RMS(Cart)=  0.00055667 RMS(Int)=  0.14447091
 Iteration 48 RMS(Cart)=  0.00057541 RMS(Int)=  0.14009631
 Iteration 49 RMS(Cart)=  0.00062259 RMS(Int)=  0.30621327
 Iteration 50 RMS(Cart)=  0.00036043 RMS(Int)=  0.13788819
 Iteration 51 RMS(Cart)=  0.00021001 RMS(Int)=  0.31045972
 Iteration 52 RMS(Cart)=  0.00029071 RMS(Int)=  0.13725367
 Iteration 53 RMS(Cart)=  0.00066195 RMS(Int)=  0.31100677
 Iteration 54 RMS(Cart)=  0.00029965 RMS(Int)=  0.30667527
 Iteration 55 RMS(Cart)=  0.00034544 RMS(Int)=  0.13973421
 Iteration 56 RMS(Cart)=  0.00061905 RMS(Int)=  0.30846638
 Iteration 57 RMS(Cart)=  0.00033252 RMS(Int)=  0.30277604
 Iteration 58 RMS(Cart)=  0.00039684 RMS(Int)=  0.14475251
 Iteration 59 RMS(Cart)=  0.00054020 RMS(Int)=  0.30224241
 Iteration 60 RMS(Cart)=  0.00041063 RMS(Int)=  0.14218855
 Iteration 61 RMS(Cart)=  0.00018779 RMS(Int)=  0.30541891
 Iteration 62 RMS(Cart)=  0.00035331 RMS(Int)=  0.14277520
 Iteration 63 RMS(Cart)=  0.00057489 RMS(Int)=  0.30413317
 Iteration 64 RMS(Cart)=  0.00038218 RMS(Int)=  0.13896448
 Iteration 65 RMS(Cart)=  0.00020567 RMS(Int)=  0.30935784
 Iteration 66 RMS(Cart)=  0.00029725 RMS(Int)=  0.13832789
 Iteration 67 RMS(Cart)=  0.00064545 RMS(Int)=  0.30981575
 Iteration 68 RMS(Cart)=  0.00030766 RMS(Int)=  0.30475456
 Iteration 69 RMS(Cart)=  0.00036510 RMS(Int)=  0.14249691
 Iteration 70 RMS(Cart)=  0.00057668 RMS(Int)=  0.30516088
 Iteration 71 RMS(Cart)=  0.00036941 RMS(Int)=  0.19677718
 Iteration 72 RMS(Cart)=  0.00052705 RMS(Int)=  0.25031364
 Iteration 73 RMS(Cart)=  0.01199693 RMS(Int)=  0.24898484
 Iteration 74 RMS(Cart)=  0.00387997 RMS(Int)=  0.22975621
 Iteration 75 RMS(Cart)=  0.00319479 RMS(Int)=  0.20756240
 Iteration 76 RMS(Cart)=  0.00362398 RMS(Int)=  0.18737008
 Iteration 77 RMS(Cart)=  0.00296441 RMS(Int)=  0.17293596
 Iteration 78 RMS(Cart)=  0.00120245 RMS(Int)=  0.16828296
 Iteration 79 RMS(Cart)=  0.00067369 RMS(Int)=  0.16583420
 Iteration 80 RMS(Cart)=  0.00057586 RMS(Int)=  0.16375471
 Iteration 81 RMS(Cart)=  0.00054054 RMS(Int)=  0.16179938
 Iteration 82 RMS(Cart)=  0.00052466 RMS(Int)=  0.15988925
 Iteration 83 RMS(Cart)=  0.00051722 RMS(Int)=  0.15798736
 Iteration 84 RMS(Cart)=  0.00051477 RMS(Int)=  0.15606977
 Iteration 85 RMS(Cart)=  0.00051565 RMS(Int)=  0.15411491
 Iteration 86 RMS(Cart)=  0.00051916 RMS(Int)=  0.15209683
 Iteration 87 RMS(Cart)=  0.00052506 RMS(Int)=  0.14997498
 Iteration 88 RMS(Cart)=  0.00053362 RMS(Int)=  0.14766747
 Iteration 89 RMS(Cart)=  0.00054590 RMS(Int)=  0.14494036
 Iteration 90 RMS(Cart)=  0.00056552 RMS(Int)=  0.14027541
 Iteration 91 RMS(Cart)=  0.00061785 RMS(Int)=  0.30656242
 Iteration 92 RMS(Cart)=  0.00035532 RMS(Int)=  0.13304581
 New curvilinear step failed, DQL= 5.44D+00 SP=-3.12D-01.
 ITry= 1 IFail=1 DXMaxC= 5.84D-01 DCOld= 1.00D+10 DXMaxT= 5.05D-01 DXLimC= 3.00D+00 Rises=F
 Iteration  1 RMS(Cart)=  0.00908313 RMS(Int)=  0.09201119
 Iteration  2 RMS(Cart)=  0.00445577 RMS(Int)=  0.08745525
 Iteration  3 RMS(Cart)=  0.00355082 RMS(Int)=  0.08381227
 Iteration  4 RMS(Cart)=  0.00305016 RMS(Int)=  0.08067340
 Iteration  5 RMS(Cart)=  0.00270522 RMS(Int)=  0.07788197
 Iteration  6 RMS(Cart)=  0.00244263 RMS(Int)=  0.07535548
 Iteration  7 RMS(Cart)=  0.00222708 RMS(Int)=  0.07304728
 Iteration  8 RMS(Cart)=  0.00204204 RMS(Int)=  0.07092631
 Iteration  9 RMS(Cart)=  0.00188492 RMS(Int)=  0.06896458
 Iteration 10 RMS(Cart)=  0.00175006 RMS(Int)=  0.06713987
 Iteration 11 RMS(Cart)=  0.00163264 RMS(Int)=  0.06543480
 Iteration 12 RMS(Cart)=  0.00152921 RMS(Int)=  0.06383539
 Iteration 13 RMS(Cart)=  0.00143721 RMS(Int)=  0.06233020
 Iteration 14 RMS(Cart)=  0.00135264 RMS(Int)=  0.06091180
 Iteration 15 RMS(Cart)=  0.00127549 RMS(Int)=  0.05957272
 Iteration 16 RMS(Cart)=  0.00120569 RMS(Int)=  0.05830542
 Iteration 17 RMS(Cart)=  0.00114203 RMS(Int)=  0.05710352
 Iteration 18 RMS(Cart)=  0.00108345 RMS(Int)=  0.05596145
 Iteration 19 RMS(Cart)=  0.00102887 RMS(Int)=  0.05487421
 Iteration 20 RMS(Cart)=  0.00097701 RMS(Int)=  0.05383634
 Iteration 21 RMS(Cart)=  0.00092541 RMS(Int)=  0.05283265
 Iteration 22 RMS(Cart)=  0.00086270 RMS(Int)=  0.43306750
 Iteration 23 RMS(Cart)=  0.02998373 RMS(Int)=  0.43071012
 Iteration 24 RMS(Cart)=  0.00858808 RMS(Int)=  0.41114348
 Iteration 25 RMS(Cart)=  0.00500020 RMS(Int)=  0.38555016
 Iteration 26 RMS(Cart)=  0.00479732 RMS(Int)=  0.35917133
 Iteration 27 RMS(Cart)=  0.00479485 RMS(Int)=  0.33326909
 Iteration 28 RMS(Cart)=  0.00470549 RMS(Int)=  0.30854728
 Iteration 29 RMS(Cart)=  0.00458417 RMS(Int)=  0.28480046
 Iteration 30 RMS(Cart)=  0.00443170 RMS(Int)=  0.26183069
 Iteration 31 RMS(Cart)=  0.00427034 RMS(Int)=  0.23946533
 Iteration 32 RMS(Cart)=  0.00412127 RMS(Int)=  0.21763739
 Iteration 33 RMS(Cart)=  0.00394376 RMS(Int)=  0.19676315
 Iteration 34 RMS(Cart)=  0.00345380 RMS(Int)=  0.17913666
 Iteration 35 RMS(Cart)=  0.00203907 RMS(Int)=  0.17018190
 Iteration 36 RMS(Cart)=  0.00081341 RMS(Int)=  0.16709603
 Iteration 37 RMS(Cart)=  0.00060983 RMS(Int)=  0.16481965
 Iteration 38 RMS(Cart)=  0.00054876 RMS(Int)=  0.16276819
 Iteration 39 RMS(Cart)=  0.00052230 RMS(Int)=  0.16080359
 Iteration 40 RMS(Cart)=  0.00050934 RMS(Int)=  0.15887079
 Iteration 41 RMS(Cart)=  0.00050324 RMS(Int)=  0.15693933
 Iteration 42 RMS(Cart)=  0.00050130 RMS(Int)=  0.15498662
 Iteration 43 RMS(Cart)=  0.00050230 RMS(Int)=  0.15299013
 Iteration 44 RMS(Cart)=  0.00050572 RMS(Int)=  0.15092011
 Iteration 45 RMS(Cart)=  0.00051147 RMS(Int)=  0.14872587
 Iteration 46 RMS(Cart)=  0.00051999 RMS(Int)=  0.14629397
 Iteration 47 RMS(Cart)=  0.00053201 RMS(Int)=  0.14323724
 Iteration 48 RMS(Cart)=  0.00055423 RMS(Int)=  0.13326301
 Iteration 49 RMS(Cart)=  0.00022264 RMS(Int)=  0.31353912
 Iteration 50 RMS(Cart)=  0.00026056 RMS(Int)=  0.13261996
 Iteration 51 RMS(Cart)=  0.00022641 RMS(Int)=  0.31376541
 Iteration 52 RMS(Cart)=  0.00025460 RMS(Int)=  0.13285962
[...]
 74,0.05111676,0.64010390,-0.00076023,0.00553625,0.00267906,-0.05112435
 ,-0.01226790,0.01480514,-0.04282381,-0.01977614,-0.02558417,-0.0012232
 0,-0.00089210,-0.00210869,0.00047323,0.00071901,0.00024494,-0.00704608
 ,-0.00208337,0.00391702,-0.10078130,-0.06460334,0.09791905,0.58805603,
 -0.00147410,-0.02372919,-0.02410665,-0.02176375,-0.12071715,-0.0548536
 9,-0.01639823,-0.01430422,-0.01359117,-0.00197669,-0.00153874,-0.00368
 422,0.00215626,0.00476193,0.00012126,-0.02797860,-0.00135610,0.0158205
 9,-0.03647657,-0.07525669,0.01019798,0.18809098,0.44395402,0.00256314,
 -0.00088661,0.00983428,0.00545375,-0.05146148,-0.12575703,-0.03251030,
 -0.03017225,-0.01659407,-0.00134724,-0.00066190,-0.00259520,0.00149565
 ,-0.00162571,-0.00159353,0.00216191,0.00822269,-0.00545900,0.05883447,
 0.02255455,-0.12197436,-0.02151968,0.10579337,0.35560179,-0.00082265,0
 .00072443,0.00108686,-0.03575850,0.03350091,0.01357451,-0.04010724,-0.
 00406955,-0.01295545,-0.00111316,-0.01271206,-0.01285481,0.00044063,0.
 00122362,0.00022971,0.00236223,-0.00141881,0.00364613,-0.03815532,0.04
 720383,-0.07118332,-0.18772910,0.01160710,0.00291939,0.41945178,0.0024
 8860,-0.00261957,-0.00371434,0.02622798,-0.03136401,-0.01532970,0.0055
 6118,-0.12726874,-0.04651954,-0.00068265,-0.02064071,-0.02129174,-0.00
 051896,0.00514279,-0.00019083,0.02202881,-0.01055506,0.02192525,0.0210
 5662,-0.10705454,0.04811131,0.03923975,-0.04853869,-0.00042580,-0.2026
 8166,0.58655943,0.00134249,-0.00093581,-0.00190930,0.01464410,-0.03207
 318,-0.00658376,-0.00339395,-0.04866207,-0.13019259,-0.00520422,-0.001
 66406,0.00711568,-0.00147557,-0.00105103,-0.00194369,0.00172569,0.0085
 7563,-0.00567216,-0.02918182,0.05254844,-0.15326536,-0.04524456,0.0048
 1188,-0.01047988,0.07986432,0.03827238,0.38198847,-0.04930671,0.005546
 86,0.00054495,0.00016827,0.00105767,-0.00081223,0.00020627,-0.00006420
 ,-0.00021579,0.00109706,0.00047699,0.00200270,-0.00624050,0.01720422,0
 .02842922,-0.00602431,0.00025646,0.00029934,-0.00046613,-0.00019032,0.
 00084398,0.00182460,-0.00070522,0.00013055,0.00003868,-0.00086549,-0.0
 0006692,0.05541004,0.00920206,-0.15598883,-0.12606713,-0.00119307,-0.0
 2031863,-0.02397108,-0.00062312,-0.00000584,0.00005000,-0.00005557,0.0
 0006901,-0.00036457,0.00115132,0.00722227,0.00578519,-0.00140453,0.000
 11474,0.00119756,-0.00100949,0.00085754,0.00043341,0.00119171,-0.00421
 492,0.00353349,-0.00006356,-0.00120157,-0.00042318,-0.00766573,0.16780
 277,0.00471158,-0.12317554,-0.19200812,-0.00053148,0.00796241,0.009300
 62,0.00037913,-0.00054941,0.00013681,-0.00135462,-0.00007944,-0.000068
 42,0.00532373,-0.00731827,-0.01741738,0.00377488,0.00020405,0.00075083
 ,0.00016713,0.00055394,-0.00029711,0.00005520,0.00205685,-0.00011662,-
 0.00019611,-0.00009482,0.00007544,-0.01399629,0.13500405,0.21165406,-0
 .19030418,0.03256351,-0.11990039,0.00314027,-0.00009536,0.00070316,-0.
 00036170,-0.00171468,0.00037142,-0.00469417,-0.00027876,0.00419812,-0.
 02525864,0.00493650,-0.01791748,0.00047783,-0.00002415,-0.00292122,-0.
 00016091,0.00029931,0.00058316,0.00009108,0.00053287,-0.00032497,0.000
 28211,-0.00007816,0.00003634,0.00243906,-0.00051798,0.00085836,0.21461
 361,0.03377121,-0.05518256,0.02727694,0.02339818,-0.00372174,0.0178662
 7,0.00050372,-0.00409173,0.00293620,-0.00117444,-0.00126681,0.00151791
 ,-0.00529538,0.00051551,-0.00484873,0.00090387,0.00009489,0.00000967,0
 .00059905,-0.00040352,-0.00042664,-0.00118924,0.00209358,-0.00025808,0
 .00014285,0.00078596,-0.00002436,-0.01548582,0.00406677,-0.01288256,-0
 .03702168,0.05735312,-0.12955094,0.02823009,-0.15848539,-0.00851260,-0
 .00013161,-0.00611179,0.00180334,0.00085933,-0.00065525,0.00334579,0.0
 0001543,-0.00146633,0.01342637,-0.00302705,0.01018357,0.00121710,-0.00
 061644,0.00118218,-0.00014419,0.00051734,0.00028874,0.00082842,-0.0000
 9315,0.00084825,0.00035007,-0.00005689,0.00017986,-0.01752916,0.004561
 74,-0.01412919,0.13422844,-0.03097607,0.16621479,0.00351029,0.00102619
 ,-0.00478847,-0.13527633,-0.03334257,0.12557022,-0.01107328,-0.0053967
 5,0.02199242,-0.00280728,0.00062232,0.00131848,-0.00092934,0.00054826,
 -0.00028043,-0.00005864,-0.00008405,-0.00014949,0.00056974,-0.00078597
 ,-0.00245383,0.00448072,0.00206618,-0.00557622,-0.00367958,0.00040224,
 -0.00131465,0.00013147,-0.00071841,0.00026927,-0.00038020,-0.00017574,
 -0.00002703,0.14215976,-0.01789716,0.00036456,0.02005487,-0.03354544,-
 0.05970372,0.04479115,0.00408002,-0.00084613,-0.00351429,0.00133468,-0
 .00135553,0.00147195,-0.00397499,-0.00681283,0.00390585,-0.00029016,-0
 .00147042,-0.00141749,-0.00054745,-0.00341007,-0.00223017,0.01286488,0
 .00709260,-0.01628680,0.00052818,0.00007759,0.00144050,-0.00009502,0.0
 0141879,-0.00097252,0.00056731,-0.00057378,0.00050441,0.03659658,0.062
 44991,0.00507647,-0.00139607,-0.00566136,0.12512668,0.04584285,-0.2152
 9043,-0.00502017,-0.00346726,0.00852535,-0.00218295,0.00042295,-0.0001
 8119,0.00020522,0.00224621,-0.00017780,-0.00036523,-0.00011247,0.00069
 096,-0.00185748,-0.00419295,-0.00219934,0.01298348,0.00754805,-0.01739
 831,-0.00089674,0.00031001,0.00054260,-0.00024135,0.00015164,0.0009793
 5,-0.00016660,0.00043319,-0.00025845,-0.13497828,-0.04786307,0.2285018
 2,-0.00343694,0.00009757,-0.00148327,-0.00450295,0.00844481,-0.0252004
 8,-0.06564074,0.02651025,-0.06907294,0.00653576,-0.00347336,0.01437219
 ,-0.00098012,-0.00322079,0.00155883,-0.00005542,-0.00037628,-0.0005062
 8,-0.00000907,0.00046441,0.00201828,-0.00390958,0.00093456,0.00067192,
 0.00126149,-0.00189069,0.00398284,0.00004475,0.00020455,-0.00000241,0.
 00017850,0.00123926,-0.00029553,0.00234034,-0.00012951,0.00115290,0.06
 684710,-0.00096817,-0.00084092,0.00168254,-0.00184429,-0.00244096,0.00
 421641,0.02692570,-0.08302572,0.08750153,0.01053144,-0.00393626,0.0200
 7673,0.00083470,-0.00699516,0.00414492,0.00010872,-0.00148892,-0.00130
 852,-0.00018569,-0.00367544,-0.00298416,0.00057664,-0.00001762,0.00109
 353,-0.00632625,0.01125559,-0.02027870,0.00008899,-0.00004283,-0.00015
 382,0.00015030,-0.00033238,0.00003562,-0.00043250,0.00089805,-0.000054
 58,-0.02886334,0.08781733,0.00148836,-0.00029626,-0.00007025,0.0005919
 2,-0.00270286,0.00356982,-0.06830359,0.08825921,-0.26149033,-0.0028652
 7,-0.00046332,-0.00438676,0.00036363,0.00177594,0.00005616,0.00012792,
 -0.00023272,0.00070788,0.00080787,-0.00453048,-0.00135741,-0.00009816,
 0.00022634,0.00087349,-0.00503844,0.01019478,-0.01835516,-0.00002378,0
 .00000114,0.00006817,-0.00002106,-0.00025470,0.00007345,-0.00073941,0.
 00031379,0.00083566,0.07417416,-0.09381920,0.27832244,-0.00226507,0.00
 077516,-0.00363395,-0.00026617,0.00006272,0.00075127,-0.00820621,0.001
 52141,0.00496027,-0.24921946,0.02674276,0.10005051,-0.02077949,0.00320
 334,0.00788834,-0.00010385,0.00013847,0.00244482,-0.00035913,-0.000395
 49,-0.00082845,0.00039923,0.00022741,-0.00000104,0.00068521,-0.0000013
 5,0.00017900,0.00019855,0.00007549,0.00015744,-0.00119603,-0.00023473,
 0.00065131,-0.00036039,-0.00013777,-0.00016239,-0.00062610,-0.00066297
 ,0.00024821,0.27695312,0.00127785,-0.00195761,0.00323142,-0.00250704,-
 0.00387909,0.00251660,-0.02575341,0.00498286,0.01111937,0.02539076,-0.
 05087670,-0.01353292,0.01481435,-0.00284901,-0.00693104,-0.00074159,0.
 00037284,-0.00113720,-0.00050430,-0.00008167,-0.00031259,0.00001714,0.
 00075048,-0.00002929,0.00175853,0.00164986,0.00000963,-0.00036252,0.00
 011928,0.00034801,0.00100982,0.00072366,-0.00036840,-0.00114311,0.0001
 5336,-0.00051947,0.00008272,-0.00039478,0.00038536,-0.03047093,0.05312
 763,-0.00337377,0.00136856,-0.00320520,-0.00120653,0.00159927,-0.00096
 325,0.00850309,-0.00316544,-0.00345792,0.10949774,-0.01563913,-0.10387
 024,-0.02139534,0.00297702,0.00906333,-0.00162218,-0.00011033,0.001486
 94,0.00018547,0.00037407,0.00016438,-0.00029805,0.00009605,0.00009807,
 -0.00091659,0.00016385,0.00069412,-0.00013391,0.00020374,0.00028139,-0
 .00124371,-0.00018134,0.00081604,0.00023567,-0.00010255,0.00012618,0.0
 0011093,0.00033037,-0.00019023,-0.11001970,0.01395846,0.10808829,0.000
 95880,-0.00069011,-0.00174245,0.00046218,0.00001422,0.00029352,-0.0007
 1420,-0.00953529,-0.00943893,-0.05319290,-0.01223941,-0.01153418,-0.00
 388048,-0.01012020,-0.02117914,-0.00390464,0.00118099,-0.00098863,0.00
 019411,0.00031184,-0.00054182,0.00017140,0.00037627,-0.00007595,0.0005
 0912,-0.00154921,0.00130483,-0.00023100,0.00045653,0.00036656,0.000245
 25,0.00021686,0.00017908,-0.00004822,-0.00004786,-0.00000203,0.0006370
 5,0.00059588,0.00017628,0.00391409,0.01727720,0.02150379,0.05457006,-0
 .00023956,0.00031091,0.00026910,0.00044691,-0.00021416,0.00009080,-0.0
 0016522,-0.01860424,-0.02235458,-0.01498680,-0.14849656,-0.12689145,0.
 00165608,0.01185855,0.01460824,0.00271188,-0.00083562,0.00195013,0.001
 10997,0.00037572,0.00094005,-0.00033575,-0.00137512,-0.00045152,-0.003
 72842,-0.00316032,0.00272620,-0.00027014,0.00025917,-0.00014161,-0.000
 16569,0.00005838,0.00012143,-0.00019454,0.00005401,-0.00005121,0.00097
 081,0.00098461,0.00028683,-0.00048576,-0.00173646,-0.00225569,0.014727
 88,0.15995110,0.00149127,-0.00071883,-0.00017145,-0.00048947,-0.000383
 25,0.00009161,0.00094518,0.00643920,0.00847559,-0.01433920,-0.12201616
 ,-0.19564980,-0.00447360,-0.00875329,-0.02441857,-0.00465777,0.0018385
 4,-0.00041779,0.00010282,0.00063753,-0.00047644,0.00018650,-0.00001377
 ,0.00011739,0.00095509,0.00177315,0.00014400,-0.00059670,0.00011269,0.
 00069813,-0.00002924,0.00044977,0.00029546,-0.00006981,-0.00015987,0.0
 0006400,-0.00070683,-0.00071052,0.00090581,-0.00107575,-0.00866720,-0.
 00979813,0.02294470,0.13114597,0.22037482,0.00130902,0.00004408,-0.000
 35722,-0.00004143,0.00056966,-0.00020883,-0.00000748,0.00004909,0.0002
 1241,0.00031572,-0.00033423,-0.00082111,-0.00025206,0.00259958,0.00096
 696,-0.25358068,-0.02499367,0.09460399,-0.00535140,-0.00174701,0.00212
 318,0.00166313,-0.00061517,-0.00194231,0.00040342,-0.00081365,0.000995
 31,0.00007653,-0.00020077,0.00028874,0.00048420,0.00000686,0.00002214,
 0.00014652,-0.00008414,0.00009060,0.00006787,0.00002932,0.00004362,0.0
 0065929,-0.00023325,0.00007948,0.00055748,-0.00001235,-0.00009844,0.27
 252624,-0.00069493,-0.00149572,-0.00343976,0.00016925,-0.00043798,-0.0
 0106607,0.00001155,-0.00034590,0.00003968,0.00049923,0.00011295,0.0010
 9756,0.01946252,0.00027022,-0.01115946,-0.02915088,-0.05075814,0.01475
 620,-0.03094611,-0.00569802,0.01574344,-0.00158070,-0.00514735,-0.0019
 2049,0.00123881,0.00171210,0.00004958,0.00088882,0.00034714,-0.0009025
 7,-0.00040712,-0.00006604,0.00004256,0.00002948,0.00040341,0.00004252,
 0.00003866,0.00018455,0.00008895,-0.00010364,0.00028315,0.00016534,0.0
 0008698,0.00000485,0.00015884,0.02879810,0.05903922,-0.00224594,-0.003
 02937,-0.00467838,0.00012252,-0.00050209,0.00031081,-0.00018270,0.0006
 3941,-0.00023675,0.00275758,-0.00027395,0.00085866,0.02751355,-0.00296
 948,-0.01871081,0.08763939,0.01337796,-0.08975558,0.00591088,0.0028361
 7,-0.00150194,0.00038937,0.00095032,0.00126089,-0.00016847,-0.00077174
 ,-0.00000991,0.00142128,0.00043651,-0.00081088,0.00009754,-0.00006852,
 0.00036515,-0.00000860,0.00021619,0.00005479,-0.00000116,0.00003481,-0
 .00005076,-0.00100791,0.00027425,-0.00024497,-0.00011470,-0.00010178,0
 .00039184,-0.10514243,-0.00961191,0.10375659,0.00060438,0.00016822,0.0
 0108536,-0.00012140,-0.00027406,-0.00014797,-0.00019502,-0.00050944,-0
 .00026766,0.00084433,-0.00017500,0.00042809,-0.00099715,-0.00134025,-0
 .00062533,-0.17041139,0.06828234,-0.10511151,0.00510592,-0.00305729,0.
 00509282,0.00062362,0.00139770,-0.00082749,0.00130261,-0.00198695,0.00
 125000,0.00041567,-0.00011709,0.00015753,0.00045093,0.00009568,0.00013
 966,0.00005357,0.00000942,0.00001342,0.00018490,0.00011006,-0.00004493
 ,0.00056561,-0.00021797,0.00004905,0.00023695,0.00014504,-0.00034731,-
 0.01930229,0.01093201,-0.01703594,0.18041215,-0.00080930,0.00024574,0.
 00061500,-0.00011910,-0.00026253,0.00008589,0.00001978,-0.00021663,-0.
 00107557,0.00056293,-0.00166413,-0.00343928,-0.01487313,0.00701804,-0.
 01491710,0.07174114,-0.08744267,0.06337589,0.02263005,-0.01520192,0.02
 171775,-0.00083043,0.00167936,0.00013224,-0.00031035,-0.00511959,-0.00
 234274,-0.00027298,0.00009079,0.00006873,-0.00004918,0.00022208,0.0001
 5690,-0.00001358,0.00019776,0.00008789,0.00003468,0.00036692,0.0000675
 9,0.00016295,-0.00012907,0.00010637,-0.00057077,0.00053778,-0.00095857
 ,-0.00229440,0.00162686,-0.00211598,-0.07394985,0.09798945,-0.00271111
 ,0.00075113,0.00043701,0.00042393,0.00049263,-0.00020635,-0.00040602,-
 0.00053907,0.00024435,0.00231449,-0.00386465,-0.00404436,-0.02218030,0
 .00528601,-0.02470702,-0.09918625,0.05884451,-0.13621406,-0.00396486,0
 .00463147,-0.00245748,0.00007098,-0.00055066,-0.00019847,-0.00001578,0
 .00085424,0.00159274,0.00008914,-0.00015267,0.00044753,0.00120398,-0.0
 0007990,0.00002397,0.00003762,0.00002525,-0.00004954,0.00011142,0.0002
 1857,0.00005247,-0.00007570,-0.00006277,0.00034671,-0.00091965,0.00089
 133,-0.00116196,0.00879200,-0.00510341,0.00920257,0.11609164,-0.062418
 29,0.15688844,-0.00026572,-0.00066382,-0.00009658,-0.00293474,-0.00375
 157,0.00419334,-0.00092600,0.00362392,-0.00371908,0.00046683,0.0002323
 9,0.00055140,0.00028117,-0.00159305,-0.00013058,-0.00031936,-0.0021218
 0,-0.00533080,-0.03386464,-0.00445745,-0.00045309,0.00046243,0.0177302
 0,0.02533910,-0.00082323,-0.01407554,-0.01958373,0.00012442,0.00007482
 ,-0.00013880,0.00000210,0.00002239,-0.00011678,0.00050682,0.00126940,0
 .00139380,0.00023184,-0.00110910,-0.00106554,-0.00003757,0.00006290,0.
 00004179,0.00000406,-0.00002748,0.00004519,-0.00003128,0.00047966,0.00
 006877,0.00011687,-0.00008167,0.00005816,0.03647080,-0.00188683,-0.000
 41633,0.00102208,0.00059600,0.00002986,0.00105543,-0.00052468,-0.00113
 189,0.00235835,0.00128109,-0.00115315,0.00129425,-0.00134718,-0.007364
 59,-0.00036491,0.00133043,-0.01012519,-0.02573216,-0.00390753,-0.14468
 932,-0.13439705,0.00056117,0.00157458,0.00386475,-0.00072984,0.0074412
 8,0.01159107,0.00021463,0.00010514,-0.00019501,0.00015213,0.00011458,-
 0.00009250,0.00008991,0.00017937,0.00022914,-0.00017534,0.00065253,0.0
 0062541,-0.00006754,0.00014732,-0.00014696,-0.00012798,0.00018709,-0.0
 0027009,-0.00059190,0.00073901,0.00037577,0.00071613,0.00060432,0.0005
 3338,0.00408831,0.15092693,0.00036099,0.00031425,-0.00004250,-0.000055
 95,0.00218379,-0.00091911,0.00082646,0.00293749,-0.00176971,-0.0001650
 5,0.00052703,-0.00003891,0.00023898,0.00174426,0.00112585,-0.00014350,
 0.00377535,0.00632887,0.00038225,-0.12968059,-0.23161321,-0.00282641,-
 0.00626533,-0.01084128,0.00282450,-0.01101692,-0.01542488,-0.00008282,
 -0.00004775,0.00008591,0.00001392,-0.00013424,0.00010684,-0.00038568,-
 0.00041444,-0.00028862,0.00034607,-0.00082796,-0.00048796,-0.00008992,
 -0.00011209,0.00011376,0.00004746,-0.00008534,0.00012450,-0.00010520,-
 0.00068952,0.00016433,-0.00017913,-0.00073905,0.00015350,-0.00083990,0
 .13847211,0.25124488,-0.00004034,0.00028843,0.00139712,0.00487056,0.00
 554702,-0.00221453,-0.00206121,-0.00170589,0.00118335,-0.00031639,-0.0
 0053043,-0.00150644,0.00005176,-0.00016306,-0.00018034,0.00030224,0.00
 073057,-0.00026605,-0.00868165,-0.00062704,-0.00238921,-0.20140918,-0.
 13936654,-0.03381872,-0.00726862,-0.01584240,0.00242758,-0.00011799,0.
 00056401,-0.00015023,-0.00007483,-0.00005003,-0.00003314,0.00043405,-0
 .00074887,-0.00049656,0.00021724,-0.00030516,-0.00019397,0.00013623,0.
 00023002,-0.00000847,-0.00007047,-0.00054538,0.00011166,0.00019980,0.0
 0007492,-0.00007917,0.00016374,-0.00027078,-0.00002305,0.00053794,-0.0
 0051254,0.00041173,0.21076273,-0.00058558,-0.00027764,-0.00252593,-0.0
 1048102,-0.00569555,0.00545479,0.00094867,0.00009365,-0.00234413,0.000
 04777,0.00086663,0.00080946,0.00032187,0.00024341,0.00033519,-0.002214
 01,0.00040433,0.00040659,-0.00329982,-0.00683557,-0.00486261,-0.143209
 26,-0.17176999,-0.04245626,0.00642500,0.01133753,0.00160688,0.00016162
 ,-0.00085081,0.00028890,0.00012781,-0.00021831,0.00022234,0.00042587,0
 .00113306,0.00015735,-0.00064666,0.00004676,0.00014380,-0.00013590,-0.
 00023739,0.00008401,0.00000328,0.00038232,-0.00008044,-0.00008439,-0.0
 0072382,0.00028263,0.00001594,0.00000813,0.00004939,0.00108209,0.00103
 628,0.00005658,0.15253491,0.17061267,-0.00017143,0.00051828,-0.0017346
 0,-0.01479414,-0.00682377,0.00025386,-0.00321104,-0.00341962,-0.002808
 41,-0.00104534,0.00038734,-0.00091808,-0.00028202,-0.00002304,0.000502
 44,0.00413845,-0.00194057,-0.00129369,0.01671202,0.01642031,0.00696579
 ,-0.03571918,-0.04227860,-0.04937214,-0.00061078,-0.00669645,-0.005702
 71,0.00003456,-0.00039805,0.00029090,0.00011299,-0.00004162,0.00032471
 ,0.00062099,0.00063531,0.00112862,-0.00075741,-0.00020366,-0.00017869,
 -0.00022844,-0.00019193,0.00015856,0.00004030,-0.00021641,0.00012784,0
 .00018564,0.00159705,-0.00043895,-0.00019622,0.00014199,0.00000794,-0.
 00242636,0.00022378,0.00077164,0.03654179,0.04219183,0.05070581,-0.000
 67774,0.00090443,0.00171267,-0.00160213,0.00315055,-0.00177304,0.00157
 729,-0.00654944,0.00452952,0.00034125,-0.00055455,-0.00168207,-0.00007
 145,0.00027100,0.00014186,0.00160122,-0.00072144,0.00108871,-0.0044150
 9,-0.00409924,-0.00189891,-0.00143866,0.02163533,-0.00162596,-0.111279
 88,0.12398153,-0.00228710,0.00021128,0.00064882,-0.00013962,0.00002572
 ,-0.00027289,0.00001765,0.00027995,0.00024792,0.00032720,0.00061409,0.
 00074572,0.00037219,-0.00009186,0.00001283,0.00001122,-0.00041864,-0.0
 0061147,0.00010172,0.00015741,0.00017339,0.00006616,-0.00005400,-0.000
 70600,0.00028938,-0.00000276,0.00084156,-0.00057882,0.00236438,-0.0014
 3820,0.00105561,0.11287963,0.00026423,0.00058749,0.00026108,0.00015435
 ,-0.00063774,-0.00190875,0.00581317,-0.00635247,0.00610017,0.00091701,
 -0.00040445,-0.00180095,-0.00028603,0.00027801,0.00020406,0.00179465,-
 0.00008362,0.00066543,0.00401980,-0.00763118,-0.00400941,-0.00202928,0
 .00605923,0.00144157,0.12768726,-0.26843931,-0.01417708,0.00008120,0.0
 0015002,-0.00002135,0.00001319,-0.00017167,0.00009490,0.00048019,-0.00
 025001,0.00018529,-0.00024632,0.00098464,-0.00006959,-0.00021364,-0.00
 016867,0.00017432,-0.00036711,-0.00054201,0.00017629,-0.00009177,-0.00
 005049,0.00002081,-0.00024465,-0.00055070,0.00019351,-0.00078461,0.001
 14220,0.00000235,0.00069820,0.00044430,0.00011782,-0.13765984,0.275636
 43,0.00115902,0.00016030,-0.00027782,0.00210472,-0.00377283,-0.0025390
 2,0.01160753,-0.01297738,0.00417928,0.00078177,0.00025897,-0.00199086,
 0.00013668,-0.00004697,0.00059125,-0.00396621,-0.00066116,-0.00210261,
 -0.01279198,0.02128727,0.00351467,-0.00068026,-0.00218547,-0.00625427,
 -0.00061409,-0.01549618,-0.04279349,-0.00009677,-0.00004673,0.00007859
 ,0.00011721,-0.00031321,0.00020340,0.00072723,-0.00039808,0.00005571,-
 0.00047323,0.00100609,0.00110220,-0.00020792,0.00002177,0.00029217,-0.
 00031906,-0.00048049,0.00028316,0.00027145,0.00011144,0.00007329,0.000
 47592,0.00145033,-0.00035800,0.00220970,-0.00044684,0.00120609,-0.0007
 1334,0.00017963,0.00120916,0.00027162,0.01234953,0.04352709\\-0.000008
 34,-0.00000129,-0.00000681,-0.00004593,0.00005629,0.00006455,-0.000026
 21,-0.00003099,0.00007713,0.00003741,0.00004129,0.00003967,0.00002166,
 -0.00000743,-0.00003754,-0.00000588,0.00003835,0.00003815,0.00006459,-
 0.00003804,0.00000884,-0.00004172,-0.00008357,0.00005614,-0.00004969,0
 .00000119,-0.00011728,-0.00000384,-0.00000528,0.00000280,-0.00001081,-
 0.00001050,0.00000958,0.00005016,0.00002085,-0.00004842,0.00001964,0.0
 0000917,-0.00002181,0.00000268,-0.00000656,-0.00000104,-0.00000700,-0.
 00000214,-0.00000927,-0.00000388,-0.00000735,0.00000385,-0.00001029,-0
 .00000393,-0.00001431,-0.00000369,0.00002849,-0.00001757,0.00001308,0.
 00000656,-0.00004126,0.00000806,-0.00000511,0.00001460\\\@


 SUCCESS IS NEVER CERTAIN,
 FAILURE IS NEVER FINAL.
 Job cpu time:       0 days  2 hours 31 minutes 45.3 seconds.
 Elapsed time:       0 days  0 hours 37 minutes 56.8 seconds.
 File lengths (MBytes):  RWF=    143 Int=      0 D2E=      0 Chk=      9 Scr=      1
 Normal termination of Gaussian 16 at Mon Jul  4 01:08:18 2022.
### All Done ###
