### Starting Gaussian ###
 Entering Gaussian System, Link 0=g16
 Initial command:
 /cluster/software/gaussian/gaussian-16-A.03/avx2/g16/l1.exe "/local/scratch/ks29c/Gau-26291.inp" -scrdir="/local/scratch/ks29c/"
 Entering Link 1 = /cluster/software/gaussian/gaussian-16-A.03/avx2/g16/l1.exe PID=     26292.
  
 Copyright (c) 1988,1990,1992,1993,1995,1998,2003,2009,2016,
            Gaussian, Inc.  All Rights Reserved.
  
 This is part of the Gaussian(R) 16 program.  It is based on
 the Gaussian(R) 09 system (copyright 2009, Gaussian, Inc.),
 the Gaussian(R) 03 system (copyright 2003, Gaussian, Inc.),
 the Gaussian(R) 98 system (copyright 1998, Gaussian, Inc.),
 the Gaussian(R) 94 system (copyright 1995, Gaussian, Inc.),
 the Gaussian 92(TM) system (copyright 1992, Gaussian, Inc.),
 the Gaussian 90(TM) system (copyright 1990, Gaussian, Inc.),
 the Gaussian 88(TM) system (copyright 1988, Gaussian, Inc.),
 the Gaussian 86(TM) system (copyright 1986, Carnegie Mellon
 University), and the Gaussian 82(TM) system (copyright 1983,
 Carnegie Mellon University). Gaussian is a federally registered
 trademark of Gaussian, Inc.
  
 This software contains proprietary and confidential information,
 including trade secrets, belonging to Gaussian, Inc.
  
 This software is provided under written license and may be
 used, copied, transmitted, or stored only in accord with that
 written license.
  
 The following legend is applicable only to US Government
 contracts under FAR:
  
                    RESTRICTED RIGHTS LEGEND
  
 Use, reproduction and disclosure by the US Government is
 subject to restrictions as set forth in subparagraphs (a)
 and (c) of the Commercial Computer Software - Restricted
 Rights clause in FAR 52.227-19.
  
 Gaussian, Inc.
 340 Quinnipiac St., Bldg. 40, Wallingford CT 06492
  
  
 ---------------------------------------------------------------
 Warning -- This program may not be used in any manner that
 competes with the business of Gaussian, Inc. or will provide
 assistance to any competitor of Gaussian, Inc.  The licensee
 of this program is prohibited from giving any competitor of
 Gaussian, Inc. access to this program.  By using this program,
 the user acknowledges that Gaussian, Inc. is engaged in the
 business of creating and licensing software in the field of
 computational chemistry and represents and warrants to the
 licensee that it is not a competitor of Gaussian, Inc. and that
 it will not use this program in any manner prohibited above.
 ---------------------------------------------------------------
  

 Cite this work as:
 Gaussian 16, Revision A.03,
 M. J. Frisch, G. W. Trucks, H. B. Schlegel, G. E. Scuseria, 
 M. A. Robb, J. R. Cheeseman, G. Scalmani, V. Barone, 
 G. A. Petersson, H. Nakatsuji, X. Li, M. Caricato, A. V. Marenich, 
 J. Bloino, B. G. Janesko, R. Gomperts, B. Mennucci, H. P. Hratchian, 
 J. V. Ortiz, A. F. Izmaylov, J. L. Sonnenberg, D. Williams-Young, 
 F. Ding, F. Lipparini, F. Egidi, J. Goings, B. Peng, A. Petrone, 
 T. Henderson, D. Ranasinghe, V. G. Zakrzewski, J. Gao, N. Rega, 
 G. Zheng, W. Liang, M. Hada, M. Ehara, K. Toyota, R. Fukuda, 
 J. Hasegawa, M. Ishida, T. Nakajima, Y. Honda, O. Kitao, H. Nakai, 
 T. Vreven, K. Throssell, J. A. Montgomery, Jr., J. E. Peralta, 
 F. Ogliaro, M. J. Bearpark, J. J. Heyd, E. N. Brothers, K. N. Kudin, 
 V. N. Staroverov, T. A. Keith, R. Kobayashi, J. Normand, 
 K. Raghavachari, A. P. Rendell, J. C. Burant, S. S. Iyengar, 
 J. Tomasi, M. Cossi, J. M. Millam, M. Klene, C. Adamo, R. Cammi, 
 J. W. Ochterski, R. L. Martin, K. Morokuma, O. Farkas, 
 J. B. Foresman, and D. J. Fox, Gaussian, Inc., Wallingford CT, 2016.
 
 ******************************************
 Gaussian 16:  ES64L-G16RevA.03 25-Dec-2016
                 4-Aug-2022 
 ******************************************
 %chk=C1CC2COCCpC1pC2.chk
 %NProcShared=20
 Will use up to   20 processors via shared memory.
 -----------------------------
 # opt freq b3lyp/6-31g(2df,p)
 -----------------------------
 1/18=20,19=15,26=3,38=1/1,3;
 2/9=110,12=2,17=6,18=5,40=1/2;
 3/5=1,6=6,7=104,11=2,25=1,30=1,71=1,74=-5/1,2,3;
 4//1;
 5/5=2,38=5/2;
 6/7=2,8=2,9=2,10=2,28=1/1;
 7//1,2,3,16;
 1/18=20,19=15,26=3/3(2);
 2/9=110/2;
 99//99;
 2/9=110/2;
 3/5=1,6=6,7=104,11=2,25=1,30=1,71=1,74=-5/1,2,3;
 4/5=5,16=3,69=1/1;
 5/5=2,38=5/2;
 7//1,2,3,16;
 1/18=20,19=15,26=3/3(-5);
 2/9=110/2;
 6/7=2,8=2,9=2,10=2,19=2,28=1/1;
 99/9=1/99;
 -------------------
 Title Card Required
 -------------------
 Symbolic Z-matrix:
 Charge =  0 Multiplicity = 1
 C                    -1.81536   0.00669  -0.80157 
 C                    -1.2728   -1.30513  -0.24349 
 C                     0.0162   -1.23272   0.5862 
 C                     1.26011  -1.2177   -0.31093 
 O                     1.4617   -0.00479  -1.01745 
 C                     1.28793   1.20961  -0.29098 
 C                     0.0307    1.2312    0.58447 
 C                    -1.24825   1.31868  -0.25898 
 C                     0.00136   0.00324   1.4747 
 H                    -2.90256   0.01804  -0.6379 
 H                    -1.70303  -0.00046  -1.89397 
 H                    -1.14711  -2.01703  -1.06882 
 H                    -2.05196  -1.74862   0.39367 
 H                     0.0584   -2.12978   1.20718 
 H                     1.1705   -1.9984   -1.07237 
 H                     2.15461  -1.47191   0.28004 
 H                     1.23107   2.00308  -1.03805 
 H                     2.17853   1.42107   0.31686 
 H                     0.07444   2.13484   1.20705 
 H                    -1.10089   2.01228  -1.09493 
 H                    -2.02434   1.78574   0.3622 
 H                    -0.8819    0.00781   2.12233 
 H                     0.88096  -0.00313   2.13615 
 

 GradGradGradGradGradGradGradGradGradGradGradGradGradGradGradGradGradGrad
 Berny optimization.
 Initialization pass.
                           ----------------------------
                           !    Initial Parameters    !
                           ! (Angstroms and Degrees)  !
 --------------------------                            --------------------------
 ! Name  Definition              Value          Derivative Info.                !
 --------------------------------------------------------------------------------
 ! R1    R(1,2)                  1.5254         estimate D2E/DX2                !
 ! R2    R(1,8)                  1.5288         estimate D2E/DX2                !
 ! R3    R(1,10)                 1.0995         estimate D2E/DX2                !
 ! R4    R(1,11)                 1.0982         estimate D2E/DX2                !
 ! R5    R(2,3)                  1.5346         estimate D2E/DX2                !
 ! R6    R(2,12)                 1.0972         estimate D2E/DX2                !
 ! R7    R(2,13)                 1.0999         estimate D2E/DX2                !
 ! R8    R(3,4)                  1.5337         estimate D2E/DX2                !
 ! R9    R(3,9)                  1.5223         estimate D2E/DX2                !
 ! R10   R(3,14)                 1.0918         estimate D2E/DX2                !
 ! R11   R(4,5)                  1.4181         estimate D2E/DX2                !
 ! R12   R(4,15)                 1.0942         estimate D2E/DX2                !
 ! R13   R(4,16)                 1.1018         estimate D2E/DX2                !
 ! R14   R(5,6)                  1.4257         estimate D2E/DX2                !
 ! R15   R(6,7)                  1.5322         estimate D2E/DX2                !
 ! R16   R(6,17)                 1.0913         estimate D2E/DX2                !
 ! R17   R(6,18)                 1.0988         estimate D2E/DX2                !
 ! R18   R(7,8)                  1.5345         estimate D2E/DX2                !
 ! R19   R(7,9)                  1.517          estimate D2E/DX2                !
 ! R20   R(7,19)                 1.0982         estimate D2E/DX2                !
 ! R21   R(8,20)                 1.0962         estimate D2E/DX2                !
 ! R22   R(8,21)                 1.0983         estimate D2E/DX2                !
 ! R23   R(9,22)                 1.0953         estimate D2E/DX2                !
 ! R24   R(9,23)                 1.1006         estimate D2E/DX2                !
 ! A1    A(2,1,8)              118.4401         estimate D2E/DX2                !
 ! A2    A(2,1,10)             107.8261         estimate D2E/DX2                !
 ! A3    A(2,1,11)             108.7815         estimate D2E/DX2                !
 ! A4    A(8,1,10)             107.7642         estimate D2E/DX2                !
 ! A5    A(8,1,11)             108.704          estimate D2E/DX2                !
 ! A6    A(10,1,11)            104.4351         estimate D2E/DX2                !
 ! A7    A(1,2,3)              117.1283         estimate D2E/DX2                !
 ! A8    A(1,2,12)             108.8777         estimate D2E/DX2                !
 ! A9    A(1,2,13)             107.863          estimate D2E/DX2                !
 ! A10   A(3,2,12)             109.9429         estimate D2E/DX2                !
 ! A11   A(3,2,13)             107.5083         estimate D2E/DX2                !
 ! A12   A(12,2,13)            104.7911         estimate D2E/DX2                !
 ! A13   A(2,3,4)              111.4344         estimate D2E/DX2                !
 ! A14   A(2,3,9)              110.2232         estimate D2E/DX2                !
 ! A15   A(2,3,14)             107.5287         estimate D2E/DX2                !
 ! A16   A(4,3,9)              109.9599         estimate D2E/DX2                !
 ! A17   A(4,3,14)             108.0216         estimate D2E/DX2                !
 ! A18   A(9,3,14)             109.6028         estimate D2E/DX2                !
 ! A19   A(3,4,5)              114.5251         estimate D2E/DX2                !
 ! A20   A(3,4,15)             109.4893         estimate D2E/DX2                !
 ! A21   A(3,4,16)             110.0253         estimate D2E/DX2                !
 ! A22   A(5,4,15)             105.9734         estimate D2E/DX2                !
 ! A23   A(5,4,16)             110.4357         estimate D2E/DX2                !
 ! A24   A(15,4,16)            105.9687         estimate D2E/DX2                !
 ! A25   A(4,5,6)              117.2158         estimate D2E/DX2                !
 ! A26   A(5,6,7)              113.7757         estimate D2E/DX2                !
 ! A27   A(5,6,17)             106.072          estimate D2E/DX2                !
 ! A28   A(5,6,18)             110.3042         estimate D2E/DX2                !
 ! A29   A(7,6,17)             109.7643         estimate D2E/DX2                !
 ! A30   A(7,6,18)             110.2606         estimate D2E/DX2                !
 ! A31   A(17,6,18)            106.3198         estimate D2E/DX2                !
 ! A32   A(6,7,8)              111.7551         estimate D2E/DX2                !
 ! A33   A(6,7,9)              109.8632         estimate D2E/DX2                !
 ! A34   A(6,7,19)             107.6277         estimate D2E/DX2                !
 ! A35   A(8,7,9)              110.6453         estimate D2E/DX2                !
 ! A36   A(8,7,19)             107.3305         estimate D2E/DX2                !
 ! A37   A(9,7,19)             109.5204         estimate D2E/DX2                !
 ! A38   A(1,8,7)              117.085          estimate D2E/DX2                !
 ! A39   A(1,8,20)             108.7967         estimate D2E/DX2                !
 ! A40   A(1,8,21)             107.6704         estimate D2E/DX2                !
 ! A41   A(7,8,20)             110.0716         estimate D2E/DX2                !
 ! A42   A(7,8,21)             107.5959         estimate D2E/DX2                !
 ! A43   A(20,8,21)            104.9053         estimate D2E/DX2                !
 ! A44   A(3,9,7)              108.3319         estimate D2E/DX2                !
 ! A45   A(3,9,22)             110.8779         estimate D2E/DX2                !
 ! A46   A(3,9,23)             109.7735         estimate D2E/DX2                !
 ! A47   A(7,9,22)             111.0523         estimate D2E/DX2                !
 ! A48   A(7,9,23)             109.994          estimate D2E/DX2                !
 ! A49   A(22,9,23)            106.8083         estimate D2E/DX2                !
 ! D1    D(8,1,2,3)            -13.4585         estimate D2E/DX2                !
 ! D2    D(8,1,2,12)          -138.9247         estimate D2E/DX2                !
 ! D3    D(8,1,2,13)           107.892          estimate D2E/DX2                !
 ! D4    D(10,1,2,3)          -136.0492         estimate D2E/DX2                !
 ! D5    D(10,1,2,12)           98.4845         estimate D2E/DX2                !
 ! D6    D(10,1,2,13)          -14.6988         estimate D2E/DX2                !
 ! D7    D(11,1,2,3)           111.2489         estimate D2E/DX2                !
 ! D8    D(11,1,2,12)          -14.2174         estimate D2E/DX2                !
 ! D9    D(11,1,2,13)         -127.4007         estimate D2E/DX2                !
 ! D10   D(2,1,8,7)             12.8031         estimate D2E/DX2                !
 ! D11   D(2,1,8,20)           138.3412         estimate D2E/DX2                !
 ! D12   D(2,1,8,21)          -108.4802         estimate D2E/DX2                !
 ! D13   D(10,1,8,7)           135.4248         estimate D2E/DX2                !
 ! D14   D(10,1,8,20)          -99.037          estimate D2E/DX2                !
 ! D15   D(10,1,8,21)           14.1416         estimate D2E/DX2                !
 ! D16   D(11,1,8,7)          -111.9423         estimate D2E/DX2                !
 ! D17   D(11,1,8,20)           13.5959         estimate D2E/DX2                !
 ! D18   D(11,1,8,21)          126.7745         estimate D2E/DX2                !
 ! D19   D(1,2,3,4)            -83.0263         estimate D2E/DX2                !
 ! D20   D(1,2,3,9)             39.3477         estimate D2E/DX2                !
 ! D21   D(1,2,3,14)           158.7741         estimate D2E/DX2                !
 ! D22   D(12,2,3,4)            41.9079         estimate D2E/DX2                !
 ! D23   D(12,2,3,9)           164.282          estimate D2E/DX2                !
 ! D24   D(12,2,3,14)          -76.2917         estimate D2E/DX2                !
 ! D25   D(13,2,3,4)           155.4383         estimate D2E/DX2                !
 ! D26   D(13,2,3,9)           -82.1877         estimate D2E/DX2                !
 ! D27   D(13,2,3,14)           37.2387         estimate D2E/DX2                !
 ! D28   D(2,3,4,5)             72.0288         estimate D2E/DX2                !
 ! D29   D(2,3,4,15)           -46.8094         estimate D2E/DX2                !
 ! D30   D(2,3,4,16)          -162.8879         estimate D2E/DX2                !
 ! D31   D(9,3,4,5)            -50.4967         estimate D2E/DX2                !
 ! D32   D(9,3,4,15)          -169.3349         estimate D2E/DX2                !
 ! D33   D(9,3,4,16)            74.5867         estimate D2E/DX2                !
 ! D34   D(14,3,4,5)          -170.0681         estimate D2E/DX2                !
 ! D35   D(14,3,4,15)           71.0937         estimate D2E/DX2                !
 ! D36   D(14,3,4,16)          -44.9848         estimate D2E/DX2                !
 ! D37   D(2,3,9,7)            -65.3464         estimate D2E/DX2                !
 ! D38   D(2,3,9,22)            56.7535         estimate D2E/DX2                !
 ! D39   D(2,3,9,23)           174.5287         estimate D2E/DX2                !
 ! D40   D(4,3,9,7)             57.8919         estimate D2E/DX2                !
 ! D41   D(4,3,9,22)           179.9917         estimate D2E/DX2                !
 ! D42   D(4,3,9,23)           -62.2331         estimate D2E/DX2                !
 ! D43   D(14,3,9,7)           176.4949         estimate D2E/DX2                !
 ! D44   D(14,3,9,22)          -61.4052         estimate D2E/DX2                !
 ! D45   D(14,3,9,23)           56.37           estimate D2E/DX2                !
 ! D46   D(3,4,5,6)             44.3654         estimate D2E/DX2                !
 ! D47   D(15,4,5,6)           165.1655         estimate D2E/DX2                !
 ! D48   D(16,4,5,6)           -80.5017         estimate D2E/DX2                !
 ! D49   D(4,5,6,7)            -45.1792         estimate D2E/DX2                !
 ! D50   D(4,5,6,17)          -165.9407         estimate D2E/DX2                !
 ! D51   D(4,5,6,18)            79.3256         estimate D2E/DX2                !
 ! D52   D(5,6,7,8)            -70.8119         estimate D2E/DX2                !
 ! D53   D(5,6,7,9)             52.4045         estimate D2E/DX2                !
 ! D54   D(5,6,7,19)           171.5859         estimate D2E/DX2                !
 ! D55   D(17,6,7,8)            47.8574         estimate D2E/DX2                !
 ! D56   D(17,6,7,9)           171.0737         estimate D2E/DX2                !
 ! D57   D(17,6,7,19)          -69.7448         estimate D2E/DX2                !
 ! D58   D(18,6,7,8)           164.6599         estimate D2E/DX2                !
 ! D59   D(18,6,7,9)           -72.1238         estimate D2E/DX2                !
 ! D60   D(18,6,7,19)           47.0577         estimate D2E/DX2                !
 ! D61   D(6,7,8,1)             84.5002         estimate D2E/DX2                !
 ! D62   D(6,7,8,20)           -40.4008         estimate D2E/DX2                !
 ! D63   D(6,7,8,21)          -154.1777         estimate D2E/DX2                !
 ! D64   D(9,7,8,1)            -38.2716         estimate D2E/DX2                !
 ! D65   D(9,7,8,20)          -163.1726         estimate D2E/DX2                !
 ! D66   D(9,7,8,21)            83.0505         estimate D2E/DX2                !
 ! D67   D(19,7,8,1)          -157.7193         estimate D2E/DX2                !
 ! D68   D(19,7,8,20)           77.3797         estimate D2E/DX2                !
 ! D69   D(19,7,8,21)          -36.3971         estimate D2E/DX2                !
 ! D70   D(6,7,9,3)            -59.0003         estimate D2E/DX2                !
 ! D71   D(6,7,9,22)           179.0065         estimate D2E/DX2                !
 ! D72   D(6,7,9,23)            60.9867         estimate D2E/DX2                !
 ! D73   D(8,7,9,3)             64.8653         estimate D2E/DX2                !
 ! D74   D(8,7,9,22)           -57.1278         estimate D2E/DX2                !
 ! D75   D(8,7,9,23)          -175.1476         estimate D2E/DX2                !
 ! D76   D(19,7,9,3)          -177.0151         estimate D2E/DX2                !
 ! D77   D(19,7,9,22)           60.9918         estimate D2E/DX2                !
 ! D78   D(19,7,9,23)          -57.0281         estimate D2E/DX2                !
 --------------------------------------------------------------------------------
 Trust Radius=3.00D-01 FncErr=1.00D-07 GrdErr=1.00D-06 EigMax=2.50D+02 EigMin=1.00D-04
 Number of steps in this run=    138 maximum allowed number of steps=    138.
 GradGradGradGradGradGradGradGradGradGradGradGradGradGradGradGradGradGrad

                          Input orientation:                          
 ---------------------------------------------------------------------
 Center     Atomic      Atomic             Coordinates (Angstroms)
 Number     Number       Type             X           Y           Z
 ---------------------------------------------------------------------
      1          6           0       -1.815360    0.006690   -0.801570
      2          6           0       -1.272800   -1.305130   -0.243490
      3          6           0        0.016200   -1.232720    0.586200
      4          6           0        1.260110   -1.217700   -0.310930
      5          8           0        1.461700   -0.004790   -1.017450
      6          6           0        1.287930    1.209610   -0.290980
      7          6           0        0.030700    1.231200    0.584470
      8          6           0       -1.248250    1.318680   -0.258980
      9          6           0        0.001360    0.003240    1.474700
     10          1           0       -2.902560    0.018040   -0.637900
     11          1           0       -1.703030   -0.000460   -1.893970
     12          1           0       -1.147110   -2.017030   -1.068820
     13          1           0       -2.051960   -1.748620    0.393670
     14          1           0        0.058400   -2.129780    1.207180
     15          1           0        1.170500   -1.998400   -1.072370
     16          1           0        2.154610   -1.471910    0.280040
     17          1           0        1.231070    2.003080   -1.038050
     18          1           0        2.178530    1.421070    0.316860
     19          1           0        0.074440    2.134840    1.207050
     20          1           0       -1.100890    2.012280   -1.094930
     21          1           0       -2.024340    1.785740    0.362200
     22          1           0       -0.881900    0.007810    2.122330
     23          1           0        0.880960   -0.003130    2.136150
 ---------------------------------------------------------------------
                    Distance matrix (angstroms):
                    1          2          3          4          5
     1  C    0.000000
     2  C    1.525351   0.000000
     3  C    2.610872   1.534650   0.000000
     4  C    3.346397   2.535316   1.533747   0.000000
     5  O    3.284183   3.125282   2.483742   1.418083   0.000000
     6  C    3.367214   3.589361   2.889934   2.427551   1.425736
     7  C    2.613134   2.969444   2.463963   2.882759   2.478221
     8  C    1.528835   2.623971   2.970321   3.567603   3.109771
     9  C    2.912368   2.507487   1.522251   2.502723   2.888506
    10  H    1.099509   2.135991   3.403231   4.354513   4.380793
    11  H    1.098183   2.147404   3.259672   3.573218   3.283873
    12  H    2.147888   1.097164   2.169683   2.647269   3.295093
    13  H    2.136748   1.099885   2.140212   3.427557   4.168694
    14  H    3.480023   2.134616   1.091840   2.140246   3.381392
    15  H    3.606810   2.671588   2.160909   1.094218   2.015513
    16  H    4.372276   3.471173   2.173417   1.101816   2.077509
    17  H    3.649963   4.224328   3.818966   3.301965   2.021177
    18  H    4.382067   4.433716   3.433776   2.863690   2.080218
    19  H    3.483521   3.968944   3.424808   3.866471   3.383919
    20  H    2.149167   3.429244   3.821533   4.076978   3.262122
    21  H    2.136130   3.238078   3.650353   4.501263   4.154745
    22  H    3.069290   2.733810   2.169146   3.465665   3.918015
    23  H    3.987535   3.463607   2.159177   2.758104   3.206627
                    6          7          8          9         10
     6  C    0.000000
     7  C    1.532157   0.000000
     8  C    2.538726   1.534527   0.000000
     9  C    2.495640   1.516989   2.509493   0.000000
    10  H    4.370400   3.401464   2.138220   3.591107   0.000000
    11  H    3.602733   3.265803   2.149453   3.775301   1.736930
    12  H    4.116511   3.830353   3.434098   3.445282   2.721912
    13  H    4.513838   3.640495   3.237319   2.907535   2.215569
    14  H    3.861056   3.418292   3.968480   2.150487   4.096918
    15  H    3.303890   3.804547   4.185090   3.443983   4.565590
    16  H    2.875369   3.451156   4.433666   2.870499   5.351405
    17  H    1.091303   2.160847   2.687449   3.438817   4.602977
    18  H    1.098796   2.172749   3.476334   2.844452   5.357008
    19  H    2.138388   1.098219   2.136556   2.149580   4.092336
    20  H    2.645199   2.170476   1.096179   3.442992   2.726148
    21  H    3.424865   2.140119   1.098328   2.918634   2.212743
    22  H    3.460715   2.166688   2.742851   1.095260   3.420825
    23  H    2.743597   2.157365   3.466607   1.100569   4.691570
                   11         12         13         14         15
    11  H    0.000000
    12  H    2.248661   0.000000
    13  H    2.900192   1.740596   0.000000
    14  H    4.153766   2.578011   2.293622   0.000000
    15  H    3.594992   2.317688   3.549072   2.539759   0.000000
    16  H    4.666141   3.608037   4.217192   2.384634   1.753476
    17  H    3.654547   4.670971   5.186845   4.847344   4.002086
    18  H    4.687753   4.980012   5.286765   4.230385   3.826076
    19  H    4.163560   4.889764   4.501603   4.264650   4.845697
    20  H    2.247701   4.029660   4.155097   4.878558   4.609260
    21  H    2.895523   4.156731   3.534608   4.514764   5.156036
    22  H    4.099389   3.788635   2.728067   2.508178   4.294570
    23  H    4.787367   4.294263   3.832100   2.462160   3.789398
                   16         17         18         19         20
    16  H    0.000000
    17  H    3.829601   0.000000
    18  H    2.893313   1.752768   0.000000
    19  H    4.265572   2.528958   2.393554   0.000000
    20  H    4.962701   2.332672   3.619016   2.587573   0.000000
    21  H    5.299307   3.550441   4.218905   2.289218   1.739916
    22  H    3.847596   4.293454   3.824037   2.505310   3.796922
    23  H    2.687870   3.771339   2.649877   2.466702   4.292958
                   21         22         23
    21  H    0.000000
    22  H    2.750320   0.000000
    23  H    3.845481   1.762948   0.000000
 Stoichiometry    C8H14O
 Framework group  C1[X(C8H14O)]
 Deg. of freedom    63
 Full point group                 C1      NOp   1
 Largest Abelian subgroup         C1      NOp   1
 Largest concise Abelian subgroup C1      NOp   1
                         Standard orientation:                         
 ---------------------------------------------------------------------
 Center     Atomic      Atomic             Coordinates (Angstroms)
 Number     Number       Type             X           Y           Z
 ---------------------------------------------------------------------
      1          6           0       -1.787672    0.033816   -0.735793
      2          6           0       -1.256941   -1.286067   -0.185403
      3          6           0        0.046999   -1.233707    0.622155
      4          6           0        1.275535   -1.239658   -0.296019
      5          8           0        1.484625   -0.030844   -1.007362
      6          6           0        1.342880    1.186903   -0.279542
      7          6           0        0.101249    1.229654    0.617137
      8          6           0       -1.190296    1.336987   -0.204547
      9          6           0        0.067246    0.003183    1.509252
     10          1           0       -2.871603    0.062897   -0.553671
     11          1           0       -1.694086    0.023803   -1.829936
     12          1           0       -1.156832   -2.000697   -1.011872
     13          1           0       -2.032200   -1.716292    0.465464
     14          1           0        0.085275   -2.130736    1.243434
     15          1           0        1.160380   -2.019538   -1.054861
     16          1           0        2.175745   -1.507728    0.279966
     17          1           0        1.286128    1.980471   -1.026516
     18          1           0        2.246997    1.384522    0.312802
     19          1           0        0.170167    2.133065    1.237767
     20          1           0       -1.046010    2.027312   -1.043738
     21          1           0       -1.948055    1.817128    0.429165
     22          1           0       -0.804671    0.022652    2.171804
     23          1           0        0.957762   -0.016770    2.155654
 ---------------------------------------------------------------------
 Rotational constants (GHZ):           2.1775275           1.8700347           1.5033107
 Standard basis: 6-31G(2df,p) (6D, 7F)
 There are   349 symmetry adapted cartesian basis functions of A   symmetry.
 There are   322 symmetry adapted basis functions of A   symmetry.
   322 basis functions,   494 primitive gaussians,   349 cartesian basis functions
    35 alpha electrons       35 beta electrons
       nuclear repulsion energy       506.1949200678 Hartrees.
 NAtoms=   23 NActive=   23 NUniq=   23 SFac= 1.00D+00 NAtFMM=   60 NAOKFM=F Big=F
 Integral buffers will be    131072 words long.
 Raffenetti 2 integral format.
 Two-electron integral symmetry is turned on.
 One-electron integrals computed using PRISM.
 PrsmSu:  requested number of processors reduced to:  13 ShMem   1 Linda.
 NBasis=   322 RedAO= T EigKep=  5.41D-04  NBF=   322
 NBsUse=   322 1.00D-06 EigRej= -1.00D+00 NBFU=   322
 ExpMin= 1.61D-01 ExpMax= 5.48D+03 ExpMxC= 8.25D+02 IAcc=3 IRadAn=         5 AccDes= 0.00D+00
 Harris functional with IExCor=  402 and IRadAn=       5 diagonalized for initial guess.
 HarFok:  IExCor=  402 AccDes= 0.00D+00 IRadAn=         5 IDoV= 1 UseB2=F ITyADJ=14
 ICtDFT=  3500011 ScaDFX=  1.000000  1.000000  1.000000  1.000000
 FoFCou: FMM=F IPFlag=           0 FMFlag=      100000 FMFlg1=           0
         NFxFlg=           0 DoJE=T BraDBF=F KetDBF=T FulRan=T
         wScrn=  0.000000 ICntrl=       500 IOpCl=  0 I1Cent=   200000004 NGrid=           0
         NMat0=    1 NMatS0=      1 NMatT0=    0 NMatD0=    1 NMtDS0=    0 NMtDT0=    0
 Petite list used in FoFCou.
 Requested convergence on RMS density matrix=1.00D-08 within 128 cycles.
 Requested convergence on MAX density matrix=1.00D-06.
 Requested convergence on             energy=1.00D-06.
 No special actions if energy rises.
 Integral accuracy reduced to 1.0D-05 until final iterations.
 Initial convergence to 1.0D-05 achieved.  Increase integral accuracy.
 SCF Done:  E(RB3LYP) =  -388.518490892     A.U. after   12 cycles
            NFock= 12  Conv=0.74D-08     -V/T= 2.0079

 **********************************************************************

            Population analysis using the SCF density.

 **********************************************************************

 Orbital symmetries:
       Occupied  (A) (A) (A) (A) (A) (A) (A) (A) (A) (A) (A) (A)
                 (A) (A) (A) (A) (A) (A) (A) (A) (A) (A) (A) (A)
                 (A) (A) (A) (A) (A) (A) (A) (A) (A) (A) (A)
       Virtual   (A) (A) (A) (A) (A) (A) (A) (A) (A) (A) (A) (A)
                 (A) (A) (A) (A) (A) (A) (A) (A) (A) (A) (A) (A)
                 (A) (A) (A) (A) (A) (A) (A) (A) (A) (A) (A) (A)
                 (A) (A) (A) (A) (A) (A) (A) (A) (A) (A) (A) (A)
                 (A) (A) (A) (A) (A) (A) (A) (A) (A) (A) (A) (A)
                 (A) (A) (A) (A) (A) (A) (A) (A) (A) (A) (A) (A)
                 (A) (A) (A) (A) (A) (A) (A) (A) (A) (A) (A) (A)
                 (A) (A) (A) (A) (A) (A) (A) (A) (A) (A) (A) (A)
                 (A) (A) (A) (A) (A) (A) (A) (A) (A) (A) (A) (A)
                 (A) (A) (A) (A) (A) (A) (A) (A) (A) (A) (A) (A)
                 (A) (A) (A) (A) (A) (A) (A) (A) (A) (A) (A) (A)
                 (A) (A) (A) (A) (A) (A) (A) (A) (A) (A) (A) (A)
                 (A) (A) (A) (A) (A) (A) (A) (A) (A) (A) (A) (A)
                 (A) (A) (A) (A) (A) (A) (A) (A) (A) (A) (A) (A)
                 (A) (A) (A) (A) (A) (A) (A) (A) (A) (A) (A) (A)
                 (A) (A) (A) (A) (A) (A) (A) (A) (A) (A) (A) (A)
                 (A) (A) (A) (A) (A) (A) (A) (A) (A) (A) (A) (A)
                 (A) (A) (A) (A) (A) (A) (A) (A) (A) (A) (A) (A)
                 (A) (A) (A) (A) (A) (A) (A) (A) (A) (A) (A) (A)
                 (A) (A) (A) (A) (A) (A) (A) (A) (A) (A) (A) (A)
                 (A) (A) (A) (A) (A) (A) (A) (A) (A) (A) (A) (A)
                 (A) (A) (A) (A) (A) (A) (A) (A) (A) (A) (A) (A)
                 (A) (A) (A) (A) (A) (A) (A) (A) (A) (A) (A) (A)
                 (A) (A) (A) (A) (A) (A) (A) (A) (A) (A) (A)
 The electronic state is 1-A.
 Alpha  occ. eigenvalues --  -19.12869 -10.21758 -10.21723 -10.18023 -10.17962
 Alpha  occ. eigenvalues --  -10.17576 -10.17178 -10.17153 -10.17007  -1.01872
 Alpha  occ. eigenvalues --   -0.83185  -0.77615  -0.74634  -0.68852  -0.64291
 Alpha  occ. eigenvalues --   -0.59709  -0.58959  -0.51497  -0.47086  -0.46847
 Alpha  occ. eigenvalues --   -0.46100  -0.45599  -0.43607  -0.42005  -0.40063
 Alpha  occ. eigenvalues --   -0.38061  -0.36455  -0.36253  -0.34879  -0.33225
 Alpha  occ. eigenvalues --   -0.30985  -0.30126  -0.29585  -0.27448  -0.23736
 Alpha virt. eigenvalues --    0.06536   0.09331   0.11434   0.12290   0.13339
 Alpha virt. eigenvalues --    0.14214   0.14720   0.15983   0.16198   0.17455
 Alpha virt. eigenvalues --    0.18563   0.19298   0.19706   0.19988   0.21316
 Alpha virt. eigenvalues --    0.22994   0.23445   0.23675   0.24869   0.26523
 Alpha virt. eigenvalues --    0.28211   0.30753   0.32184   0.35229   0.42253
 Alpha virt. eigenvalues --    0.45417   0.45979   0.47641   0.48732   0.50474
 Alpha virt. eigenvalues --    0.51291   0.53521   0.54814   0.55586   0.57521
 Alpha virt. eigenvalues --    0.58255   0.58673   0.60441   0.61790   0.63868
 Alpha virt. eigenvalues --    0.63939   0.65106   0.65418   0.67671   0.68112
 Alpha virt. eigenvalues --    0.70683   0.72638   0.74166   0.75060   0.75415
 Alpha virt. eigenvalues --    0.75652   0.77565   0.78004   0.79476   0.80062
 Alpha virt. eigenvalues --    0.82601   0.83023   0.84163   0.85404   0.85703
 Alpha virt. eigenvalues --    0.86579   0.88067   0.89696   0.91313   0.94878
 Alpha virt. eigenvalues --    1.01422   1.02509   1.04327   1.06975   1.09893
 Alpha virt. eigenvalues --    1.15517   1.17606   1.17998   1.23087   1.23503
 Alpha virt. eigenvalues --    1.24691   1.28079   1.30130   1.31739   1.34754
 Alpha virt. eigenvalues --    1.36201   1.37002   1.37585   1.38978   1.40821
 Alpha virt. eigenvalues --    1.42087   1.44404   1.45529   1.47041   1.49498
 Alpha virt. eigenvalues --    1.50515   1.52144   1.52751   1.54229   1.56158
 Alpha virt. eigenvalues --    1.58208   1.60502   1.64514   1.64822   1.65019
 Alpha virt. eigenvalues --    1.68410   1.72400   1.75224   1.76481   1.77916
 Alpha virt. eigenvalues --    1.78519   1.82035   1.84477   1.87196   1.89609
 Alpha virt. eigenvalues --    1.92811   1.93022   1.95095   1.96197   1.99231
 Alpha virt. eigenvalues --    1.99643   2.03570   2.14524   2.17656   2.17796
 Alpha virt. eigenvalues --    2.21874   2.25931   2.28167   2.28876   2.30098
 Alpha virt. eigenvalues --    2.35753   2.36937   2.38758   2.39345   2.42387
 Alpha virt. eigenvalues --    2.43841   2.46912   2.51469   2.52499   2.54426
 Alpha virt. eigenvalues --    2.54768   2.56768   2.57783   2.62006   2.62829
 Alpha virt. eigenvalues --    2.67582   2.67852   2.68881   2.71700   2.74795
 Alpha virt. eigenvalues --    2.79522   2.80182   2.82936   2.85336   2.86091
 Alpha virt. eigenvalues --    2.87798   2.88239   2.91712   2.92898   2.95564
 Alpha virt. eigenvalues --    2.95897   2.97441   2.97741   3.00558   3.03832
 Alpha virt. eigenvalues --    3.06435   3.08814   3.11164   3.16700   3.18405
 Alpha virt. eigenvalues --    3.21406   3.25220   3.28183   3.28278   3.29180
 Alpha virt. eigenvalues --    3.33034   3.34245   3.34593   3.37342   3.38843
 Alpha virt. eigenvalues --    3.41711   3.42592   3.42850   3.43474   3.47551
 Alpha virt. eigenvalues --    3.48159   3.49434   3.51796   3.52993   3.55520
 Alpha virt. eigenvalues --    3.55895   3.57587   3.58059   3.65510   3.65998
 Alpha virt. eigenvalues --    3.68887   3.72526   3.76291   3.77353   3.79585
 Alpha virt. eigenvalues --    3.80996   3.85588   3.89234   3.92382   3.94056
 Alpha virt. eigenvalues --    3.94339   3.98917   4.01876   4.07702   4.12680
 Alpha virt. eigenvalues --    4.13256   4.18833   4.21967   4.29454   4.31666
 Alpha virt. eigenvalues --    4.32480   4.35952   4.38119   4.42136   4.47502
 Alpha virt. eigenvalues --    4.49316   4.50482   4.50919   4.53301   4.53844
 Alpha virt. eigenvalues --    4.56589   4.58844   4.60778   4.61214   4.62327
 Alpha virt. eigenvalues --    4.64416   4.66099   4.67522   4.68774   4.70984
 Alpha virt. eigenvalues --    4.71930   4.74048   4.75853   4.76661   4.80105
 Alpha virt. eigenvalues --    4.80389   4.81041   4.81632   4.82443   4.85799
 Alpha virt. eigenvalues --    4.86134   4.88324   4.89023   4.89391   4.93032
 Alpha virt. eigenvalues --    4.95650   4.97483   5.00119   5.02794   5.03532
 Alpha virt. eigenvalues --    5.06720   5.08602   5.12300   5.12768   5.17387
 Alpha virt. eigenvalues --    5.19812   5.26078   5.33009   5.41195   5.41965
 Alpha virt. eigenvalues --    5.43406   5.47179   5.48652   5.48965   5.51231
 Alpha virt. eigenvalues --    5.59558   5.62523   5.65922   5.74239   5.93078
 Alpha virt. eigenvalues --    5.96155   6.04221   6.09751   6.23355   6.26434
 Alpha virt. eigenvalues --    6.67019   6.84699   7.29704  11.01098  11.57003
 Alpha virt. eigenvalues --   11.58846  12.06808  12.31792  12.70754  12.80530
 Alpha virt. eigenvalues --   12.85139  13.60805
          Condensed to atoms (all electrons):
               1          2          3          4          5          6
     1  C    4.784494   0.425591  -0.025351  -0.000749   0.004096  -0.000550
     2  C    0.425591   4.837942   0.414344  -0.026649   0.001083   0.000063
     3  C   -0.025351   0.414344   4.753249   0.373436  -0.043741  -0.019073
     4  C   -0.000749  -0.026649   0.373436   4.761509   0.404795  -0.087454
     5  O    0.004096   0.001083  -0.043741   0.404795   7.662444   0.400809
     6  C   -0.000550   0.000063  -0.019073  -0.087454   0.400809   4.765058
     7  C   -0.025212  -0.017126   0.006872  -0.018782  -0.044805   0.374655
     8  C    0.424178  -0.034078  -0.017110   0.000037   0.001358  -0.026746
     9  C   -0.023535  -0.034188   0.414145  -0.029884  -0.009070  -0.029712
    10  H    0.368585  -0.032812   0.002846  -0.000042   0.000094  -0.000035
    11  H    0.375257  -0.032886   0.001559   0.000844   0.000570   0.000746
    12  H   -0.031537   0.367110  -0.034234  -0.009319  -0.000055  -0.000175
    13  H   -0.036743   0.361753  -0.029009   0.004399  -0.000003   0.000006
    14  H    0.004734  -0.036624   0.353739  -0.032501   0.002417   0.000726
    15  H   -0.000215  -0.010522  -0.031908   0.366516  -0.021872   0.004412
    16  H    0.000100   0.005928  -0.050638   0.351975  -0.037294  -0.000100
    17  H   -0.000186  -0.000090   0.000617   0.004206  -0.021383   0.366899
    18  H    0.000085   0.000077  -0.001846   0.000072  -0.036571   0.352763
    19  H    0.004686   0.000572   0.002882   0.000721   0.002439  -0.032759
    20  H   -0.031208   0.003410   0.000632  -0.000199  -0.000036  -0.009247
    21  H   -0.036666   0.002654  -0.000020   0.000012   0.000011   0.004402
    22  H   -0.000530  -0.002747  -0.034031   0.003946  -0.000003   0.004003
    23  H    0.000646   0.004210  -0.030626  -0.001777  -0.000770  -0.002132
               7          8          9         10         11         12
     1  C   -0.025212   0.424178  -0.023535   0.368585   0.375257  -0.031537
     2  C   -0.017126  -0.034078  -0.034188  -0.032812  -0.032886   0.367110
     3  C    0.006872  -0.017110   0.414145   0.002846   0.001559  -0.034234
     4  C   -0.018782   0.000037  -0.029884  -0.000042   0.000844  -0.009319
     5  O   -0.044805   0.001358  -0.009070   0.000094   0.000570  -0.000055
     6  C    0.374655  -0.026746  -0.029712  -0.000035   0.000746  -0.000175
     7  C    4.747390   0.413840   0.416194   0.002753   0.001659   0.000617
     8  C    0.413840   4.839663  -0.034799  -0.032792  -0.032840   0.003466
     9  C    0.416194  -0.034799   4.920873   0.001013  -0.000135   0.004695
    10  H    0.002753  -0.032792   0.001013   0.669942  -0.044130   0.004499
    11  H    0.001659  -0.032840  -0.000135  -0.044130   0.646086  -0.015382
    12  H    0.000617   0.003466   0.004695   0.004499  -0.015382   0.651946
    13  H   -0.000002   0.002634  -0.001077  -0.017869   0.006543  -0.041059
    14  H    0.002829   0.000574  -0.042697  -0.000161  -0.000143   0.000759
    15  H    0.000613  -0.000107   0.004425  -0.000019  -0.000119   0.006779
    16  H   -0.001866   0.000090  -0.006177   0.000009   0.000008   0.000095
    17  H   -0.031262  -0.010225   0.004470  -0.000016  -0.000105  -0.000004
    18  H   -0.050053   0.005954  -0.006690   0.000009   0.000007  -0.000001
    19  H    0.352522  -0.036700  -0.042861  -0.000157  -0.000143   0.000021
    20  H   -0.033940   0.367288   0.004659   0.004543  -0.015326  -0.000116
    21  H   -0.028584   0.362149  -0.000812  -0.017760   0.006516  -0.000173
    22  H   -0.033839  -0.002549   0.367012  -0.000490   0.000061  -0.000110
    23  H   -0.030577   0.004273   0.353160   0.000030   0.000010  -0.000209
              13         14         15         16         17         18
     1  C   -0.036743   0.004734  -0.000215   0.000100  -0.000186   0.000085
     2  C    0.361753  -0.036624  -0.010522   0.005928  -0.000090   0.000077
     3  C   -0.029009   0.353739  -0.031908  -0.050638   0.000617  -0.001846
     4  C    0.004399  -0.032501   0.366516   0.351975   0.004206   0.000072
     5  O   -0.000003   0.002417  -0.021872  -0.037294  -0.021383  -0.036571
     6  C    0.000006   0.000726   0.004412  -0.000100   0.366899   0.352763
     7  C   -0.000002   0.002829   0.000613  -0.001866  -0.031262  -0.050053
     8  C    0.002634   0.000574  -0.000107   0.000090  -0.010225   0.005954
     9  C   -0.001077  -0.042697   0.004425  -0.006177   0.004470  -0.006690
    10  H   -0.017869  -0.000161  -0.000019   0.000009  -0.000016   0.000009
    11  H    0.006543  -0.000143  -0.000119   0.000008  -0.000105   0.000007
    12  H   -0.041059   0.000759   0.006779   0.000095  -0.000004  -0.000001
    13  H    0.671134  -0.010298   0.000081  -0.000286  -0.000003  -0.000001
    14  H   -0.010298   0.701880   0.000458  -0.002613   0.000024   0.000000
    15  H    0.000081   0.000458   0.630111  -0.049168  -0.000178  -0.000321
    16  H   -0.000286  -0.002613  -0.049168   0.704841  -0.000305   0.006875
    17  H   -0.000003   0.000024  -0.000178  -0.000305   0.627366  -0.048818
    18  H   -0.000001   0.000000  -0.000321   0.006875  -0.048818   0.699643
    19  H   -0.000003  -0.000223   0.000025   0.000007   0.000180  -0.002230
    20  H   -0.000173   0.000021  -0.000004  -0.000000   0.006566   0.000098
    21  H    0.000168  -0.000002  -0.000003  -0.000000   0.000064  -0.000273
    22  H    0.003208  -0.003935  -0.000198  -0.000199  -0.000203  -0.000193
    23  H   -0.000118  -0.004054  -0.000128   0.004611  -0.000113   0.004951
              19         20         21         22         23
     1  C    0.004686  -0.031208  -0.036666  -0.000530   0.000646
     2  C    0.000572   0.003410   0.002654  -0.002747   0.004210
     3  C    0.002882   0.000632  -0.000020  -0.034031  -0.030626
     4  C    0.000721  -0.000199   0.000012   0.003946  -0.001777
     5  O    0.002439  -0.000036   0.000011  -0.000003  -0.000770
     6  C   -0.032759  -0.009247   0.004402   0.004003  -0.002132
     7  C    0.352522  -0.033940  -0.028584  -0.033839  -0.030577
     8  C   -0.036700   0.367288   0.362149  -0.002549   0.004273
     9  C   -0.042861   0.004659  -0.000812   0.367012   0.353160
    10  H   -0.000157   0.004543  -0.017760  -0.000490   0.000030
    11  H   -0.000143  -0.015326   0.006516   0.000061   0.000010
    12  H    0.000021  -0.000116  -0.000173  -0.000110  -0.000209
    13  H   -0.000003  -0.000173   0.000168   0.003208  -0.000118
    14  H   -0.000223   0.000021  -0.000002  -0.003935  -0.004054
    15  H    0.000025  -0.000004  -0.000003  -0.000198  -0.000128
    16  H    0.000007  -0.000000  -0.000000  -0.000199   0.004611
    17  H    0.000180   0.006566   0.000064  -0.000203  -0.000113
    18  H   -0.002230   0.000098  -0.000273  -0.000193   0.004951
    19  H    0.704809   0.000983  -0.010760  -0.004199  -0.004011
    20  H    0.000983   0.650302  -0.041113  -0.000118  -0.000207
    21  H   -0.010760  -0.041113   0.669504   0.003024  -0.000119
    22  H   -0.004199  -0.000118   0.003024   0.652725  -0.038234
    23  H   -0.004011  -0.000207  -0.000119  -0.038234   0.655498
 Mulliken charges:
               1
     1  C   -0.179970
     2  C   -0.197014
     3  C   -0.006735
     4  C   -0.065113
     5  O   -0.264510
     6  C   -0.066560
     7  C   -0.003895
     8  C   -0.197558
     9  C   -0.229008
    10  H    0.091961
    11  H    0.101345
    12  H    0.092385
    13  H    0.086717
    14  H    0.065092
    15  H    0.101342
    16  H    0.074107
    17  H    0.102498
    18  H    0.076464
    19  H    0.064199
    20  H    0.093185
    21  H    0.087782
    22  H    0.087598
    23  H    0.085687
 Sum of Mulliken charges =  -0.00000
 Mulliken charges with hydrogens summed into heavy atoms:
               1
     1  C    0.013336
     2  C   -0.017912
     3  C    0.058357
     4  C    0.110336
     5  O   -0.264510
     6  C    0.112402
     7  C    0.060305
     8  C   -0.016591
     9  C   -0.055723
 Electronic spatial extent (au):  <R**2>=           1038.2351
 Charge=              0.0000 electrons
 Dipole moment (field-independent basis, Debye):
    X=             -0.6788    Y=              0.0395    Z=              1.1849  Tot=              1.3661
 Quadrupole moment (field-independent basis, Debye-Ang):
   XX=            -57.6240   YY=            -53.7728   ZZ=            -57.5398
   XY=              0.1240   XZ=              1.8354   YZ=             -0.0503
 Traceless Quadrupole moment (field-independent basis, Debye-Ang):
   XX=             -1.3118   YY=              2.5394   ZZ=             -1.2276
   XY=              0.1240   XZ=              1.8354   YZ=             -0.0503
 Octapole moment (field-independent basis, Debye-Ang**2):
  XXX=              2.6577  YYY=             -0.2257  ZZZ=             -3.1339  XYY=              5.5544
  XXY=              0.3898  XXZ=              3.9020  XZZ=             -1.2047  YZZ=             -0.0068
  YYZ=             -3.5937  XYZ=             -0.1920
 Hexadecapole moment (field-independent basis, Debye-Ang**3):
 XXXX=           -589.8867 YYYY=           -501.9538 ZZZZ=           -304.2908 XXXY=              0.1753
 XXXZ=             -2.3591 YYYX=              0.0678 YYYZ=              0.1323 ZZZX=             -2.4341
 ZZZY=             -0.0619 XXYY=           -180.6017 XXZZ=           -152.4309 YYZZ=           -128.7948
 XXYZ=             -0.1967 YYXZ=             -5.3551 ZZXY=              0.2113
 N-N= 5.061949200678D+02 E-N=-1.914860380028D+03  KE= 3.854910685714D+02
 PrsmSu:  requested number of processors reduced to:  13 ShMem   1 Linda.
 Calling FoFJK, ICntrl=      2127 FMM=F ISym2X=0 I1Cent= 0 IOpClX= 0 NMat=1 NMatS=1 NMatT=0.
 ***** Axes restored to original set *****
 -------------------------------------------------------------------
 Center     Atomic                   Forces (Hartrees/Bohr)
 Number     Number              X              Y              Z
 -------------------------------------------------------------------
      1        6          -0.009919698    0.001175016   -0.017627400
      2        6          -0.007945175   -0.013689446    0.007158848
      3        6          -0.000625373   -0.001288895   -0.007984922
      4        6           0.005363432    0.000403467    0.005206907
      5        8          -0.007895037    0.003570740   -0.005958510
      6        6           0.003347275   -0.006466900    0.003387845
      7        6           0.000771773    0.008063024   -0.005525516
      8        6          -0.007768817    0.011221194    0.005930332
      9        6           0.006136379   -0.002341376    0.009587072
     10        1           0.002336554   -0.000043023   -0.002600144
     11        1           0.001922507    0.000008258    0.002179692
     12        1           0.001084669   -0.000515244    0.001823347
     13        1           0.002403697    0.000098587    0.000863085
     14        1           0.002745742   -0.003189964    0.000207413
     15        1           0.000462213    0.000637179   -0.001988716
     16        1           0.001543899    0.002665556    0.003221812
     17        1           0.000398911    0.000235102   -0.003314772
     18        1           0.002490298   -0.002180293    0.003909065
     19        1           0.002455565    0.000115662   -0.001585605
     20        1           0.001297823    0.000886252    0.001532886
     21        1           0.002015462    0.000393470    0.001350422
     22        1          -0.001135161   -0.000030795    0.000392892
     23        1          -0.001486938    0.000272428   -0.000166035
 -------------------------------------------------------------------
 Cartesian Forces:  Max     0.017627400 RMS     0.004810363

 GradGradGradGradGradGradGradGradGradGradGradGradGradGradGradGradGradGrad
 Berny optimization.
 FormGI is forming the generalized inverse of G from B-inverse, IUseBI=4.
 Internal  Forces:  Max     0.016025800 RMS     0.002497941
 Search for a local minimum.
 Step number   1 out of a maximum of  138
 All quantities printed in internal units (Hartrees-Bohrs-Radians)
 Mixed Optimization -- RFO/linear search
 Second derivative matrix not updated -- first step.
 ITU=  0
     Eigenvalues ---    0.00399   0.00541   0.01142   0.01192   0.01335
     Eigenvalues ---    0.02000   0.02841   0.03070   0.03725   0.04266
     Eigenvalues ---    0.04403   0.04470   0.04690   0.04721   0.04747
     Eigenvalues ---    0.04867   0.05162   0.05529   0.05602   0.05845
     Eigenvalues ---    0.06163   0.06664   0.06762   0.07715   0.08430
     Eigenvalues ---    0.08883   0.09113   0.09153   0.09388   0.10443
     Eigenvalues ---    0.11299   0.11501   0.11890   0.12010   0.12872
     Eigenvalues ---    0.16237   0.16878   0.17198   0.21500   0.27275
     Eigenvalues ---    0.27419   0.27761   0.28236   0.28625   0.29007
     Eigenvalues ---    0.29156   0.29611   0.33482   0.33619   0.33695
     Eigenvalues ---    0.33736   0.33816   0.33868   0.33880   0.33884
     Eigenvalues ---    0.33998   0.34108   0.34212   0.34330   0.34601
     Eigenvalues ---    0.34663   0.38496   0.41152
 RFO step:  Lambda=-7.57989304D-03 EMin= 3.98760793D-03
 Linear search not attempted -- first point.
 Iteration  1 RMS(Cart)=  0.03690473 RMS(Int)=  0.00119925
 Iteration  2 RMS(Cart)=  0.00127541 RMS(Int)=  0.00041060
 Iteration  3 RMS(Cart)=  0.00000153 RMS(Int)=  0.00041060
 Iteration  4 RMS(Cart)=  0.00000000 RMS(Int)=  0.00041060
 Variable       Old X    -DE/DX   Delta X   Delta X   Delta X     New X
                                 (Linear)    (Quad)   (Total)
    R1        2.88250   0.01603   0.00000   0.05490   0.05498   2.93748
    R2        2.88908   0.01462   0.00000   0.05126   0.05134   2.94042
    R3        2.07777  -0.00270   0.00000  -0.00782  -0.00782   2.06995
    R4        2.07527  -0.00197   0.00000  -0.00569  -0.00569   2.06957
    R5        2.90007   0.00599   0.00000   0.01967   0.01967   2.91973
    R6        2.07334  -0.00091   0.00000  -0.00263  -0.00263   2.07071
    R7        2.07848  -0.00124   0.00000  -0.00361  -0.00361   2.07487
    R8        2.89836   0.00128   0.00000   0.00370   0.00364   2.90200
    R9        2.87664   0.00495   0.00000   0.01908   0.01903   2.89567
   R10        2.06328   0.00284   0.00000   0.00805   0.00805   2.07132
   R11        2.67979   0.00036   0.00000  -0.00411  -0.00419   2.67560
   R12        2.06777   0.00089   0.00000   0.00254   0.00254   2.07031
   R13        2.08213   0.00237   0.00000   0.00691   0.00691   2.08904
   R14        2.69425  -0.00349   0.00000  -0.01284  -0.01288   2.68137
   R15        2.89536   0.00086   0.00000   0.00328   0.00334   2.89870
   R16        2.06226   0.00242   0.00000   0.00683   0.00683   2.06909
   R17        2.07642   0.00376   0.00000   0.01088   0.01088   2.08730
   R18        2.89984   0.00592   0.00000   0.01999   0.01999   2.91982
   R19        2.86669   0.00673   0.00000   0.02576   0.02577   2.89246
   R20        2.07533  -0.00071   0.00000  -0.00204  -0.00204   2.07329
   R21        2.07148  -0.00043   0.00000  -0.00125  -0.00125   2.07023
   R22        2.07554  -0.00049   0.00000  -0.00142  -0.00142   2.07412
   R23        2.06974   0.00115   0.00000   0.00328   0.00328   2.07302
   R24        2.07977  -0.00129   0.00000  -0.00375  -0.00375   2.07602
    A1        2.06717  -0.00241   0.00000  -0.01428  -0.01529   2.05188
    A2        1.88192   0.00087   0.00000   0.00099   0.00138   1.88330
    A3        1.89860   0.00063   0.00000   0.00634   0.00655   1.90515
    A4        1.88084   0.00092   0.00000   0.00076   0.00119   1.88203
    A5        1.89724   0.00057   0.00000   0.00646   0.00664   1.90388
    A6        1.82274  -0.00037   0.00000   0.00133   0.00117   1.82391
    A7        2.04427  -0.00129   0.00000  -0.01234  -0.01399   2.03028
    A8        1.90027   0.00074   0.00000   0.00322   0.00292   1.90319
    A9        1.88256   0.00267   0.00000   0.02881   0.02945   1.91202
   A10        1.91886  -0.00136   0.00000  -0.02609  -0.02561   1.89326
   A11        1.87637  -0.00051   0.00000   0.00527   0.00561   1.88198
   A12        1.82895  -0.00005   0.00000   0.00425   0.00393   1.83288
   A13        1.94490   0.00257   0.00000   0.02060   0.02094   1.96583
   A14        1.92376   0.00191   0.00000   0.00579   0.00552   1.92928
   A15        1.87673  -0.00086   0.00000   0.00927   0.00953   1.88626
   A16        1.91916  -0.00339   0.00000  -0.01643  -0.01686   1.90230
   A17        1.88533  -0.00041   0.00000  -0.01969  -0.01971   1.86562
   A18        1.91293   0.00018   0.00000   0.00035   0.00010   1.91303
   A19        1.99884   0.00238   0.00000  -0.00753  -0.00935   1.98949
   A20        1.91095   0.00007   0.00000   0.00731   0.00790   1.91884
   A21        1.92030  -0.00081   0.00000   0.00063   0.00076   1.92106
   A22        1.84958  -0.00226   0.00000  -0.01524  -0.01485   1.83473
   A23        1.92747  -0.00098   0.00000  -0.00398  -0.00320   1.92427
   A24        1.84950   0.00154   0.00000   0.02085   0.02061   1.87011
   A25        2.04580  -0.00221   0.00000  -0.03427  -0.03536   2.01044
   A26        1.98576   0.00329   0.00000  -0.00027  -0.00193   1.98383
   A27        1.85131  -0.00271   0.00000  -0.01895  -0.01859   1.83271
   A28        1.92517  -0.00120   0.00000  -0.00455  -0.00380   1.92137
   A29        1.91575   0.00002   0.00000   0.00755   0.00811   1.92385
   A30        1.92441  -0.00108   0.00000  -0.00197  -0.00182   1.92259
   A31        1.85563   0.00157   0.00000   0.01927   0.01905   1.87468
   A32        1.95049   0.00221   0.00000   0.01432   0.01448   1.96497
   A33        1.91747  -0.00348   0.00000  -0.01748  -0.01770   1.89977
   A34        1.87846  -0.00004   0.00000  -0.01374  -0.01372   1.86474
   A35        1.93113   0.00174   0.00000   0.00331   0.00307   1.93419
   A36        1.87327  -0.00078   0.00000   0.01101   0.01124   1.88451
   A37        1.91149   0.00037   0.00000   0.00273   0.00251   1.91400
   A38        2.04352  -0.00099   0.00000  -0.00949  -0.01119   2.03233
   A39        1.89886   0.00081   0.00000   0.00285   0.00257   1.90143
   A40        1.87920   0.00268   0.00000   0.03066   0.03130   1.91050
   A41        1.92111  -0.00163   0.00000  -0.02836  -0.02790   1.89322
   A42        1.87790  -0.00066   0.00000   0.00373   0.00405   1.88196
   A43        1.83094  -0.00002   0.00000   0.00357   0.00322   1.83416
   A44        1.89075   0.00006   0.00000  -0.00641  -0.00657   1.88418
   A45        1.93518   0.00027   0.00000   0.00070   0.00069   1.93588
   A46        1.91591  -0.00013   0.00000   0.00458   0.00468   1.92059
   A47        1.93823   0.00020   0.00000   0.00069   0.00073   1.93895
   A48        1.91976  -0.00031   0.00000   0.00162   0.00169   1.92144
   A49        1.86416  -0.00010   0.00000  -0.00092  -0.00095   1.86321
    D1       -0.23489  -0.00131   0.00000  -0.10091  -0.10050  -0.33539
    D2       -2.42469   0.00092   0.00000  -0.05828  -0.05771  -2.48241
    D3        1.88307  -0.00075   0.00000  -0.07954  -0.07933   1.80374
    D4       -2.37451  -0.00153   0.00000  -0.09239  -0.09227  -2.46677
    D5        1.71888   0.00070   0.00000  -0.04975  -0.04948   1.66940
    D6       -0.25654  -0.00097   0.00000  -0.07101  -0.07110  -0.32764
    D7        1.94166  -0.00184   0.00000  -0.09755  -0.09758   1.84408
    D8       -0.24814   0.00039   0.00000  -0.05492  -0.05479  -0.30293
    D9       -2.22356  -0.00128   0.00000  -0.07618  -0.07641  -2.29997
   D10        0.22346   0.00139   0.00000   0.10178   0.10147   0.32493
   D11        2.41451  -0.00091   0.00000   0.05798   0.05744   2.47195
   D12       -1.89334   0.00082   0.00000   0.07908   0.07889  -1.81445
   D13        2.36361   0.00158   0.00000   0.09339   0.09335   2.45696
   D14       -1.72852  -0.00072   0.00000   0.04959   0.04932  -1.67921
   D15        0.24682   0.00101   0.00000   0.07069   0.07077   0.31758
   D16       -1.95376   0.00189   0.00000   0.09848   0.09858  -1.85518
   D17        0.23729  -0.00041   0.00000   0.05468   0.05455   0.29184
   D18        2.21263   0.00132   0.00000   0.07578   0.07600   2.28863
   D19       -1.44908   0.00270   0.00000   0.06157   0.06203  -1.38705
   D20        0.68675   0.00147   0.00000   0.05879   0.05888   0.74563
   D21        2.77113   0.00227   0.00000   0.06809   0.06804   2.83917
   D22        0.73143   0.00149   0.00000   0.03322   0.03369   0.76512
   D23        2.86726   0.00027   0.00000   0.03044   0.03054   2.89780
   D24       -1.33154   0.00106   0.00000   0.03974   0.03970  -1.29184
   D25        2.71291   0.00047   0.00000   0.02793   0.02845   2.74136
   D26       -1.43445  -0.00075   0.00000   0.02515   0.02530  -1.40914
   D27        0.64994   0.00004   0.00000   0.03445   0.03446   0.68440
   D28        1.25714  -0.00037   0.00000  -0.05022  -0.05067   1.20647
   D29       -0.81698   0.00091   0.00000  -0.03102  -0.03123  -0.84821
   D30       -2.84293  -0.00052   0.00000  -0.06081  -0.06140  -2.90433
   D31       -0.88133  -0.00219   0.00000  -0.06015  -0.06002  -0.94136
   D32       -2.95545  -0.00091   0.00000  -0.04095  -0.04058  -2.99604
   D33        1.30178  -0.00234   0.00000  -0.07074  -0.07076   1.23103
   D34       -2.96825  -0.00020   0.00000  -0.03919  -0.03938  -3.00763
   D35        1.24082   0.00109   0.00000  -0.01999  -0.01994   1.22088
   D36       -0.78513  -0.00034   0.00000  -0.04978  -0.05011  -0.83525
   D37       -1.14051  -0.00129   0.00000  -0.01096  -0.01085  -1.15136
   D38        0.99053  -0.00083   0.00000  -0.01388  -0.01383   0.97671
   D39        3.04610  -0.00087   0.00000  -0.01175  -0.01166   3.03444
   D40        1.01040   0.00095   0.00000   0.00779   0.00776   1.01817
   D41        3.14145   0.00141   0.00000   0.00487   0.00479  -3.13695
   D42       -1.08617   0.00137   0.00000   0.00701   0.00696  -1.07921
   D43        3.08042  -0.00149   0.00000  -0.02599  -0.02598   3.05444
   D44       -1.07172  -0.00103   0.00000  -0.02892  -0.02895  -1.10068
   D45        0.98384  -0.00107   0.00000  -0.02678  -0.02679   0.95706
   D46        0.77432   0.00253   0.00000   0.09816   0.09743   0.87175
   D47        2.88268   0.00247   0.00000   0.09208   0.09152   2.97420
   D48       -1.40502   0.00258   0.00000   0.10637   0.10611  -1.29891
   D49       -0.78853  -0.00255   0.00000  -0.09291  -0.09229  -0.88081
   D50       -2.89621  -0.00268   0.00000  -0.08918  -0.08863  -2.98485
   D51        1.38449  -0.00246   0.00000  -0.09932  -0.09911   1.28538
   D52       -1.23590   0.00048   0.00000   0.04401   0.04447  -1.19143
   D53        0.91463   0.00175   0.00000   0.04570   0.04564   0.96027
   D54        2.99474   0.00021   0.00000   0.03097   0.03113   3.02586
   D55        0.83527  -0.00082   0.00000   0.02501   0.02522   0.86049
   D56        2.98580   0.00045   0.00000   0.02669   0.02640   3.01220
   D57       -1.21728  -0.00109   0.00000   0.01197   0.01188  -1.20540
   D58        2.87386   0.00047   0.00000   0.05180   0.05236   2.92622
   D59       -1.25880   0.00174   0.00000   0.05349   0.05353  -1.20526
   D60        0.82131   0.00019   0.00000   0.03876   0.03902   0.86033
   D61        1.47481  -0.00286   0.00000  -0.06807  -0.06855   1.40626
   D62       -0.70513  -0.00175   0.00000  -0.03947  -0.03990  -0.74503
   D63       -2.69091  -0.00054   0.00000  -0.03130  -0.03181  -2.72272
   D64       -0.66797  -0.00118   0.00000  -0.05804  -0.05816  -0.72613
   D65       -2.84790  -0.00007   0.00000  -0.02944  -0.02951  -2.87741
   D66        1.44951   0.00114   0.00000  -0.02127  -0.02143   1.42808
   D67       -2.75272  -0.00215   0.00000  -0.06994  -0.06996  -2.82268
   D68        1.35053  -0.00104   0.00000  -0.04134  -0.04131   1.30922
   D69       -0.63525   0.00017   0.00000  -0.03317  -0.03323  -0.66848
   D70       -1.02975  -0.00042   0.00000   0.00146   0.00145  -1.02830
   D71        3.12425  -0.00092   0.00000   0.00439   0.00446   3.12871
   D72        1.06442  -0.00073   0.00000   0.00408   0.00412   1.06854
   D73        1.13211   0.00116   0.00000   0.00976   0.00958   1.14170
   D74       -0.99707   0.00066   0.00000   0.01269   0.01260  -0.98447
   D75       -3.05690   0.00085   0.00000   0.01238   0.01226  -3.04464
   D76       -3.08950   0.00148   0.00000   0.02694   0.02688  -3.06261
   D77        1.06451   0.00097   0.00000   0.02988   0.02989   1.09440
   D78       -0.99533   0.00117   0.00000   0.02957   0.02956  -0.96577
         Item               Value     Threshold  Converged?
 Maximum Force            0.016026     0.000450     NO 
 RMS     Force            0.002498     0.000300     NO 
 Maximum Displacement     0.208836     0.001800     NO 
 RMS     Displacement     0.037101     0.001200     NO 
 Predicted change in Energy=-4.743890D-03
 GradGradGradGradGradGradGradGradGradGradGradGradGradGradGradGradGradGrad

                          Input orientation:                          
 ---------------------------------------------------------------------
 Center     Atomic      Atomic             Coordinates (Angstroms)
 Number     Number       Type             X           Y           Z
 ---------------------------------------------------------------------
      1          6           0       -1.818985    0.008800   -0.840196
      2          6           0       -1.301450   -1.322331   -0.226558
      3          6           0        0.011549   -1.238574    0.583514
      4          6           0        1.257815   -1.202342   -0.313033
      5          8           0        1.398920   -0.004421   -1.054483
      6          6           0        1.279909    1.190873   -0.299202
      7          6           0        0.026987    1.238655    0.584442
      8          6           0       -1.276570    1.337587   -0.239147
      9          6           0        0.009206    0.000816    1.484581
     10          1           0       -2.910446    0.020020   -0.748411
     11          1           0       -1.634598    0.002524   -1.919715
     12          1           0       -1.168708   -2.057719   -1.027996
     13          1           0       -2.073042   -1.750062    0.427082
     14          1           0        0.088910   -2.141491    1.200105
     15          1           0        1.201273   -1.998193   -1.063821
     16          1           0        2.165038   -1.387739    0.290825
     17          1           0        1.249739    1.994163   -1.042612
     18          1           0        2.185057    1.343036    0.315281
     19          1           0        0.107249    2.142496    1.201163
     20          1           0       -1.120963    2.057403   -1.050205
     21          1           0       -2.044919    1.789982    0.400892
     22          1           0       -0.867870    0.004356    2.143463
     23          1           0        0.894210   -0.005229    2.135442
 ---------------------------------------------------------------------
                    Distance matrix (angstroms):
                    1          2          3          4          5
     1  C    0.000000
     2  C    1.554447   0.000000
     3  C    2.633201   1.545056   0.000000
     4  C    3.348353   2.563536   1.535672   0.000000
     5  O    3.225060   3.116785   2.476079   1.415865   0.000000
     6  C    3.360523   3.603455   2.879260   2.393357   1.418922
     7  C    2.636238   2.996851   2.477277   2.877302   2.472552
     8  C    1.556004   2.660064   2.995434   3.588845   3.102258
     9  C    2.957522   2.529137   1.532323   2.497605   2.894509
    10  H    1.095371   2.159423   3.449078   4.365562   4.320292
    11  H    1.095171   2.175548   3.242881   3.521247   3.154506
    12  H    2.174542   1.095774   2.158928   2.670366   3.287772
    13  H    2.182690   1.097976   2.152117   3.455774   4.158944
    14  H    3.525145   2.153948   1.096097   2.130241   3.371404
    15  H    3.633179   2.724229   2.169373   1.095563   2.003567
    16  H    4.370580   3.505496   2.178401   1.105472   2.076140
    17  H    3.660561   4.263056   3.824656   3.278719   2.004180
    18  H    4.375805   4.421934   3.385380   2.780918   2.076031
    19  H    3.525647   4.003480   3.438355   3.847666   3.371292
    20  H    2.174422   3.483328   3.849037   4.102188   3.255909
    21  H    2.182648   3.260817   3.665318   4.513507   4.147051
    22  H    3.131591   2.750471   2.179838   3.465405   3.919856
    23  H    4.026915   3.483493   2.169956   2.749603   3.229606
                    6          7          8          9         10
     6  C    0.000000
     7  C    1.533924   0.000000
     8  C    2.561389   1.545104   0.000000
     9  C    2.492550   1.530624   2.532077   0.000000
    10  H    4.373987   3.448200   2.159835   3.675730   0.000000
    11  H    3.540139   3.249567   2.175979   3.780387   1.732064
    12  H    4.132821   3.859498   3.487409   3.455155   2.725587
    13  H    4.518724   3.656133   3.257577   2.918841   2.283905
    14  H    3.843312   3.436315   4.004992   2.162582   4.179113
    15  H    3.280391   3.817447   4.236416   3.451292   4.591177
    16  H    2.789413   3.399326   4.421870   2.828560   5.368644
    17  H    1.094917   2.170995   2.731096   3.449501   4.614210
    18  H    1.104553   2.177294   3.505749   2.811253   5.370844
    19  H    2.128806   1.097140   2.153445   2.162575   4.172797
    20  H    2.660651   2.158751   1.095520   3.454269   2.728417
    21  H    3.450151   2.151847   1.097576   2.931710   2.280965
    22  H    3.462281   2.180552   2.760683   1.096996   3.540523
    23  H    2.739875   2.169083   3.486274   1.098585   4.774165
                   11         12         13         14         15
    11  H    0.000000
    12  H    2.292775   0.000000
    13  H    2.961629   1.740611   0.000000
    14  H    4.159394   2.559894   2.329124   0.000000
    15  H    3.574575   2.370999   3.606314   2.526509   0.000000
    16  H    4.610483   3.647194   4.255721   2.388564   1.771035
    17  H    3.613217   4.718776   5.217288   4.845714   3.992707
    18  H    4.624061   4.961579   5.264139   4.161571   3.746140
    19  H    4.165740   4.923315   4.528232   4.284027   4.844827
    20  H    2.289628   4.115459   4.193521   4.915119   4.673417
    21  H    2.957801   4.196936   3.540252   4.544056   5.199367
    22  H    4.134887   3.794840   2.734298   2.531800   4.310247
    23  H    4.779040   4.298335   3.842853   2.467180   3.781729
                   16         17         18         19         20
    16  H    0.000000
    17  H    3.748745   0.000000
    18  H    2.730958   1.772755   0.000000
    19  H    4.186379   2.522263   2.396082   0.000000
    20  H    4.946227   2.371557   3.647553   2.566009   0.000000
    21  H    5.275771   3.602800   4.254385   2.323043   1.740946
    22  H    3.816900   4.312154   3.801930   2.531883   3.805072
    23  H    2.632289   3.771471   2.607122   2.470811   4.296942
                   21         22         23
    21  H    0.000000
    22  H    2.758705   0.000000
    23  H    3.856154   1.762124   0.000000
 Stoichiometry    C8H14O
 Framework group  C1[X(C8H14O)]
 Deg. of freedom    63
 Full point group                 C1      NOp   1
 Largest Abelian subgroup         C1      NOp   1
 Largest concise Abelian subgroup C1      NOp   1
                         Standard orientation:                         
 ---------------------------------------------------------------------
 Center     Atomic      Atomic             Coordinates (Angstroms)
 Number     Number       Type             X           Y           Z
 ---------------------------------------------------------------------
      1          6           0       -1.786171    0.025828   -0.757590
      2          6           0       -1.266935   -1.310785   -0.157454
      3          6           0        0.066056   -1.240486    0.620617
      4          6           0        1.290534   -1.215654   -0.305842
      5          8           0        1.425318   -0.018554   -1.049788
      6          6           0        1.336302    1.177220   -0.291144
      7          6           0        0.105678    1.236473    0.622626
      8          6           0       -1.216418    1.348774   -0.169079
      9          6           0        0.097630   -0.001875    1.522204
     10          1           0       -2.874927    0.047601   -0.639381
     11          1           0       -1.628056    0.018646   -1.841263
     12          1           0       -1.160824   -2.046771   -0.962306
     13          1           0       -2.026603   -1.731520    0.514437
     14          1           0        0.149517   -2.144622    1.234622
     15          1           0        1.208062   -2.010298   -1.055507
     16          1           0        2.210265   -1.410375    0.275749
     17          1           0        1.295972    1.981378   -1.033132
     18          1           0        2.257511    1.320054    0.301318
     19          1           0        0.209669    2.138982    1.237753
     20          1           0       -1.073487    2.067708   -0.983246
     21          1           0       -1.964589    1.808102    0.489655
     22          1           0       -0.763153    0.009664    2.202145
     23          1           0        0.998039   -0.017075    2.151427
 ---------------------------------------------------------------------
 Rotational constants (GHZ):           2.1513415           1.8617441           1.5059371
 Standard basis: 6-31G(2df,p) (6D, 7F)
 There are   349 symmetry adapted cartesian basis functions of A   symmetry.
 There are   322 symmetry adapted basis functions of A   symmetry.
   322 basis functions,   494 primitive gaussians,   349 cartesian basis functions
    35 alpha electrons       35 beta electrons
       nuclear repulsion energy       504.6845146181 Hartrees.
 NAtoms=   23 NActive=   23 NUniq=   23 SFac= 1.00D+00 NAtFMM=   60 NAOKFM=F Big=F
 Integral buffers will be    131072 words long.
 Raffenetti 2 integral format.
 Two-electron integral symmetry is turned on.
 One-electron integrals computed using PRISM.
 PrsmSu:  requested number of processors reduced to:  13 ShMem   1 Linda.
 NBasis=   322 RedAO= T EigKep=  5.93D-04  NBF=   322
 NBsUse=   322 1.00D-06 EigRej= -1.00D+00 NBFU=   322
 Initial guess from the checkpoint file:  "C1CC2COCCpC1pC2.chk"
 B after Tr=     0.000000    0.000000    0.000000
         Rot=    0.999975   -0.001081   -0.006321   -0.003140 Ang=  -0.82 deg.
 ExpMin= 1.61D-01 ExpMax= 5.48D+03 ExpMxC= 8.25D+02 IAcc=2 IRadAn=         4 AccDes= 0.00D+00
 Harris functional with IExCor=  402 and IRadAn=       4 diagonalized for initial guess.
 HarFok:  IExCor=  402 AccDes= 0.00D+00 IRadAn=         4 IDoV= 1 UseB2=F ITyADJ=14
 ICtDFT=  3500011 ScaDFX=  1.000000  1.000000  1.000000  1.000000
 FoFCou: FMM=F IPFlag=           0 FMFlag=      100000 FMFlg1=           0
         NFxFlg=           0 DoJE=T BraDBF=F KetDBF=T FulRan=T
         wScrn=  0.000000 ICntrl=       500 IOpCl=  0 I1Cent=   200000004 NGrid=           0
         NMat0=    1 NMatS0=      1 NMatT0=    0 NMatD0=    1 NMtDS0=    0 NMtDT0=    0
 Petite list used in FoFCou.
 Requested convergence on RMS density matrix=1.00D-08 within 128 cycles.
 Requested convergence on MAX density matrix=1.00D-06.
 Requested convergence on             energy=1.00D-06.
 No special actions if energy rises.
 Integral accuracy reduced to 1.0D-05 until final iterations.
 Initial convergence to 1.0D-05 achieved.  Increase integral accuracy.
 SCF Done:  E(RB3LYP) =  -388.523760011     A.U. after   10 cycles
            NFock= 10  Conv=0.50D-08     -V/T= 2.0083
 PrsmSu:  requested number of processors reduced to:  13 ShMem   1 Linda.
 Calling FoFJK, ICntrl=      2127 FMM=F ISym2X=0 I1Cent= 0 IOpClX= 0 NMat=1 NMatS=1 NMatT=0.
 ***** Axes restored to original set *****
 -------------------------------------------------------------------
 Center     Atomic                   Forces (Hartrees/Bohr)
 Number     Number              X              Y              Z
 -------------------------------------------------------------------
      1        6          -0.000101624    0.000415537   -0.003316278
      2        6          -0.000999902   -0.000997010    0.002475651
      3        6          -0.000666438    0.000549822   -0.002721778
      4        6           0.002402932   -0.001275292    0.000504375
      5        8          -0.006224473    0.001164310   -0.003661467
      6        6           0.002529495   -0.001146428   -0.000616372
      7        6          -0.000411512    0.001156283   -0.002380042
      8        6          -0.001357363    0.000273246    0.002272461
      9        6           0.001145940   -0.000760548    0.003520190
     10        1           0.000011497   -0.000068149   -0.000961077
     11        1           0.003710555   -0.000071015    0.001561511
     12        1          -0.000929544   -0.000110341   -0.000360145
     13        1           0.000795787    0.002464641    0.001069156
     14        1           0.000272808   -0.001030670   -0.000527224
     15        1           0.001035416   -0.000483210    0.000319859
     16        1          -0.000837671    0.001582599    0.001486990
     17        1           0.000960621    0.000769875    0.000344768
     18        1          -0.000571368   -0.001069937    0.001567660
     19        1           0.000302585    0.000478858   -0.000667441
     20        1          -0.000897858    0.000294347   -0.000313049
     21        1           0.000604850   -0.002326493    0.001131473
     22        1          -0.000336419    0.000073219   -0.000499922
     23        1          -0.000438314    0.000116356   -0.000229298
 -------------------------------------------------------------------
 Cartesian Forces:  Max     0.006224473 RMS     0.001590229

 GradGradGradGradGradGradGradGradGradGradGradGradGradGradGradGradGradGrad
 Berny optimization.
 Using GEDIIS/GDIIS optimizer.
 FormGI is forming the generalized inverse of G from B-inverse, IUseBI=4.
 Internal  Forces:  Max     0.001992789 RMS     0.000640179
 Search for a local minimum.
 Step number   2 out of a maximum of  138
 All quantities printed in internal units (Hartrees-Bohrs-Radians)
 Mixed Optimization -- En-DIIS/RFO-DIIS
 Update second derivatives using D2CorX and points    1    2
 DE= -5.27D-03 DEPred=-4.74D-03 R= 1.11D+00
 TightC=F SS=  1.41D+00  RLast= 5.10D-01 DXNew= 5.0454D-01 1.5307D+00
 Trust test= 1.11D+00 RLast= 5.10D-01 DXMaxT set to 5.05D-01
 ITU=  1  0
 Use linear search instead of GDIIS.
     Eigenvalues ---    0.00316   0.00567   0.01002   0.01197   0.01351
     Eigenvalues ---    0.02028   0.02871   0.03183   0.03722   0.04275
     Eigenvalues ---    0.04429   0.04452   0.04670   0.04687   0.04743
     Eigenvalues ---    0.04980   0.05241   0.05485   0.05691   0.05876
     Eigenvalues ---    0.06267   0.06652   0.06848   0.07659   0.08272
     Eigenvalues ---    0.08797   0.09000   0.09244   0.09311   0.10237
     Eigenvalues ---    0.11175   0.11250   0.11937   0.11981   0.12778
     Eigenvalues ---    0.16047   0.16540   0.17117   0.21142   0.27181
     Eigenvalues ---    0.27755   0.27905   0.28321   0.28708   0.29150
     Eigenvalues ---    0.29579   0.32986   0.33540   0.33600   0.33661
     Eigenvalues ---    0.33769   0.33804   0.33874   0.33878   0.33978
     Eigenvalues ---    0.34089   0.34195   0.34323   0.34538   0.34632
     Eigenvalues ---    0.35317   0.38589   0.40946
 RFO step:  Lambda=-4.43315756D-03 EMin= 3.16086912D-03
 Quartic linear search produced a step of  0.63317.
 Iteration  1 RMS(Cart)=  0.06347725 RMS(Int)=  0.00321410
 Iteration  2 RMS(Cart)=  0.00365669 RMS(Int)=  0.00110729
 Iteration  3 RMS(Cart)=  0.00000809 RMS(Int)=  0.00110727
 Iteration  4 RMS(Cart)=  0.00000001 RMS(Int)=  0.00110727
 Variable       Old X    -DE/DX   Delta X   Delta X   Delta X     New X
                                 (Linear)    (Quad)   (Total)
    R1        2.93748  -0.00048   0.03481  -0.01970   0.01480   2.95227
    R2        2.94042  -0.00084   0.03251  -0.02039   0.01174   2.95216
    R3        2.06995  -0.00009  -0.00495   0.00181  -0.00314   2.06681
    R4        2.06957  -0.00091  -0.00360  -0.00207  -0.00568   2.06389
    R5        2.91973  -0.00149   0.01245  -0.01229   0.00024   2.91997
    R6        2.07071   0.00023  -0.00166   0.00163  -0.00003   2.07068
    R7        2.07487  -0.00088  -0.00228  -0.00255  -0.00484   2.07004
    R8        2.90200  -0.00040   0.00230  -0.00325  -0.00106   2.90094
    R9        2.89567   0.00007   0.01205  -0.00078   0.01182   2.90749
   R10        2.07132   0.00057   0.00509  -0.00000   0.00509   2.07641
   R11        2.67560   0.00144  -0.00265   0.00386   0.00089   2.67649
   R12        2.07031   0.00008   0.00161  -0.00040   0.00121   2.07152
   R13        2.08904  -0.00014   0.00438  -0.00250   0.00187   2.09091
   R14        2.68137   0.00014  -0.00815   0.00229  -0.00607   2.67531
   R15        2.89870  -0.00010   0.00211  -0.00111   0.00110   2.89979
   R16        2.06909   0.00030   0.00433  -0.00071   0.00361   2.07270
   R17        2.08730   0.00026   0.00689  -0.00201   0.00488   2.09218
   R18        2.91982  -0.00121   0.01266  -0.01111   0.00152   2.92134
   R19        2.89246   0.00061   0.01631  -0.00005   0.01689   2.90935
   R20        2.07329   0.00004  -0.00129   0.00074  -0.00055   2.07274
   R21        2.07023   0.00030  -0.00079   0.00153   0.00074   2.07097
   R22        2.07412  -0.00072  -0.00090  -0.00250  -0.00340   2.07072
   R23        2.07302  -0.00003   0.00208  -0.00104   0.00104   2.07406
   R24        2.07602  -0.00049  -0.00237  -0.00093  -0.00330   2.07272
    A1        2.05188   0.00034  -0.00968  -0.00633  -0.02060   2.03128
    A2        1.88330  -0.00037   0.00087  -0.00310  -0.00071   1.88259
    A3        1.90515  -0.00024   0.00415  -0.00315   0.00211   1.90726
    A4        1.88203  -0.00028   0.00075  -0.00207   0.00024   1.88227
    A5        1.90388  -0.00020   0.00420  -0.00209   0.00315   1.90703
    A6        1.82391   0.00083   0.00074   0.02014   0.02021   1.84412
    A7        2.03028  -0.00024  -0.00886  -0.00655  -0.02048   2.00980
    A8        1.90319  -0.00042   0.00185  -0.00854  -0.00615   1.89704
    A9        1.91202  -0.00020   0.01865  -0.00927   0.01115   1.92317
   A10        1.89326   0.00015  -0.01621   0.00862  -0.00609   1.88716
   A11        1.88198   0.00027   0.00355   0.00425   0.00908   1.89106
   A12        1.83288   0.00053   0.00249   0.01394   0.01569   1.84857
   A13        1.96583  -0.00035   0.01326  -0.00906   0.00488   1.97071
   A14        1.92928   0.00013   0.00350  -0.00311  -0.00057   1.92871
   A15        1.88626   0.00029   0.00603   0.00165   0.00817   1.89443
   A16        1.90230   0.00022  -0.01068   0.00105  -0.01038   1.89192
   A17        1.86562   0.00001  -0.01248   0.00790  -0.00450   1.86112
   A18        1.91303  -0.00031   0.00007   0.00217   0.00243   1.91546
   A19        1.98949  -0.00017  -0.00592  -0.01249  -0.02250   1.96699
   A20        1.91884   0.00034   0.00500   0.00844   0.01496   1.93381
   A21        1.92106  -0.00095   0.00048  -0.01134  -0.01077   1.91029
   A22        1.83473  -0.00021  -0.00940   0.01412   0.00576   1.84049
   A23        1.92427   0.00063  -0.00202   0.00036  -0.00037   1.92390
   A24        1.87011   0.00045   0.01305   0.00315   0.01581   1.88592
   A25        2.01044  -0.00088  -0.02239  -0.02136  -0.04632   1.96413
[...]
 .01621841,-0.21765864,0.11493564,0.00064536,-0.00236870,0.00081466,-0.
 00056305,0.00186929,-0.00012739,0.00083216,0.00021448,-0.00066487,-0.0
 0042072,-0.00281130,-0.00556469,-0.00051295,0.00033179,-0.00035138,0.0
 0140664,-0.02303570,0.01443784,-0.00012476,0.00007735,0.00005160,-0.00
 000262,-0.00002559,0.00003597,0.00045436,0.00061931,0.00029241,0.00057
 271,0.00026849,-0.00018471,-0.01699565,0.23873015,-0.00317879,-0.00139
 410,-0.00010275,-0.00178806,0.01348184,-0.00957715,-0.00916149,0.11556
 657,-0.12422124,-0.00398413,0.01840195,-0.01120628,0.00504306,0.002117
 58,-0.00285936,0.00028087,-0.00174292,-0.00125866,-0.00031072,-0.00351
 584,-0.00287143,-0.00015478,-0.00035867,-0.00020267,0.00116048,-0.0186
 7783,0.01222505,-0.00023301,0.00099586,-0.00045020,0.00016030,-0.00018
 265,0.00016569,0.00049332,-0.00017750,-0.00004896,0.00008800,-0.000426
 73,0.00099134,0.01183153,-0.12420458,0.13528907,-0.00017776,0.00000693
 ,-0.00005674,0.00196590,0.00114007,0.00049278,0.00028036,0.01999627,0.
 01790249,-0.05128304,-0.00667249,-0.00726334,0.00136936,-0.00117274,-0
 .00030961,0.00044164,-0.00008343,0.00041309,0.00007889,-0.00047874,0.0
 0008252,0.00013693,0.00000674,0.00004960,-0.00450571,-0.00126026,0.002
 80129,0.00000432,0.00001306,-0.00007569,-0.00003247,0.00007482,-0.0000
 9222,-0.00028704,-0.00057531,-0.00046512,0.00035773,-0.00026187,-0.000
 11289,0.00072715,-0.00043307,-0.00057095,0.05064211,0.00015307,-0.0001
 3345,0.00000492,-0.00025363,0.00005991,0.00018037,0.00012580,0.0022276
 7,-0.00079020,-0.00520637,-0.18156517,-0.12433417,-0.00137662,-0.03774
 088,-0.01397875,-0.00051382,-0.00098265,0.00564058,-0.00041990,-0.0001
 8006,0.00018059,-0.00015864,0.00003895,-0.00011706,-0.00047046,0.00129
 249,0.00046673,0.00004112,0.00005629,0.00003232,-0.00006023,-0.0001494
 5,-0.00000168,0.00051582,0.00020661,0.00015438,0.00002361,0.00015784,0
 .00015409,0.00060197,0.00029596,-0.00060310,0.00723790,0.21458366,0.00
 013517,-0.00001899,0.00016128,-0.00118511,0.00011208,0.00056246,-0.001
 58759,-0.01487176,-0.01242916,-0.00750727,-0.13563878,-0.16960728,0.00
 066600,0.02158115,0.01451565,0.00047085,0.00333099,-0.00155863,-0.0000
 2203,0.00070523,-0.00019501,-0.00013902,-0.00007929,-0.00002077,0.0041
 0985,0.00160553,-0.00187169,0.00004531,-0.00003530,0.00000758,0.000011
 23,-0.00004079,0.00001988,0.00071256,0.00035388,0.00055527,-0.00016070
 ,0.00028681,0.00006661,-0.00029133,0.00044544,0.00010439,0.00453273,0.
 13433090,0.17915820,0.00017357,-0.00031789,0.00012385,-0.00211538,-0.0
 0017834,0.00569846,-0.02466661,0.00031734,-0.01473133,-0.21528496,0.00
 868238,-0.10199651,0.00756870,0.00595731,-0.00253265,0.00091012,-0.000
 70333,0.00008912,-0.00014565,0.00027226,-0.00002738,-0.00001236,-0.000
 28995,-0.00008535,0.00046542,-0.00075948,-0.00193285,-0.00006649,0.000
 17534,-0.00010416,0.00006584,0.00007485,-0.00000112,0.00035726,-0.0000
 3269,0.00004523,-0.00191196,0.00011967,-0.00075789,0.00059979,-0.00066
 394,0.00018003,-0.00060754,-0.00030243,-0.00019885,0.23369185,-0.00018
 324,-0.00015140,0.00039897,-0.00026501,0.00074940,0.00010866,0.0002406
 7,0.00135143,-0.00121686,0.00774955,-0.05148772,-0.00099140,0.02505778
 ,-0.01837882,0.02713991,0.00271405,0.00552501,0.00451193,-0.00036140,-
 0.00059934,-0.00032111,-0.00013973,0.00006229,0.00005852,0.00074989,-0
 .00002174,0.00059046,0.00010461,0.00009404,-0.00019395,-0.00012702,-0.
 00011145,-0.00028042,0.00030854,0.00023029,0.00024860,-0.00020261,0.00
 031782,0.00017956,-0.00009686,0.00030559,-0.00031387,-0.01926831,0.003
 08200,-0.01197914,-0.01461597,0.05851334,0.00014544,0.00021300,-0.0004
 4465,0.00249600,-0.00049924,-0.00274052,0.01772193,-0.00251519,0.00937
 982,-0.10265990,0.00135916,-0.11244702,-0.01540847,0.01856902,-0.01683
 294,0.00098962,-0.00378362,-0.00112421,0.00025464,0.00049338,-0.000170
 37,0.00007164,-0.00011119,0.00008748,0.00047744,0.00063346,0.00104288,
 -0.00013896,-0.00016930,0.00017424,0.00019672,-0.00007105,0.00029458,0
 .00001809,0.00019471,0.00006768,0.00114796,0.00020055,0.00058563,-0.00
 096658,-0.00011757,0.00102739,-0.01870127,-0.00021774,-0.01015687,0.11
 417495,-0.01595642,0.12955942,-0.00018020,-0.00000629,-0.00005679,0.00
 013924,-0.00000822,0.00005140,0.00009260,0.00047464,0.00007915,0.00045
 047,0.00006182,0.00032651,0.00139924,0.00057250,-0.00009593,-0.0511312
 3,0.00466710,-0.00536292,-0.00002739,-0.01994005,0.01793625,0.00195189
 ,-0.00116843,0.00049127,-0.00447780,0.00135210,0.00279220,0.00000351,-
 0.00001234,-0.00007617,-0.00003273,-0.00007673,-0.00009210,-0.00007803
 ,0.00003027,-0.00005124,0.00004642,0.00003585,-0.00001305,0.00003697,-
 0.00003544,-0.00010101,0.00032573,0.00017160,-0.00000665,0.00013517,-0
 .00046832,0.00025360,0.05045807,-0.00015219,-0.00013099,-0.00000369,0.
 00015693,0.00003688,0.00011622,0.00041569,-0.00019485,-0.00018185,0.00
 049226,-0.00100223,-0.00564689,0.00077703,-0.03777969,0.01404465,0.003
 20108,-0.18140735,0.12444725,-0.00009281,0.00255411,0.00049756,0.00022
 315,0.00007360,-0.00018731,0.00056382,0.00126196,-0.00051338,-0.000040
 25,0.00005711,-0.00003122,0.00005845,-0.00014916,0.00000329,0.00002792
 ,0.00005163,-0.00000854,-0.00012950,0.00004389,-0.00003722,-0.00019209
 ,0.00010565,0.00017722,-0.00019892,-0.00145621,0.00080798,0.00020409,-
 0.00011517,0.00026437,-0.00471961,0.21444726,0.00013562,0.00001726,0.0
 0016125,-0.00013798,0.00008135,-0.00002101,-0.00003333,-0.00070482,-0.
 00019393,0.00041911,-0.00333849,-0.00154786,0.00033425,-0.02152614,0.0
 1452480,-0.00543195,0.13575427,-0.16992053,-0.00135951,0.01487624,-0.0
 1244744,-0.00118692,-0.00009331,0.00056279,0.00408409,-0.00167204,-0.0
 0186916,0.00004589,0.00003454,0.00000758,0.00001178,0.00004081,0.00001
 983,0.00007576,0.00001263,0.00009786,-0.00006079,-0.00002304,0.0000183
 5,-0.00012581,0.00015779,0.00014820,-0.00001879,-0.00080547,0.00048487
 ,0.00017917,-0.00030567,0.00019181,0.00247959,-0.13442897,0.17948151,0
 .00018121,0.00031293,0.00011735,-0.00000576,0.00029089,-0.00008658,-0.
 00014439,-0.00027928,-0.00002213,0.00088042,0.00077455,0.00001902,0.00
 708716,-0.00635136,-0.00294084,-0.21549968,-0.00628992,-0.10196357,-0.
 02466916,0.00006395,-0.01471070,-0.00210786,0.00022898,0.00569585,0.00
 046543,0.00074968,-0.00194262,-0.00007074,-0.00017292,-0.00010096,0.00
 006660,-0.00007757,0.00000328,0.00007777,-0.00011602,0.00007556,-0.000
 02682,-0.00000189,0.00004000,0.00000176,-0.00010769,0.00001508,0.00013
 916,-0.00020777,0.00018408,-0.00033017,-0.00136240,0.00042592,-0.00030
 666,0.00035431,-0.00001550,0.23410011,0.00017830,-0.00015972,-0.000401
 15,0.00014086,0.00005575,-0.00005718,0.00035473,-0.00060082,0.00032199
 ,-0.00264165,0.00555383,-0.00452072,-0.02546718,-0.01795178,-0.0270965
 9,-0.00535784,-0.05127104,0.00248160,0.00017950,0.00135830,0.00145210,
 0.00031178,0.00074224,-0.00020015,-0.00075684,-0.00002322,-0.00055946,
 -0.00010225,0.00009873,0.00019561,0.00012453,-0.00011180,0.00028089,0.
 00002609,0.00006072,-0.00001428,-0.00003419,-0.00001295,0.00000382,-0.
 00019457,-0.00000152,0.00020060,0.00046472,-0.00011911,0.00030326,0.00
 137588,0.00051606,0.00138681,0.01929791,0.00279615,0.01196520,0.012061
 10,0.05814052,0.00014193,-0.00021554,-0.00044391,0.00007317,0.00011011
 ,0.00008740,0.00024663,-0.00049671,-0.00017016,0.00105067,0.00375998,-
 0.00112329,-0.01566098,-0.01832928,-0.01677841,-0.10266395,0.00014154,
 -0.11245117,0.01775841,0.00225277,0.00937519,0.00250297,0.00045674,-0.
 00274091,0.00046865,-0.00063941,0.00104432,-0.00013623,0.00017150,0.00
 017380,0.00019764,0.00006851,0.00029416,0.00002658,0.00008367,0.000003
 53,-0.00008054,-0.00002551,0.00003863,-0.00015723,0.00003246,0.0001695
 3,0.00024897,-0.00026785,0.00019177,0.00040299,-0.00139240,0.00116983,
 -0.01871882,0.00048876,-0.01017166,0.11439314,0.01428988,0.12952625,-0
 .00496410,0.00230890,-0.00176490,-0.00009012,0.00066923,-0.00011484,0.
 00070824,0.00013983,-0.00023837,-0.00026377,-0.00186047,0.00098201,-0.
 00452335,0.00250086,0.00521526,0.00299268,0.02206493,0.01248276,-0.049
 35234,-0.01952870,-0.01137026,-0.00526373,-0.02504832,-0.01760271,-0.0
 0016124,0.00065527,0.00021256,-0.00039762,-0.00148450,-0.00098293,-0.0
 0012524,-0.00007115,-0.00026185,0.00010776,-0.00007668,0.00010127,0.00
 002076,-0.00009263,0.00007632,0.00016806,0.00001344,0.00001471,0.00004
 047,0.00019293,-0.00012844,0.00000640,0.00019425,-0.00015793,0.0007244
 8,-0.00060888,-0.00029741,0.00061137,0.00009107,-0.00096472,0.05737623
 ,0.00028855,0.00107437,0.00046737,0.00051924,0.00031452,0.00035255,0.0
 0036651,-0.00280894,0.00556897,-0.00082449,0.00025861,0.00064814,0.000
 66717,0.00181983,0.00004172,-0.00073263,-0.00272040,-0.00101711,-0.018
 81446,-0.21738255,-0.11465707,0.00030769,0.00172396,0.00122074,-0.0017
 5576,-0.02301935,-0.01440049,0.00013175,0.00009694,-0.00003717,0.00000
 435,-0.00002437,-0.00003174,-0.00007671,0.00007345,-0.00015301,-0.0000
 7833,-0.00002674,-0.00001369,-0.00003684,-0.00136148,-0.00124300,0.000
 03632,0.00010175,-0.00015580,0.00010759,-0.00000643,-0.00002984,0.0004
 2581,0.00029888,-0.00044115,0.00065949,0.00029452,0.00013327,0.0197951
 8,0.23846000,-0.00315736,0.00144120,-0.00010496,-0.00014990,0.00036038
 ,-0.00020354,-0.00025726,0.00352011,-0.00288230,0.00030853,0.00173661,
 -0.00126153,0.00500934,-0.00220031,-0.00285696,-0.00426477,-0.01834940
 ,-0.01118337,-0.01091134,-0.11529529,-0.12394118,-0.00199494,-0.013466
 11,-0.00956220,0.00144897,0.01870022,0.01221994,-0.00024840,-0.0009928
 3,-0.00044896,0.00016308,0.00018040,0.00016551,0.00014265,-0.00009359,
 0.00009986,-0.00002839,-0.00004769,0.00005230,0.00003380,0.00124516,0.
 00075745,-0.00010376,-0.00017560,0.00014861,0.00001188,-0.00020060,0.0
 0016981,-0.00056219,0.00061154,0.00010418,0.00018400,0.00031196,0.0010
 2689,0.01371203,0.12387957,0.13498774,0.00006124,-0.00434641,0.0044643
 2,0.00018288,-0.00067059,-0.00127810,-0.00010500,-0.00050242,-0.000162
 18,0.00016143,0.00020278,-0.00020185,-0.00024831,-0.00029172,0.0004239
 1,0.00215476,0.00115657,-0.00096035,-0.00180538,0.02420660,-0.01835984
 ,-0.04815629,0.00339076,-0.00211697,-0.00568687,-0.00107715,-0.0023497
 0,-0.00007961,0.00019560,0.00034112,0.00039723,0.00042519,-0.00029493,
 0.00041276,-0.00045042,0.00017822,-0.00002045,0.00040864,-0.00019208,0
 .00011010,0.00007632,0.00014397,-0.00007889,-0.00002582,0.00007560,0.0
 0007914,-0.00002634,0.00002532,-0.00028601,-0.00050740,0.00070766,0.00
 035299,-0.00031040,0.00001547,0.00105829,-0.00046052,0.00049652,0.0510
 6896,0.00097832,-0.02288647,0.01661469,-0.00175236,-0.00268086,-0.0051
 9325,-0.00049790,0.00046098,-0.00036844,-0.00025355,-0.00025963,0.0003
 8880,0.00029768,0.00041355,-0.00030483,-0.00034947,-0.00032182,0.00021
 884,0.00028286,-0.00088734,0.00060599,0.00445769,-0.20462490,0.1228368
 2,0.00029842,0.00145169,-0.00018047,-0.00052644,0.00047048,-0.00000844
 ,0.00058335,0.00130685,0.00007243,0.00042077,-0.00153580,0.00095678,-0
 .00012001,0.00008496,0.00008242,0.00007623,0.00007139,0.00009141,-0.00
 002833,0.00005248,-0.00001373,0.00011583,0.00005926,-0.00008413,0.0005
 8229,0.00020495,-0.00036431,0.00003086,0.00023400,-0.00019515,0.000465
 18,0.00061900,0.00016912,-0.00433872,0.22463775,0.00101941,-0.01629593
 ,0.01103557,-0.00106589,-0.00273851,-0.00188278,-0.00020669,-0.0002655
 2,-0.00040476,0.00011995,0.00010267,-0.00008350,-0.00009646,0.00003172
 ,0.00012249,0.00101896,-0.00028352,0.00033820,0.00018217,0.01226960,-0
 .01031923,-0.00297058,0.12349278,-0.14206117,-0.00351706,-0.00113828,-
 0.00094792,0.00006656,0.00079715,0.00036309,0.00017327,0.00051382,0.00
 135346,0.00016304,-0.00095694,0.00052314,-0.00009732,-0.00025311,0.000
 14608,0.00010351,0.00015147,0.00009956,-0.00005107,0.00000938,0.000097
 87,0.00007562,0.00001305,0.00000361,-0.00046812,-0.00014679,0.00055585
 ,0.00004137,-0.00024945,0.00006821,0.00030991,-0.00029801,-0.00004881,
 0.00600443,-0.13299730,0.15506627,0.00479248,-0.00148012,-0.00552484,-
 0.00012630,0.00029253,0.00006293,-0.00003167,0.00020257,-0.00011791,-0
 .00000241,-0.00083842,0.00034664,0.00067125,0.00093571,0.00013297,-0.0
 0374572,-0.00063610,-0.00581249,-0.02499803,0.00376912,0.02018832,-0.1
 7253229,0.02396121,0.12243057,0.00064412,-0.00088927,0.00174290,0.0012
 7077,0.00043186,-0.00009054,0.00099737,-0.00166184,-0.00111586,-0.0000
 2486,0.00012158,-0.00009357,-0.00003115,0.00030755,0.00001918,0.000023
 37,0.00007753,-0.00002775,0.00004785,0.00012937,-0.00006059,-0.0000262
 6,0.00003430,-0.00008018,0.00036132,-0.00002694,-0.00016502,-0.0019101
 6,0.00023812,0.00114450,0.00103103,-0.00058428,0.00009520,0.00027869,-
 0.00050364,-0.00034220,0.19235997,0.01989521,-0.00447771,-0.02169956,0
 .00063452,0.00127771,-0.00035353,-0.00026074,-0.00029443,-0.00000297,-
 0.00012560,0.00021200,-0.00014556,-0.00000727,0.00027673,0.00044840,-0
 .00011565,0.00023253,0.00016970,0.00069922,-0.00097198,-0.00067926,0.0
 2358594,-0.05285956,-0.02032073,0.00077494,0.00019616,-0.00075594,-0.0
 0004301,0.00144368,0.00083581,-0.00125727,-0.00453754,-0.00296675,-0.0
 0040720,0.00008956,0.00025466,-0.00031138,-0.00028211,0.00053953,0.000
 09195,-0.00002928,0.00004821,-0.00003593,0.00004252,0.00002394,0.00000
 214,-0.00001348,0.00002680,0.00025862,0.00015370,-0.00028441,-0.000086
 43,0.00031556,-0.00021778,-0.00028368,0.00028234,0.00042619,-0.0186640
 9,0.00318895,0.01742719,-0.02425117,0.05580608,0.01178412,-0.00325840,
 -0.01493535,-0.00018535,0.00050140,0.00029016,-0.00013258,-0.00014653,
 -0.00014870,-0.00012605,-0.00003098,-0.00005056,0.00026900,0.00034560,
 0.00033288,-0.00279671,0.00036511,-0.00169229,-0.01281130,0.00276869,0
 .00969454,0.12338920,-0.02018259,-0.16454858,-0.00040260,-0.00031068,0
 .00098306,-0.00033685,0.00039016,0.00048829,-0.00142650,-0.00389180,-0
 .00067625,-0.00019283,-0.00007941,0.00014588,0.00001128,-0.00053874,0.
 00056722,0.00007641,0.00001261,0.00005222,-0.00001244,0.00003739,0.000
 01828,0.00003994,-0.00000437,0.00003860,-0.00011555,-0.00015243,0.0000
 6712,-0.00076042,-0.00016759,0.00058608,0.00071635,0.00017460,0.000990
 59,0.01438265,-0.00235517,-0.01409312,-0.13151162,0.02685918,0.1816195
 4,0.00013966,-0.00000211,0.00018293,0.00056736,-0.00037128,-0.00066749
 ,0.00018424,0.00025516,-0.00155698,0.00080556,0.00038908,-0.00055173,0
 .00001242,0.00001468,0.00008658,0.00082496,-0.00049897,-0.00050641,-0.
 00016310,-0.00025512,-0.00127834,0.00055570,0.00037921,-0.00067606,-0.
 20117708,0.00126003,0.12383115,0.00002931,0.00000075,0.00001952,-0.000
 01542,-0.00000118,-0.00006984,0.00017742,0.00012808,-0.00006839,0.0005
 1308,-0.00006165,0.00007051,0.00004709,0.00048955,0.00007717,0.0001803
 3,-0.00008263,0.00028800,0.00045995,-0.00011990,-0.00019211,0.00015902
 ,0.00008406,0.00031014,0.00046623,0.00011294,-0.00019405,0.00003597,-0
 .00047475,0.00006424,0.00017424,-0.00013158,-0.00007461,0.00052451,0.0
 0005293,0.00006814,0.21642718,-0.00000246,-0.00015037,-0.00000142,0.00
 114217,0.00112551,0.00053133,0.02241623,-0.00006113,-0.01815665,-0.001
 76277,-0.00630551,-0.00291587,0.00001448,0.00191982,-0.00000145,0.0016
 5084,-0.00631635,0.00293046,-0.02239658,0.00030885,0.01816253,-0.00113
 178,0.00113558,-0.00052208,0.00125890,-0.04637494,-0.00100927,0.000000
 69,0.00012531,-0.00000028,-0.00000109,-0.00016361,0.00000076,0.0000763
 5,-0.00004797,0.00041691,-0.00069279,-0.00005036,0.00015012,0.00025026
 ,0.00099534,0.00088053,0.00147443,0.00022764,-0.00145314,-0.00029541,0
 .00002689,0.00011865,-0.00147208,0.00025051,0.00144747,0.00028902,0.00
 002049,-0.00011554,-0.00023598,0.00100538,-0.00088176,-0.00007994,-0.0
 0004528,-0.00041522,0.00068284,-0.00006159,-0.00015104,-0.00133525,0.0
 5275763,-0.00040110,0.00000305,-0.00018220,0.00143301,0.00079510,0.000
 25835,0.01494798,-0.00083152,-0.01310483,-0.00227919,-0.00412411,-0.00
 091827,-0.00021368,0.00000083,0.00057753,-0.00221774,0.00416508,-0.000
 92678,0.01498583,0.00058623,-0.01312755,0.00142205,-0.00081800,0.00025
 996,0.12180534,-0.00099368,-0.14801013,-0.00007624,0.00000046,-0.00008
 697,0.00008423,-0.00000042,0.00020967,-0.00016250,-0.00000158,0.000446
 83,-0.00096655,-0.00029224,0.00006140,-0.00035419,0.00000146,0.0008796
 6,0.00107916,0.00014339,-0.00064517,0.00029163,-0.00000308,0.00014615,
 0.00107862,-0.00016100,-0.00064672,0.00029130,-0.00000125,0.00014629,-
 0.00035388,0.00000385,0.00088069,-0.00016236,0.00000466,0.00044732,-0.
 00096280,0.00030715,0.00006122,-0.13595654,0.00110673,0.16206597,0.000
 17589,-0.00000709,0.00035472,0.00101447,-0.00084901,0.00010935,-0.0017
 7688,-0.00044016,-0.00009915,0.00014873,0.00038740,0.00065371,0.000163
 06,-0.00000389,-0.00015765,0.00016136,-0.00037183,0.00064421,-0.001396
 41,0.00046191,0.00013288,0.00100593,0.00076139,0.00016468,-0.22747294,
 0.00132111,-0.11282332,-0.00003542,0.00000263,-0.00001136,-0.00004043,
 0.00000105,-0.00007866,-0.00005047,0.00008754,-0.00040711,0.00043302,0
 .00013967,0.00007637,0.00024873,-0.00051872,0.00002215,0.00023450,-0.0
 0011488,0.00005620,0.00065416,0.00008346,-0.00009388,0.00023592,0.0001
 0981,0.00004995,0.00064119,-0.00009262,-0.00009520,0.00025977,0.000529
 14,0.00000805,-0.00002590,-0.00008748,-0.00038820,0.00042610,-0.000146
 06,0.00007371,-0.02092861,0.00014992,-0.01331239,0.24592423,-0.0000071
 6,-0.00077698,-0.00000194,0.00131908,-0.00472626,-0.00367320,-0.024368
 90,0.00001691,-0.01517241,-0.00119937,0.00112780,0.00064377,-0.0000032
 8,-0.00033283,0.00000138,0.00121172,0.00111328,-0.00065497,0.02437161,
 -0.00034515,0.01515902,-0.00140483,-0.00470925,0.00367502,0.00132214,-
 0.04634845,0.00082091,0.00000263,0.00030876,-0.00000009,0.00000107,0.0
 0010317,0.00000049,-0.00169036,0.00000884,-0.00122413,0.00030572,0.000
 00339,0.00018411,-0.00018901,0.00093875,0.00087901,0.00001816,-0.00009
 880,0.00039952,0.00075475,0.00005214,0.00009538,-0.00002302,-0.0001006
 4,-0.00039974,-0.00076252,0.00006510,-0.00009403,0.00019991,0.00092669
 ,-0.00087929,0.00168948,-0.00001422,0.00122975,-0.00031250,0.00001016,
 -0.00018501,0.00016796,-0.00032186,0.00010889,-0.00140329,0.05309945,0
 .00022870,-0.00000098,0.00051825,0.00168211,-0.00338606,-0.00146949,-0
 .01595356,0.00011883,-0.01092775,-0.00204422,0.00087844,0.00005262,0.0
 0086728,-0.00000649,-0.00004597,-0.00205891,-0.00084823,0.00005442,-0.
 01598284,0.00011266,-0.01094580,0.00173550,0.00336376,-0.00147795,-0.1
 1085636,0.00080593,-0.12025281,-0.00001489,-0.00000007,0.00000481,-0.0
 0004744,0.00000025,-0.00008327,-0.00117902,-0.00000564,-0.00037797,-0.
 00025908,-0.00005553,0.00020903,0.00041542,0.00000631,0.00088916,0.000
 23127,-0.00004343,0.00039188,0.00105521,-0.00009039,-0.00002236,0.0002
 3194,0.00004046,0.00039231,0.00105738,0.00007412,-0.00002236,0.0004150
 6,-0.00001271,0.00089024,-0.00118083,0.00002326,-0.00037944,-0.0002578
 3,0.00005973,0.00020918,0.01679417,-0.00012177,0.01120758,0.12512095,-
 0.00091245,0.13118570\\0.00001876,-0.00000334,0.00002486,0.00000433,0.
 00001216,-0.00001606,0.00001056,-0.00000628,0.00000100,-0.00000073,-0.
 00001203,0.00002245,-0.00002660,0.00000077,-0.00003557,0.00000310,0.00
 001345,0.00002009,0.00000527,-0.00000006,0.00000107,0.00000678,-0.0000
 0726,-0.00001219,-0.00001723,0.00000342,-0.00000606,0.00000441,-0.0000
 0014,-0.00000085,0.00000329,0.00000025,-0.00001815,0.00000002,0.000002
 95,0.00000153,-0.00000487,-0.00000806,0.00000829,-0.00000740,0.0000031
 0,0.00000151,0.00000488,-0.00000295,0.00000176,-0.00000020,-0.00000028
 ,-0.00000325,0.00000488,0.00000211,0.00000246,-0.00000101,-0.00000010,
 -0.00000325,-0.00000622,-0.00000114,0.00000222,-0.00000079,-0.00000362
 ,0.00000129,-0.00000484,0.00000781,0.00000761,0.00000115,-0.00000014,0
 .00000146,0.00000248,-0.00000062,-0.00000222\\\@


 TIME IS NATURE'S WAY OF MAKING SURE EVERYTHING
 DOESN'T HAPPEN AT ONCE.
                     - WOODY ALLEN
 Job cpu time:       0 days  3 hours  8 minutes 10.9 seconds.
 Elapsed time:       0 days  0 hours 47 minutes 21.4 seconds.
 File lengths (MBytes):  RWF=    178 Int=      0 D2E=      0 Chk=     10 Scr=      1
 Normal termination of Gaussian 16 at Thu Aug  4 14:39:42 2022.
### All Done ###
