### Starting Gaussian ###
 Entering Gaussian System, Link 0=g16
 Initial command:
 /cluster/software/gaussian/gaussian-16-A.03/avx2/g16/l1.exe "/local/scratch/ks29c/Gau-10985.inp" -scrdir="/local/scratch/ks29c/"
 Entering Link 1 = /cluster/software/gaussian/gaussian-16-A.03/avx2/g16/l1.exe PID=     10986.
  
 Copyright (c) 1988,1990,1992,1993,1995,1998,2003,2009,2016,
            Gaussian, Inc.  All Rights Reserved.
  
 This is part of the Gaussian(R) 16 program.  It is based on
 the Gaussian(R) 09 system (copyright 2009, Gaussian, Inc.),
 the Gaussian(R) 03 system (copyright 2003, Gaussian, Inc.),
 the Gaussian(R) 98 system (copyright 1998, Gaussian, Inc.),
 the Gaussian(R) 94 system (copyright 1995, Gaussian, Inc.),
 the Gaussian 92(TM) system (copyright 1992, Gaussian, Inc.),
 the Gaussian 90(TM) system (copyright 1990, Gaussian, Inc.),
 the Gaussian 88(TM) system (copyright 1988, Gaussian, Inc.),
 the Gaussian 86(TM) system (copyright 1986, Carnegie Mellon
 University), and the Gaussian 82(TM) system (copyright 1983,
 Carnegie Mellon University). Gaussian is a federally registered
 trademark of Gaussian, Inc.
  
 This software contains proprietary and confidential information,
 including trade secrets, belonging to Gaussian, Inc.
  
 This software is provided under written license and may be
 used, copied, transmitted, or stored only in accord with that
 written license.
  
 The following legend is applicable only to US Government
 contracts under FAR:
  
                    RESTRICTED RIGHTS LEGEND
  
 Use, reproduction and disclosure by the US Government is
 subject to restrictions as set forth in subparagraphs (a)
 and (c) of the Commercial Computer Software - Restricted
 Rights clause in FAR 52.227-19.
  
 Gaussian, Inc.
 340 Quinnipiac St., Bldg. 40, Wallingford CT 06492
  
  
 ---------------------------------------------------------------
 Warning -- This program may not be used in any manner that
 competes with the business of Gaussian, Inc. or will provide
 assistance to any competitor of Gaussian, Inc.  The licensee
 of this program is prohibited from giving any competitor of
 Gaussian, Inc. access to this program.  By using this program,
 the user acknowledges that Gaussian, Inc. is engaged in the
 business of creating and licensing software in the field of
 computational chemistry and represents and warrants to the
 licensee that it is not a competitor of Gaussian, Inc. and that
 it will not use this program in any manner prohibited above.
 ---------------------------------------------------------------
  

 Cite this work as:
 Gaussian 16, Revision A.03,
 M. J. Frisch, G. W. Trucks, H. B. Schlegel, G. E. Scuseria, 
 M. A. Robb, J. R. Cheeseman, G. Scalmani, V. Barone, 
 G. A. Petersson, H. Nakatsuji, X. Li, M. Caricato, A. V. Marenich, 
 J. Bloino, B. G. Janesko, R. Gomperts, B. Mennucci, H. P. Hratchian, 
 J. V. Ortiz, A. F. Izmaylov, J. L. Sonnenberg, D. Williams-Young, 
 F. Ding, F. Lipparini, F. Egidi, J. Goings, B. Peng, A. Petrone, 
 T. Henderson, D. Ranasinghe, V. G. Zakrzewski, J. Gao, N. Rega, 
 G. Zheng, W. Liang, M. Hada, M. Ehara, K. Toyota, R. Fukuda, 
 J. Hasegawa, M. Ishida, T. Nakajima, Y. Honda, O. Kitao, H. Nakai, 
 T. Vreven, K. Throssell, J. A. Montgomery, Jr., J. E. Peralta, 
 F. Ogliaro, M. J. Bearpark, J. J. Heyd, E. N. Brothers, K. N. Kudin, 
 V. N. Staroverov, T. A. Keith, R. Kobayashi, J. Normand, 
 K. Raghavachari, A. P. Rendell, J. C. Burant, S. S. Iyengar, 
 J. Tomasi, M. Cossi, J. M. Millam, M. Klene, C. Adamo, R. Cammi, 
 J. W. Ochterski, R. L. Martin, K. Morokuma, O. Farkas, 
 J. B. Foresman, and D. J. Fox, Gaussian, Inc., Wallingford CT, 2016.
 
 ******************************************
 Gaussian 16:  ES64L-G16RevA.03 25-Dec-2016
                 4-Aug-2022 
 ******************************************
 %chk=C1dCC2CNCC2CN1.chk
 %NProcShared=20
 Will use up to   20 processors via shared memory.
 -----------------------------
 # opt freq b3lyp/6-31g(2df,p)
 -----------------------------
 1/18=20,19=15,26=3,38=1/1,3;
 2/9=110,12=2,17=6,18=5,40=1/2;
 3/5=1,6=6,7=104,11=2,25=1,30=1,71=1,74=-5/1,2,3;
 4//1;
 5/5=2,38=5/2;
 6/7=2,8=2,9=2,10=2,28=1/1;
 7//1,2,3,16;
 1/18=20,19=15,26=3/3(2);
 2/9=110/2;
 99//99;
 2/9=110/2;
 3/5=1,6=6,7=104,11=2,25=1,30=1,71=1,74=-5/1,2,3;
 4/5=5,16=3,69=1/1;
 5/5=2,38=5/2;
 7//1,2,3,16;
 1/18=20,19=15,26=3/3(-5);
 2/9=110/2;
 6/7=2,8=2,9=2,10=2,19=2,28=1/1;
 99/9=1/99;
 -------------------
 Title Card Required
 -------------------
 Symbolic Z-matrix:
 Charge =  0 Multiplicity = 1
 C                     2.24175   0.73436  -0.12154 
 C                     1.07827   1.42815  -0.3128 
 C                    -0.21159   0.74569   0.04671 
 C                    -1.6633    1.22035  -0.15915 
 N                    -2.54913   0.05458  -0.01753 
 C                    -1.73202  -1.16682   0.1578 
 C                    -0.23953  -0.79448   0.0308 
 C                     1.13561  -1.50206   0.19093 
 N                     2.28335  -0.58683   0.18949 
 H                     3.19753   1.2436   -0.06435 
 H                     1.15593   2.50516  -0.33329 
 H                    -0.14969   1.07702   1.08364 
 H                    -1.88926   1.81245  -1.05225 
 H                    -1.93575   1.85117   0.69947 
 H                    -3.13119  -0.02537  -0.85503 
 H                    -2.02715  -1.76652  -0.72108 
 H                    -2.03375  -1.74046   1.03428 
 H                    -0.28655  -1.25055  -0.94924 
 H                     1.30745  -2.1144   -0.7139 
 H                     1.21631  -2.17538   1.0407 
 H                     3.19601  -1.03057   0.0353 
 

 GradGradGradGradGradGradGradGradGradGradGradGradGradGradGradGradGradGrad
 Berny optimization.
 Initialization pass.
                           ----------------------------
                           !    Initial Parameters    !
                           ! (Angstroms and Degrees)  !
 --------------------------                            --------------------------
 ! Name  Definition              Value          Derivative Info.                !
 --------------------------------------------------------------------------------
 ! R1    R(1,2)                  1.3681         estimate D2E/DX2                !
 ! R2    R(1,9)                  1.3579         estimate D2E/DX2                !
 ! R3    R(1,10)                 1.0845         estimate D2E/DX2                !
 ! R4    R(2,3)                  1.5029         estimate D2E/DX2                !
 ! R5    R(2,11)                 1.08           estimate D2E/DX2                !
 ! R6    R(3,4)                  1.5411         estimate D2E/DX2                !
 ! R7    R(3,7)                  1.5405         estimate D2E/DX2                !
 ! R8    R(3,12)                 1.0903         estimate D2E/DX2                !
 ! R9    R(4,5)                  1.471          estimate D2E/DX2                !
 ! R10   R(4,13)                 1.0951         estimate D2E/DX2                !
 ! R11   R(4,14)                 1.0997         estimate D2E/DX2                !
 ! R12   R(5,6)                  1.4799         estimate D2E/DX2                !
 ! R13   R(5,15)                 1.023          estimate D2E/DX2                !
 ! R14   R(6,7)                  1.5435         estimate D2E/DX2                !
 ! R15   R(6,16)                 1.1042         estimate D2E/DX2                !
 ! R16   R(6,17)                 1.0901         estimate D2E/DX2                !
 ! R17   R(7,8)                  1.5548         estimate D2E/DX2                !
 ! R18   R(7,18)                 1.082          estimate D2E/DX2                !
 ! R19   R(8,9)                  1.468          estimate D2E/DX2                !
 ! R20   R(8,19)                 1.106          estimate D2E/DX2                !
 ! R21   R(8,20)                 1.0872         estimate D2E/DX2                !
 ! R22   R(9,21)                 1.0265         estimate D2E/DX2                !
 ! A1    A(2,1,9)              123.4686         estimate D2E/DX2                !
 ! A2    A(2,1,10)             121.2493         estimate D2E/DX2                !
 ! A3    A(9,1,10)             114.6946         estimate D2E/DX2                !
 ! A4    A(1,2,3)              117.7859         estimate D2E/DX2                !
 ! A5    A(1,2,11)             116.5658         estimate D2E/DX2                !
 ! A6    A(3,2,11)             121.271          estimate D2E/DX2                !
 ! A7    A(2,3,4)              129.5406         estimate D2E/DX2                !
 ! A8    A(2,3,7)              117.8455         estimate D2E/DX2                !
 ! A9    A(2,3,12)              92.3372         estimate D2E/DX2                !
 ! A10   A(4,3,7)              106.8256         estimate D2E/DX2                !
 ! A11   A(4,3,12)              94.9863         estimate D2E/DX2                !
 ! A12   A(7,3,12)             108.3405         estimate D2E/DX2                !
 ! A13   A(3,4,5)              108.0779         estimate D2E/DX2                !
 ! A14   A(3,4,13)             118.0226         estimate D2E/DX2                !
 ! A15   A(3,4,14)             107.803          estimate D2E/DX2                !
 ! A16   A(5,4,13)             112.5044         estimate D2E/DX2                !
 ! A17   A(5,4,14)             103.3111         estimate D2E/DX2                !
 ! A18   A(13,4,14)            105.9904         estimate D2E/DX2                !
 ! A19   A(4,5,6)              109.4497         estimate D2E/DX2                !
 ! A20   A(4,5,15)             109.0109         estimate D2E/DX2                !
 ! A21   A(6,5,15)             110.2809         estimate D2E/DX2                !
 ! A22   A(5,6,7)              108.9684         estimate D2E/DX2                !
 ! A23   A(5,6,16)             101.9096         estimate D2E/DX2                !
 ! A24   A(5,6,17)             112.1312         estimate D2E/DX2                !
 ! A25   A(7,6,16)             108.9043         estimate D2E/DX2                !
 ! A26   A(7,6,17)             117.4356         estimate D2E/DX2                !
 ! A27   A(16,6,17)            106.272          estimate D2E/DX2                !
 ! A28   A(3,7,6)              104.9438         estimate D2E/DX2                !
 ! A29   A(3,7,8)              115.9698         estimate D2E/DX2                !
 ! A30   A(3,7,18)             115.5668         estimate D2E/DX2                !
 ! A31   A(6,7,8)              137.4756         estimate D2E/DX2                !
 ! A32   A(6,7,18)              86.0333         estimate D2E/DX2                !
 ! A33   A(8,7,18)              86.5541         estimate D2E/DX2                !
 ! A34   A(7,8,9)              114.0591         estimate D2E/DX2                !
 ! A35   A(7,8,19)             107.7661         estimate D2E/DX2                !
 ! A36   A(7,8,20)             115.3412         estimate D2E/DX2                !
 ! A37   A(9,8,19)             102.8798         estimate D2E/DX2                !
 ! A38   A(9,8,20)             109.1993         estimate D2E/DX2                !
 ! A39   A(19,8,20)            106.5608         estimate D2E/DX2                !
 ! A40   A(1,9,8)              125.6521         estimate D2E/DX2                !
 ! A41   A(1,9,21)             114.4206         estimate D2E/DX2                !
 ! A42   A(8,9,21)             115.2008         estimate D2E/DX2                !
 ! D1    D(9,1,2,3)              9.7321         estimate D2E/DX2                !
 ! D2    D(9,1,2,11)           166.5811         estimate D2E/DX2                !
 ! D3    D(10,1,2,3)          -161.0073         estimate D2E/DX2                !
 ! D4    D(10,1,2,11)           -4.1582         estimate D2E/DX2                !
 ! D5    D(2,1,9,8)              8.6931         estimate D2E/DX2                !
 ! D6    D(2,1,9,21)           163.0075         estimate D2E/DX2                !
 ! D7    D(10,1,9,8)           179.9834         estimate D2E/DX2                !
 ! D8    D(10,1,9,21)          -25.7021         estimate D2E/DX2                !
 ! D9    D(1,2,3,4)           -174.5682         estimate D2E/DX2                !
 ! D10   D(1,2,3,7)            -25.185          estimate D2E/DX2                !
 ! D11   D(1,2,3,12)            87.0079         estimate D2E/DX2                !
 ! D12   D(11,2,3,4)            29.7256         estimate D2E/DX2                !
 ! D13   D(11,2,3,7)           179.1088         estimate D2E/DX2                !
 ! D14   D(11,2,3,12)          -68.6982         estimate D2E/DX2                !
 ! D15   D(2,3,4,5)            163.3022         estimate D2E/DX2                !
 ! D16   D(2,3,4,13)            34.2647         estimate D2E/DX2                !
 ! D17   D(2,3,4,14)           -85.647          estimate D2E/DX2                !
 ! D18   D(7,3,4,5)             11.3665         estimate D2E/DX2                !
 ! D19   D(7,3,4,13)          -117.671          estimate D2E/DX2                !
 ! D20   D(7,3,4,14)           122.4174         estimate D2E/DX2                !
 ! D21   D(12,3,4,5)           -99.5109         estimate D2E/DX2                !
 ! D22   D(12,3,4,13)          131.4516         estimate D2E/DX2                !
 ! D23   D(12,3,4,14)           11.54           estimate D2E/DX2                !
 ! D24   D(2,3,7,6)           -169.0223         estimate D2E/DX2                !
 ! D25   D(2,3,7,8)             22.8907         estimate D2E/DX2                !
 ! D26   D(2,3,7,18)           -76.2528         estimate D2E/DX2                !
 ! D27   D(4,3,7,6)            -13.2472         estimate D2E/DX2                !
 ! D28   D(4,3,7,8)            178.6659         estimate D2E/DX2                !
 ! D29   D(4,3,7,18)            79.5223         estimate D2E/DX2                !
 ! D30   D(12,3,7,6)            88.0509         estimate D2E/DX2                !
 ! D31   D(12,3,7,8)           -80.0361         estimate D2E/DX2                !
 ! D32   D(12,3,7,18)         -179.1797         estimate D2E/DX2                !
 ! D33   D(3,4,5,6)             -4.6645         estimate D2E/DX2                !
 ! D34   D(3,4,5,15)          -125.3599         estimate D2E/DX2                !
 ! D35   D(13,4,5,6)           127.4173         estimate D2E/DX2                !
 ! D36   D(13,4,5,15)            6.7219         estimate D2E/DX2                !
 ! D37   D(14,4,5,6)          -118.7269         estimate D2E/DX2                !
 ! D38   D(14,4,5,15)          120.5777         estimate D2E/DX2                !
 ! D39   D(4,5,6,7)             -3.9109         estimate D2E/DX2                !
 ! D40   D(4,5,6,16)          -118.911          estimate D2E/DX2                !
 ! D41   D(4,5,6,17)           127.8284         estimate D2E/DX2                !
 ! D42   D(15,5,6,7)           116.0089         estimate D2E/DX2                !
 ! D43   D(15,5,6,16)            1.0088         estimate D2E/DX2                !
 ! D44   D(15,5,6,17)         -112.2518         estimate D2E/DX2                !
 ! D45   D(5,6,7,3)             10.7407         estimate D2E/DX2                !
 ! D46   D(5,6,7,8)            174.8044         estimate D2E/DX2                !
 ! D47   D(5,6,7,18)          -104.6784         estimate D2E/DX2                !
 ! D48   D(16,6,7,3)           121.1282         estimate D2E/DX2                !
 ! D49   D(16,6,7,8)           -74.8082         estimate D2E/DX2                !
 ! D50   D(16,6,7,18)            5.7091         estimate D2E/DX2                !
 ! D51   D(17,6,7,3)          -118.1087         estimate D2E/DX2                !
 ! D52   D(17,6,7,8)            45.955          estimate D2E/DX2                !
 ! D53   D(17,6,7,18)          126.4722         estimate D2E/DX2                !
 ! D54   D(3,7,8,9)             -6.2652         estimate D2E/DX2                !
 ! D55   D(3,7,8,19)          -119.8053         estimate D2E/DX2                !
 ! D56   D(3,7,8,20)           121.3187         estimate D2E/DX2                !
 ! D57   D(6,7,8,9)           -169.103          estimate D2E/DX2                !
 ! D58   D(6,7,8,19)            77.3569         estimate D2E/DX2                !
 ! D59   D(6,7,8,20)           -41.519          estimate D2E/DX2                !
 ! D60   D(18,7,8,9)           110.5796         estimate D2E/DX2                !
 ! D61   D(18,7,8,19)           -2.9605         estimate D2E/DX2                !
 ! D62   D(18,7,8,20)         -121.8365         estimate D2E/DX2                !
 ! D63   D(7,8,9,1)             -9.8287         estimate D2E/DX2                !
 ! D64   D(7,8,9,21)          -163.9691         estimate D2E/DX2                !
 ! D65   D(19,8,9,1)           106.5866         estimate D2E/DX2                !
 ! D66   D(19,8,9,21)          -47.5537         estimate D2E/DX2                !
 ! D67   D(20,8,9,1)          -140.5065         estimate D2E/DX2                !
 ! D68   D(20,8,9,21)           65.3532         estimate D2E/DX2                !
 --------------------------------------------------------------------------------
 Trust Radius=3.00D-01 FncErr=1.00D-07 GrdErr=1.00D-06 EigMax=2.50D+02 EigMin=1.00D-04
 Number of steps in this run=    126 maximum allowed number of steps=    126.
 GradGradGradGradGradGradGradGradGradGradGradGradGradGradGradGradGradGrad

                          Input orientation:                          
 ---------------------------------------------------------------------
 Center     Atomic      Atomic             Coordinates (Angstroms)
 Number     Number       Type             X           Y           Z
 ---------------------------------------------------------------------
      1          6           0        2.241750    0.734360   -0.121540
      2          6           0        1.078270    1.428150   -0.312800
      3          6           0       -0.211590    0.745690    0.046710
      4          6           0       -1.663300    1.220350   -0.159150
      5          7           0       -2.549130    0.054580   -0.017530
      6          6           0       -1.732020   -1.166820    0.157800
      7          6           0       -0.239530   -0.794480    0.030800
      8          6           0        1.135610   -1.502060    0.190930
      9          7           0        2.283350   -0.586830    0.189490
     10          1           0        3.197530    1.243600   -0.064350
     11          1           0        1.155930    2.505160   -0.333290
     12          1           0       -0.149690    1.077020    1.083640
     13          1           0       -1.889260    1.812450   -1.052250
     14          1           0       -1.935750    1.851170    0.699470
     15          1           0       -3.131190   -0.025370   -0.855030
     16          1           0       -2.027150   -1.766520   -0.721080
     17          1           0       -2.033750   -1.740460    1.034280
     18          1           0       -0.286550   -1.250550   -0.949240
     19          1           0        1.307450   -2.114400   -0.713900
     20          1           0        1.216310   -2.175380    1.040700
     21          1           0        3.196010   -1.030570    0.035300
 ---------------------------------------------------------------------
                    Distance matrix (angstroms):
                    1          2          3          4          5
     1  C    0.000000
     2  C    1.368068   0.000000
     3  C    2.459129   1.502910   0.000000
     4  C    3.935355   2.753724   1.541150   0.000000
     5  N    4.839985   3.889976   2.438412   1.470976   0.000000
     6  C    4.413996   3.853967   2.445760   2.409099   1.479942
     7  C    2.918443   2.606673   1.540506   2.474417   2.461197
     8  C    2.514509   2.973746   2.624524   3.920200   4.005483
     9  N    1.357944   2.400970   2.832088   4.354710   4.879255
    10  H    1.084487   2.141740   3.447078   4.861810   5.868566
    11  H    2.087960   1.080001   2.260585   3.103082   4.453371
    12  H    2.699789   1.892412   1.090337   1.963692   2.831125
    13  H    4.369639   3.082322   2.271622   1.095111   2.143871
    14  H    4.401458   3.207484   2.149630   1.099723   2.029300
    15  H    5.475736   4.486233   3.151465   2.047137   1.023031
    16  H    4.983709   4.473952   3.193268   3.060971   2.020854
    17  H    5.073515   4.641054   3.236743   3.213706   2.143383
    18  H    3.319225   3.072983   2.232154   2.936840   2.773214
    19  H    3.056017   3.572543   3.326579   4.500407   4.479131
    20  H    3.296804   3.851811   3.399936   4.611158   4.502345
    21  H    2.012508   3.263633   3.842781   5.358857   5.846963
                    6          7          8          9         10
     6  C    0.000000
     7  C    1.543468   0.000000
     8  C    2.887349   1.554774   0.000000
     9  N    4.057165   2.536380   1.467977   0.000000
    10  H    5.491806   3.997025   3.443157   2.061707   0.000000
    11  H    4.697325   3.601041   4.041415   3.332383   2.414952
    12  H    2.897545   2.149199   3.016717   3.080192   3.542529
    13  H    3.219471   3.269662   4.656320   4.970829   5.212962
    14  H    3.072975   3.213059   4.575589   4.899462   5.225239
    15  H    2.070365   3.120564   4.634677   5.542879   6.502934
    16  H    1.104161   2.169279   3.302234   4.560835   6.065426
    17  H    1.090101   2.262979   3.288300   4.547734   6.121919
    18  H    1.822617   1.081984   1.840050   2.888186   4.375229
    19  H    3.300931   2.165621   1.105987   2.025331   3.907746
    20  H    3.238727   2.246387   1.087190   2.094427   4.103144
    21  H    4.931435   3.443645   2.119380   1.026464   2.276353
                   11         12         13         14         15
    11  H    0.000000
    12  H    2.398316   0.000000
    13  H    3.204674   2.851138   0.000000
    14  H    3.324572   1.984164   1.752765   0.000000
    15  H    5.005516   3.723311   2.226852   2.714212   0.000000
    16  H    5.341313   3.855851   3.596903   3.887672   2.066023
    17  H    5.483575   3.389736   4.122821   3.608533   2.777661
    18  H    4.070074   3.093366   3.458505   3.880563   3.098696
    19  H    4.637689   3.942026   5.074799   5.314293   4.907697
    20  H    4.878417   3.527876   5.470630   5.124941   5.207407
    21  H    4.098679   4.090802   5.926677   5.922880   6.468120
                   16         17         18         19         20
    16  H    0.000000
    17  H    1.755566   0.000000
    18  H    1.829746   2.688321   0.000000
    19  H    3.352705   3.789404   1.828239   0.000000
    20  H    3.713633   3.279037   2.659654   1.758023   0.000000
    21  H    5.328708   5.371433   3.625732   2.302748   2.498126
                   21
    21  H    0.000000
 Stoichiometry    C7H12N2
 Framework group  C1[X(C7H12N2)]
 Deg. of freedom    57
 Full point group                 C1      NOp   1
 Largest Abelian subgroup         C1      NOp   1
 Largest concise Abelian subgroup C1      NOp   1
                         Standard orientation:                         
 ---------------------------------------------------------------------
 Center     Atomic      Atomic             Coordinates (Angstroms)
 Number     Number       Type             X           Y           Z
 ---------------------------------------------------------------------
      1          6           0        2.214818    0.818190   -0.069388
      2          6           0        1.032017    1.498185   -0.170380
      3          6           0       -0.234678    0.750074    0.137116
      4          6           0       -1.700668    1.206344    0.003575
      5          7           0       -2.556015    0.010128    0.038491
      6          6           0       -1.707252   -1.201692    0.074848
      7          6           0       -0.226504   -0.780611   -0.036364
      8          6           0        1.167629   -1.465771    0.028972
      9          7           0        2.293214   -0.526394    0.103705
     10          1           0        3.159175    1.342976    0.024959
     11          1           0        1.083828    2.573267   -0.081414
     12          1           0       -0.161964    0.975122    1.201494
     13          1           0       -1.956597    1.880727   -0.820425
     14          1           0       -1.972442    1.738971    0.926526
     15          1           0       -3.151008    0.001490   -0.793675
     16          1           0       -2.003908   -1.715686   -0.856268
     17          1           0       -1.979516   -1.869394    0.892386
     18          1           0       -0.280374   -1.135143   -1.057194
     19          1           0        1.337569   -1.977846   -0.936484
     20          1           0        1.279501   -2.220174    0.803789
     21          1           0        3.213178   -0.928770   -0.109335
 ---------------------------------------------------------------------
 Rotational constants (GHZ):           3.2430736           1.3168417           0.9677724
 Standard basis: 6-31G(2df,p) (6D, 7F)
 There are   339 symmetry adapted cartesian basis functions of A   symmetry.
 There are   312 symmetry adapted basis functions of A   symmetry.
   312 basis functions,   480 primitive gaussians,   339 cartesian basis functions
    34 alpha electrons       34 beta electrons
       nuclear repulsion energy       461.6810515474 Hartrees.
 NAtoms=   21 NActive=   21 NUniq=   21 SFac= 1.00D+00 NAtFMM=   60 NAOKFM=F Big=F
 Integral buffers will be    131072 words long.
 Raffenetti 2 integral format.
 Two-electron integral symmetry is turned on.
 One-electron integrals computed using PRISM.
 PrsmSu:  requested number of processors reduced to:  13 ShMem   1 Linda.
 NBasis=   312 RedAO= T EigKep=  2.63D-04  NBF=   312
 NBsUse=   312 1.00D-06 EigRej= -1.00D+00 NBFU=   312
 ExpMin= 1.61D-01 ExpMax= 4.17D+03 ExpMxC= 6.27D+02 IAcc=3 IRadAn=         5 AccDes= 0.00D+00
 Harris functional with IExCor=  402 and IRadAn=       5 diagonalized for initial guess.
 HarFok:  IExCor=  402 AccDes= 0.00D+00 IRadAn=         5 IDoV= 1 UseB2=F ITyADJ=14
 ICtDFT=  3500011 ScaDFX=  1.000000  1.000000  1.000000  1.000000
 FoFCou: FMM=F IPFlag=           0 FMFlag=      100000 FMFlg1=           0
         NFxFlg=           0 DoJE=T BraDBF=F KetDBF=T FulRan=T
         wScrn=  0.000000 ICntrl=       500 IOpCl=  0 I1Cent=   200000004 NGrid=           0
         NMat0=    1 NMatS0=      1 NMatT0=    0 NMatD0=    1 NMtDS0=    0 NMtDT0=    0
 Petite list used in FoFCou.
 Requested convergence on RMS density matrix=1.00D-08 within 128 cycles.
 Requested convergence on MAX density matrix=1.00D-06.
 Requested convergence on             energy=1.00D-06.
 No special actions if energy rises.
 Integral accuracy reduced to 1.0D-05 until final iterations.
 Initial convergence to 1.0D-05 achieved.  Increase integral accuracy.
 SCF Done:  E(RB3LYP) =  -383.359978328     A.U. after   13 cycles
            NFock= 13  Conv=0.10D-07     -V/T= 2.0079

 **********************************************************************

            Population analysis using the SCF density.

 **********************************************************************

 Orbital symmetries:
       Occupied  (A) (A) (A) (A) (A) (A) (A) (A) (A) (A) (A) (A)
                 (A) (A) (A) (A) (A) (A) (A) (A) (A) (A) (A) (A)
                 (A) (A) (A) (A) (A) (A) (A) (A) (A) (A)
       Virtual   (A) (A) (A) (A) (A) (A) (A) (A) (A) (A) (A) (A)
                 (A) (A) (A) (A) (A) (A) (A) (A) (A) (A) (A) (A)
                 (A) (A) (A) (A) (A) (A) (A) (A) (A) (A) (A) (A)
                 (A) (A) (A) (A) (A) (A) (A) (A) (A) (A) (A) (A)
                 (A) (A) (A) (A) (A) (A) (A) (A) (A) (A) (A) (A)
                 (A) (A) (A) (A) (A) (A) (A) (A) (A) (A) (A) (A)
                 (A) (A) (A) (A) (A) (A) (A) (A) (A) (A) (A) (A)
                 (A) (A) (A) (A) (A) (A) (A) (A) (A) (A) (A) (A)
                 (A) (A) (A) (A) (A) (A) (A) (A) (A) (A) (A) (A)
                 (A) (A) (A) (A) (A) (A) (A) (A) (A) (A) (A) (A)
                 (A) (A) (A) (A) (A) (A) (A) (A) (A) (A) (A) (A)
                 (A) (A) (A) (A) (A) (A) (A) (A) (A) (A) (A) (A)
                 (A) (A) (A) (A) (A) (A) (A) (A) (A) (A) (A) (A)
                 (A) (A) (A) (A) (A) (A) (A) (A) (A) (A) (A) (A)
                 (A) (A) (A) (A) (A) (A) (A) (A) (A) (A) (A) (A)
                 (A) (A) (A) (A) (A) (A) (A) (A) (A) (A) (A) (A)
                 (A) (A) (A) (A) (A) (A) (A) (A) (A) (A) (A) (A)
                 (A) (A) (A) (A) (A) (A) (A) (A) (A) (A) (A) (A)
                 (A) (A) (A) (A) (A) (A) (A) (A) (A) (A) (A) (A)
                 (A) (A) (A) (A) (A) (A) (A) (A) (A) (A) (A) (A)
                 (A) (A) (A) (A) (A) (A) (A) (A) (A) (A) (A) (A)
                 (A) (A) (A) (A) (A) (A) (A) (A) (A) (A) (A) (A)
                 (A) (A) (A) (A) (A) (A) (A) (A) (A) (A) (A) (A)
                 (A) (A)
 The electronic state is 1-A.
 Alpha  occ. eigenvalues --  -14.33388 -14.30394 -10.22561 -10.20667 -10.19425
 Alpha  occ. eigenvalues --  -10.19396 -10.18260 -10.17892 -10.14934  -0.92502
 Alpha  occ. eigenvalues --   -0.90052  -0.77868  -0.76175  -0.70819  -0.65426
 Alpha  occ. eigenvalues --   -0.60147  -0.57136  -0.52273  -0.50935  -0.48720
 Alpha  occ. eigenvalues --   -0.45486  -0.44840  -0.42132  -0.41810  -0.40460
 Alpha  occ. eigenvalues --   -0.38139  -0.36174  -0.34692  -0.33543  -0.32642
 Alpha  occ. eigenvalues --   -0.30875  -0.25242  -0.20358  -0.16593
 Alpha virt. eigenvalues --    0.05515   0.06656   0.07878   0.09341   0.11169
 Alpha virt. eigenvalues --    0.12429   0.14891   0.15965   0.16108   0.16553
 Alpha virt. eigenvalues --    0.17228   0.19076   0.20013   0.20303   0.21999
 Alpha virt. eigenvalues --    0.23114   0.25960   0.26820   0.29339   0.30424
 Alpha virt. eigenvalues --    0.34846   0.37230   0.39339   0.43781   0.44765
 Alpha virt. eigenvalues --    0.45806   0.48788   0.49655   0.50672   0.52414
 Alpha virt. eigenvalues --    0.52892   0.55200   0.55815   0.58389   0.59000
 Alpha virt. eigenvalues --    0.59877   0.62543   0.64224   0.64793   0.66194
 Alpha virt. eigenvalues --    0.68531   0.69089   0.70794   0.71196   0.73079
 Alpha virt. eigenvalues --    0.73899   0.74944   0.75391   0.76671   0.77101
 Alpha virt. eigenvalues --    0.77910   0.79996   0.80375   0.81536   0.82488
 Alpha virt. eigenvalues --    0.82711   0.84210   0.85721   0.86803   0.87449
 Alpha virt. eigenvalues --    0.89068   0.89696   0.91387   0.95256   0.98214
 Alpha virt. eigenvalues --    1.00288   1.01038   1.08062   1.08949   1.13164
 Alpha virt. eigenvalues --    1.14794   1.15744   1.19432   1.23063   1.25125
 Alpha virt. eigenvalues --    1.28324   1.31161   1.31538   1.32787   1.35852
 Alpha virt. eigenvalues --    1.36802   1.40215   1.41155   1.42490   1.43264
 Alpha virt. eigenvalues --    1.45438   1.46630   1.48708   1.51572   1.52515
 Alpha virt. eigenvalues --    1.53680   1.56816   1.58835   1.60035   1.63873
 Alpha virt. eigenvalues --    1.66393   1.68059   1.70177   1.72823   1.74092
 Alpha virt. eigenvalues --    1.77893   1.81382   1.82405   1.83026   1.85840
 Alpha virt. eigenvalues --    1.89973   1.93757   1.95938   2.00817   2.02456
 Alpha virt. eigenvalues --    2.03419   2.07835   2.10464   2.13327   2.17956
 Alpha virt. eigenvalues --    2.19148   2.24277   2.24787   2.26621   2.28532
 Alpha virt. eigenvalues --    2.30855   2.34910   2.39386   2.41190   2.41771
 Alpha virt. eigenvalues --    2.45378   2.48749   2.50485   2.54091   2.54959
 Alpha virt. eigenvalues --    2.55278   2.59020   2.62131   2.66217   2.67447
 Alpha virt. eigenvalues --    2.68402   2.71389   2.72776   2.74077   2.78263
 Alpha virt. eigenvalues --    2.79281   2.80822   2.82532   2.86956   2.88067
 Alpha virt. eigenvalues --    2.89854   2.90956   2.91969   2.94045   2.97632
 Alpha virt. eigenvalues --    3.00681   3.02624   3.04147   3.04961   3.06292
 Alpha virt. eigenvalues --    3.08604   3.09510   3.11663   3.13118   3.18153
 Alpha virt. eigenvalues --    3.19474   3.22099   3.22654   3.25295   3.29185
 Alpha virt. eigenvalues --    3.29877   3.31898   3.34374   3.35904   3.37348
 Alpha virt. eigenvalues --    3.38070   3.40384   3.42062   3.44725   3.45037
 Alpha virt. eigenvalues --    3.46750   3.51324   3.53674   3.55592   3.58226
 Alpha virt. eigenvalues --    3.60221   3.62263   3.63934   3.67976   3.70635
 Alpha virt. eigenvalues --    3.71724   3.74775   3.79801   3.81168   3.81938
 Alpha virt. eigenvalues --    3.85182   3.86673   3.94407   3.95566   3.98368
 Alpha virt. eigenvalues --    4.01381   4.04755   4.06547   4.12331   4.15980
 Alpha virt. eigenvalues --    4.19297   4.22264   4.23928   4.29633   4.33625
 Alpha virt. eigenvalues --    4.34398   4.35536   4.37734   4.39244   4.40889
 Alpha virt. eigenvalues --    4.42179   4.45241   4.46048   4.48160   4.49934
 Alpha virt. eigenvalues --    4.51409   4.53860   4.55993   4.56357   4.57446
 Alpha virt. eigenvalues --    4.57648   4.61963   4.64205   4.64749   4.68062
 Alpha virt. eigenvalues --    4.69060   4.72039   4.75357   4.76670   4.79059
 Alpha virt. eigenvalues --    4.79218   4.80401   4.81795   4.83005   4.85229
 Alpha virt. eigenvalues --    4.86698   4.89017   4.91917   4.93802   4.94964
 Alpha virt. eigenvalues --    4.97132   4.97852   5.00436   5.02566   5.04190
 Alpha virt. eigenvalues --    5.06447   5.12579   5.13321   5.14030   5.21723
 Alpha virt. eigenvalues --    5.23467   5.25403   5.30794   5.32150   5.36392
 Alpha virt. eigenvalues --    5.38329   5.44728   5.51415   5.59078   5.61404
 Alpha virt. eigenvalues --    5.66152   5.68554   5.74077   5.81687   5.86976
 Alpha virt. eigenvalues --    5.96755   6.39747  10.14613  10.50214  11.07654
 Alpha virt. eigenvalues --   11.32524  11.43850  11.52168  11.75950  12.11500
 Alpha virt. eigenvalues --   12.61018  14.62979  16.45051
          Condensed to atoms (all electrons):
               1          2          3          4          5          6
     1  C    4.767700   0.608872   0.009440   0.002285  -0.000125   0.000796
     2  C    0.608872   5.064050   0.370102  -0.029309   0.000952   0.003357
     3  C    0.009440   0.370102   4.653733   0.375032  -0.051252  -0.034081
     4  C    0.002285  -0.029309   0.375032   5.042689   0.382311  -0.115978
     5  N   -0.000125   0.000952  -0.051252   0.382311   6.382863   0.397569
     6  C    0.000796   0.003357  -0.034081  -0.115978   0.397569   5.047361
     7  C   -0.030667   0.016050   0.426743  -0.041954  -0.031529   0.356065
     8  C   -0.051033  -0.025774  -0.017548   0.004849   0.002558  -0.031565
     9  N    0.421875  -0.003911  -0.026868   0.000321  -0.000029   0.001104
    10  H    0.364505  -0.037299   0.002570  -0.000104   0.000001   0.000007
    11  H   -0.043399   0.365841  -0.041655  -0.003763   0.000002  -0.000169
    12  H   -0.007451  -0.091355   0.358757  -0.046239  -0.000295   0.000724
    13  H    0.000402  -0.003550  -0.026914   0.359744  -0.026957   0.006663
    14  H   -0.000354   0.004588  -0.015598   0.340146  -0.038030   0.005219
    15  H   -0.000005  -0.000023   0.003952  -0.053105   0.351459  -0.045762
    16  H    0.000013  -0.000166   0.005383   0.009448  -0.036745   0.364877
    17  H   -0.000037   0.000007  -0.003622   0.002905  -0.028095   0.351647
    18  H    0.003008  -0.004864  -0.034571   0.000500  -0.000026  -0.062645
    19  H    0.006353   0.000074   0.004609  -0.000154  -0.000083   0.003367
    20  H   -0.000727   0.002015  -0.002839  -0.000097  -0.000012  -0.004002
    21  H   -0.053511   0.005909   0.000271   0.000012   0.000000  -0.000042
               7          8          9         10         11         12
     1  C   -0.030667  -0.051033   0.421875   0.364505  -0.043399  -0.007451
     2  C    0.016050  -0.025774  -0.003911  -0.037299   0.365841  -0.091355
     3  C    0.426743  -0.017548  -0.026868   0.002570  -0.041655   0.358757
     4  C   -0.041954   0.004849   0.000321  -0.000104  -0.003763  -0.046239
     5  N   -0.031529   0.002558  -0.000029   0.000001   0.000002  -0.000295
     6  C    0.356065  -0.031565   0.001104   0.000007  -0.000169   0.000724
     7  C    4.683507   0.360434  -0.004866   0.000106   0.004511  -0.046897
     8  C    0.360434   5.023824   0.363403   0.006044   0.000078  -0.001304
     9  N   -0.004866   0.363403   6.290504  -0.038244   0.003642   0.002011
    10  H    0.000106   0.006044  -0.038244   0.619810  -0.006412  -0.000305
    11  H    0.004511   0.000078   0.003642  -0.006412   0.642929   0.000407
    12  H   -0.046897  -0.001304   0.002011  -0.000305   0.000407   0.720733
    13  H   -0.002475  -0.000083  -0.000020  -0.000002   0.000163   0.009128
    14  H    0.003858  -0.000144  -0.000003   0.000004   0.000743  -0.020743
    15  H    0.003569  -0.000060   0.000001  -0.000000   0.000005  -0.000193
    16  H   -0.016016   0.003380  -0.000035  -0.000000   0.000001  -0.000317
    17  H   -0.039966  -0.002358  -0.000016  -0.000000   0.000004   0.001039
    18  H    0.320971  -0.060017  -0.003609  -0.000028   0.000061   0.008712
    19  H   -0.025311   0.365515  -0.043565  -0.000161  -0.000012   0.000016
    20  H   -0.024972   0.347916  -0.025410  -0.000222   0.000032   0.000412
    21  H    0.003305  -0.042622   0.364054  -0.007675  -0.000179  -0.000204
              13         14         15         16         17         18
     1  C    0.000402  -0.000354  -0.000005   0.000013  -0.000037   0.003008
     2  C   -0.003550   0.004588  -0.000023  -0.000166   0.000007  -0.004864
     3  C   -0.026914  -0.015598   0.003952   0.005383  -0.003622  -0.034571
     4  C    0.359744   0.340146  -0.053105   0.009448   0.002905   0.000500
     5  N   -0.026957  -0.038030   0.351459  -0.036745  -0.028095  -0.000026
     6  C    0.006663   0.005219  -0.045762   0.364877   0.351647  -0.062645
     7  C   -0.002475   0.003858   0.003569  -0.016016  -0.039966   0.320971
     8  C   -0.000083  -0.000144  -0.000060   0.003380  -0.002358  -0.060017
     9  N   -0.000020  -0.000003   0.000001  -0.000035  -0.000016  -0.003609
    10  H   -0.000002   0.000004  -0.000000  -0.000000  -0.000000  -0.000028
    11  H    0.000163   0.000743   0.000005   0.000001   0.000004   0.000061
    12  H    0.009128  -0.020743  -0.000193  -0.000317   0.001039   0.008712
    13  H    0.666980  -0.059327  -0.014754   0.000223  -0.000245   0.001117
    14  H   -0.059327   0.671614   0.007573  -0.000508   0.000542  -0.000164
    15  H   -0.014754   0.007573   0.539091  -0.017216   0.005474  -0.000931
    16  H    0.000223  -0.000508  -0.017216   0.696123  -0.062752  -0.036149
    17  H   -0.000245   0.000542   0.005474  -0.062752   0.666633   0.012441
    18  H    0.001117  -0.000164  -0.000931  -0.036149   0.012441   0.768828
    19  H    0.000011   0.000000   0.000006   0.001042  -0.000510  -0.030368
    20  H   -0.000000   0.000008   0.000000  -0.000576   0.002604   0.011608
    21  H   -0.000000   0.000000  -0.000000   0.000003  -0.000001  -0.000701
              19         20         21
     1  C    0.006353  -0.000727  -0.053511
     2  C    0.000074   0.002015   0.005909
     3  C    0.004609  -0.002839   0.000271
     4  C   -0.000154  -0.000097   0.000012
     5  N   -0.000083  -0.000012   0.000000
     6  C    0.003367  -0.004002  -0.000042
     7  C   -0.025311  -0.024972   0.003305
     8  C    0.365515   0.347916  -0.042622
     9  N   -0.043565  -0.025410   0.364054
    10  H   -0.000161  -0.000222  -0.007675
    11  H   -0.000012   0.000032  -0.000179
    12  H    0.000016   0.000412  -0.000204
    13  H    0.000011  -0.000000  -0.000000
    14  H    0.000000   0.000008   0.000000
    15  H    0.000006   0.000000  -0.000000
    16  H    0.001042  -0.000576   0.000003
    17  H   -0.000510   0.002604  -0.000001
    18  H   -0.030368   0.011608  -0.000701
    19  H    0.681368  -0.061039  -0.004258
    20  H   -0.061039   0.647080  -0.000175
    21  H   -0.004258  -0.000175   0.499720
 Mulliken charges:
               1
     1  C    0.002060
     2  C   -0.245565
     3  C    0.044356
     4  C   -0.229541
     5  N   -0.304537
     6  C   -0.244512
     7  C    0.085533
     8  C   -0.245492
     9  N   -0.300341
    10  H    0.097405
    11  H    0.077169
    12  H    0.113363
    13  H    0.089896
    14  H    0.100576
    15  H    0.220922
    16  H    0.089987
    17  H    0.094305
    18  H    0.106826
    19  H    0.103098
    20  H    0.108396
    21  H    0.236095
 Sum of Mulliken charges =  -0.00000
 Mulliken charges with hydrogens summed into heavy atoms:
               1
     1  C    0.099466
     2  C   -0.168397
     3  C    0.157719
     4  C   -0.039069
     5  N   -0.083616
     6  C   -0.060220
     7  C    0.192359
     8  C   -0.033997
     9  N   -0.064245
 Electronic spatial extent (au):  <R**2>=           1229.8781
 Charge=             -0.0000 electrons
 Dipole moment (field-independent basis, Debye):
    X=              1.2980    Y=             -1.3228    Z=             -1.0975  Tot=              2.1539
 Quadrupole moment (field-independent basis, Debye-Ang):
   XX=            -51.2599   YY=            -52.9788   ZZ=            -56.3212
   XY=             -2.3771   XZ=              3.3032   YZ=              1.6738
 Traceless Quadrupole moment (field-independent basis, Debye-Ang):
   XX=              2.2601   YY=              0.5412   ZZ=             -2.8012
   XY=             -2.3771   XZ=              3.3032   YZ=              1.6738
 Octapole moment (field-independent basis, Debye-Ang**2):
  XXX=             33.6481  YYY=             -2.5301  ZZZ=             -0.1481  XYY=              2.6182
  XXY=             -5.5738  XXZ=            -16.0782  XZZ=             -5.9139  YZZ=             -3.2862
  YYZ=              0.8154  XYZ=              1.8486
 Hexadecapole moment (field-independent basis, Debye-Ang**3):
 XXXX=           -960.5235 YYYY=           -491.4057 ZZZZ=            -93.3915 XXXY=            -19.6366
 XXXZ=             37.0425 YYYX=             -7.2429 YYYZ=              1.3254 ZZZX=              5.1503
 ZZZY=              4.1459 XXYY=           -242.5750 XXZZ=           -193.5725 YYZZ=            -98.4894
 XXYZ=              4.3183 YYXZ=              2.0798 ZZXY=             -5.3106
 N-N= 4.616810515474D+02 E-N=-1.813195100137D+03  KE= 3.803587145358D+02
 PrsmSu:  requested number of processors reduced to:  13 ShMem   1 Linda.
 Calling FoFJK, ICntrl=      2127 FMM=F ISym2X=0 I1Cent= 0 IOpClX= 0 NMat=1 NMatS=1 NMatT=0.
 ***** Axes restored to original set *****
 -------------------------------------------------------------------
 Center     Atomic                   Forces (Hartrees/Bohr)
 Number     Number              X              Y              Z
 -------------------------------------------------------------------
      1        6          -0.032417631    0.025667576   -0.005396742
      2        6           0.025247459   -0.012039862   -0.013460010
      3        6           0.002078983    0.005082506    0.031007093
      4        6          -0.010955402    0.014121821    0.001605943
      5        7           0.005561793   -0.001929024   -0.007503542
      6        6          -0.026805219   -0.020100502    0.009557818
      7        6           0.005657788    0.005866589   -0.056208370
      8        6           0.014132462   -0.009173147    0.010695125
      9        7           0.017590318   -0.015836043    0.013771310
     10        1           0.000817923   -0.000625188   -0.005455679
     11        1          -0.004850007    0.002819553   -0.003238177
     12        1           0.000772690   -0.017960643    0.019489899
     13        1           0.003280045   -0.004217300   -0.005358121
     14        1           0.005850640    0.009583095   -0.005902266
     15        1           0.007375265   -0.002677131    0.008519269
     16        1           0.005663374   -0.011606442    0.010872980
     17        1          -0.001261988    0.002248841    0.009663255
     18        1           0.005331384    0.036812003   -0.031929500
     19        1          -0.007382978   -0.006002578    0.007365614
     20        1           0.001139268   -0.002162855    0.008979295
     21        1          -0.016826167    0.002128732    0.002924806
 -------------------------------------------------------------------
 Cartesian Forces:  Max     0.056208370 RMS     0.014980729

 GradGradGradGradGradGradGradGradGradGradGradGradGradGradGradGradGradGrad
 Berny optimization.
 FormGI is forming the generalized inverse of G from B-inverse, IUseBI=4.
 Internal  Forces:  Max     0.022863161 RMS     0.007615351
 Search for a local minimum.
 Step number   1 out of a maximum of  126
 All quantities printed in internal units (Hartrees-Bohrs-Radians)
 Mixed Optimization -- RFO/linear search
 Second derivative matrix not updated -- first step.
 ITU=  0
     Eigenvalues ---    0.00307   0.00504   0.00682   0.00879   0.01437
     Eigenvalues ---    0.01503   0.01622   0.01976   0.02415   0.02451
     Eigenvalues ---    0.02544   0.03280   0.03768   0.03941   0.04854
     Eigenvalues ---    0.05341   0.05482   0.05575   0.05785   0.06009
     Eigenvalues ---    0.07429   0.09057   0.09294   0.09703   0.10704
     Eigenvalues ---    0.11226   0.11443   0.14412   0.14923   0.15867
     Eigenvalues ---    0.20921   0.21731   0.22013   0.22479   0.22712
     Eigenvalues ---    0.26379   0.26873   0.27216   0.28203   0.31221
     Eigenvalues ---    0.33029   0.33226   0.33566   0.33713   0.34229
     Eigenvalues ---    0.34732   0.34774   0.34801   0.35125   0.35139
     Eigenvalues ---    0.35458   0.35756   0.35994   0.43323   0.43858
     Eigenvalues ---    0.49230   0.51889
 RFO step:  Lambda=-5.56510730D-02 EMin= 3.07232481D-03
 Linear search not attempted -- first point.
 Maximum step size (   0.300) exceeded in Quadratic search.
    -- Step size scaled by   0.988
 Iteration  1 RMS(Cart)=  0.06071061 RMS(Int)=  0.00486062
 Iteration  2 RMS(Cart)=  0.00409593 RMS(Int)=  0.00260455
 Iteration  3 RMS(Cart)=  0.00006278 RMS(Int)=  0.00260424
 Iteration  4 RMS(Cart)=  0.00000019 RMS(Int)=  0.00260424
 Variable       Old X    -DE/DX   Delta X   Delta X   Delta X     New X
                                 (Linear)    (Quad)   (Total)
    R1        2.58527  -0.02286   0.00000  -0.04070  -0.04169   2.54359
    R2        2.56614   0.02076   0.00000   0.03545   0.03450   2.60065
    R3        2.04938   0.00014   0.00000   0.00034   0.00034   2.04972
    R4        2.84009   0.00015   0.00000  -0.00097  -0.00143   2.83866
    R5        2.04091   0.00252   0.00000   0.00600   0.00600   2.04691
    R6        2.91235   0.00231   0.00000   0.00794   0.00737   2.91972
    R7        2.91113  -0.01109   0.00000  -0.03851  -0.03431   2.87683
    R8        2.06044   0.01312   0.00000   0.03215   0.03215   2.09259
    R9        2.77974   0.01220   0.00000   0.03001   0.02810   2.80784
   R10        2.06946   0.00141   0.00000   0.00351   0.00351   2.07297
   R11        2.07818  -0.00056   0.00000  -0.00141  -0.00141   2.07676
   R12        2.79668   0.00330   0.00000   0.00853   0.00756   2.80424
   R13        1.93325  -0.01096   0.00000  -0.02192  -0.02192   1.91133
   R14        2.91673   0.01705   0.00000   0.05033   0.05133   2.96806
   R15        2.08656  -0.00386   0.00000  -0.00985  -0.00985   2.07672
   R16        2.05999   0.00694   0.00000   0.01698   0.01698   2.07698
   R17        2.93810   0.00919   0.00000   0.02935   0.03027   2.96836
   R18        2.04465   0.01317   0.00000   0.03151   0.03151   2.07616
   R19        2.77407  -0.00347   0.00000  -0.00504  -0.00569   2.76838
   R20        2.09001  -0.00385   0.00000  -0.00986  -0.00986   2.08015
   R21        2.05449   0.00844   0.00000   0.02050   0.02050   2.07499
   R22        1.93974  -0.01632   0.00000  -0.03300  -0.03300   1.90674
    A1        2.15493   0.00817   0.00000   0.02325   0.02204   2.17698
    A2        2.11620  -0.00442   0.00000  -0.01365  -0.01306   2.10314
    A3        2.00180  -0.00373   0.00000  -0.00969  -0.00918   1.99261
    A4        2.05575  -0.00325   0.00000  -0.01991  -0.02166   2.03409
    A5        2.03446   0.00380   0.00000   0.02185   0.02161   2.05607
    A6        2.11658  -0.00161   0.00000  -0.00874  -0.00760   2.10898
    A7        2.26091  -0.00345   0.00000  -0.02449  -0.02670   2.23421
    A8        2.05679  -0.00239   0.00000  -0.02586  -0.02837   2.02842
    A9        1.61159   0.00653   0.00000   0.07324   0.07366   1.68524
   A10        1.86446   0.00261   0.00000  -0.00077  -0.00259   1.86187
   A11        1.65782   0.00272   0.00000   0.05091   0.05102   1.70884
   A12        1.89090  -0.00386   0.00000  -0.02905  -0.02794   1.86296
   A13        1.88631  -0.00903   0.00000  -0.03288  -0.03344   1.85288
   A14        2.05988  -0.00068   0.00000  -0.01316  -0.01311   2.04677
   A15        1.88152  -0.00024   0.00000  -0.00821  -0.00750   1.87402
   A16        1.96357   0.00629   0.00000   0.02011   0.02053   1.98410
   A17        1.80312   0.00620   0.00000   0.04731   0.04632   1.84944
   A18        1.84988  -0.00143   0.00000  -0.00437  -0.00519   1.84469
   A19        1.91026   0.01242   0.00000   0.04196   0.04095   1.95121
   A20        1.90260  -0.00044   0.00000   0.01901   0.01929   1.92189
   A21        1.92476  -0.00757   0.00000  -0.04012  -0.04002   1.88475
   A22        1.90186  -0.01783   0.00000  -0.06481  -0.06286   1.83900
   A23        1.77866   0.00900   0.00000   0.06303   0.06088   1.83954
   A24        1.95706   0.00857   0.00000   0.01850   0.01851   1.97557
   A25        1.90074   0.00135   0.00000  -0.00351  -0.00226   1.89848
   A26        2.04964   0.00420   0.00000   0.01136   0.01020   2.05984
   A27        1.85480  -0.00403   0.00000  -0.01493  -0.01543   1.83937
   A28        1.83161   0.00996   0.00000   0.02835   0.02204   1.85365
   A29        2.02405   0.00843   0.00000   0.01953   0.01120   2.03525
   A30        2.01702  -0.01011   0.00000  -0.10015  -0.10396   1.91306
   A31        2.39940  -0.02138   0.00000  -0.08999  -0.09234   2.30707
   A32        1.50156   0.00475   0.00000   0.09408   0.10648   1.60805
   A33        1.51065   0.00621   0.00000   0.09592   0.10764   1.61829
   A34        1.99071  -0.01084   0.00000  -0.03690  -0.03489   1.95582
   A35        1.88087   0.00057   0.00000  -0.00427  -0.00389   1.87698
   A36        2.01308   0.00184   0.00000   0.00252   0.00149   2.01457
   A37        1.79559   0.00585   0.00000   0.04251   0.04034   1.83593
   A38        1.90589   0.00589   0.00000   0.01318   0.01359   1.91948
   A39        1.85984  -0.00250   0.00000  -0.01131  -0.01140   1.84844
   A40        2.19304  -0.00456   0.00000  -0.01634  -0.01765   2.17539
   A41        1.99702   0.00722   0.00000   0.02882   0.02844   2.02545
   A42        2.01063  -0.00456   0.00000  -0.02972  -0.02946   1.98117
    D1        0.16986  -0.00046   0.00000  -0.00734  -0.00764   0.16222
    D2        2.90739  -0.00348   0.00000  -0.02639  -0.02820   2.87919
    D3       -2.81011  -0.00027   0.00000  -0.00569  -0.00516  -2.81526
    D4       -0.07257  -0.00329   0.00000  -0.02474  -0.02572  -0.09829
    D5        0.15172   0.00674   0.00000   0.07833   0.07956   0.23128
    D6        2.84502   0.00104   0.00000   0.02787   0.02762   2.87264
    D7        3.14130   0.00641   0.00000   0.07620   0.07666  -3.06522
    D8       -0.44859   0.00071   0.00000   0.02574   0.02472  -0.42387
    D9       -3.04679  -0.00076   0.00000   0.01997   0.01598  -3.03081
   D10       -0.43956  -0.00797   0.00000  -0.10672  -0.10809  -0.54765
   D11        1.51857  -0.00924   0.00000  -0.10413  -0.10587   1.41271
   D12        0.51881   0.00112   0.00000   0.03275   0.03028   0.54909
   D13        3.12604  -0.00608   0.00000  -0.09393  -0.09379   3.03225
   D14       -1.19901  -0.00735   0.00000  -0.09135  -0.09157  -1.29058
   D15        2.85016  -0.00236   0.00000  -0.03888  -0.03650   2.81366
   D16        0.59803  -0.00211   0.00000  -0.02494  -0.02373   0.57430
   D17       -1.49482   0.00043   0.00000  -0.00371  -0.00249  -1.49731
   D18        0.19838   0.00523   0.00000   0.08241   0.08387   0.28226
   D19       -2.05375   0.00547   0.00000   0.09635   0.09665  -1.95710
   D20        2.13659   0.00802   0.00000   0.11757   0.11789   2.25448
   D21       -1.73679   0.00783   0.00000   0.09534   0.09582  -1.64097
   D22        2.29426   0.00807   0.00000   0.10929   0.10860   2.40286
   D23        0.20141   0.01062   0.00000   0.13051   0.12984   0.33125
   D24       -2.95000  -0.00154   0.00000  -0.00677  -0.01156  -2.96156
   D25        0.39952   0.01259   0.00000   0.15935   0.16285   0.56237
   D26       -1.33086   0.00587   0.00000   0.08590   0.08534  -1.24553
   D27       -0.23121  -0.00865   0.00000  -0.11208  -0.11613  -0.34734
   D28        3.11831   0.00548   0.00000   0.05404   0.05828  -3.10660
   D29        1.38793  -0.00124   0.00000  -0.01941  -0.01923   1.36869
   D30        1.53678  -0.00602   0.00000  -0.06634  -0.07084   1.46594
   D31       -1.39689   0.00811   0.00000   0.09978   0.10357  -1.29332
   D32       -3.12727   0.00139   0.00000   0.02633   0.02606  -3.10122
   D33       -0.08141  -0.00119   0.00000  -0.02294  -0.02286  -0.10427
   D34       -2.18794   0.00076   0.00000  -0.01115  -0.01149  -2.19944
   D35        2.22385  -0.00470   0.00000  -0.05244  -0.05234   2.17151
   D36        0.11732  -0.00275   0.00000  -0.04065  -0.04098   0.07634
   D37       -2.07217  -0.00014   0.00000  -0.02229  -0.02125  -2.09343
   D38        2.10448   0.00182   0.00000  -0.01050  -0.00989   2.09459
   D39       -0.06826  -0.00186   0.00000  -0.04146  -0.04108  -0.10934
   D40       -2.07539  -0.00067   0.00000  -0.04212  -0.04029  -2.11568
   D41        2.23103  -0.00429   0.00000  -0.06600  -0.06492   2.16611
   D42        2.02474   0.00073   0.00000  -0.01647  -0.01728   2.00746
   D43        0.01761   0.00192   0.00000  -0.01714  -0.01648   0.00112
   D44       -1.95916  -0.00170   0.00000  -0.04102  -0.04111  -2.00027
   D45        0.18746   0.00588   0.00000   0.09372   0.09500   0.28246
   D46        3.05091  -0.00541   0.00000  -0.10039  -0.09380   2.95711
   D47       -1.82698   0.01461   0.00000   0.17138   0.16975  -1.65723
   D48        2.11409   0.00825   0.00000   0.13357   0.13358   2.24767
   D49       -1.30565  -0.00304   0.00000  -0.06054  -0.05522  -1.36087
   D50        0.09964   0.01698   0.00000   0.21122   0.20833   0.30798
   D51       -2.06139   0.00695   0.00000   0.11889   0.11840  -1.94299
   D52        0.80207  -0.00434   0.00000  -0.07522  -0.07041   0.73165
   D53        2.20736   0.01568   0.00000   0.19655   0.19315   2.40050
   D54       -0.10935  -0.00617   0.00000  -0.09326  -0.09464  -0.20399
   D55       -2.09100  -0.00778   0.00000  -0.12249  -0.12235  -2.21335
   D56        2.11741  -0.00616   0.00000  -0.10662  -0.10605   2.01136
   D57       -2.95140   0.00649   0.00000   0.11728   0.11046  -2.84094
   D58        1.35013   0.00488   0.00000   0.08805   0.08275   1.43288
   D59       -0.72464   0.00650   0.00000   0.10392   0.09905  -0.62559
   D60        1.92998  -0.01285   0.00000  -0.15316  -0.15206   1.77792
   D61       -0.05167  -0.01446   0.00000  -0.18239  -0.17977  -0.23144
   D62       -2.12645  -0.01285   0.00000  -0.16652  -0.16347  -2.28992
   D63       -0.17154  -0.00239   0.00000  -0.02039  -0.02041  -0.19196
   D64       -2.86180   0.00073   0.00000   0.01734   0.01745  -2.84435
   D65        1.86029  -0.00330   0.00000  -0.01709  -0.01799   1.84230
   D66       -0.82997  -0.00019   0.00000   0.02065   0.01988  -0.81009
   D67       -2.45230  -0.00102   0.00000  -0.00448  -0.00528  -2.45758
   D68        1.14063   0.00209   0.00000   0.03325   0.03259   1.17321
         Item               Value     Threshold  Converged?
 Maximum Force            0.022863     0.000450     NO 
 RMS     Force            0.007615     0.000300     NO 
 Maximum Displacement     0.389771     0.001800     NO 
 RMS     Displacement     0.061764     0.001200     NO 
 Predicted change in Energy=-4.443162D-02
 GradGradGradGradGradGradGradGradGradGradGradGradGradGradGradGradGradGrad

                          Input orientation:                          
 ---------------------------------------------------------------------
 Center     Atomic      Atomic             Coordinates (Angstroms)
 Number     Number       Type             X           Y           Z
 ---------------------------------------------------------------------
      1          6           0        2.207637    0.737043   -0.133043
      2          6           0        1.071251    1.431393   -0.328604
      3          6           0       -0.207461    0.753083    0.072969
      4          6           0       -1.655584    1.241477   -0.154169
      5          7           0       -2.523780    0.044906   -0.005213
      6          6           0       -1.727589   -1.196503    0.159310
      7          6           0       -0.232937   -0.763730   -0.054244
      8          6           0        1.126704   -1.512866    0.185656
      9          7           0        2.263494   -0.589803    0.227922
     10          1           0        3.165643    1.245028   -0.107115
     11          1           0        1.139127    2.511853   -0.364296
     12          1           0       -0.137509    0.981328    1.154280
     13          1           0       -1.854107    1.819195   -1.065306
     14          1           0       -1.912302    1.907152    0.681726
     15          1           0       -3.108108   -0.064926   -0.823437
     16          1           0       -2.029153   -1.848891   -0.672039
     17          1           0       -1.978314   -1.753612    1.072963
     18          1           0       -0.260425   -1.044292   -1.116119
     19          1           0        1.309842   -2.156162   -0.688600
     20          1           0        1.150816   -2.177950    1.059023
     21          1           0        3.156055   -1.044633    0.107295
 ---------------------------------------------------------------------
                    Distance matrix (angstroms):
                    1          2          3          4          5
     1  C    0.000000
     2  C    1.346008   0.000000
     3  C    2.423922   1.502155   0.000000
     4  C    3.896072   2.739001   1.545050   0.000000
     5  N    4.783482   3.866676   2.423419   1.485845   0.000000
     6  C    4.394323   3.870065   2.473688   2.459106   1.483942
     7  C    2.866169   2.568023   1.522351   2.460643   2.429868
     8  C    2.516362   2.989348   2.631962   3.929760   3.973552
     9  N    1.376203   2.411721   2.816554   4.342667   4.834791
    10  H    1.084665   2.114300   3.413542   4.821458   5.815515
    11  H    2.084500   1.083178   2.257824   3.077080   4.430763
    12  H    2.686370   1.965352   1.107350   2.020958   2.813468
    13  H    4.305569   3.041520   2.267973   1.096968   2.172639
    14  H    4.359690   3.185703   2.146844   1.098976   2.076958
    15  H    5.420050   4.466640   3.144270   2.065051   1.011431
    16  H    4.992791   4.526667   3.262494   3.155649   2.067796
    17  H    5.017967   4.626931   3.227914   3.252778   2.166717
    18  H    3.198581   2.919342   2.155758   2.845445   2.746496
    19  H    3.079823   3.613457   3.368368   4.541290   4.473072
    20  H    3.321908   3.867712   3.377600   4.586960   4.424517
    21  H    2.032641   3.266056   3.813949   5.333530   5.784487
                    6          7          8          9         10
     6  C    0.000000
     7  C    1.570632   0.000000
     8  C    2.871893   1.570790   0.000000
     9  N    4.037517   2.518340   1.464966   0.000000
    10  H    5.475014   3.948195   3.442234   2.071890   0.000000
    11  H    4.716368   3.564846   4.062138   3.351894   2.403695
    12  H    2.874243   2.124821   2.959303   3.015197   3.545627
    13  H    3.257318   3.212777   4.642496   4.942707   5.142537
    14  H    3.152731   3.239680   4.601974   4.886512   5.181332
    15  H    2.037668   3.057220   4.587857   5.498633   6.448957
    16  H    1.098950   2.187610   3.287550   4.563119   6.072675
    17  H    1.099088   2.301479   3.238272   4.479004   6.069985
    18  H    1.949989   1.098658   1.959160   2.895371   4.242289
    19  H    3.296344   2.172887   1.100769   2.050108   3.917935
    20  H    3.171426   2.270277   1.098038   2.109737   4.139588
    21  H    4.886282   3.404448   2.084143   1.009003   2.299699
                   11         12         13         14         15
    11  H    0.000000
    12  H    2.505669   0.000000
    13  H    3.151292   2.928360   0.000000
    14  H    3.281927   2.056781   1.750213   0.000000
    15  H    4.988949   3.718935   2.276166   2.754009   0.000000
    16  H    5.398962   3.863147   3.693258   3.994271   2.090358
    17  H    5.475248   3.297737   4.165641   3.682203   2.779286
    18  H    3.894887   3.045154   3.277493   3.830401   3.025577
    19  H    4.682379   3.915977   5.094697   5.363816   4.889757
    20  H    4.901043   3.413194   5.433186   5.119874   5.113410
    21  H    4.115700   4.006029   5.888822   5.893323   6.408263
                   16         17         18         19         20
    16  H    0.000000
    17  H    1.748341   0.000000
    18  H    1.993235   2.871647   0.000000
    19  H    3.353144   3.751948   1.970980   0.000000
    20  H    3.635528   3.157802   2.829846   1.754979   0.000000
    21  H    5.304769   5.272278   3.628922   2.297270   2.492223
                   21
    21  H    0.000000
 Stoichiometry    C7H12N2
 Framework group  C1[X(C7H12N2)]
 Deg. of freedom    57
 Full point group                 C1      NOp   1
 Largest Abelian subgroup         C1      NOp   1
 Largest concise Abelian subgroup C1      NOp   1
                         Standard orientation:                         
 ---------------------------------------------------------------------
 Center     Atomic      Atomic             Coordinates (Angstroms)
 Number     Number       Type             X           Y           Z
 ---------------------------------------------------------------------
      1          6           0        2.182980    0.817859   -0.077160
      2          6           0        1.027960    1.501256   -0.180278
      3          6           0       -0.227678    0.753818    0.167832
      4          6           0       -1.690283    1.228247    0.016562
      5          7           0       -2.528639    0.002025    0.052299
      6          6           0       -1.702016   -1.230200    0.072277
      7          6           0       -0.221585   -0.741405   -0.118221
      8          6           0        1.158636   -1.478535    0.019649
      9          7           0        2.275100   -0.537830    0.140920
     10          1           0        3.129710    1.343303   -0.013063
     11          1           0        1.071007    2.580809   -0.102895
     12          1           0       -0.142979    0.868814    1.265933
     13          1           0       -1.918381    1.893530   -0.825286
     14          1           0       -1.946404    1.796016    0.921984
     15          1           0       -3.125308   -0.035316   -0.763535
     16          1           0       -2.004156   -1.798725   -0.818331
     17          1           0       -1.923391   -1.886112    0.925956
     18          1           0       -0.262311   -0.909430   -1.203190
     19          1           0        1.340003   -2.021803   -0.920382
     20          1           0        1.213655   -2.230920    0.817507
     21          1           0        3.175234   -0.955773   -0.041204
 ---------------------------------------------------------------------
 Rotational constants (GHZ):           3.1878472           1.3385042           0.9777130
 Standard basis: 6-31G(2df,p) (6D, 7F)
 There are   339 symmetry adapted cartesian basis functions of A   symmetry.
 There are   312 symmetry adapted basis functions of A   symmetry.
   312 basis functions,   480 primitive gaussians,   339 cartesian basis functions
    34 alpha electrons       34 beta electrons
       nuclear repulsion energy       461.7552262689 Hartrees.
 NAtoms=   21 NActive=   21 NUniq=   21 SFac= 1.00D+00 NAtFMM=   60 NAOKFM=F Big=F
 Integral buffers will be    131072 words long.
 Raffenetti 2 integral format.
 Two-electron integral symmetry is turned on.
 One-electron integrals computed using PRISM.
 PrsmSu:  requested number of processors reduced to:  13 ShMem   1 Linda.
 NBasis=   312 RedAO= T EigKep=  2.73D-04  NBF=   312
 NBsUse=   312 1.00D-06 EigRej= -1.00D+00 NBFU=   312
 Initial guess from the checkpoint file:  "C1dCC2CNCC2CN1.chk"
 B after Tr=     0.000000   -0.000000    0.000000
         Rot=    0.999996   -0.002734    0.000035    0.000394 Ang=  -0.32 deg.
 ExpMin= 1.61D-01 ExpMax= 4.17D+03 ExpMxC= 6.27D+02 IAcc=2 IRadAn=         4 AccDes= 0.00D+00
 Harris functional with IExCor=  402 and IRadAn=       4 diagonalized for initial guess.
 HarFok:  IExCor=  402 AccDes= 0.00D+00 IRadAn=         4 IDoV= 1 UseB2=F ITyADJ=14
 ICtDFT=  3500011 ScaDFX=  1.000000  1.000000  1.000000  1.000000
 FoFCou: FMM=F IPFlag=           0 FMFlag=      100000 FMFlg1=           0
         NFxFlg=           0 DoJE=T BraDBF=F KetDBF=T FulRan=T
         wScrn=  0.000000 ICntrl=       500 IOpCl=  0 I1Cent=   200000004 NGrid=           0
         NMat0=    1 NMatS0=      1 NMatT0=    0 NMatD0=    1 NMtDS0=    0 NMtDT0=    0
 Petite list used in FoFCou.
 Requested convergence on RMS density matrix=1.00D-08 within 128 cycles.
 Requested convergence on MAX density matrix=1.00D-06.
 Requested convergence on             energy=1.00D-06.
 No special actions if energy rises.
 Integral accuracy reduced to 1.0D-05 until final iterations.
 Initial convergence to 1.0D-05 achieved.  Increase integral accuracy.
 SCF Done:  E(RB3LYP) =  -383.403932505     A.U. after   11 cycles
            NFock= 11  Conv=0.70D-08     -V/T= 2.0083
 PrsmSu:  requested number of processors reduced to:  13 ShMem   1 Linda.
 Calling FoFJK, ICntrl=      2127 FMM=F ISym2X=0 I1Cent= 0 IOpClX= 0 NMat=1 NMatS=1 NMatT=0.
 ***** Axes restored to original set *****
 -------------------------------------------------------------------
 Center     Atomic                   Forces (Hartrees/Bohr)
 Number     Number              X              Y              Z
 -------------------------------------------------------------------
      1        6          -0.005998140    0.005833029   -0.000638978
      2        6           0.002765318   -0.003618132   -0.006182760
      3        6          -0.000115639    0.009146962    0.040081574
      4        6          -0.004245252    0.001041242    0.004213609
      5        7           0.003858805   -0.002287841   -0.003057914
      6        6           0.000233610   -0.002932276    0.005326973
      7        6           0.000998109   -0.015433093   -0.053375747
      8        6          -0.002886936   -0.001795172    0.007718070
      9        7           0.001940796   -0.002053713    0.009833820
     10        1           0.001959942   -0.002076314   -0.005020192
     11        1          -0.003142804    0.000231404   -0.004479508
     12        1          -0.000604089   -0.012310023    0.005476063
     13        1           0.002126781   -0.006818844   -0.004729875
     14        1           0.001832996    0.005096367   -0.004619406
     15        1           0.000314002    0.002245549    0.001156583
     16        1           0.004359057   -0.006627560    0.005718796
     17        1           0.002865046    0.007304679    0.005526647
     18        1           0.002874707    0.024515794   -0.010240492
     19        1          -0.006637589   -0.004720109    0.003246895
     20        1          -0.000811718    0.003932921    0.004073867
     21        1          -0.001687000    0.001325132   -0.000028025
 -------------------------------------------------------------------
 Cartesian Forces:  Max     0.053375747 RMS     0.010218874

 GradGradGradGradGradGradGradGradGradGradGradGradGradGradGradGradGradGrad
 Berny optimization.
 Using GEDIIS/GDIIS optimizer.
 FormGI is forming the generalized inverse of G from B-inverse, IUseBI=4.
 Internal  Forces:  Max     0.012500656 RMS     0.004005390
 Search for a local minimum.
 Step number   2 out of a maximum of  126
 All quantities printed in internal units (Hartrees-Bohrs-Radians)
 Mixed Optimization -- RFO/linear search
 Update second derivatives using D2CorX and points    1    2
 DE= -4.40D-02 DEPred=-4.44D-02 R= 9.89D-01
 TightC=F SS=  1.41D+00  RLast= 7.84D-01 DXNew= 5.0454D-01 2.3517D+00
 Trust test= 9.89D-01 RLast= 7.84D-01 DXMaxT set to 5.05D-01
 ITU=  1  0
 Use linear search instead of GDIIS.
     Eigenvalues ---    0.00333   0.00520   0.00696   0.01139   0.01457
     Eigenvalues ---    0.01600   0.01710   0.01999   0.02402   0.02444
     Eigenvalues ---    0.02754   0.03455   0.04095   0.04437   0.04950
     Eigenvalues ---    0.05414   0.05580   0.05643   0.05856   0.06042
     Eigenvalues ---    0.07402   0.08695   0.08797   0.09367   0.10284
     Eigenvalues ---    0.10822   0.11322   0.14203   0.14738   0.15853
     Eigenvalues ---    0.18499   0.20321   0.21551   0.21811   0.22252
     Eigenvalues ---    0.25381   0.27044   0.27533   0.30064   0.31150
     Eigenvalues ---    0.33022   0.33201   0.33525   0.33710   0.34231
     Eigenvalues ---    0.34657   0.34785   0.34972   0.35099   0.35423
     Eigenvalues ---    0.35519   0.35689   0.36012   0.43326   0.43860
     Eigenvalues ---    0.49164   0.51192
 RFO step:  Lambda=-2.50166688D-02 EMin= 3.32850592D-03
 Quartic linear search produced a step of  1.12618.
 Iteration  1 RMS(Cart)=  0.09109490 RMS(Int)=  0.02089054
 Iteration  2 RMS(Cart)=  0.01604934 RMS(Int)=  0.00850813
 Iteration  3 RMS(Cart)=  0.00054154 RMS(Int)=  0.00850147
 Iteration  4 RMS(Cart)=  0.00000570 RMS(Int)=  0.00850146
 Iteration  5 RMS(Cart)=  0.00000026 RMS(Int)=  0.00850146
 Variable       Old X    -DE/DX   Delta X   Delta X   Delta X     New X
                                 (Linear)    (Quad)   (Total)
    R1        2.54359  -0.00191  -0.04695   0.03658  -0.01563   2.52796
    R2        2.60065   0.00530   0.03886  -0.02014   0.01319   2.61384
    R3        2.04972   0.00064   0.00038   0.00265   0.00302   2.05274
    R4        2.83866  -0.00116  -0.00161  -0.00375  -0.00578   2.83288
    R5        2.04691   0.00018   0.00676  -0.00563   0.00113   2.04804
    R6        2.91972  -0.00166   0.00830  -0.01308  -0.00636   2.91336
    R7        2.87683  -0.00608  -0.03864   0.00335  -0.01362   2.86320
    R8        2.09259   0.00277   0.03621  -0.02146   0.01474   2.10733
    R9        2.80784  -0.00023   0.03164  -0.03375  -0.01182   2.79602
   R10        2.07297  -0.00005   0.00395  -0.00402  -0.00007   2.07290
   R11        2.07676  -0.00086  -0.00159  -0.00269  -0.00429   2.07248
   R12        2.80424   0.00026   0.00851  -0.01127  -0.00862   2.79562
   R13        1.91133  -0.00136  -0.02469   0.01810  -0.00659   1.90474
   R14        2.96806  -0.00662   0.05781  -0.09462  -0.03239   2.93567
   R15        2.07672  -0.00159  -0.01109   0.00273  -0.00836   2.06836
   R16        2.07698   0.00024   0.01913  -0.01722   0.00191   2.07888
   R17        2.96836  -0.00755   0.03409  -0.07753  -0.03924   2.92912
   R18        2.07616   0.00356   0.03548  -0.01734   0.01815   2.09431
   R19        2.76838   0.00085  -0.00641   0.01131   0.00123   2.76961
   R20        2.08015  -0.00093  -0.01110   0.00604  -0.00506   2.07509
   R21        2.07499   0.00084   0.02309  -0.01815   0.00494   2.07993
   R22        1.90674  -0.00209  -0.03716   0.02703  -0.01013   1.89661
    A1        2.17698   0.00093   0.02483  -0.02667  -0.00887   2.16811
    A2        2.10314   0.00094  -0.01471   0.02990   0.01852   2.12166
    A3        1.99261  -0.00178  -0.01034  -0.00076  -0.00787   1.98475
    A4        2.03409  -0.00203  -0.02439   0.00810  -0.02150   2.01259
    A5        2.05607   0.00239   0.02434   0.00981   0.03347   2.08954
    A6        2.10898  -0.00036  -0.00856   0.01113   0.00523   2.11421
    A7        2.23421   0.00044  -0.03007  -0.00676  -0.05660   2.17761
    A8        2.02842  -0.00324  -0.03195  -0.03636  -0.08161   1.94682
    A9        1.68524   0.00449   0.08295   0.04416   0.13044   1.81569
   A10        1.86187  -0.00096  -0.00291  -0.03038  -0.04342   1.81845
   A11        1.70884   0.00187   0.05745   0.03386   0.09115   1.79999
   A12        1.86296  -0.00033  -0.03147   0.04825   0.02240   1.88536
   A13        1.85288  -0.00229  -0.03766   0.01839  -0.02253   1.83034
   A14        2.04677  -0.00077  -0.01477  -0.01203  -0.02632   2.02045
   A15        1.87402   0.00003  -0.00845   0.02081   0.01324   1.88726
   A16        1.98410   0.00092   0.02312  -0.03624  -0.01119   1.97291
   A17        1.84944   0.00226   0.05217  -0.00775   0.04183   1.89127
   A18        1.84469   0.00025  -0.00585   0.01969   0.01287   1.85756
   A19        1.95121   0.00067   0.04612  -0.04905  -0.00958   1.94163
   A20        1.92189   0.00079   0.02172   0.00025   0.02365   1.94554
   A21        1.88475  -0.00103  -0.04507   0.04397   0.00025   1.88500
   A22        1.83900  -0.00287  -0.07079   0.04049  -0.02438   1.81462
   A23        1.83954   0.00319   0.06856   0.00455   0.06604   1.90558
   A24        1.97557   0.00218   0.02084  -0.02258  -0.00167   1.97390
   A25        1.89848  -0.00131  -0.00254  -0.01296  -0.01469   1.88379
   A26        2.05984  -0.00117   0.01149  -0.04054  -0.03237   2.02746
   A27        1.83937   0.00049  -0.01738   0.03410   0.01601   1.85537
   A28        1.85365   0.00295   0.02482  -0.02392  -0.03145   1.82221
   A29        2.03525   0.00521   0.01261  -0.00368  -0.03227   2.00298
   A30        1.91306  -0.00475  -0.11708   0.05115  -0.06971   1.84335
   A31        2.30707  -0.01250  -0.10399  -0.02932  -0.14333   2.16374
   A32        1.60805   0.00546   0.11992   0.03589   0.18234   1.79039
   A33        1.61829   0.00568   0.12122   0.03900   0.18782   1.80612
   A34        1.95582  -0.00297  -0.03929   0.01282  -0.01911   1.93671
   A35        1.87698  -0.00164  -0.00438  -0.02187  -0.02643   1.85055
   A36        2.01457  -0.00103   0.00168  -0.02241  -0.02430   1.99028
   A37        1.83593   0.00380   0.04543   0.02747   0.06583   1.90176
   A38        1.91948   0.00237   0.01531  -0.00878   0.00715   1.92663
   A39        1.84844  -0.00000  -0.01284   0.01762   0.00420   1.85264
   A40        2.17539  -0.00284  -0.01988  -0.00712  -0.03434   2.14105
   A41        2.02545   0.00128   0.03202  -0.02658   0.00573   2.03119
   A42        1.98117   0.00006  -0.03318   0.02529  -0.00661   1.97457
    D1        0.16222  -0.00063  -0.00860  -0.03141  -0.04075   0.12147
    D2        2.87919  -0.00074  -0.03176   0.04054   0.00381   2.88300
    D3       -2.81526  -0.00115  -0.00581  -0.05086  -0.05475  -2.87001
    D4       -0.09829  -0.00127  -0.02896   0.02109  -0.01019  -0.10848
    D5        0.23128   0.00489   0.08960   0.05257   0.14617   0.37745
    D6        2.87264   0.00157   0.03111   0.03967   0.07114   2.94378
    D7       -3.06522   0.00559   0.08633   0.07372   0.16145  -2.90378
    D8       -0.42387   0.00227   0.02784   0.06081   0.08642  -0.33744
    D9       -3.03081   0.00187   0.01800   0.09534   0.09808  -2.93273
   D10       -0.54765  -0.00567  -0.12173  -0.05381  -0.17716  -0.72481
   D11        1.41271  -0.00451  -0.11922   0.01596  -0.10941   1.30330
   D12        0.54909   0.00130   0.03410   0.02143   0.04567   0.59476
   D13        3.03225  -0.00624  -0.10563  -0.12772  -0.22956   2.80268
   D14       -1.29058  -0.00508  -0.10312  -0.05795  -0.16182  -1.45239
   D15        2.81366  -0.00299  -0.04111  -0.05265  -0.08408   2.72958
   D16        0.57430  -0.00162  -0.02672  -0.01006  -0.03152   0.54278
   D17       -1.49731  -0.00147  -0.00280  -0.04365  -0.04110  -1.53841
   D18        0.28226   0.00474   0.09446   0.08831   0.18642   0.46868
   D19       -1.95710   0.00612   0.10884   0.13090   0.23898  -1.71812
   D20        2.25448   0.00626   0.13277   0.09731   0.22940   2.48388
   D21       -1.64097   0.00465   0.10791   0.03173   0.14181  -1.49916
   D22        2.40286   0.00603   0.12230   0.07432   0.19437   2.59723
   D23        0.33125   0.00618   0.14622   0.04073   0.18479   0.51604
   D24       -2.96156  -0.00177  -0.01302  -0.00042  -0.02379  -2.98535
   D25        0.56237   0.01049   0.18340   0.12427   0.31079   0.87316
   D26       -1.24553   0.00387   0.09611   0.04771   0.14124  -1.10428
   D27       -0.34734  -0.00707  -0.13079  -0.11049  -0.24566  -0.59300
   D28       -3.10660   0.00518   0.06563   0.01421   0.08892  -3.01768
   D29        1.36869  -0.00143  -0.02166  -0.06235  -0.08063   1.28806
   D30        1.46594  -0.00549  -0.07978  -0.06601  -0.15322   1.31272
   D31       -1.29332   0.00677   0.11664   0.05869   0.18137  -1.11196
   D32       -3.10122   0.00015   0.02935  -0.01787   0.01181  -3.08940
   D33       -0.10427  -0.00161  -0.02574  -0.02850  -0.05650  -0.16077
   D34       -2.19944  -0.00128  -0.01294  -0.05199  -0.06646  -2.26589
   D35        2.17151  -0.00383  -0.05895  -0.05664  -0.11595   2.05556
   D36        0.07634  -0.00350  -0.04615  -0.08013  -0.12590  -0.04956
   D37       -2.09343  -0.00163  -0.02394  -0.05672  -0.07975  -2.17318
   D38        2.09459  -0.00130  -0.01114  -0.08021  -0.08971   2.00488
   D39       -0.10934  -0.00199  -0.04626  -0.04798  -0.09448  -0.20382
   D40       -2.11568  -0.00065  -0.04537  -0.05286  -0.09512  -2.21080
   D41        2.16611  -0.00423  -0.07311  -0.08512  -0.15552   2.01059
   D42        2.00746  -0.00128  -0.01946  -0.04897  -0.07088   1.93658
   D43        0.00112   0.00006  -0.01856  -0.05385  -0.07152  -0.07040
   D44       -2.00027  -0.00352  -0.04630  -0.08611  -0.13192  -2.13220
   D45        0.28246   0.00557   0.10699   0.10232   0.21109   0.49355
   D46        2.95711  -0.00276  -0.10564  -0.04155  -0.12499   2.83212
   D47       -1.65723   0.00835   0.19117   0.04042   0.23084  -1.42639
   D48        2.24767   0.00726   0.15044   0.12137   0.26825   2.51592
   D49       -1.36087  -0.00108  -0.06219  -0.02249  -0.06783  -1.42870
   D50        0.30798   0.01003   0.23462   0.05948   0.28800   0.59598
   D51       -1.94299   0.00602   0.13334   0.12796   0.25606  -1.68693
   D52        0.73165  -0.00231  -0.07930  -0.01590  -0.08002   0.65164
   D53        2.40050   0.00880   0.21752   0.06607   0.27581   2.67632
   D54       -0.20399  -0.00591  -0.10658  -0.10850  -0.21617  -0.42016
   D55       -2.21335  -0.00792  -0.13779  -0.13551  -0.26933  -2.48269
   D56        2.01136  -0.00614  -0.11943  -0.12867  -0.24279   1.76857
   D57       -2.84094   0.00419   0.12440   0.05195   0.15397  -2.68697
   D58        1.43288   0.00218   0.09319   0.02494   0.10080   1.53369
   D59       -0.62559   0.00397   0.11155   0.03177   0.12735  -0.49824
   D60        1.77792  -0.00675  -0.17125  -0.02850  -0.19885   1.57907
   D61       -0.23144  -0.00876  -0.20246  -0.05552  -0.25201  -0.48346
   D62       -2.28992  -0.00698  -0.18410  -0.04868  -0.22546  -2.51538
   D63       -0.19196  -0.00159  -0.02299   0.01961  -0.00369  -0.19564
   D64       -2.84435   0.00133   0.01966   0.04496   0.06574  -2.77860
   D65        1.84230  -0.00280  -0.02026   0.01621  -0.00673   1.83557
   D66       -0.81009   0.00011   0.02239   0.04155   0.06270  -0.74739
   D67       -2.45758   0.00023  -0.00595   0.04676   0.03797  -2.41962
   D68        1.17321   0.00315   0.03670   0.07210   0.10739   1.28061
         Item               Value     Threshold  Converged?
 Maximum Force            0.012501     0.000450     NO 
 RMS     Force            0.004005     0.000300     NO 
 Maximum Displacement     0.571483     0.001800     NO 
 RMS     Displacement     0.102048     0.001200     NO 
 Predicted change in Energy=-4.074230D-02
 GradGradGradGradGradGradGradGradGradGradGradGradGradGradGradGradGradGrad

                          Input orientation:                          
[...]
 .00035472,-0.03208894,-0.01912338,0.00974040,0.10907852,0.11615199,0.0
 6036566,0.02732073,-0.05361501,0.00288513,0.00301272,0.00289524,0.0024
 0760,-0.00090493,0.01037050,0.00056522,0.00107151,-0.00013709,0.000362
 04,0.00001849,0.00003472,0.00020508,-0.00003006,0.00011284,0.00037098,
 0.00008612,-0.00004823,-0.00198566,0.00019473,0.00369494,0.00578982,0.
 00522056,-0.00074822,-0.06699349,-0.03489130,0.04361556,0.00326163,0.0
 2837003,-0.00411754,-0.05238945,-0.00938607,0.00788523,0.00333759,-0.0
 2400366,-0.00001798,0.00211153,-0.00018008,-0.00002661,0.00023513,0.00
 035217,-0.00004065,0.00055309,-0.00150139,-0.00077312,-0.00408105,-0.0
 0157978,0.00242478,-0.00128601,-0.00023434,0.00011066,-0.00405285,0.00
 164234,0.00318150,0.00064701,-0.00030846,-0.00138661,0.05263219,-0.004
 24057,-0.01492103,0.00215422,-0.00261960,-0.33732468,0.02825796,0.0019
 4232,-0.00815317,-0.00087485,0.00071672,0.00041700,0.00052997,-0.00013
 235,0.00015159,-0.00010005,0.00050677,-0.00063863,-0.00035734,-0.00197
 853,0.00033047,0.00176228,-0.00029091,0.00038256,-0.00029115,0.0024168
 3,0.00227739,-0.00088681,0.00015089,0.00070434,-0.00060160,0.00492692,
 0.35771021,-0.00158720,-0.00361823,-0.00203795,0.00876643,0.02891916,-
 0.02393529,-0.00243122,0.00643856,0.00003748,0.00004132,-0.00011339,0.
 00084509,0.00007177,0.00025838,-0.00017469,0.00031367,0.00003295,0.000
 44466,0.00063440,-0.00184425,-0.00068210,0.00080783,0.00091574,-0.0004
 6567,0.00133286,-0.00182225,0.00872208,-0.00158891,-0.00066247,-0.0054
 2447,-0.00705873,-0.02993256,0.02177706,0.00068065,-0.00614459,0.00166
 502,-0.01043089,-0.00359160,0.02660806,-0.04420624,-0.00168502,0.02206
 030,-0.00127458,0.00456999,-0.03037427,0.00067381,0.00027450,0.0009753
 7,0.00035588,-0.00063395,-0.00073896,-0.00070594,0.00102735,0.00299757
 ,-0.00063057,-0.00024758,0.00152629,0.00027612,0.00283822,-0.00110127,
 -0.00061759,-0.00008012,-0.00189882,-0.00040810,-0.00043646,0.00055293
 ,0.05818840,0.00107991,-0.00322500,0.00009680,-0.00597750,-0.00048258,
 0.01713778,-0.00203044,-0.04776854,0.02442720,0.00198636,-0.00291233,0
 .01689581,-0.00096274,0.00072357,-0.00054641,0.00092441,0.00111919,-0.
 00054288,0.00239928,-0.00124728,-0.03216452,-0.00225314,0.00154696,-0.
 00040256,0.00049527,0.00288099,0.00064581,-0.00042992,-0.00009050,-0.0
 0124686,-0.00040881,-0.00056549,-0.00002978,0.00219286,0.05544894,-0.0
 0108488,0.00264550,0.00065563,0.00635724,0.00223541,-0.00396046,0.0156
 8467,0.01997971,-0.27754413,-0.00021793,0.00219956,-0.01477140,0.00007
 893,-0.00024424,0.00107630,0.00053517,0.00069611,-0.00023699,0.0009393
 2,-0.00083743,-0.01630736,0.00054699,0.00202932,-0.00059523,-0.0001695
 0,-0.00219015,-0.00000180,0.00025639,-0.00006376,0.00034064,0.00052756
 ,0.00007739,-0.00080573,-0.02062967,-0.02360353,0.30769519,-0.00029004
 ,0.00044421,0.00015807,0.00278630,-0.00027865,0.00047976,0.00133363,0.
 00736388,-0.03046732,-0.05014763,-0.00048235,0.01666644,-0.00509184,-0
 .01545851,0.01746163,-0.00276706,0.00200711,0.00141291,0.00116557,-0.0
 0148873,-0.00074349,-0.00010539,0.00009877,-0.00005271,0.00020160,-0.0
 0030005,0.00005135,-0.00001749,0.00001583,0.00000223,-0.00015219,-0.00
 030958,-0.00002987,-0.00489409,0.00322660,-0.00227333,0.05365970,0.000
 20649,-0.00028771,-0.00009430,-0.00037475,0.00052922,-0.00047535,0.000
 00104,-0.00197030,0.00776626,-0.00107766,-0.06554997,0.05216574,-0.009
 06959,-0.01572335,0.02657486,-0.00258743,0.00137506,0.00206533,-0.0002
 7565,0.00017331,0.00116007,-0.00014484,0.00015615,-0.00031026,0.000142
 26,0.00026725,-0.00008988,0.00001785,0.00001667,0.00004500,0.00016330,
 0.00004814,-0.00005015,0.00069689,-0.00004949,0.00054117,0.00708990,0.
 07456642,-0.00060042,-0.00008834,0.00034636,0.00098423,0.00021852,0.00
 104871,-0.00012583,0.00196588,-0.01317661,0.01465368,0.05318417,-0.269
 27456,0.00459584,0.00488504,0.00247213,0.00023313,-0.00056594,0.000033
 96,0.00078242,-0.00007362,-0.00012471,-0.00010479,-0.00000114,0.000281
 26,0.00004345,-0.00034633,0.00003240,-0.00011577,0.00004084,-0.0000634
 0,-0.00046067,-0.00037000,-0.00019723,-0.00238217,0.00130492,0.0004534
 5,-0.01732463,-0.06524160,0.29287261,-0.00010855,-0.00001807,-0.000004
 92,0.00078292,0.00050439,-0.00043750,-0.00898783,0.02216592,0.01691646
 ,-0.08281274,0.07591529,0.05095645,0.00752013,-0.02138988,-0.00642245,
 -0.00240684,-0.00248500,-0.00197594,-0.00547370,0.00127987,-0.00285985
 ,0.00085963,0.00183243,0.00080089,0.00022899,-0.00028150,0.00005704,-0
 .00008904,0.00002596,0.00007230,-0.00025697,-0.00055670,0.00010295,0.0
 0160853,-0.00105928,-0.00000116,0.00106551,0.00158533,0.00018732,0.088
 66785,0.00033009,-0.00016687,0.00000035,0.00033636,-0.00005235,0.00033
 650,0.00249494,-0.00434030,-0.00351096,0.07301825,-0.18684166,-0.10066
 060,0.00224548,-0.02566624,-0.00493447,-0.00215463,-0.00230539,-0.0033
 5880,-0.00009160,-0.00100251,0.00088488,-0.00032255,-0.00024076,-0.000
 38329,0.00014556,0.00036762,-0.00001019,0.00004514,-0.00000723,-0.0000
 6123,0.00031191,0.00007548,-0.00011337,-0.00023341,0.00018291,0.000227
 09,-0.00159211,0.00670166,0.00342855,-0.07576546,0.21637050,-0.0000140
 5,0.00025526,-0.00000042,0.00043467,-0.00012124,0.00021299,-0.00492054
 ,0.01013870,0.00543856,0.05321721,-0.10445685,-0.12530248,-0.00467326,
 0.00366817,0.00693832,-0.00056176,0.00226440,-0.00003706,-0.00146888,0
 .00142997,-0.00060499,-0.00004932,0.00050297,0.00051129,0.00000899,-0.
 00012985,0.00006580,-0.00001987,0.00000068,-0.00001156,0.00017365,-0.0
 0009222,-0.00009754,0.00046249,0.00004935,0.00123378,0.01340473,-0.022
 91859,-0.01828413,-0.05584205,0.10911771,0.12950255,-0.00030937,-0.000
 04866,0.00001807,-0.00033391,0.00057080,-0.00064700,-0.00350504,-0.002
 45613,0.00166481,-0.01482828,-0.00207953,-0.01545470,-0.21566476,-0.01
 281162,-0.18962993,-0.01372720,-0.00178437,-0.01465184,-0.00280364,0.0
 0113520,-0.00085952,-0.00042277,-0.00041139,0.00065661,-0.00032385,0.0
 0001613,-0.00001705,-0.00004410,0.00006289,0.00007972,-0.00002852,-0.0
 0004249,-0.00003247,0.00027866,0.00009876,-0.00016066,0.00240075,0.002
 24145,0.00000477,-0.00082818,-0.00001443,0.00027611,0.24837529,-0.0001
 5006,-0.00116458,0.00017091,-0.00104344,0.00149208,-0.00057788,-0.0025
 9387,-0.00555765,0.00114472,-0.02184746,-0.00044712,-0.02268556,-0.019
 32981,-0.05737402,-0.01467594,0.02217924,-0.00056013,0.02263481,0.0017
 5454,-0.00289550,0.00087725,0.00021793,0.00051019,-0.00029260,0.000473
 66,0.00043629,-0.00020583,-0.00013387,0.00013670,0.00008509,0.00004534
 ,-0.00001253,0.00000620,0.00032132,-0.00015745,0.00001533,0.00033915,0
 .00124734,0.00089169,-0.00066061,-0.00161502,-0.00038426,0.01741361,0.
 06785592,0.00009836,-0.00021975,-0.00000166,0.00045048,0.00004512,0.00
 044036,0.00170102,0.00062790,0.00007887,0.01390741,0.00548396,0.000450
 08,-0.24604391,-0.01420135,-0.22744650,0.01076785,-0.00483795,-0.00374
 462,0.00281646,-0.00176555,0.00026698,0.00039045,0.00041857,-0.0003700
 4,0.00034327,0.00004404,0.00005704,-0.00001304,-0.00000175,-0.00008188
 ,-0.00005795,-0.00001569,0.00002123,0.00034625,-0.00012392,0.00044066,
 0.00036804,-0.00076243,0.00264539,-0.00110589,-0.00112102,0.00001913,0
 .21697276,0.01268443,0.22462551,0.00030303,-0.00035223,0.00010430,0.00
 092040,-0.00167289,-0.00043594,-0.00602583,-0.00125160,0.00160609,-0.0
 0332090,0.00095949,0.00226595,0.00393266,0.01826172,0.01115611,-0.0731
 9358,-0.05251911,-0.05688532,-0.00674999,-0.02009604,-0.02199262,0.000
 20963,-0.00140453,-0.00009069,-0.00042907,0.00080281,0.00016910,-0.000
 05006,0.00003225,-0.00000868,-0.00060439,-0.00028683,0.00014949,-0.000
 00983,0.00035301,0.00006928,-0.00001443,-0.00007436,-0.00014513,0.0009
 5126,0.00098824,-0.00005021,0.00287772,-0.00023192,0.00043821,0.077769
 26,0.00012858,-0.00049629,0.00011784,-0.00000931,-0.00014249,-0.000393
 21,-0.00068374,-0.00127333,0.00068776,0.00301558,-0.00125760,-0.003238
 29,-0.00483625,-0.02227424,-0.01554036,-0.04909051,-0.15266349,-0.1097
 2738,-0.00261419,-0.00423133,-0.00434791,-0.00042157,-0.00050381,0.000
 32382,-0.00014049,0.00055782,-0.00023141,-0.00004500,0.00003515,0.0000
 2686,-0.00011451,0.00000249,0.00006832,0.00005761,0.00008259,-0.000109
 42,-0.00014628,-0.00013397,0.00025109,-0.00099238,-0.00141745,0.000248
 13,-0.00175308,0.00086053,0.00104503,0.05440421,0.17295679,-0.00002920
 ,0.00003742,-0.00001755,0.00007701,0.00012611,0.00021710,0.00086992,0.
 00102071,0.00043920,0.00033531,0.00110092,-0.00032039,0.00318290,0.002
 31796,0.00375573,-0.05744914,-0.11555869,-0.17316352,0.00359536,0.0066
 4193,0.00459625,-0.00010757,-0.00004174,-0.00021828,-0.00024677,-0.000
 01264,0.00006592,-0.00001661,-0.00000364,-0.00000987,0.00002912,0.0000
 2649,-0.00003470,0.00002816,0.00034479,0.00040630,0.00004425,0.0000240
 8,-0.00009653,-0.00003777,0.00008371,-0.00005072,0.00017965,-0.0001443
 7,0.00255884,0.06107639,0.12273040,0.18202957,0.00016304,-0.00018379,-
 0.00010544,-0.00047838,0.00000730,-0.00022797,0.00046047,0.00114245,0.
 00065947,-0.00184326,-0.00048433,-0.00209525,-0.00182995,0.01678971,-0
 .01434849,-0.04919698,-0.01319714,0.01337840,-0.00342771,-0.01113264,0
 .03018335,0.00198284,-0.00036181,0.00190924,0.00034313,-0.00005893,-0.
 00050388,0.00000519,0.00001533,-0.00002531,-0.00004621,-0.00003869,-0.
 00010071,0.00018991,-0.00033810,-0.00046267,0.00080731,0.00078109,-0.0
 0024910,0.00001090,0.00007749,-0.00011273,-0.00073928,0.00295002,-0.00
 160843,0.00221796,0.00331646,-0.01113550,0.05660252,0.00016437,-0.0004
 3879,0.00005193,-0.00035592,0.00015721,-0.00042847,0.00065065,0.000599
 76,0.00083495,0.00176669,-0.00117230,0.00303397,0.01050657,-0.02027438
 ,0.01784413,-0.01247035,-0.08579870,0.08623741,-0.00190749,-0.00283325
 ,0.01018393,0.00063633,0.00021611,0.00032637,-0.00001169,0.00013412,-0
 .00037528,-0.00001612,0.00003589,0.00004986,0.00003911,0.00000849,0.00
 002840,-0.00028342,-0.00020341,-0.00051053,-0.00081873,-0.00119212,0.0
 0006925,-0.00004135,-0.00015533,0.00008561,-0.00008633,-0.00317421,0.0
 0265087,0.00080993,0.00927725,-0.01871943,0.00321240,0.10463911,-0.000
 35487,0.00032057,-0.00012703,0.00006721,-0.00005670,0.00032877,-0.0003
 2084,0.00017919,-0.00005560,-0.00044478,-0.00161179,-0.00039570,-0.005
 01403,0.00358519,0.00921146,0.01335484,0.08745549,-0.24908493,0.002054
 29,0.00165511,-0.00767350,-0.00070164,0.00015858,0.00012945,0.00013655
 ,-0.00040554,0.00051356,0.00001883,-0.00005017,-0.00006198,0.00003454,
 0.00002511,0.00001048,-0.00015985,0.00036105,0.00041611,0.00020545,0.0
 0002447,-0.00001306,0.00005373,0.00013859,-0.00000583,0.00131873,0.000
 62728,0.00014690,0.00211687,0.00811266,-0.02201638,-0.01494979,-0.1009
 7063,0.26690680,-0.00030877,-0.00028372,-0.00002219,0.00023825,-0.0007
 9777,-0.00150320,-0.00067185,-0.00020100,0.00050306,0.00018548,0.00037
 730,0.00080536,0.00141043,-0.00070640,-0.00173887,-0.00594681,-0.00602
 405,0.02998853,-0.05156980,-0.00126707,0.02685622,0.00003993,0.0048984
 0,-0.02760214,0.00228776,0.00019322,0.00094834,0.00004282,-0.00007880,
 0.00012968,0.00001870,0.00003662,-0.00009978,0.00021436,0.00009295,0.0
 0006890,0.00016117,0.00070853,0.00003913,-0.00002629,0.00002142,-0.000
 08543,-0.00037515,0.00018373,0.00017457,0.00159140,0.00011980,-0.00032
 601,-0.00510085,-0.00129021,0.00158666,0.06088949,-0.00025341,0.000474
 92,0.00005999,0.00153053,0.00159832,-0.00043087,0.00299224,-0.00133417
 ,-0.03192058,-0.00069550,0.00130394,-0.00136711,0.00023781,-0.00007882
 ,-0.00014546,-0.00397618,-0.00356502,0.01479404,-0.00133948,-0.0483158
 1,0.02827874,-0.00012175,-0.00382146,0.02062271,-0.00119376,0.00021088
 ,-0.00166711,-0.00005481,0.00010432,0.00010412,0.00014925,0.00005111,0
 .00018229,0.00056870,-0.00544651,-0.00268787,0.00031158,-0.00016755,0.
 00055822,-0.00040932,0.00007635,0.00029052,-0.00005365,0.00023347,0.00
 003201,0.00092587,0.00038946,0.00013446,-0.00304001,-0.00019706,0.0008
 1451,0.00195383,0.05905267,-0.00085028,0.00020746,0.00051650,0.0018300
 0,0.00081199,0.00133101,0.00134561,-0.00161567,-0.01736403,-0.00044443
 ,0.00119746,-0.00006217,0.00024098,-0.00046626,0.00061731,0.,0.0011267
 4,-0.00611512,0.02575063,0.02706643,-0.28621138,0.00063098,0.00251432,
 -0.01421546,0.00037167,0.00011393,0.00114589,-0.00013333,-0.00007332,-
 0.00014745,-0.00017991,-0.00008999,0.00011846,0.00004160,-0.00301845,-
 0.00012178,0.00038761,-0.00029982,0.00091496,-0.00013786,-0.00012943,0
 .00056122,0.00035750,-0.00009073,-0.00020954,0.00025091,0.00018050,0.0
 0155671,0.00094560,0.00013952,0.00124412,-0.02785239,-0.02914498,0.315
 00456,-0.00537290,0.00253424,-0.00222197,0.00023461,-0.00108359,0.0000
 5080,-0.00497238,0.00121444,-0.00371071,0.00019987,0.00212255,0.000886
 71,0.00020816,-0.00006848,-0.00011489,0.00115963,-0.00001619,0.0003029
 2,-0.00140690,0.02410863,0.01511604,-0.05243200,0.03354375,0.01838028,
 -0.00216513,-0.03437027,-0.01014896,0.00008964,-0.00111187,0.00065744,
 0.00035262,0.00009394,0.00009131,0.00032350,-0.00031935,-0.00004866,-0
 .00009055,-0.00000576,-0.00007566,-0.00069285,0.00013246,-0.00025117,-
 0.00005117,-0.00001794,-0.00000895,-0.00029752,-0.00020470,-0.00021786
 ,-0.00012144,-0.00006240,0.00008409,0.00113922,-0.00097956,-0.00021077
 ,0.06086502,-0.00385728,0.00179944,-0.00139620,0.00067415,0.00029699,-
 0.00006065,0.00246665,-0.00027205,0.00174771,-0.00034686,-0.00100006,-
 0.00064118,0.00019952,-0.00004658,0.00015389,-0.00013640,-0.00005174,0
 .00011504,0.00209573,-0.01203442,-0.00732840,0.02610463,-0.23844997,-0
 .10488059,-0.00124848,-0.02067801,-0.00645655,0.00003784,-0.00080299,0
 .00037762,0.00004901,-0.00003411,0.00014228,0.00012269,0.00041846,0.00
 005188,0.00005688,0.00000212,0.00005903,0.00036980,-0.00000444,0.00010
 447,0.00004880,0.00003304,0.00000181,0.00047691,0.00015152,0.00002958,
 0.00010956,0.00006542,-0.00005747,-0.00046221,0.00054907,0.00030377,-0
 .02714533,0.26424782,0.00065632,0.00103649,0.00016738,-0.00013360,-0.0
 0008203,-0.00011500,-0.00150179,0.00113953,-0.00049481,-0.00027600,0.0
 0060323,0.00060541,0.00021500,0.00003631,-0.00012320,0.00027596,-0.000
 18183,0.00027505,-0.00094693,0.01192932,0.00588965,0.01565138,-0.11007
 814,-0.11051683,0.00026887,0.00835629,0.00337633,0.00005252,0.00023566
 ,-0.00010840,-0.00007879,-0.00001207,-0.00009730,-0.00011369,0.0000816
 3,0.00050656,0.00010362,-0.00002541,0.00003043,-0.00023081,0.00005925,
 -0.00008956,-0.00001708,-0.00002292,-0.00000758,0.00006429,-0.00010295
 ,0.00007639,-0.00004477,-0.00010888,-0.00009371,0.00066117,-0.00009959
 ,0.00104377,-0.01921860,0.11491160,0.11364569,-0.00213805,0.00417400,0
 .00155438,0.00156188,-0.00101289,0.00034513,0.00019584,-0.00209218,0.0
 0016741,0.00009022,-0.00025778,-0.00020201,-0.00000579,0.00003099,0.00
 057656,0.00213241,0.00071874,-0.00148244,0.00107752,0.00520736,-0.0275
 5850,-0.04612485,0.00002605,0.01944375,-0.01479747,-0.01518776,0.02661
 242,-0.00005200,-0.00049163,-0.00040372,0.00013102,0.00001652,-0.00028
 203,0.00019302,0.00060053,0.00018805,0.00000397,-0.00009556,0.00013212
 ,-0.00003053,0.00000279,0.00010025,0.00010922,-0.00003309,-0.00000689,
 0.00002227,0.00000018,0.00016077,-0.00011384,-0.00050521,0.00096647,-0
 .00406061,0.00330202,-0.00199773,0.00085629,0.00012448,0.00506202,0.06
 259151,-0.00140105,0.00152519,0.00170013,-0.00027661,-0.00039298,-0.00
 064450,-0.00011772,0.00124088,0.00116997,-0.00015767,0.00024976,0.0000
 6099,0.00004507,0.00007622,-0.00031535,-0.00063031,0.00018746,-0.00023
 342,0.00068364,-0.00307575,0.01796878,0.00118456,-0.05762709,0.0365778
 1,-0.01224369,-0.00649039,0.01778472,-0.00003284,-0.00043693,-0.000302
 41,0.00006576,-0.00002215,-0.00009205,0.00051225,-0.00037169,-0.000306
 51,-0.00007443,-0.00002514,-0.00013984,0.00002079,-0.00000663,-0.00006
 225,-0.00002213,0.00005520,-0.00000596,-0.00003771,0.00008290,-0.00008
 586,0.00036072,0.00023271,-0.00025043,0.00248280,-0.00115245,0.0013763
 5,0.00240058,0.00507603,-0.02773351,0.00779715,0.06201811,0.00038081,-
 0.00243100,-0.00012607,-0.00108424,0.00063377,0.00000136,0.00174492,-0
 .00012791,-0.00048993,0.00023714,-0.00009681,0.00031855,-0.00007909,-0
 .00037579,0.00037492,0.00071329,0.00037086,-0.00015650,-0.00080043,0.0
 0212342,-0.01485243,0.01980034,0.03850784,-0.28181821,0.00885062,0.005
 63649,0.00398755,-0.00000318,0.00011026,-0.00011390,-0.00008828,0.0000
 0733,0.00007130,-0.00007522,0.00019582,0.00132453,0.00017258,-0.000129
 86,0.00013788,-0.00008243,-0.00000356,0.00003005,0.00000811,-0.0001297
 9,0.00004250,0.00010281,-0.00009635,0.00022315,-0.00109619,-0.00041619
 ,0.00061351,-0.00241952,0.00157183,0.00063744,0.00053950,0.00169813,-0
 .01567114,-0.02615774,-0.04824952,0.30617255,-0.00165027,0.00481790,-0
 .00174223,0.00323162,-0.00225773,0.00139438,-0.00014479,-0.00109008,0.
 00033324,-0.00023855,0.00005449,-0.00012259,-0.00019872,0.00015742,-0.
 00003850,-0.00017121,0.00082103,-0.00064312,-0.00295719,-0.00317664,0.
 00185544,-0.01635518,0.01311541,0.01188213,-0.25925633,0.12141852,0.16
 048043,0.00063530,-0.00051273,-0.00119061,0.00002522,0.00012517,0.0003
 4595,0.00019500,0.00032932,-0.00020407,-0.00001481,0.00007148,-0.00007
 191,0.00001781,0.00002407,-0.00002883,-0.00005643,0.00016353,0.0000699
 4,-0.00010000,0.00000960,-0.00001242,0.00011463,0.00006319,-0.00005244
 ,-0.00015888,0.00014560,-0.00034638,0.00217427,0.00025991,-0.00044909,
 -0.00164202,-0.00055918,-0.00066379,0.27655053,0.03060781,-0.01722587,
 -0.01967500,-0.00328590,-0.00516893,0.00086367,-0.00070789,-0.00027990
 ,-0.00024117,-0.00013109,-0.00001558,-0.00005012,-0.00026608,0.0001262
 2,-0.00000272,-0.00026539,0.00047039,-0.00034988,-0.00140766,-0.002329
 95,0.00113553,-0.01678778,0.00929756,0.01048659,0.12818967,-0.14045313
 ,-0.08926946,-0.00059111,0.00075966,0.00042497,0.00160197,-0.00048747,
 0.00128624,0.00015378,0.00011668,-0.00014502,-0.00000450,0.00001630,-0
 .00003040,-0.00004021,0.00004768,0.00000933,-0.00002380,0.00009745,0.0
 0002165,-0.00008721,-0.00000250,-0.00005219,0.00007293,0.00007349,-0.0
 0005507,0.00004262,0.00003435,-0.00010983,-0.00076515,0.00073445,0.000
 05801,-0.00232473,-0.00114323,0.00120104,-0.13398029,0.15533233,-0.011
 17604,0.01118096,-0.00269307,0.00088913,-0.00049025,0.00147555,-0.0005
 1390,-0.00019476,-0.00064240,-0.00013951,0.00005991,0.00002981,-0.0002
 5141,0.00017223,0.00006905,-0.00019723,0.00071490,-0.00035312,-0.00242
 293,-0.00148110,0.00041957,-0.00614340,-0.00045043,-0.00595291,0.18814
 095,-0.10761643,-0.11149184,-0.00023510,-0.00033882,-0.00049298,-0.000
 08019,0.00078358,0.00190482,0.00020989,0.00013795,-0.00020428,-0.00002
 732,0.00003066,-0.00003930,-0.00000850,0.00001031,-0.00002943,-0.00006
 660,0.00007215,0.00006834,0.00003878,-0.00000512,0.00000279,-0.0000098
 4,-0.00000679,0.00000657,-0.00011209,0.00002012,-0.00024500,0.00011911
 ,0.00112423,0.00170085,0.00278173,0.00178285,-0.00070709,-0.17079553,0
 .09449384,0.11717406\\0.00000011,0.00000809,-0.00000636,-0.00000028,0.
 00000291,0.00000383,-0.00000039,0.00000083,-0.00000269,-0.00000860,-0.
 00000980,0.00000510,0.00001180,-0.00000988,-0.00001265,-0.00001704,0.0
 0001640,-0.00000364,0.00000561,-0.00000774,0.00000641,-0.00001329,-0.0
 0000484,-0.00001534,0.00001289,-0.00000494,0.00002589,0.00000181,0.000
 00460,0.00000012,0.00000026,-0.00000069,0.00000004,0.00000067,0.000001
 47,-0.00000311,0.00000037,0.00000077,0.00000641,0.00000389,0.00000509,
 0.00000454,0.00000236,-0.00000213,0.00000391,-0.00000269,-0.00000443,0
 .,0.00000103,-0.00000081,-0.00000031,-0.00000226,0.00000119,0.00000069
 ,0.00000224,-0.00000055,-0.00000189,0.00000577,0.00000466,-0.00000190,
 -0.00000426,-0.00000020,-0.00000906\\\@


     SCHOPENHAUER'S LAW OF ENTROPY
 IF YOU PUT A SPOONFUL OF WINE IN A BARREL FULL
 OF SEWAGE, YOU GET SEWAGE.
 IF YOU PUT A SPOONFUL OF SEWAGE IN A BARREL FULL
 OF WINE, YOU GET SEWAGE.
 Job cpu time:       0 days  2 hours 17 minutes  1.3 seconds.
 Elapsed time:       0 days  0 hours 34 minutes 15.6 seconds.
 File lengths (MBytes):  RWF=    156 Int=      0 D2E=      0 Chk=      9 Scr=      1
 Normal termination of Gaussian 16 at Thu Aug  4 05:16:36 2022.
### All Done ###
