### Starting Gaussian ###
 Entering Gaussian System, Link 0=g16
 Initial command:
 /cluster/software/gaussian/gaussian-16-A.03/avx2/g16/l1.exe "/local/scratch/ks29c/Gau-3026.inp" -scrdir="/local/scratch/ks29c/"
 Entering Link 1 = /cluster/software/gaussian/gaussian-16-A.03/avx2/g16/l1.exe PID=      3027.
  
 Copyright (c) 1988,1990,1992,1993,1995,1998,2003,2009,2016,
            Gaussian, Inc.  All Rights Reserved.
  
 This is part of the Gaussian(R) 16 program.  It is based on
 the Gaussian(R) 09 system (copyright 2009, Gaussian, Inc.),
 the Gaussian(R) 03 system (copyright 2003, Gaussian, Inc.),
 the Gaussian(R) 98 system (copyright 1998, Gaussian, Inc.),
 the Gaussian(R) 94 system (copyright 1995, Gaussian, Inc.),
 the Gaussian 92(TM) system (copyright 1992, Gaussian, Inc.),
 the Gaussian 90(TM) system (copyright 1990, Gaussian, Inc.),
 the Gaussian 88(TM) system (copyright 1988, Gaussian, Inc.),
 the Gaussian 86(TM) system (copyright 1986, Carnegie Mellon
 University), and the Gaussian 82(TM) system (copyright 1983,
 Carnegie Mellon University). Gaussian is a federally registered
 trademark of Gaussian, Inc.
  
 This software contains proprietary and confidential information,
 including trade secrets, belonging to Gaussian, Inc.
  
 This software is provided under written license and may be
 used, copied, transmitted, or stored only in accord with that
 written license.
  
 The following legend is applicable only to US Government
 contracts under FAR:
  
                    RESTRICTED RIGHTS LEGEND
  
 Use, reproduction and disclosure by the US Government is
 subject to restrictions as set forth in subparagraphs (a)
 and (c) of the Commercial Computer Software - Restricted
 Rights clause in FAR 52.227-19.
  
 Gaussian, Inc.
 340 Quinnipiac St., Bldg. 40, Wallingford CT 06492
  
  
 ---------------------------------------------------------------
 Warning -- This program may not be used in any manner that
 competes with the business of Gaussian, Inc. or will provide
 assistance to any competitor of Gaussian, Inc.  The licensee
 of this program is prohibited from giving any competitor of
 Gaussian, Inc. access to this program.  By using this program,
 the user acknowledges that Gaussian, Inc. is engaged in the
 business of creating and licensing software in the field of
 computational chemistry and represents and warrants to the
 licensee that it is not a competitor of Gaussian, Inc. and that
 it will not use this program in any manner prohibited above.
 ---------------------------------------------------------------
  

 Cite this work as:
 Gaussian 16, Revision A.03,
 M. J. Frisch, G. W. Trucks, H. B. Schlegel, G. E. Scuseria, 
 M. A. Robb, J. R. Cheeseman, G. Scalmani, V. Barone, 
 G. A. Petersson, H. Nakatsuji, X. Li, M. Caricato, A. V. Marenich, 
 J. Bloino, B. G. Janesko, R. Gomperts, B. Mennucci, H. P. Hratchian, 
 J. V. Ortiz, A. F. Izmaylov, J. L. Sonnenberg, D. Williams-Young, 
 F. Ding, F. Lipparini, F. Egidi, J. Goings, B. Peng, A. Petrone, 
 T. Henderson, D. Ranasinghe, V. G. Zakrzewski, J. Gao, N. Rega, 
 G. Zheng, W. Liang, M. Hada, M. Ehara, K. Toyota, R. Fukuda, 
 J. Hasegawa, M. Ishida, T. Nakajima, Y. Honda, O. Kitao, H. Nakai, 
 T. Vreven, K. Throssell, J. A. Montgomery, Jr., J. E. Peralta, 
 F. Ogliaro, M. J. Bearpark, J. J. Heyd, E. N. Brothers, K. N. Kudin, 
 V. N. Staroverov, T. A. Keith, R. Kobayashi, J. Normand, 
 K. Raghavachari, A. P. Rendell, J. C. Burant, S. S. Iyengar, 
 J. Tomasi, M. Cossi, J. M. Millam, M. Klene, C. Adamo, R. Cammi, 
 J. W. Ochterski, R. L. Martin, K. Morokuma, O. Farkas, 
 J. B. Foresman, and D. J. Fox, Gaussian, Inc., Wallingford CT, 2016.
 
 ******************************************
 Gaussian 16:  ES64L-G16RevA.03 25-Dec-2016
                 3-Jul-2022 
 ******************************************
 %chk=C1dNCdNNdNCdN1.chk
 %NProcShared=20
 Will use up to   20 processors via shared memory.
 -----------------------------
 # opt freq b3lyp/6-31g(2df,p)
 -----------------------------
 1/18=20,19=15,26=3,38=1/1,3;
 2/9=110,12=2,17=6,18=5,40=1/2;
 3/5=1,6=6,7=104,11=2,25=1,30=1,71=1,74=-5/1,2,3;
 4//1;
 5/5=2,38=5/2;
 6/7=2,8=2,9=2,10=2,28=1/1;
 7//1,2,3,16;
 1/18=20,19=15,26=3/3(2);
 2/9=110/2;
 99//99;
 2/9=110/2;
 3/5=1,6=6,7=104,11=2,25=1,30=1,71=1,74=-5/1,2,3;
 4/5=5,16=3,69=1/1;
 5/5=2,38=5/2;
 7//1,2,3,16;
 1/18=20,19=15,26=3/3(-5);
 2/9=110/2;
 6/7=2,8=2,9=2,10=2,19=2,28=1/1;
 99/9=1/99;
 -------------------
 Title Card Required
 -------------------
 Symbolic Z-matrix:
 Charge =  0 Multiplicity = 1
 C                    -1.44603   0.25216   0.46069 
 N                    -1.13554  -1.00369   0.50549 
 C                    -0.26545  -1.4392   -0.45694 
 N                     0.97374  -1.05998  -0.55385 
 N                     1.42502  -0.25994   0.5013 
 N                     1.16971   0.96814   0.46925 
 C                     0.27023   1.41712  -0.4642 
 N                    -0.99598   1.12501  -0.49307 
 H                    -2.146     0.6528    1.21345 
 H                    -0.66349  -2.13659  -1.21266 
 H                     0.66321   2.11371  -1.22306 
 

 GradGradGradGradGradGradGradGradGradGradGradGradGradGradGradGradGradGrad
 Berny optimization.
 Initialization pass.
                           ----------------------------
                           !    Initial Parameters    !
                           ! (Angstroms and Degrees)  !
 --------------------------                            --------------------------
 ! Name  Definition              Value          Derivative Info.                !
 --------------------------------------------------------------------------------
 ! R1    R(1,2)                  1.2944         estimate D2E/DX2                !
 ! R2    R(1,8)                  1.369          estimate D2E/DX2                !
 ! R3    R(1,9)                  1.1032         estimate D2E/DX2                !
 ! R4    R(2,3)                  1.3686         estimate D2E/DX2                !
 ! R5    R(3,4)                  1.2995         estimate D2E/DX2                !
 ! R6    R(3,10)                 1.1027         estimate D2E/DX2                !
 ! R7    R(4,5)                  1.3989         estimate D2E/DX2                !
 ! R8    R(5,6)                  1.2547         estimate D2E/DX2                !
 ! R9    R(6,7)                  1.3719         estimate D2E/DX2                !
 ! R10   R(7,8)                  1.2998         estimate D2E/DX2                !
 ! R11   R(7,11)                 1.1025         estimate D2E/DX2                !
 ! A1    A(2,1,8)              124.3223         estimate D2E/DX2                !
 ! A2    A(2,1,9)              118.7441         estimate D2E/DX2                !
 ! A3    A(8,1,9)              116.8987         estimate D2E/DX2                !
 ! A4    A(1,2,3)              115.9059         estimate D2E/DX2                !
 ! A5    A(2,3,4)              124.4594         estimate D2E/DX2                !
 ! A6    A(2,3,10)             116.983          estimate D2E/DX2                !
 ! A7    A(4,3,10)             118.5328         estimate D2E/DX2                !
 ! A8    A(3,4,5)              114.7237         estimate D2E/DX2                !
 ! A9    A(4,5,6)              118.3482         estimate D2E/DX2                !
 ! A10   A(5,6,7)              118.1068         estimate D2E/DX2                !
 ! A11   A(6,7,8)              125.4711         estimate D2E/DX2                !
 ! A12   A(6,7,11)             116.1942         estimate D2E/DX2                !
 ! A13   A(8,7,11)             118.2901         estimate D2E/DX2                !
 ! A14   A(1,8,7)              116.6203         estimate D2E/DX2                !
 ! D1    D(8,1,2,3)              2.0871         estimate D2E/DX2                !
 ! D2    D(9,1,2,3)            179.8663         estimate D2E/DX2                !
 ! D3    D(2,1,8,7)            -68.6295         estimate D2E/DX2                !
 ! D4    D(9,1,8,7)            113.5538         estimate D2E/DX2                !
 ! D5    D(1,2,3,4)             65.7879         estimate D2E/DX2                !
 ! D6    D(1,2,3,10)          -112.369          estimate D2E/DX2                !
 ! D7    D(2,3,4,5)              6.6147         estimate D2E/DX2                !
 ! D8    D(10,3,4,5)          -175.2549         estimate D2E/DX2                !
 ! D9    D(3,4,5,6)            -82.4449         estimate D2E/DX2                !
 ! D10   D(4,5,6,7)             11.2962         estimate D2E/DX2                !
 ! D11   D(5,6,7,8)             65.7926         estimate D2E/DX2                !
 ! D12   D(5,6,7,11)          -116.6885         estimate D2E/DX2                !
 ! D13   D(6,7,8,1)             -2.8262         estimate D2E/DX2                !
 ! D14   D(11,7,8,1)           179.702          estimate D2E/DX2                !
 --------------------------------------------------------------------------------
 Trust Radius=3.00D-01 FncErr=1.00D-07 GrdErr=1.00D-06 EigMax=2.50D+02 EigMin=1.00D-04
 Number of steps in this run=     49 maximum allowed number of steps=    100.
 GradGradGradGradGradGradGradGradGradGradGradGradGradGradGradGradGradGrad

                          Input orientation:                          
 ---------------------------------------------------------------------
 Center     Atomic      Atomic             Coordinates (Angstroms)
 Number     Number       Type             X           Y           Z
 ---------------------------------------------------------------------
      1          6           0       -1.446030    0.252160    0.460690
      2          7           0       -1.135540   -1.003690    0.505490
      3          6           0       -0.265450   -1.439200   -0.456940
      4          7           0        0.973740   -1.059980   -0.553850
      5          7           0        1.425020   -0.259940    0.501300
      6          7           0        1.169710    0.968140    0.469250
      7          6           0        0.270230    1.417120   -0.464200
      8          7           0       -0.995980    1.125010   -0.493070
      9          1           0       -2.146000    0.652800    1.213450
     10          1           0       -0.663490   -2.136590   -1.212660
     11          1           0        0.663210    2.113710   -1.223060
 ---------------------------------------------------------------------
                    Distance matrix (angstroms):
                    1          2          3          4          5
     1  C    0.000000
     2  N    1.294438   0.000000
     3  C    2.257546   1.368575   0.000000
     4  N    2.933648   2.361023   1.299535   0.000000
     5  N    2.916646   2.666393   2.273008   1.398949   0.000000
     6  N    2.711973   3.033744   2.951745   2.280002   1.254747
     7  C    2.271145   2.962568   2.906126   2.576623   2.253500
     8  N    1.368967   2.355411   2.666487   2.942392   2.961098
     9  H    1.103231   2.065477   3.271565   3.973631   3.753989
    10  H    3.019701   2.111477   1.102679   2.067279   3.289582
    11  H    3.278609   3.992689   3.751336   3.258309   3.031169
                    6          7          8          9         10
     6  N    0.000000
     7  C    1.371851   0.000000
     8  N    2.375054   1.299788   0.000000
     9  H    3.412800   3.039221   2.111336   0.000000
    10  H    3.978541   3.749784   3.356545   3.983032   0.000000
    11  H    2.105418   1.102515   2.064782   3.995310   4.452560
                   11
    11  H    0.000000
 Stoichiometry    C3H3N5
 Framework group  C1[X(C3H3N5)]
 Deg. of freedom    27
 Full point group                 C1      NOp   1
 Largest Abelian subgroup         C1      NOp   1
 Largest concise Abelian subgroup C1      NOp   1
                         Standard orientation:                         
 ---------------------------------------------------------------------
 Center     Atomic      Atomic             Coordinates (Angstroms)
 Number     Number       Type             X           Y           Z
 ---------------------------------------------------------------------
      1          6           0        0.886912    1.177748   -0.410184
      2          7           0        1.522818    0.052629   -0.482999
      3          6           0        1.163782   -0.897555    0.434193
      4          7           0       -0.000394   -1.473278    0.479220
      5          7           0       -0.850482   -1.158336   -0.586247
      6          7           0       -1.507190   -0.090701   -0.528973
      7          6           0       -1.183902    0.815257    0.449138
      8          7           0       -0.062943    1.467977    0.531949
      9          1           0        1.140744    1.977921   -1.126012
     10          1           0        1.912337   -1.162482    1.199295
     11          1           0       -1.966494    1.023829    1.197193
 ---------------------------------------------------------------------
 Rotational constants (GHZ):           3.3798732           3.2301037           2.0537861
 Standard basis: 6-31G(2df,p) (6D, 7F)
 There are   263 symmetry adapted cartesian basis functions of A   symmetry.
 There are   239 symmetry adapted basis functions of A   symmetry.
   239 basis functions,   373 primitive gaussians,   263 cartesian basis functions
    28 alpha electrons       28 beta electrons
       nuclear repulsion energy       352.6256326027 Hartrees.
 NAtoms=   11 NActive=   11 NUniq=   11 SFac= 1.00D+00 NAtFMM=   60 NAOKFM=F Big=F
 Integral buffers will be    131072 words long.
 Raffenetti 2 integral format.
 Two-electron integral symmetry is turned on.
 One-electron integrals computed using PRISM.
 PrsmSu:  requested number of processors reduced to:  13 ShMem   1 Linda.
 NBasis=   239 RedAO= T EigKep=  1.67D-04  NBF=   239
 NBsUse=   239 1.00D-06 EigRej= -1.00D+00 NBFU=   239
 ExpMin= 1.61D-01 ExpMax= 4.17D+03 ExpMxC= 6.27D+02 IAcc=3 IRadAn=         5 AccDes= 0.00D+00
 Harris functional with IExCor=  402 and IRadAn=       5 diagonalized for initial guess.
 HarFok:  IExCor=  402 AccDes= 0.00D+00 IRadAn=         5 IDoV= 1 UseB2=F ITyADJ=14
 ICtDFT=  3500011 ScaDFX=  1.000000  1.000000  1.000000  1.000000
 FoFCou: FMM=F IPFlag=           0 FMFlag=      100000 FMFlg1=           0
         NFxFlg=           0 DoJE=T BraDBF=F KetDBF=T FulRan=T
         wScrn=  0.000000 ICntrl=       500 IOpCl=  0 I1Cent=   200000004 NGrid=           0
         NMat0=    1 NMatS0=      1 NMatT0=    0 NMatD0=    1 NMtDS0=    0 NMtDT0=    0
 Petite list used in FoFCou.
 Requested convergence on RMS density matrix=1.00D-08 within 128 cycles.
 Requested convergence on MAX density matrix=1.00D-06.
 Requested convergence on             energy=1.00D-06.
 No special actions if energy rises.
 Integral accuracy reduced to 1.0D-05 until final iterations.
 Initial convergence to 1.0D-05 achieved.  Increase integral accuracy.
 SCF Done:  E(RB3LYP) =  -389.760132185     A.U. after   15 cycles
            NFock= 15  Conv=0.66D-08     -V/T= 2.0070

 **********************************************************************

            Population analysis using the SCF density.

 **********************************************************************

 Orbital symmetries:
       Occupied  (A) (A) (A) (A) (A) (A) (A) (A) (A) (A) (A) (A)
                 (A) (A) (A) (A) (A) (A) (A) (A) (A) (A) (A) (A)
                 (A) (A) (A) (A)
       Virtual   (A) (A) (A) (A) (A) (A) (A) (A) (A) (A) (A) (A)
                 (A) (A) (A) (A) (A) (A) (A) (A) (A) (A) (A) (A)
                 (A) (A) (A) (A) (A) (A) (A) (A) (A) (A) (A) (A)
                 (A) (A) (A) (A) (A) (A) (A) (A) (A) (A) (A) (A)
                 (A) (A) (A) (A) (A) (A) (A) (A) (A) (A) (A) (A)
                 (A) (A) (A) (A) (A) (A) (A) (A) (A) (A) (A) (A)
                 (A) (A) (A) (A) (A) (A) (A) (A) (A) (A) (A) (A)
                 (A) (A) (A) (A) (A) (A) (A) (A) (A) (A) (A) (A)
                 (A) (A) (A) (A) (A) (A) (A) (A) (A) (A) (A) (A)
                 (A) (A) (A) (A) (A) (A) (A) (A) (A) (A) (A) (A)
                 (A) (A) (A) (A) (A) (A) (A) (A) (A) (A) (A) (A)
                 (A) (A) (A) (A) (A) (A) (A) (A) (A) (A) (A) (A)
                 (A) (A) (A) (A) (A) (A) (A) (A) (A) (A) (A) (A)
                 (A) (A) (A) (A) (A) (A) (A) (A) (A) (A) (A) (A)
                 (A) (A) (A) (A) (A) (A) (A) (A) (A) (A) (A) (A)
                 (A) (A) (A) (A) (A) (A) (A) (A) (A) (A) (A) (A)
                 (A) (A) (A) (A) (A) (A) (A) (A) (A) (A) (A) (A)
                 (A) (A) (A) (A) (A) (A) (A)
 The electronic state is 1-A.
 Alpha  occ. eigenvalues --  -14.44463 -14.40537 -14.37830 -14.37156 -14.35862
 Alpha  occ. eigenvalues --  -10.30137 -10.29547 -10.28470  -1.10370  -1.00024
 Alpha  occ. eigenvalues --   -0.96645  -0.88343  -0.78301  -0.68030  -0.67104
 Alpha  occ. eigenvalues --   -0.58263  -0.55521  -0.51646  -0.49794  -0.46085
 Alpha  occ. eigenvalues --   -0.43445  -0.38913  -0.37126  -0.35226  -0.32328
 Alpha  occ. eigenvalues --   -0.30183  -0.27495  -0.26475
 Alpha virt. eigenvalues --   -0.09311  -0.05183  -0.03536   0.00530   0.11148
 Alpha virt. eigenvalues --    0.11699   0.13076   0.15936   0.22866   0.24945
 Alpha virt. eigenvalues --    0.26145   0.30011   0.33174   0.35401   0.38433
 Alpha virt. eigenvalues --    0.42434   0.45361   0.45999   0.46508   0.48251
 Alpha virt. eigenvalues --    0.50362   0.50652   0.51805   0.52439   0.54830
 Alpha virt. eigenvalues --    0.56190   0.56868   0.60542   0.62892   0.63575
 Alpha virt. eigenvalues --    0.66020   0.66395   0.68188   0.69452   0.70941
 Alpha virt. eigenvalues --    0.71574   0.71993   0.74849   0.78562   0.79708
 Alpha virt. eigenvalues --    0.81903   0.84816   0.85938   0.87504   0.89218
 Alpha virt. eigenvalues --    0.91432   0.93795   0.97037   0.98077   1.02177
 Alpha virt. eigenvalues --    1.04402   1.05330   1.09315   1.16358   1.17169
 Alpha virt. eigenvalues --    1.18822   1.23083   1.24554   1.28163   1.31577
 Alpha virt. eigenvalues --    1.33298   1.37461   1.39377   1.43785   1.45207
 Alpha virt. eigenvalues --    1.46457   1.50161   1.53332   1.54917   1.57904
 Alpha virt. eigenvalues --    1.59557   1.60947   1.62813   1.64702   1.67644
 Alpha virt. eigenvalues --    1.68431   1.69187   1.72788   1.77727   1.82130
 Alpha virt. eigenvalues --    1.85905   1.91808   1.95465   2.01554   2.03946
 Alpha virt. eigenvalues --    2.08674   2.12974   2.14788   2.17813   2.22768
 Alpha virt. eigenvalues --    2.29622   2.31657   2.35248   2.55477   2.60926
 Alpha virt. eigenvalues --    2.68546   2.73835   2.75496   2.78745   2.81871
 Alpha virt. eigenvalues --    2.85472   2.89334   2.89934   2.95999   3.00249
 Alpha virt. eigenvalues --    3.01503   3.05025   3.06038   3.11026   3.13618
 Alpha virt. eigenvalues --    3.14977   3.16905   3.21097   3.23278   3.25268
 Alpha virt. eigenvalues --    3.27258   3.29978   3.31130   3.36111   3.36758
 Alpha virt. eigenvalues --    3.40408   3.43058   3.45209   3.49939   3.54888
 Alpha virt. eigenvalues --    3.62685   3.64742   3.65628   3.71868   3.73270
 Alpha virt. eigenvalues --    3.78096   3.79947   3.83731   3.88664   3.92260
 Alpha virt. eigenvalues --    3.93627   3.98567   4.02424   4.03783   4.08154
 Alpha virt. eigenvalues --    4.09713   4.10519   4.11186   4.15213   4.16931
 Alpha virt. eigenvalues --    4.18236   4.18828   4.21251   4.23856   4.25303
 Alpha virt. eigenvalues --    4.27479   4.28876   4.29868   4.34299   4.38389
 Alpha virt. eigenvalues --    4.39541   4.43579   4.45387   4.46893   4.50105
 Alpha virt. eigenvalues --    4.52153   4.54587   4.56408   4.58016   4.59947
 Alpha virt. eigenvalues --    4.62337   4.64517   4.68091   4.69183   4.73824
 Alpha virt. eigenvalues --    4.75656   4.79065   4.81063   4.81979   4.84618
 Alpha virt. eigenvalues --    4.93296   4.97258   5.00534   5.06618   5.08597
 Alpha virt. eigenvalues --    5.18178   5.20251   5.22017   5.28020   5.29203
 Alpha virt. eigenvalues --    5.31823   5.32748   5.36148   5.41617   5.45590
 Alpha virt. eigenvalues --    5.56068   5.58583   5.61799   5.69495   5.72540
 Alpha virt. eigenvalues --    5.74954   5.80641   5.97646   7.20121  10.39128
 Alpha virt. eigenvalues --   10.48622  10.60479  11.18039  11.31706  11.35758
 Alpha virt. eigenvalues --   11.42338  11.44240  13.88049  14.73047  16.55689
 Alpha virt. eigenvalues --   22.04510
          Condensed to atoms (all electrons):
               1          2          3          4          5          6
     1  C    4.676551   0.606784  -0.089957  -0.006051   0.003985  -0.011492
     2  N    0.606784   6.302186   0.480490  -0.050026  -0.011273   0.009098
     3  C   -0.089957   0.480490   4.692706   0.541889  -0.096224   0.006592
     4  N   -0.006051  -0.050026   0.541889   6.501375   0.357073  -0.131383
     5  N    0.003985  -0.011273  -0.096224   0.357073   6.361649   0.529935
     6  N   -0.011492   0.009098   0.006592  -0.131383   0.529935   6.363462
     7  C   -0.086393  -0.008720   0.026883  -0.000544  -0.109870   0.410413
     8  N    0.469178  -0.059910  -0.021128   0.004728  -0.000660  -0.048930
     9  H    0.368830  -0.035198   0.005655  -0.000197  -0.000422   0.001118
    10  H    0.002411  -0.037805   0.368668  -0.035499   0.003532  -0.000482
    11  H    0.005475  -0.000164  -0.001197   0.001758   0.003841  -0.041789
               7          8          9         10         11
     1  C   -0.086393   0.469178   0.368830   0.002411   0.005475
     2  N   -0.008720  -0.059910  -0.035198  -0.037805  -0.000164
     3  C    0.026883  -0.021128   0.005655   0.368668  -0.001197
     4  N   -0.000544   0.004728  -0.000197  -0.035499   0.001758
     5  N   -0.109870  -0.000660  -0.000422   0.003532   0.003841
     6  N    0.410413  -0.048930   0.001118  -0.000482  -0.041789
     7  C    4.717127   0.604722   0.002310  -0.000312   0.364396
     8  N    0.604722   6.308060  -0.043213   0.001470  -0.032054
     9  H    0.002310  -0.043213   0.549040  -0.000250  -0.000264
    10  H   -0.000312   0.001470  -0.000250   0.545812   0.000029
    11  H    0.364396  -0.032054  -0.000264   0.000029   0.542324
 Mulliken charges:
               1
     1  C    0.060680
     2  N   -0.195463
     3  C    0.085625
     4  N   -0.183123
     5  N   -0.041566
     6  N   -0.086542
     7  C    0.079988
     8  N   -0.182263
     9  H    0.152591
    10  H    0.152427
    11  H    0.157646
 Sum of Mulliken charges =  -0.00000
 Mulliken charges with hydrogens summed into heavy atoms:
               1
     1  C    0.213271
     2  N   -0.195463
     3  C    0.238052
     4  N   -0.183123
     5  N   -0.041566
     6  N   -0.086542
     7  C    0.237634
     8  N   -0.182263
 Electronic spatial extent (au):  <R**2>=            627.1667
 Charge=             -0.0000 electrons
 Dipole moment (field-independent basis, Debye):
    X=              0.3647    Y=              1.8150    Z=              1.2130  Tot=              2.2133
 Quadrupole moment (field-independent basis, Debye-Ang):
   XX=            -43.0507   YY=            -46.4564   ZZ=            -45.1671
   XY=             -2.2723   XZ=             -1.1079   YZ=             -2.9591
 Traceless Quadrupole moment (field-independent basis, Debye-Ang):
   XX=              1.8407   YY=             -1.5650   ZZ=             -0.2757
   XY=             -2.2723   XZ=             -1.1079   YZ=             -2.9591
 Octapole moment (field-independent basis, Debye-Ang**2):
  XXX=             -4.5124  YYY=              5.5178  ZZZ=              1.5034  XYY=              5.0334
  XXY=              1.5155  XXZ=             12.8223  XZZ=              1.0958  YZZ=              2.3328
  YYZ=             -6.0973  XYZ=             -4.7012
 Hexadecapole moment (field-independent basis, Debye-Ang**3):
 XXXX=           -362.1941 YYYY=           -357.3291 ZZZZ=           -120.0390 XXXY=             -9.7503
 XXXZ=             -0.9218 YYYX=              2.3885 YYYZ=            -11.1356 ZZZX=             -1.5510
 ZZZY=             -4.1427 XXYY=           -104.6819 XXZZ=            -76.2333 YYZZ=            -77.9653
 XXYZ=             -2.9987 YYXZ=             -4.5679 ZZXY=             -3.5625
 N-N= 3.526256326027D+02 E-N=-1.613159708165D+03  KE= 3.870356112311D+02
 PrsmSu:  requested number of processors reduced to:  13 ShMem   1 Linda.
 Calling FoFJK, ICntrl=      2127 FMM=F ISym2X=0 I1Cent= 0 IOpClX= 0 NMat=1 NMatS=1 NMatT=0.
 ***** Axes restored to original set *****
 -------------------------------------------------------------------
 Center     Atomic                   Forces (Hartrees/Bohr)
 Number     Number              X              Y              Z
 -------------------------------------------------------------------
      1        6          -0.005260078   -0.025385599    0.018219234
      2        7          -0.019447262    0.015692209    0.006684228
      3        6           0.026376250   -0.000619122   -0.017121612
      4        7          -0.020009548   -0.006976102    0.007333863
      5        7           0.006440134    0.003661976    0.000287623
      6        7           0.012928228   -0.019260910    0.014762570
      7        6          -0.038365787    0.010133083   -0.037880981
      8        7           0.029533876    0.025946610    0.000762705
      9        1           0.004124224   -0.003403636   -0.007191902
     10        1           0.006453301    0.003831509    0.007060413
     11        1          -0.002773337   -0.003620019    0.007083859
 -------------------------------------------------------------------
 Cartesian Forces:  Max     0.038365787 RMS     0.016320060

 GradGradGradGradGradGradGradGradGradGradGradGradGradGradGradGradGradGrad
 Berny optimization.
 FormGI is forming the generalized inverse of G from B-inverse, IUseBI=4.
 Internal  Forces:  Max     0.029439823 RMS     0.009716900
 Search for a local minimum.
 Step number   1 out of a maximum of   49
 All quantities printed in internal units (Hartrees-Bohrs-Radians)
 Mixed Optimization -- RFO/linear search
 Second derivative matrix not updated -- first step.
 ITU=  0
     Eigenvalues ---    0.02318   0.02460   0.02538   0.02596   0.03050
     Eigenvalues ---    0.03273   0.03457   0.10911   0.15992   0.15995
     Eigenvalues ---    0.15998   0.18876   0.22140   0.22802   0.23378
     Eigenvalues ---    0.24215   0.33327   0.33388   0.33406   0.44184
     Eigenvalues ---    0.48579   0.49261   0.50637   0.63404   0.66264
     Eigenvalues ---    0.67289   0.79318
 RFO step:  Lambda=-1.23890339D-02 EMin= 2.31803258D-02
 Linear search not attempted -- first point.
 Iteration  1 RMS(Cart)=  0.06644628 RMS(Int)=  0.00454898
 Iteration  2 RMS(Cart)=  0.00388821 RMS(Int)=  0.00172340
 Iteration  3 RMS(Cart)=  0.00001616 RMS(Int)=  0.00172336
 Iteration  4 RMS(Cart)=  0.00000002 RMS(Int)=  0.00172336
 Variable       Old X    -DE/DX   Delta X   Delta X   Delta X     New X
                                 (Linear)    (Quad)   (Total)
    R1        2.44613  -0.01162   0.00000  -0.01603  -0.01673   2.42940
    R2        2.58697   0.02016   0.00000   0.03810   0.03736   2.62434
    R3        2.08480  -0.00876   0.00000  -0.02534  -0.02534   2.05946
    R4        2.58623   0.01661   0.00000   0.03277   0.03278   2.61901
    R5        2.45577  -0.01925   0.00000  -0.02850  -0.02839   2.42738
    R6        2.08376  -0.00959   0.00000  -0.02770  -0.02770   2.05606
    R7        2.64363  -0.00349   0.00000  -0.00950  -0.00941   2.63422
    R8        2.37113  -0.00363   0.00000  -0.00490  -0.00417   2.36696
    R9        2.59242   0.02944   0.00000   0.05782   0.05840   2.65083
   R10        2.45624  -0.02566   0.00000  -0.03696  -0.03703   2.41922
   R11        2.08345  -0.00815   0.00000  -0.02353  -0.02353   2.05992
    A1        2.16983   0.00403   0.00000   0.03214   0.02954   2.19937
    A2        2.07248  -0.00163   0.00000  -0.01505  -0.01407   2.05840
    A3        2.04027  -0.00239   0.00000  -0.01854  -0.01762   2.02265
    A4        2.02294   0.00437   0.00000   0.04228   0.03914   2.06208
    A5        2.17223   0.00266   0.00000   0.03415   0.03125   2.20347
    A6        2.04174   0.00134   0.00000  -0.00049  -0.00097   2.04076
    A7        2.06879  -0.00395   0.00000  -0.03108  -0.03142   2.03737
    A8        2.00231   0.00597   0.00000   0.04128   0.03905   2.04135
    A9        2.06557  -0.00274   0.00000  -0.00326  -0.00494   2.06062
   A10        2.06135   0.01253   0.00000   0.06747   0.06609   2.12744
   A11        2.18988  -0.00620   0.00000  -0.01753  -0.02128   2.16860
   A12        2.02797   0.00236   0.00000   0.00223  -0.00030   2.02768
   A13        2.06455   0.00377   0.00000   0.01005   0.00758   2.07213
   A14        2.03541   0.00627   0.00000   0.03555   0.03175   2.06716
    D1        0.03643   0.00504   0.00000   0.07746   0.07608   0.11251
    D2        3.13926   0.00525   0.00000   0.03089   0.03150  -3.11243
    D3       -1.19781   0.00898   0.00000   0.09675   0.09944  -1.09837
    D4        1.98189   0.00877   0.00000   0.14249   0.14318   2.12507
    D5        1.14822  -0.00331   0.00000  -0.03141  -0.03384   1.11438
    D6       -1.96121  -0.00483   0.00000  -0.12644  -0.12868  -2.08989
    D7        0.11545  -0.00121   0.00000  -0.07238  -0.07290   0.04255
    D8       -3.05877   0.00042   0.00000   0.02455   0.02229  -3.03648
    D9       -1.43894   0.00771   0.00000   0.09138   0.09177  -1.34716
   D10        0.19716  -0.00073   0.00000   0.01139   0.00969   0.20685
   D11        1.14830  -0.00270   0.00000   0.04496   0.04269   1.19099
   D12       -2.03660  -0.00464   0.00000  -0.10072  -0.10079  -2.13739
   D13       -0.04933  -0.00272   0.00000  -0.13667  -0.13556  -0.18489
   D14        3.13639  -0.00070   0.00000   0.01197   0.01152  -3.13528
         Item               Value     Threshold  Converged?
 Maximum Force            0.029440     0.000450     NO 
 RMS     Force            0.009717     0.000300     NO 
 Maximum Displacement     0.172996     0.001800     NO 
 RMS     Displacement     0.065667     0.001200     NO 
 Predicted change in Energy=-7.065825D-03
 GradGradGradGradGradGradGradGradGradGradGradGradGradGradGradGradGradGrad

                          Input orientation:                          
 ---------------------------------------------------------------------
 Center     Atomic      Atomic             Coordinates (Angstroms)
 Number     Number       Type             X           Y           Z
 ---------------------------------------------------------------------
      1          6           0       -1.459289    0.271579    0.471986
      2          7           0       -1.190372   -0.985470    0.456425
      3          6           0       -0.260798   -1.443880   -0.463644
      4          7           0        0.984515   -1.131715   -0.505106
      5          7           0        1.458473   -0.288552    0.498682
      6          7           0        1.199403    0.933874    0.412538
      7          6           0        0.262112    1.429916   -0.505697
      8          7           0       -0.998210    1.216556   -0.435219
      9          1           0       -2.169934    0.632538    1.215223
     10          1           0       -0.605111   -2.180262   -1.186817
     11          1           0        0.628630    2.174955   -1.211970
 ---------------------------------------------------------------------
                    Distance matrix (angstroms):
                    1          2          3          4          5
     1  C    0.000000
     2  N    1.285585   0.000000
     3  C    2.292288   1.385920   0.000000
     4  N    2.982637   2.382449   1.284512   0.000000
     5  N    2.971161   2.739317   2.284020   1.393969   0.000000
     6  N    2.740586   3.065425   2.924653   2.270441   1.252542
     7  C    2.293651   2.978167   2.921286   2.661545   2.322324
     8  N    1.388740   2.383458   2.760888   3.074159   3.028664
     9  H    1.089820   2.037956   3.282515   4.002833   3.811453
    10  H    3.081034   2.114309   1.088021   2.022646   3.267699
    11  H    3.289067   4.010062   3.800927   3.400055   3.111886
                    6          7          8          9         10
     6  N    0.000000
     7  C    1.402757   0.000000
     8  N    2.372362   1.280195   0.000000
     9  H    3.476713   3.084189   2.106649   0.000000
    10  H    3.938534   3.774836   3.501114   4.016256   0.000000
    11  H    2.122520   1.090064   2.041686   4.012764   4.526662
                   11
    11  H    0.000000
 Stoichiometry    C3H3N5
 Framework group  C1[X(C3H3N5)]
 Deg. of freedom    27
 Full point group                 C1      NOp   1
 Largest Abelian subgroup         C1      NOp   1
 Largest concise Abelian subgroup C1      NOp   1
                         Standard orientation:                         
 ---------------------------------------------------------------------
 Center     Atomic      Atomic             Coordinates (Angstroms)
 Number     Number       Type             X           Y           Z
 ---------------------------------------------------------------------
      1          6           0        0.746283    1.293027   -0.420166
      2          7           0        1.532344    0.275759   -0.418616
      3          6           0        1.253723   -0.764480    0.453765
      4          7           0        0.210999   -1.514333    0.433256
      5          7           0       -0.706575   -1.292954   -0.592511
      6          7           0       -1.475783   -0.309451   -0.492989
      7          6           0       -1.279418    0.690446    0.471051
      8          7           0       -0.301547    1.516648    0.463375
      9          1           0        0.952524    2.096588   -1.126891
     10          1           0        2.015083   -1.005033    1.192855
     11          1           0       -2.107193    0.864815    1.158528
 ---------------------------------------------------------------------
 Rotational constants (GHZ):           3.2916686           3.2016351           1.9733376
 Standard basis: 6-31G(2df,p) (6D, 7F)
 There are   263 symmetry adapted cartesian basis functions of A   symmetry.
 There are   239 symmetry adapted basis functions of A   symmetry.
   239 basis functions,   373 primitive gaussians,   263 cartesian basis functions
    28 alpha electrons       28 beta electrons
       nuclear repulsion energy       349.9277476224 Hartrees.
 NAtoms=   11 NActive=   11 NUniq=   11 SFac= 1.00D+00 NAtFMM=   60 NAOKFM=F Big=F
 Integral buffers will be    131072 words long.
 Raffenetti 2 integral format.
 Two-electron integral symmetry is turned on.
 One-electron integrals computed using PRISM.
 PrsmSu:  requested number of processors reduced to:  13 ShMem   1 Linda.
 NBasis=   239 RedAO= T EigKep=  1.76D-04  NBF=   239
 NBsUse=   239 1.00D-06 EigRej= -1.00D+00 NBFU=   239
 Initial guess from the checkpoint file:  "C1dNCdNNdNCdN1.chk"
 B after Tr=     0.000000    0.000000    0.000000
         Rot=    0.997923    0.003232    0.004727   -0.064171 Ang=   7.39 deg.
 ExpMin= 1.61D-01 ExpMax= 4.17D+03 ExpMxC= 6.27D+02 IAcc=2 IRadAn=         4 AccDes= 0.00D+00
 Harris functional with IExCor=  402 and IRadAn=       4 diagonalized for initial guess.
 HarFok:  IExCor=  402 AccDes= 0.00D+00 IRadAn=         4 IDoV= 1 UseB2=F ITyADJ=14
 ICtDFT=  3500011 ScaDFX=  1.000000  1.000000  1.000000  1.000000
 FoFCou: FMM=F IPFlag=           0 FMFlag=      100000 FMFlg1=           0
         NFxFlg=           0 DoJE=T BraDBF=F KetDBF=T FulRan=T
         wScrn=  0.000000 ICntrl=       500 IOpCl=  0 I1Cent=   200000004 NGrid=           0
         NMat0=    1 NMatS0=      1 NMatT0=    0 NMatD0=    1 NMtDS0=    0 NMtDT0=    0
 Petite list used in FoFCou.
 Requested convergence on RMS density matrix=1.00D-08 within 128 cycles.
 Requested convergence on MAX density matrix=1.00D-06.
 Requested convergence on             energy=1.00D-06.
 No special actions if energy rises.
 Integral accuracy reduced to 1.0D-05 until final iterations.
 Initial convergence to 1.0D-05 achieved.  Increase integral accuracy.
 SCF Done:  E(RB3LYP) =  -389.767229967     A.U. after   14 cycles
            NFock= 14  Conv=0.59D-08     -V/T= 2.0071
 PrsmSu:  requested number of processors reduced to:  13 ShMem   1 Linda.
 Calling FoFJK, ICntrl=      2127 FMM=F ISym2X=0 I1Cent= 0 IOpClX= 0 NMat=1 NMatS=1 NMatT=0.
 ***** Axes restored to original set *****
 -------------------------------------------------------------------
 Center     Atomic                   Forces (Hartrees/Bohr)
 Number     Number              X              Y              Z
 -------------------------------------------------------------------
      1        6          -0.000104945   -0.012758294    0.003229347
      2        7          -0.003943056    0.007479339    0.000417880
      3        6           0.008175567   -0.000449362   -0.002384348
      4        7          -0.005096380    0.000423793    0.003383039
      5        7          -0.002532376    0.011161174   -0.004599277
      6        7           0.009606170   -0.012937686    0.008023800
      7        6          -0.013296061    0.002047085   -0.009107043
      8        7           0.006518320    0.005604296    0.001670003
      9        1          -0.000631423    0.001089343   -0.001554170
     10        1          -0.000888911   -0.000126474    0.000335610
     11        1           0.002193094   -0.001533214    0.000585159
 -------------------------------------------------------------------
 Cartesian Forces:  Max     0.013296061 RMS     0.005990914

 GradGradGradGradGradGradGradGradGradGradGradGradGradGradGradGradGradGrad
 Berny optimization.
 Using GEDIIS/GDIIS optimizer.
 FormGI is forming the generalized inverse of G from B-inverse, IUseBI=4.
 Internal  Forces:  Max     0.011828089 RMS     0.003209143
 Search for a local minimum.
 Step number   2 out of a maximum of   49
 All quantities printed in internal units (Hartrees-Bohrs-Radians)
 Mixed Optimization -- RFO/linear search
 Update second derivatives using D2CorX and points    1    2
 DE= -7.10D-03 DEPred=-7.07D-03 R= 1.00D+00
 TightC=F SS=  1.41D+00  RLast= 3.50D-01 DXNew= 5.0454D-01 1.0496D+00
 Trust test= 1.00D+00 RLast= 3.50D-01 DXMaxT set to 5.05D-01
 ITU=  1  0
 Use linear search instead of GDIIS.
     Eigenvalues ---    0.02338   0.02527   0.02570   0.02796   0.03080
     Eigenvalues ---    0.03229   0.03399   0.09845   0.15764   0.15951
     Eigenvalues ---    0.16168   0.19566   0.22197   0.22846   0.23868
     Eigenvalues ---    0.24225   0.33153   0.33355   0.33459   0.41993
     Eigenvalues ---    0.45451   0.49211   0.49460   0.63276   0.64335
     Eigenvalues ---    0.66703   0.81006
 RFO step:  Lambda=-1.12121944D-03 EMin= 2.33821105D-02
 Quartic linear search produced a step of  0.22410.
 Iteration  1 RMS(Cart)=  0.02521557 RMS(Int)=  0.00079495
 Iteration  2 RMS(Cart)=  0.00074362 RMS(Int)=  0.00053621
 Iteration  3 RMS(Cart)=  0.00000049 RMS(Int)=  0.00053621
 Variable       Old X    -DE/DX   Delta X   Delta X   Delta X     New X
                                 (Linear)    (Quad)   (Total)
    R1        2.42940  -0.00726  -0.00375  -0.00979  -0.01371   2.41570
    R2        2.62434   0.00437   0.00837   0.00597   0.01411   2.63845
    R3        2.05946  -0.00029  -0.00568   0.00249  -0.00319   2.05627
    R4        2.61901   0.00265   0.00735   0.00223   0.00963   2.62864
    R5        2.42738  -0.00440  -0.00636  -0.00415  -0.01043   2.41695
    R6        2.05606   0.00014  -0.00621   0.00440  -0.00181   2.05426
    R7        2.63422  -0.00166  -0.00211  -0.00382  -0.00591   2.62831
    R8        2.36696  -0.01183  -0.00093  -0.01785  -0.01860   2.34836
    R9        2.65083   0.00878   0.01309   0.01255   0.02577   2.67660
   R10        2.41922  -0.00452  -0.00830  -0.00303  -0.01140   2.40782
   R11        2.05992  -0.00069  -0.00527   0.00077  -0.00450   2.05542
    A1        2.19937  -0.00045   0.00662   0.00046   0.00591   2.20528
    A2        2.05840   0.00184  -0.00315   0.01055   0.00751   2.06592
    A3        2.02265  -0.00141  -0.00395  -0.01342  -0.01725   2.00540
    A4        2.06208  -0.00068   0.00877   0.00127   0.00898   2.07106
    A5        2.20347   0.00054   0.00700   0.00430   0.01065   2.21412
    A6        2.04076  -0.00125  -0.00022  -0.01117  -0.01147   2.02929
    A7        2.03737   0.00074  -0.00704   0.00811   0.00102   2.03838
    A8        2.04135   0.00345   0.00875   0.01489   0.02305   2.06440
    A9        2.06062   0.00169  -0.00111   0.00693   0.00532   2.06594
   A10        2.12744  -0.00184   0.01481  -0.01964  -0.00535   2.12209
   A11        2.16860   0.00024  -0.00477   0.00534  -0.00056   2.16805
   A12        2.02768  -0.00263  -0.00007  -0.01960  -0.02009   2.00759
   A13        2.07213   0.00250   0.00170   0.01851   0.01982   2.09195
   A14        2.06716   0.00226   0.00712   0.01211   0.01771   2.08487
    D1        0.11251   0.00017   0.01705   0.00198   0.01864   0.13116
    D2       -3.11243  -0.00011   0.00706  -0.03492  -0.02789  -3.14031
    D3       -1.09837   0.00208   0.02229   0.02258   0.04575  -1.05262
    D4        2.12507   0.00222   0.03209   0.05781   0.08988   2.21494
    D5        1.11438  -0.00161  -0.00758  -0.02305  -0.03141   1.08296
    D6       -2.08989  -0.00095  -0.02884   0.00188  -0.02754  -2.11743
    D7        0.04255  -0.00017  -0.01634   0.01271  -0.00367   0.03888
    D8       -3.03648  -0.00078   0.00500  -0.01157  -0.00716  -3.04364
    D9       -1.34716   0.00018   0.02057  -0.00783   0.01308  -1.33408
   D10        0.20685  -0.00061   0.00217   0.00029   0.00201   0.20886
   D11        1.19099  -0.00053   0.00957   0.01274   0.02149   1.21247
   D12       -2.13739   0.00041  -0.02259   0.04112   0.01838  -2.11901
   D13       -0.18489  -0.00109  -0.03038  -0.03426  -0.06444  -0.24932
   D14       -3.13528  -0.00154   0.00258  -0.05949  -0.05712   3.09078
         Item               Value     Threshold  Converged?
 Maximum Force            0.011828     0.000450     NO 
 RMS     Force            0.003209     0.000300     NO 
 Maximum Displacement     0.073401     0.001800     NO 
 RMS     Displacement     0.025218     0.001200     NO 
 Predicted change in Energy=-7.672105D-04
 GradGradGradGradGradGradGradGradGradGradGradGradGradGradGradGradGradGrad

                          Input orientation:                          
 ---------------------------------------------------------------------
 Center     Atomic      Atomic             Coordinates (Angstroms)
 Number     Number       Type             X           Y           Z
 ---------------------------------------------------------------------
      1          6           0       -1.465563    0.266784    0.488099
      2          7           0       -1.206987   -0.984432    0.446488
      3          6           0       -0.257736   -1.439691   -0.462684
      4          7           0        0.982261   -1.128245   -0.497802
      5          7           0        1.476901   -0.280293    0.487464
      6          7           0        1.225240    0.933690    0.402562
      7          6           0        0.260249    1.429405   -0.508061
      8          7           0       -0.994659    1.239075   -0.396377
      9          1           0       -2.208030    0.617823    1.201926
     10          1           0       -0.598642   -2.176121   -1.185985
     11          1           0        0.636386    2.151547   -1.229230
 ---------------------------------------------------------------------
                    Distance matrix (angstroms):
                    1          2          3          4          5
     1  C    0.000000
     2  N    1.278333   0.000000
     3  C    2.296712   1.391018   0.000000
     4  N    2.984954   2.388550   1.278994   0.000000
     5  N    2.992890   2.775022   2.292586   1.390842   0.000000
     6  N    2.773536   3.097878   2.929301   2.263022   1.242697
     7  C    2.307043   2.981703   2.915832   2.657627   2.322581
     8  N    1.396208   2.387360   2.779071   3.085888   3.032864
     9  H    1.088134   2.034698   3.287542   4.014447   3.859506
    10  H    3.085756   2.110728   1.087065   2.017646   3.271464
    11  H    3.304503   4.005049   3.779423   3.378114   3.093114
                    6          7          8          9         10
     6  N    0.000000
     7  C    1.416395   0.000000
     8  N    2.378974   1.274164   0.000000
     9  H    3.539223   3.110486   2.100665   0.000000
    10  H    3.939664   3.767902   3.527587   4.012277   0.000000
    11  H    2.119592   1.087682   2.046108   4.043949   4.500653
                   11
    11  H    0.000000
 Stoichiometry    C3H3N5
 Framework group  C1[X(C3H3N5)]
 Deg. of freedom    27
 Full point group                 C1      NOp   1
 Largest Abelian subgroup         C1      NOp   1
 Largest concise Abelian subgroup C1      NOp   1
                         Standard orientation:                         
 ---------------------------------------------------------------------
 Center     Atomic      Atomic             Coordinates (Angstroms)
 Number     Number       Type             X           Y           Z
 ---------------------------------------------------------------------
      1          6           0        1.321009    0.719315   -0.421402
      2          7           0        1.475208   -0.549503   -0.400007
      3          6           0        0.675523   -1.304537    0.451672
      4          7           0       -0.598924   -1.406726    0.417500
      5          7           0       -1.286723   -0.739617   -0.590636
      6          7           0       -1.442177    0.488895   -0.486279
      7          6           0       -0.736169    1.246620    0.479940
      8          7           0        0.517592    1.470014    0.439045
      9          1           0        1.948251    1.305154   -1.090278
     10          1           0        1.195944   -1.909301    1.190003
     11          1           0       -1.361216    1.794310    1.181656
 ---------------------------------------------------------------------
 Rotational constants (GHZ):           3.3007277           3.1708541           1.9530605
 Standard basis: 6-31G(2df,p) (6D, 7F)
 There are   263 symmetry adapted cartesian basis functions of A   symmetry.
 There are   239 symmetry adapted basis functions of A   symmetry.
   239 basis functions,   373 primitive gaussians,   263 cartesian basis functions
    28 alpha electrons       28 beta electrons
       nuclear repulsion energy       349.4811334646 Hartrees.
 NAtoms=   11 NActive=   11 NUniq=   11 SFac= 1.00D+00 NAtFMM=   60 NAOKFM=F Big=F
 Integral buffers will be    131072 words long.
 Raffenetti 2 integral format.
 Two-electron integral symmetry is turned on.
 One-electron integrals computed using PRISM.
 PrsmSu:  requested number of processors reduced to:  13 ShMem   1 Linda.
 NBasis=   239 RedAO= T EigKep=  1.80D-04  NBF=   239
 NBsUse=   239 1.00D-06 EigRej= -1.00D+00 NBFU=   239
 Initial guess from the checkpoint file:  "C1dNCdNNdNCdN1.chk"
 B after Tr=     0.000000    0.000000    0.000000
         Rot=    0.963606   -0.000433    0.000644    0.267327 Ang= -31.01 deg.
 ExpMin= 1.61D-01 ExpMax= 4.17D+03 ExpMxC= 6.27D+02 IAcc=2 IRadAn=         4 AccDes= 0.00D+00
 Harris functional with IExCor=  402 and IRadAn=       4 diagonalized for initial guess.
 HarFok:  IExCor=  402 AccDes= 0.00D+00 IRadAn=         4 IDoV= 1 UseB2=F ITyADJ=14
 ICtDFT=  3500011 ScaDFX=  1.000000  1.000000  1.000000  1.000000
 FoFCou: FMM=F IPFlag=           0 FMFlag=      100000 FMFlg1=           0
         NFxFlg=           0 DoJE=T BraDBF=F KetDBF=T FulRan=T
         wScrn=  0.000000 ICntrl=       500 IOpCl=  0 I1Cent=   200000004 NGrid=           0
         NMat0=    1 NMatS0=      1 NMatT0=    0 NMatD0=    1 NMtDS0=    0 NMtDT0=    0
 Petite list used in FoFCou.
 Requested convergence on RMS density matrix=1.00D-08 within 128 cycles.
 Requested convergence on MAX density matrix=1.00D-06.
 Requested convergence on             energy=1.00D-06.
 No special actions if energy rises.
 Integral accuracy reduced to 1.0D-05 until final iterations.
 Initial convergence to 1.0D-05 achieved.  Increase integral accuracy.
 SCF Done:  E(RB3LYP) =  -389.768074004     A.U. after   13 cycles
            NFock= 13  Conv=0.49D-08     -V/T= 2.0070
 PrsmSu:  requested number of processors reduced to:  13 ShMem   1 Linda.
 Calling FoFJK, ICntrl=      2127 FMM=F ISym2X=0 I1Cent= 0 IOpClX= 0 NMat=1 NMatS=1 NMatT=0.
 ***** Axes restored to original set *****
 -------------------------------------------------------------------
 Center     Atomic                   Forces (Hartrees/Bohr)
 Number     Number              X              Y              Z
 -------------------------------------------------------------------
      1        6          -0.001676997    0.000295403   -0.000808259
      2        7           0.001292076   -0.000859936   -0.000428003
      3        6           0.000965586    0.000307168    0.000337943
      4        7           0.000337113    0.000683417    0.000806606
      5        7          -0.000491164    0.000714624   -0.001713560
      6        7           0.002746863   -0.002235574    0.003865677
      7        6          -0.003944968    0.000319249   -0.003069577
      8        7           0.001222341   -0.000125677    0.000853081
      9        1          -0.000289430    0.000849708    0.000672673
     10        1          -0.000946455   -0.000642649   -0.000152990
     11        1           0.000785036    0.000694269   -0.000363590
 -------------------------------------------------------------------
 Cartesian Forces:  Max     0.003944968 RMS     0.001465125

 GradGradGradGradGradGradGradGradGradGradGradGradGradGradGradGradGradGrad
 Berny optimization.
 Using GEDIIS/GDIIS optimizer.
 FormGI is forming the generalized inverse of G from B-inverse, IUseBI=4.
 Internal  Forces:  Max     0.003914356 RMS     0.000861017
 Search for a local minimum.
 Step number   3 out of a maximum of   49
 All quantities printed in internal units (Hartrees-Bohrs-Radians)
 Mixed Optimization -- En-DIIS/RFO-DIIS
 Update second derivatives using D2CorX and points    1    2    3
 DE= -8.44D-04 DEPred=-7.67D-04 R= 1.10D+00
 TightC=F SS=  1.41D+00  RLast= 1.60D-01 DXNew= 8.4853D-01 4.8101D-01
 Trust test= 1.10D+00 RLast= 1.60D-01 DXMaxT set to 5.05D-01
 ITU=  1  1  0
 Use linear search instead of GDIIS.
     Eigenvalues ---    0.02187   0.02557   0.02650   0.02890   0.03029
     Eigenvalues ---    0.03205   0.03477   0.09404   0.15341   0.15914
     Eigenvalues ---    0.16093   0.19845   0.22150   0.22825   0.23905
     Eigenvalues ---    0.24304   0.33348   0.33417   0.33902   0.37408
     Eigenvalues ---    0.45152   0.49488   0.49995   0.63278   0.65670
     Eigenvalues ---    0.67190   0.81009
 RFO step:  Lambda=-1.54002407D-04 EMin= 2.18650383D-02
 Quartic linear search produced a step of  0.08489.
 Iteration  1 RMS(Cart)=  0.00850027 RMS(Int)=  0.00008792
 Iteration  2 RMS(Cart)=  0.00006902 RMS(Int)=  0.00005897
 Iteration  3 RMS(Cart)=  0.00000000 RMS(Int)=  0.00005897
 Variable       Old X    -DE/DX   Delta X   Delta X   Delta X     New X
                                 (Linear)    (Quad)   (Total)
    R1        2.41570   0.00120  -0.00116   0.00159   0.00043   2.41613
    R2        2.63845  -0.00011   0.00120   0.00074   0.00194   2.64039
    R3        2.05627   0.00091  -0.00027   0.00238   0.00211   2.05838
    R4        2.62864  -0.00012   0.00082   0.00075   0.00157   2.63021
    R5        2.41695   0.00013  -0.00089  -0.00054  -0.00142   2.41553
    R6        2.05426   0.00083  -0.00015   0.00208   0.00193   2.05618
    R7        2.62831  -0.00082  -0.00050  -0.00255  -0.00305   2.62525
    R8        2.34836  -0.00123  -0.00158  -0.00200  -0.00359   2.34477
    R9        2.67660   0.00391   0.00219   0.00989   0.01207   2.68867
   R10        2.40782  -0.00059  -0.00097  -0.00181  -0.00279   2.40503
   R11        2.05542   0.00097  -0.00038   0.00260   0.00222   2.05764
    A1        2.20528  -0.00050   0.00050  -0.00029   0.00001   2.20529
    A2        2.06592   0.00085   0.00064   0.00580   0.00630   2.07221
    A3        2.00540  -0.00024  -0.00146  -0.00176  -0.00337   2.00202
    A4        2.07106   0.00052   0.00076   0.00481   0.00552   2.07658
    A5        2.21412   0.00010   0.00090   0.00153   0.00241   2.21652
    A6        2.02929  -0.00085  -0.00097  -0.00598  -0.00694   2.02235
    A7        2.03838   0.00075   0.00009   0.00420   0.00430   2.04269
    A8        2.06440  -0.00006   0.00196  -0.00039   0.00152   2.06592
    A9        2.06594   0.00100   0.00045   0.00304   0.00344   2.06939
   A10        2.12209  -0.00070  -0.00045  -0.00185  -0.00239   2.11971
   A11        2.16805  -0.00027  -0.00005  -0.00193  -0.00207   2.16598
   A12        2.00759  -0.00038  -0.00171  -0.00421  -0.00595   2.00164
   A13        2.09195   0.00059   0.00168   0.00305   0.00470   2.09665
   A14        2.08487   0.00038   0.00150   0.00316   0.00459   2.08946
    D1        0.13116  -0.00058   0.00158  -0.02392  -0.02237   0.10878
    D2       -3.14031   0.00044  -0.00237   0.01280   0.01049  -3.12983
    D3       -1.05262   0.00082   0.00388   0.02353   0.02744  -1.02518
    D4        2.21494  -0.00024   0.00763  -0.01257  -0.00490   2.21005
    D5        1.08296   0.00011  -0.00267   0.00703   0.00433   1.08729
    D6       -2.11743   0.00011  -0.00234   0.00202  -0.00032  -2.11775
    D7        0.03888   0.00036  -0.00031   0.00893   0.00863   0.04751
    D8       -3.04364   0.00040  -0.00061   0.01426   0.01366  -3.02999
    D9       -1.33408   0.00012   0.00111   0.00920   0.01038  -1.32370
   D10        0.20886  -0.00035   0.00017  -0.02104  -0.02087   0.18799
   D11        1.21247   0.00049   0.00182   0.01976   0.02149   1.23397
   D12       -2.11901   0.00023   0.00156   0.00149   0.00307  -2.11595
   D13       -0.24932   0.00015  -0.00547  -0.00762  -0.01310  -0.26242
   D14        3.09078   0.00053  -0.00485   0.01225   0.00741   3.09819
         Item               Value     Threshold  Converged?
 Maximum Force            0.003914     0.000450     NO 
 RMS     Force            0.000861     0.000300     NO 
 Maximum Displacement     0.019847     0.001800     NO 
 RMS     Displacement     0.008499     0.001200     NO 
 Predicted change in Energy=-8.236634D-05
 GradGradGradGradGradGradGradGradGradGradGradGradGradGradGradGradGradGrad

                          Input orientation:                          
 ---------------------------------------------------------------------
 Center     Atomic      Atomic             Coordinates (Angstroms)
 Number     Number       Type             X           Y           Z
 ---------------------------------------------------------------------
      1          6           0       -1.474955    0.266555    0.481753
      2          7           0       -1.204386   -0.982530    0.445691
      3          6           0       -0.254411   -1.440786   -0.462489
      4          7           0        0.984236   -1.127799   -0.503651
      5          7           0        1.484309   -0.281909    0.478359
      6          7           0        1.224767    0.929316    0.406570
      7          6           0        0.257662    1.428232   -0.509998
      8          7           0       -0.996282    1.243349   -0.395180
      9          1           0       -2.210925    0.622271    1.201670
     10          1           0       -0.600102   -2.186486   -1.175482
     11          1           0        0.639506    2.159327   -1.220842
 ---------------------------------------------------------------------
                    Distance matrix (angstroms):
                    1          2          3          4          5
     1  C    0.000000
     2  N    1.278562   0.000000
     3  C    2.301377   1.391849   0.000000
     4  N    2.993805   2.390068   1.278242   0.000000
     5  N    3.009662   2.778672   2.291579   1.389225   0.000000
     6  N    2.780900   3.091516   2.925853   2.262317   1.240799
     7  C    2.309767   2.977028   2.914745   2.657300   2.325101
     8  N    1.397235   2.388495   2.785585   3.091368   3.040199
     9  H    1.089250   2.039611   3.294477   4.022428   3.872399
    10  H    3.086942   2.107812   1.088086   2.020471   3.272212
    11  H    3.309435   4.006062   3.786159   3.382070   3.092023
                    6          7          8          9         10
     6  N    0.000000
     7  C    1.422781   0.000000
     8  N    2.382116   1.272690   0.000000
     9  H    3.539837   3.110193   2.100244   0.000000
    10  H    3.942240   3.774230   3.539717   4.016805   0.000000
    11  H    2.122245   1.088855   2.048545   4.044263   4.519377
                   11
    11  H    0.000000
 Stoichiometry    C3H3N5
 Framework group  C1[X(C3H3N5)]
 Deg. of freedom    27
 Full point group                 C1      NOp   1
 Largest Abelian subgroup         C1      NOp   1
 Largest concise Abelian subgroup C1      NOp   1
                         Standard orientation:                         
 ---------------------------------------------------------------------
 Center     Atomic      Atomic             Coordinates (Angstroms)
 Number     Number       Type             X           Y           Z
 ---------------------------------------------------------------------
      1          6           0        1.432256    0.489855   -0.415265
      2          7           0        1.360038   -0.786590   -0.401409
      3          6           0        0.444707   -1.401039    0.448217
      4          7           0       -0.828099   -1.286777    0.419743
      5          7           0       -1.399318   -0.515864   -0.584920
      6          7           0       -1.338050    0.719928   -0.491938
      7          6           0       -0.514328    1.351214    0.481339
      8          7           0        0.757521    1.366907    0.437836
      9          1           0        2.142191    0.966801   -1.089787
     10          1           0        0.862998   -2.093388    1.175964
     11          1           0       -1.045635    2.003182    1.172898
 ---------------------------------------------------------------------
 Rotational constants (GHZ):           3.3037495           3.1595624           1.9479200
 Standard basis: 6-31G(2df,p) (6D, 7F)
 There are   263 symmetry adapted cartesian basis functions of A   symmetry.
 There are   239 symmetry adapted basis functions of A   symmetry.
   239 basis functions,   373 primitive gaussians,   263 cartesian basis functions
    28 alpha electrons       28 beta electrons
       nuclear repulsion energy       349.2696104847 Hartrees.
 NAtoms=   11 NActive=   11 NUniq=   11 SFac= 1.00D+00 NAtFMM=   60 NAOKFM=F Big=F
 Integral buffers will be    131072 words long.
 Raffenetti 2 integral format.
 Two-electron integral symmetry is turned on.
 One-electron integrals computed using PRISM.
 PrsmSu:  requested number of processors reduced to:  13 ShMem   1 Linda.
 NBasis=   239 RedAO= T EigKep=  1.79D-04  NBF=   239
 NBsUse=   239 1.00D-06 EigRej= -1.00D+00 NBFU=   239
 Initial guess from the checkpoint file:  "C1dNCdNNdNCdN1.chk"
 B after Tr=    -0.000000    0.000000   -0.000000
         Rot=    0.996456    0.000029    0.000021    0.084113 Ang=   9.65 deg.
 Requested convergence on RMS density matrix=1.00D-08 within 128 cycles.
 Requested convergence on MAX density matrix=1.00D-06.
 Requested convergence on             energy=1.00D-06.
 No special actions if energy rises.
 SCF Done:  E(RB3LYP) =  -389.768128006     A.U. after   11 cycles
            NFock= 11  Conv=0.38D-08     -V/T= 2.0070
 PrsmSu:  requested number of processors reduced to:  13 ShMem   1 Linda.
 Calling FoFJK, ICntrl=      2127 FMM=F ISym2X=0 I1Cent= 0 IOpClX= 0 NMat=1 NMatS=1 NMatT=0.
 ***** Axes restored to original set *****
 -------------------------------------------------------------------
 Center     Atomic                   Forces (Hartrees/Bohr)
 Number     Number              X              Y              Z
 -------------------------------------------------------------------
      1        6           0.001948562    0.001173492    0.000618207
      2        7           0.000316614   -0.000513824   -0.000527951
      3        6          -0.001226958    0.000186961    0.000510257
      4        7           0.001583691   -0.000232364    0.000130718
      5        7          -0.001063759   -0.000460000   -0.000458009
      6        7           0.001627033    0.000109156    0.001124697
      7        6          -0.001558372    0.000856942    0.000017971
      8        7          -0.001065145   -0.000916486   -0.000356382
      9        1          -0.000523222   -0.000134763   -0.000419309
     10        1          -0.000288924    0.000122901   -0.000260945
     11        1           0.000250479   -0.000192016   -0.000379254
 -------------------------------------------------------------------
 Cartesian Forces:  Max     0.001948562 RMS     0.000820175

 GradGradGradGradGradGradGradGradGradGradGradGradGradGradGradGradGradGrad
 Berny optimization.
 Using GEDIIS/GDIIS optimizer.
 FormGI is forming the generalized inverse of G from B-inverse, IUseBI=4.
 Internal  Forces:  Max     0.001576212 RMS     0.000510550
 Search for a local minimum.
 Step number   4 out of a maximum of   49
 All quantities printed in internal units (Hartrees-Bohrs-Radians)
 Mixed Optimization -- En-DIIS/RFO-DIIS
 Swapping is turned off.
 Update second derivatives using D2CorX and points    1    2    3    4
 DE= -5.40D-05 DEPred=-8.24D-05 R= 6.56D-01
 TightC=F SS=  1.41D+00  RLast= 5.80D-02 DXNew= 8.4853D-01 1.7396D-01
 Trust test= 6.56D-01 RLast= 5.80D-02 DXMaxT set to 5.05D-01
 ITU=  1  1  1  0
     Eigenvalues ---    0.02029   0.02557   0.02637   0.02913   0.03164
     Eigenvalues ---    0.03415   0.05090   0.10236   0.13641   0.15942
     Eigenvalues ---    0.15983   0.19951   0.21873   0.22659   0.24023
     Eigenvalues ---    0.24733   0.31246   0.33368   0.33394   0.33447
     Eigenvalues ---    0.45027   0.49488   0.50337   0.63098   0.65706
     Eigenvalues ---    0.67013   0.82253
 En-DIIS/RFO-DIIS/Sim-DIIS IScMMF=       -3 using points:     4    3
 RFO step:  Lambda=-6.65386802D-05.
 DidBck=T Rises=F RFO-DIIS coefs:    0.74663    0.25337
 Iteration  1 RMS(Cart)=  0.00479709 RMS(Int)=  0.00003692
 Iteration  2 RMS(Cart)=  0.00003323 RMS(Int)=  0.00001534
 Iteration  3 RMS(Cart)=  0.00000000 RMS(Int)=  0.00001534
 Variable       Old X    -DE/DX   Delta X   Delta X   Delta X     New X
                                 (Linear)    (Quad)   (Total)
    R1        2.41613   0.00022  -0.00011   0.00035   0.00024   2.41637
    R2        2.64039  -0.00095  -0.00049  -0.00042  -0.00091   2.63948
    R3        2.05838   0.00003  -0.00053   0.00106   0.00052   2.05891
    R4        2.63021  -0.00069  -0.00040  -0.00003  -0.00043   2.62978
    R5        2.41553   0.00080   0.00036   0.00007   0.00043   2.41596
    R6        2.05618   0.00018  -0.00049   0.00125   0.00076   2.05695
    R7        2.62525  -0.00027   0.00077  -0.00203  -0.00126   2.62400
    R8        2.34477   0.00050   0.00091  -0.00117  -0.00026   2.34451
    R9        2.68867   0.00158  -0.00306   0.00914   0.00608   2.69475
   R10        2.40503  -0.00002   0.00071  -0.00171  -0.00100   2.40403
   R11        2.05764   0.00021  -0.00056   0.00153   0.00097   2.05861
    A1        2.20529   0.00010  -0.00000  -0.00178  -0.00181   2.20349
    A2        2.07221  -0.00014  -0.00160   0.00260   0.00096   2.07317
    A3        2.00202  -0.00007   0.00085  -0.00201  -0.00120   2.00082
    A4        2.07658   0.00024  -0.00140   0.00198   0.00060   2.07718
    A5        2.21652  -0.00013  -0.00061   0.00040  -0.00020   2.21633
    A6        2.02235  -0.00011   0.00176  -0.00387  -0.00211   2.02023
    A7        2.04269   0.00024  -0.00109   0.00350   0.00240   2.04509
    A8        2.06592  -0.00075  -0.00039  -0.00186  -0.00224   2.06368
    A9        2.06939   0.00062  -0.00087   0.00395   0.00308   2.07246
   A10        2.11971  -0.00063   0.00060  -0.00222  -0.00160   2.11810
   A11        2.16598   0.00004   0.00052  -0.00095  -0.00042   2.16556
   A12        2.00164  -0.00009   0.00151  -0.00223  -0.00074   2.00091
   A13        2.09665   0.00016  -0.00119   0.00448   0.00327   2.09993
   A14        2.08946  -0.00063  -0.00116  -0.00119  -0.00234   2.08712
    D1        0.10878   0.00063   0.00567   0.00200   0.00768   0.11646
    D2       -3.12983  -0.00079  -0.00266  -0.01375  -0.01643   3.13693
    D3       -1.02518  -0.00093  -0.00695  -0.00199  -0.00894  -1.03412
    D4        2.21005   0.00045   0.00124   0.01298   0.01419   2.22424
    D5        1.08729   0.00033  -0.00110   0.00195   0.00086   1.08816
    D6       -2.11775   0.00034   0.00008   0.00265   0.00273  -2.11502
    D7        0.04751  -0.00025  -0.00219  -0.00297  -0.00516   0.04235
    D8       -3.02999  -0.00025  -0.00346  -0.00343  -0.00690  -3.03689
    D9       -1.32370  -0.00009  -0.00263   0.00394   0.00130  -1.32240
   D10        0.18799   0.00061   0.00529  -0.00209   0.00320   0.19119
   D11        1.23397  -0.00009  -0.00545   0.00285  -0.00257   1.23140
   D12       -2.11595   0.00051  -0.00078   0.01048   0.00969  -2.10626
   D13       -0.26242   0.00033   0.00332   0.00136   0.00468  -0.25774
   D14        3.09819  -0.00027  -0.00188  -0.00586  -0.00775   3.09044
         Item               Value     Threshold  Converged?
 Maximum Force            0.001576     0.000450     NO 
 RMS     Force            0.000511     0.000300     NO 
 Maximum Displacement     0.011701     0.001800     NO 
 RMS     Displacement     0.004803     0.001200     NO 
 Predicted change in Energy=-3.329470D-05
 GradGradGradGradGradGradGradGradGradGradGradGradGradGradGradGradGradGrad

                          Input orientation:                          
 ---------------------------------------------------------------------
 Center     Atomic      Atomic             Coordinates (Angstroms)
 Number     Number       Type             X           Y           Z
 ---------------------------------------------------------------------
      1          6           0       -1.470708    0.267207    0.487128
      2          7           0       -1.201525   -0.982185    0.447082
      3          6           0       -0.252995   -1.439449   -0.462759
      4          7           0        0.986475   -1.128706   -0.503192
      5          7           0        1.483984   -0.282219    0.478665
      6          7           0        1.226130    0.929324    0.408561
      7          6           0        0.255757    1.429626   -0.508800
      8          7           0       -0.997286    1.242719   -0.393310
      9          1           0       -2.217117    0.620529    1.197835
     10          1           0       -0.603194   -2.181014   -1.178475
     11          1           0        0.639900    2.153709   -1.226337
 ---------------------------------------------------------------------
                    Distance matrix (angstroms):
                    1          2          3          4          5
     1  C    0.000000
     2  N    1.278688   0.000000
     3  C    2.301692   1.391621   0.000000
     4  N    2.994504   2.389944   1.278468   0.000000
     5  N    3.005353   2.775411   2.289663   1.388560   0.000000
     6  N    2.778040   3.090122   2.925422   2.263673   1.240661
     7  C    2.307330   2.975603   2.914197   2.660647   2.326810
     8  N    1.396754   2.387083   2.784388   3.093709   3.040144
     9  H    1.089526   2.040526   3.295278   4.026949   3.876894
    10  H    3.085547   2.106567   1.088489   2.022476   3.272285
    11  H    3.309006   4.003125   3.780357   3.378950   3.090835
                    6          7          8          9         10
     6  N    0.000000
     7  C    1.426001   0.000000
     8  N    2.384280   1.272159   0.000000
     9  H    3.546020   3.111647   2.099250   0.000000
    10  H    3.941993   3.771337   3.534648   4.012510   0.000000
    11  H    2.125012   1.089368   2.050419   4.048432   4.509701
                   11
    11  H    0.000000
 Stoichiometry    C3H3N5
 Framework group  C1[X(C3H3N5)]
 Deg. of freedom    27
 Full point group                 C1      NOp   1
 Largest Abelian subgroup         C1      NOp   1
 Largest concise Abelian subgroup C1      NOp   1
                         Standard orientation:                         
 ---------------------------------------------------------------------
 Center     Atomic      Atomic             Coordinates (Angstroms)
 Number     Number       Type             X           Y           Z
 ---------------------------------------------------------------------
      1          6           0        1.451058    0.421224   -0.418787
      2          7           0        1.319090   -0.850519   -0.401530
      3          6           0        0.376298   -1.419792    0.449164
      4          7           0       -0.890108   -1.247124    0.419433
      5          7           0       -1.420921   -0.448445   -0.584782
      6          7           0       -1.302311    0.783114   -0.492947
      7          6           0       -0.446737    1.375576    0.481968
      8          7           0        0.823795    1.328379    0.438262
      9          1           0        2.193368    0.862662   -1.082997
     10          1           0        0.764567   -2.127113    1.179747
     11          1           0       -0.948468    2.044567    1.180136
 ---------------------------------------------------------------------
 Rotational constants (GHZ):           3.3038549           3.1594399           1.9490921
 Standard basis: 6-31G(2df,p) (6D, 7F)
 There are   263 symmetry adapted cartesian basis functions of A   symmetry.
 There are   239 symmetry adapted basis functions of A   symmetry.
   239 basis functions,   373 primitive gaussians,   263 cartesian basis functions
    28 alpha electrons       28 beta electrons
       nuclear repulsion energy       349.2734721122 Hartrees.
 NAtoms=   11 NActive=   11 NUniq=   11 SFac= 1.00D+00 NAtFMM=   60 NAOKFM=F Big=F
 Integral buffers will be    131072 words long.
 Raffenetti 2 integral format.
 Two-electron integral symmetry is turned on.
 One-electron integrals computed using PRISM.
 PrsmSu:  requested number of processors reduced to:  13 ShMem   1 Linda.
 NBasis=   239 RedAO= T EigKep=  1.79D-04  NBF=   239
 NBsUse=   239 1.00D-06 EigRej= -1.00D+00 NBFU=   239
 Initial guess from the checkpoint file:  "C1dNCdNNdNCdN1.chk"
 B after Tr=     0.000000   -0.000000    0.000000
         Rot=    0.999711   -0.000025   -0.000098    0.024050 Ang=  -2.76 deg.
 Requested convergence on RMS density matrix=1.00D-08 within 128 cycles.
 Requested convergence on MAX density matrix=1.00D-06.
 Requested convergence on             energy=1.00D-06.
 No special actions if energy rises.
 SCF Done:  E(RB3LYP) =  -389.768156566     A.U. after   10 cycles
            NFock= 10  Conv=0.51D-08     -V/T= 2.0070
 PrsmSu:  requested number of processors reduced to:  13 ShMem   1 Linda.
 Calling FoFJK, ICntrl=      2127 FMM=F ISym2X=0 I1Cent= 0 IOpClX= 0 NMat=1 NMatS=1 NMatT=0.
 ***** Axes restored to original set *****
 -------------------------------------------------------------------
 Center     Atomic                   Forces (Hartrees/Bohr)
 Number     Number              X              Y              Z
 -------------------------------------------------------------------
      1        6          -0.000244636    0.000484941   -0.000567353
      2        7           0.000417414   -0.000250996   -0.000056091
      3        6          -0.001264374    0.000103256    0.000366083
      4        7           0.000705615    0.000215778   -0.000174067
      5        7           0.000072954   -0.000639993    0.000026337
      6        7           0.000134990    0.000718888    0.000375078
      7        6           0.000352649   -0.000120362   -0.000293385
      8        7          -0.000436380   -0.000312411    0.000004457
      9        1           0.000269108   -0.000214658    0.000187846
     10        1           0.000099582    0.000118955    0.000006858
     11        1          -0.000106923   -0.000103398    0.000124238
 -------------------------------------------------------------------
 Cartesian Forces:  Max     0.001264374 RMS     0.000389058

 GradGradGradGradGradGradGradGradGradGradGradGradGradGradGradGradGradGrad
 Berny optimization.
 Using GEDIIS/GDIIS optimizer.
 FormGI is forming the generalized inverse of G from B-inverse, IUseBI=4.
 Internal  Forces:  Max     0.000735709 RMS     0.000252031
 Search for a local minimum.
 Step number   5 out of a maximum of   49
 All quantities printed in internal units (Hartrees-Bohrs-Radians)
 Mixed Optimization -- En-DIIS/RFO-DIIS
 Swapping is turned off.
 Update second derivatives using D2CorX and points    1    2    3    4    5
 DE= -2.86D-05 DEPred=-3.33D-05 R= 8.58D-01
 TightC=F SS=  1.41D+00  RLast= 3.13D-02 DXNew= 8.4853D-01 9.3909D-02
 Trust test= 8.58D-01 RLast= 3.13D-02 DXMaxT set to 5.05D-01
 ITU=  1  1  1  1  0
     Eigenvalues ---    0.02064   0.02571   0.02703   0.02976   0.03152
     Eigenvalues ---    0.03398   0.06163   0.09593   0.14112   0.15891
     Eigenvalues ---    0.16257   0.19946   0.21551   0.22572   0.23474
     Eigenvalues ---    0.25558   0.29925   0.33369   0.33437   0.33640
     Eigenvalues ---    0.44964   0.48077   0.49724   0.63032   0.64266
     Eigenvalues ---    0.68004   0.82820
 En-DIIS/RFO-DIIS/Sim-DIIS IScMMF=       -3 using points:     5    4    3
 RFO step:  Lambda=-1.17747388D-05.
 DidBck=F Rises=F RFO-DIIS coefs:    0.85982    0.13865    0.00153
 Iteration  1 RMS(Cart)=  0.00300823 RMS(Int)=  0.00000635
 Iteration  2 RMS(Cart)=  0.00000659 RMS(Int)=  0.00000221
 Iteration  3 RMS(Cart)=  0.00000000 RMS(Int)=  0.00000221
 Variable       Old X    -DE/DX   Delta X   Delta X   Delta X     New X
                                 (Linear)    (Quad)   (Total)
    R1        2.41637  -0.00005  -0.00003   0.00012   0.00009   2.41646
    R2        2.63948  -0.00031   0.00012  -0.00103  -0.00091   2.63857
    R3        2.05891  -0.00013  -0.00008  -0.00012  -0.00019   2.05871
    R4        2.62978  -0.00059   0.00006  -0.00132  -0.00126   2.62852
    R5        2.41596   0.00074  -0.00006   0.00121   0.00115   2.41711
    R6        2.05695  -0.00012  -0.00011  -0.00001  -0.00012   2.05682
    R7        2.62400   0.00000   0.00018  -0.00018  -0.00000   2.62400
    R8        2.34451   0.00049   0.00004   0.00068   0.00073   2.34524
    R9        2.69475   0.00023  -0.00087   0.00153   0.00066   2.69541
   R10        2.40403   0.00040   0.00014   0.00047   0.00062   2.40465
   R11        2.05861  -0.00019  -0.00014  -0.00012  -0.00026   2.05835
    A1        2.20349  -0.00005   0.00025  -0.00105  -0.00080   2.20269
    A2        2.07317  -0.00022  -0.00014  -0.00051  -0.00064   2.07253
    A3        2.00082   0.00029   0.00017   0.00183   0.00201   2.00283
    A4        2.07718  -0.00024  -0.00009  -0.00164  -0.00174   2.07544
    A5        2.21633   0.00009   0.00002  -0.00057  -0.00055   2.21577
    A6        2.02023   0.00005   0.00031   0.00022   0.00053   2.02077
    A7        2.04509  -0.00013  -0.00034   0.00039   0.00005   2.04514
    A8        2.06368  -0.00003   0.00031  -0.00163  -0.00132   2.06237
    A9        2.07246  -0.00021  -0.00044  -0.00042  -0.00086   2.07161
   A10        2.11810  -0.00047   0.00023  -0.00271  -0.00249   2.11562
   A11        2.16556   0.00012   0.00006   0.00014   0.00020   2.16576
   A12        2.00091  -0.00004   0.00011  -0.00002   0.00010   2.00101
   A13        2.09993  -0.00012  -0.00047   0.00009  -0.00037   2.09956
   A14        2.08712  -0.00004   0.00032  -0.00168  -0.00136   2.08576
    D1        0.11646  -0.00005  -0.00104  -0.00067  -0.00171   0.11475
    D2        3.13693   0.00016   0.00229   0.00230   0.00459   3.14152
    D3       -1.03412  -0.00019   0.00121  -0.00255  -0.00133  -1.03546
    D4        2.22424  -0.00036  -0.00198  -0.00527  -0.00725   2.21698
    D5        1.08816   0.00029  -0.00013   0.00411   0.00398   1.09214
    D6       -2.11502   0.00022  -0.00038   0.00496   0.00458  -2.11044
    D7        0.04235   0.00005   0.00071  -0.00141  -0.00070   0.04165
    D8       -3.03689   0.00011   0.00095  -0.00227  -0.00132  -3.03821
    D9       -1.32240  -0.00015  -0.00020  -0.00106  -0.00126  -1.32366
   D10        0.19119  -0.00003  -0.00042  -0.00007  -0.00048   0.19070
   D11        1.23140   0.00021   0.00033   0.00212   0.00244   1.23385
   D12       -2.10626  -0.00001  -0.00136   0.00338   0.00201  -2.10425
   D13       -0.25774  -0.00020  -0.00064   0.00052  -0.00012  -0.25786
   D14        3.09044   0.00002   0.00108  -0.00080   0.00028   3.09072
         Item               Value     Threshold  Converged?
 Maximum Force            0.000736     0.000450     NO 
 RMS     Force            0.000252     0.000300     YES
 Maximum Displacement     0.007174     0.001800     NO 
 RMS     Displacement     0.003010     0.001200     NO 
 Predicted change in Energy=-5.885886D-06
 GradGradGradGradGradGradGradGradGradGradGradGradGradGradGradGradGradGrad

                          Input orientation:                          
 ---------------------------------------------------------------------
 Center     Atomic      Atomic             Coordinates (Angstroms)
 Number     Number       Type             X           Y           Z
 ---------------------------------------------------------------------
      1          6           0       -1.471019    0.266863    0.486121
      2          7           0       -1.200602   -0.982366    0.447858
      3          6           0       -0.253247   -1.437799   -0.463105
      4          7           0        0.986823   -1.126879   -0.503065
      5          7           0        1.482702   -0.281897    0.480909
      6          7           0        1.224543    0.929996    0.411179
      7          6           0        0.255373    1.427577   -0.509470
      8          7           0       -0.998152    1.240464   -0.395964
      9          1           0       -2.213484    0.620588    1.200592
     10          1           0       -0.603761   -2.177218   -1.180786
     11          1           0        0.640245    2.150210   -1.227869
 ---------------------------------------------------------------------
                    Distance matrix (angstroms):
                    1          2          3          4          5
     1  C    0.000000
     2  N    1.278735   0.000000
     3  C    2.299972   1.390954   0.000000
     4  N    2.993659   2.389553   1.279078   0.000000
     5  N    3.004270   2.773422   2.289277   1.388558   0.000000
     6  N    2.776944   3.088656   2.924840   2.263424   1.241045
     7  C    2.306271   2.973914   2.910536   2.657123   2.325831
     8  N    1.396272   2.386209   2.780735   3.091264   3.039922
     9  H    1.089424   2.040098   3.293535   4.024681   3.872237
    10  H    3.082896   2.106270   1.088424   2.022987   3.272125
    11  H    3.307899   4.001226   3.775844   3.374132   3.089466
                    6          7          8          9         10
     6  N    0.000000
     7  C    1.426349   0.000000
     8  N    2.385003   1.272486   0.000000
     9  H    3.541036   3.109791   2.100065   0.000000
    10  H    3.941044   3.766075   3.528745   4.011220   0.000000
    11  H    2.125277   1.089230   2.050377   4.047338   4.502933
                   11
    11  H    0.000000
 Stoichiometry    C3H3N5
 Framework group  C1[X(C3H3N5)]
 Deg. of freedom    27
 Full point group                 C1      NOp   1
 Largest Abelian subgroup         C1      NOp   1
 Largest concise Abelian subgroup C1      NOp   1
                         Standard orientation:                         
 ---------------------------------------------------------------------
 Center     Atomic      Atomic             Coordinates (Angstroms)
 Number     Number       Type             X           Y           Z
[...]
 Angle between quadratic step and forces=  45.56 degrees.
 Linear search not attempted -- first point.
 Iteration  1 RMS(Cart)=  0.00040747 RMS(Int)=  0.00000014
 Iteration  2 RMS(Cart)=  0.00000015 RMS(Int)=  0.00000006
 Variable       Old X    -DE/DX   Delta X   Delta X   Delta X     New X
                                 (Linear)    (Quad)   (Total)
    R1        2.41662   0.00002   0.00000   0.00002   0.00002   2.41664
    R2        2.63830   0.00004   0.00000   0.00011   0.00011   2.63841
    R3        2.05849   0.00000   0.00000  -0.00001  -0.00001   2.05848
    R4        2.62797   0.00001   0.00000  -0.00007  -0.00007   2.62790
    R5        2.41746  -0.00002   0.00000   0.00002   0.00002   2.41747
    R6        2.05662  -0.00001   0.00000  -0.00002  -0.00002   2.05661
    R7        2.62408  -0.00005   0.00000  -0.00024  -0.00024   2.62384
    R8        2.34580   0.00002   0.00000   0.00003   0.00003   2.34583
    R9        2.69617   0.00001   0.00000   0.00008   0.00008   2.69626
   R10        2.40467  -0.00007   0.00000  -0.00011  -0.00011   2.40456
   R11        2.05806  -0.00000   0.00000   0.00001   0.00001   2.05807
    A1        2.20220  -0.00002   0.00000  -0.00009  -0.00009   2.20211
    A2        2.07200   0.00002   0.00000   0.00008   0.00008   2.07208
    A3        2.00386   0.00000   0.00000   0.00002   0.00002   2.00389
    A4        2.07520   0.00001   0.00000   0.00017   0.00017   2.07536
    A5        2.21535   0.00001   0.00000   0.00003   0.00003   2.21538
    A6        2.02197   0.00003   0.00000   0.00028   0.00028   2.02225
    A7        2.04440  -0.00004   0.00000  -0.00034  -0.00034   2.04406
    A8        2.06233  -0.00001   0.00000   0.00012   0.00012   2.06245
    A9        2.07168   0.00001   0.00000   0.00007   0.00007   2.07175
   A10        2.11491  -0.00001   0.00000  -0.00004  -0.00004   2.11487
   A11        2.16552   0.00002   0.00000   0.00004   0.00004   2.16557
   A12        2.00144  -0.00002   0.00000  -0.00006  -0.00006   2.00138
   A13        2.09951  -0.00001   0.00000   0.00001   0.00001   2.09951
   A14        2.08527  -0.00001   0.00000   0.00003   0.00003   2.08530
    D1        0.11382   0.00002   0.00000   0.00066   0.00066   0.11448
    D2        3.14079   0.00004   0.00000   0.00082   0.00082  -3.14157
    D3       -1.03708   0.00002   0.00000   0.00019   0.00019  -1.03689
    D4        2.21524  -0.00000   0.00000   0.00003   0.00003   2.21528
    D5        1.09310   0.00001   0.00000  -0.00014  -0.00014   1.09296
    D6       -2.10868  -0.00003   0.00000  -0.00086  -0.00086  -2.10954
    D7        0.04244  -0.00003   0.00000  -0.00063  -0.00063   0.04181
    D8       -3.03828   0.00000   0.00000   0.00007   0.00007  -3.03821
    D9       -1.32288   0.00000   0.00000   0.00009   0.00009  -1.32279
   D10        0.18783   0.00005   0.00000   0.00071   0.00071   0.18853
   D11        1.23523  -0.00000   0.00000  -0.00005  -0.00005   1.23517
   D12       -2.10204   0.00000   0.00000  -0.00013  -0.00013  -2.10216
   D13       -0.25593  -0.00002   0.00000  -0.00077  -0.00077  -0.25670
   D14        3.09172  -0.00003   0.00000  -0.00069  -0.00069   3.09104
         Item               Value     Threshold  Converged?
 Maximum Force            0.000067     0.000450     YES
 RMS     Force            0.000024     0.000300     YES
 Maximum Displacement     0.000999     0.001800     YES
 RMS     Displacement     0.000407     0.001200     YES
 Predicted change in Energy=-1.081246D-07
 Optimization completed.
    -- Stationary point found.
                           ----------------------------
                           !   Optimized Parameters   !
                           ! (Angstroms and Degrees)  !
 --------------------------                            --------------------------
 ! Name  Definition              Value          Derivative Info.                !
 --------------------------------------------------------------------------------
 ! R1    R(1,2)                  1.2788         -DE/DX =    0.0                 !
 ! R2    R(1,8)                  1.3961         -DE/DX =    0.0                 !
 ! R3    R(1,9)                  1.0893         -DE/DX =    0.0                 !
 ! R4    R(2,3)                  1.3907         -DE/DX =    0.0                 !
 ! R5    R(3,4)                  1.2793         -DE/DX =    0.0                 !
 ! R6    R(3,10)                 1.0883         -DE/DX =    0.0                 !
 ! R7    R(4,5)                  1.3886         -DE/DX =    0.0                 !
 ! R8    R(5,6)                  1.2413         -DE/DX =    0.0                 !
 ! R9    R(6,7)                  1.4268         -DE/DX =    0.0                 !
 ! R10   R(7,8)                  1.2725         -DE/DX =   -0.0001              !
 ! R11   R(7,11)                 1.0891         -DE/DX =    0.0                 !
 ! A1    A(2,1,8)              126.1768         -DE/DX =    0.0                 !
 ! A2    A(2,1,9)              118.7166         -DE/DX =    0.0                 !
 ! A3    A(8,1,9)              114.813          -DE/DX =    0.0                 !
 ! A4    A(1,2,3)              118.9            -DE/DX =    0.0                 !
 ! A5    A(2,3,4)              126.9303         -DE/DX =    0.0                 !
 ! A6    A(2,3,10)             115.8502         -DE/DX =    0.0                 !
 ! A7    A(4,3,10)             117.1356         -DE/DX =    0.0                 !
 ! A8    A(3,4,5)              118.163          -DE/DX =    0.0                 !
 ! A9    A(4,5,6)              118.6985         -DE/DX =    0.0                 !
 ! A10   A(5,6,7)              121.1753         -DE/DX =    0.0                 !
 ! A11   A(6,7,8)              124.0753         -DE/DX =    0.0                 !
 ! A12   A(6,7,11)             114.6739         -DE/DX =    0.0                 !
 ! A13   A(8,7,11)             120.293          -DE/DX =    0.0                 !
 ! A14   A(1,8,7)              119.4773         -DE/DX =    0.0                 !
 ! D1    D(8,1,2,3)              6.5216         -DE/DX =    0.0                 !
 ! D2    D(9,1,2,3)           -180.0457         -DE/DX =    0.0                 !
 ! D3    D(2,1,8,7)            -59.4203         -DE/DX =    0.0                 !
 ! D4    D(9,1,8,7)            126.9241         -DE/DX =    0.0                 !
 ! D5    D(1,2,3,4)             62.6301         -DE/DX =    0.0                 !
 ! D6    D(1,2,3,10)          -120.8185         -DE/DX =    0.0                 !
 ! D7    D(2,3,4,5)              2.4316         -DE/DX =    0.0                 !
 ! D8    D(10,3,4,5)          -174.0809         -DE/DX =    0.0                 !
 ! D9    D(3,4,5,6)            -75.7955         -DE/DX =    0.0                 !
 ! D10   D(4,5,6,7)             10.7618         -DE/DX =    0.0001              !
 ! D11   D(5,6,7,8)             70.7732         -DE/DX =    0.0                 !
 ! D12   D(5,6,7,11)          -120.4378         -DE/DX =    0.0                 !
 ! D13   D(6,7,8,1)            -14.6638         -DE/DX =    0.0                 !
 ! D14   D(11,7,8,1)           177.1428         -DE/DX =    0.0                 !
 --------------------------------------------------------------------------------
 GradGradGradGradGradGradGradGradGradGradGradGradGradGradGradGradGradGrad


 ----------------------------------------------------------------------

 Electric dipole moment (input orientation):
 (Debye = 10**-18 statcoulomb cm , SI units = C m)
                  (au)            (Debye)         (10**-30 SI)
   Tot        0.847626D+00      0.215445D+01      0.718647D+01
   x         -0.595861D+00     -0.151453D+01     -0.505192D+01
   y          0.377005D+00      0.958250D+00      0.319638D+01
   z         -0.470411D+00     -0.119567D+01     -0.398831D+01

 Dipole polarizability, Alpha (input orientation).
 (esu units = cm**3 , SI units = C**2 m**2 J**-1)
 Alpha(0;0):
               (au)            (10**-24 esu)      (10**-40 SI)
   iso        0.580989D+02      0.860937D+01      0.957922D+01
   aniso      0.243972D+02      0.361530D+01      0.402256D+01
   xx         0.643033D+02      0.952877D+01      0.106022D+02
   yx         0.187992D+01      0.278575D+00      0.309957D+00
   yy         0.673915D+02      0.998638D+01      0.111114D+02
   zx        -0.324463D+01     -0.480805D+00     -0.534968D+00
   zy         0.135853D+01      0.201313D+00      0.223991D+00
   zz         0.426019D+02      0.631296D+01      0.702411D+01

 ----------------------------------------------------------------------

 Dipole orientation:
     6         -2.44030758         -0.29014917          1.66867937
     7         -2.51613049          1.69870679          0.29799434
     6         -0.25833074          2.85661240         -0.38599045
     7          1.51276282          1.90631240         -1.72921367
     7          1.16614887         -0.50227119         -2.71123006
     7          1.38314939         -2.34560631         -1.27672504
     6          1.54825069         -2.02314414          1.39499765
     7         -0.28826172         -1.33131403          2.78460797
     1         -4.21225369         -1.19172698          2.20230724
     1         -0.03644260          4.81202248          0.21136576
     1          3.27349658         -2.75691707          2.24395527

 Electric dipole moment (dipole orientation):
 (Debye = 10**-18 statcoulomb cm , SI units = C m)
                  (au)            (Debye)         (10**-30 SI)
   Tot        0.847626D+00      0.215445D+01      0.718647D+01
   x          0.000000D+00      0.000000D+00      0.000000D+00
   y          0.000000D+00      0.000000D+00      0.000000D+00
   z          0.847626D+00      0.215445D+01      0.718647D+01

 Dipole polarizability, Alpha (dipole orientation).
 (esu units = cm**3 , SI units = C**2 m**2 J**-1)
 Alpha(0;0):
               (au)            (10**-24 esu)      (10**-40 SI)
   iso        0.580989D+02      0.860937D+01      0.957922D+01
   aniso      0.243972D+02      0.361530D+01      0.402256D+01
   xx         0.569476D+02      0.843877D+01      0.938940D+01
   yx        -0.728471D+01     -0.107948D+01     -0.120109D+01
   yy         0.634968D+02      0.940925D+01      0.104692D+02
   zx        -0.883696D+01     -0.130950D+01     -0.145702D+01
   zy        -0.655757D+01     -0.971731D+00     -0.108120D+01
   zz         0.538523D+02      0.798009D+01      0.887905D+01

 ----------------------------------------------------------------------
 1\1\GINC-LEWIS4-R630-HPC4-NODE537\Freq\RB3LYP\6-31G(2df,p)\C3H3N5\KS29
 C\03-Jul-2022\0\\#N Geom=AllCheck Guess=TCheck SCRF=Check GenChk RB3LY
 P/6-31G(2df,p) Freq\\Title Card Required\\0,1\C,-1.4708325475,0.267096
 6869,0.4860253092\N,-1.1999349138,-0.9821455523,0.4486655284\C,-0.2536
 271264,-1.4376754644,-0.4628926558\N,0.9865373438,-1.1264715486,-0.503
 5915223\N,1.4830024988,-0.2820713002,0.4806458533\N,1.2238453342,0.930
 0045178,0.4124943723\C,0.2552574895,1.4274740042,-0.5094518872\N,-0.99
 82769264,1.2396025968,-0.3972052351\H,-2.2130875234,0.6205487124,1.200
 6724056\H,-0.6038056479,-2.1765828677,-1.1811034496\H,0.6403420192,2.1
 497602151,-1.2278587189\\Version=ES64L-G16RevA.03\State=1-A\HF=-389.76
 81641\RMSD=1.647e-09\RMSF=3.729e-05\ZeroPoint=0.0733565\Thermal=0.0791
 556\Dipole=-0.5958612,0.3770047,-0.4704115\DipoleDeriv=0.5168016,-0.01
 41844,-0.3048683,-0.0529785,1.0145164,-0.1300207,-0.3908989,-0.2017303
 ,0.4527978,-0.7144586,-0.0417422,0.1405919,0.0505538,-0.7739852,-0.044
 2771,0.4346756,-0.1753177,-0.4797996,0.8550644,0.0556877,-0.1785841,-0
 .0186593,0.455491,0.2472881,-0.2084837,0.3390362,0.4274431,-0.3939187,
 -0.1370595,0.0250167,0.1583089,-0.6096799,-0.0678734,0.031032,-0.52858
 21,-0.3602274,-0.1158545,0.1176689,0.099998,0.062825,0.6169006,0.28223
 3,0.0016105,0.2063873,0.0939022,-0.410807,-0.0971915,0.0448798,-0.2578
 127,-0.4786798,-0.1536394,-0.2329189,0.2241208,-0.2069459,0.8948429,0.
 0915902,-0.0002856,0.0365413,0.5011284,-0.2617598,0.0195001,-0.2752226
 ,0.3483618,-0.7200948,-0.0125158,0.0910244,0.0969064,-0.7679538,0.1474
 463,0.2796562,0.4225264,-0.4455391,-0.0091197,0.0417172,0.0723041,0.00
 5281,0.0518081,-0.0144668,0.0513851,-0.0000827,0.0464253,0.0563708,-0.
 0068581,-0.0119266,-0.0364326,-0.0101045,-0.0745423,0.0132187,-0.05311
 21,0.0544468,0.0411737,0.0028875,0.0218497,-0.0445332,0.0005587,0.0696
 119,0.0012232,0.0419768,0.0691348\Polar=64.3033469,1.8799185,67.391457
 2,-3.2446324,1.3585269,42.6019433\Quadrupole=-1.9610078,1.3877022,0.57
 33057,1.4319765,-2.1059435,0.7317602\PG=C01 [X(C3H3N5)]\NImag=0\\0.446
 32831,-0.14361689,0.78312431,-0.24251031,0.03312372,0.41730787,-0.1096
 7968,0.12407904,0.02717708,0.28475955,0.11156561,-0.52252770,-0.018664
 10,-0.18360727,0.69962712,0.02740464,-0.03453764,-0.07340508,-0.137000
 78,0.08032930,0.21163648,-0.00824740,0.03414729,0.02013476,-0.15327646
 ,0.04287765,0.05025519,0.78956106,0.03690655,-0.03431353,-0.03248350,0
 .02290937,-0.10565205,-0.04485295,0.15042968,0.43763678,0.01106106,-0.
 02124996,-0.01152104,0.06856946,-0.06097735,-0.15103811,-0.01054526,0.
 24037922,0.42372852,-0.00238751,-0.01939065,-0.00163859,-0.06105783,0.
 00813374,0.03761867,-0.51779119,-0.11589489,0.02542840,0.67235879,-0.0
 0700737,-0.00770007,0.00125554,0.00236796,0.03444998,-0.00454426,-0.13
 242958,-0.09968514,-0.01653394,0.16648408,0.24627850,0.00061572,0.0110
 4823,-0.00429608,0.03757179,-0.01192087,0.00323314,0.00113451,-0.01959
 262,-0.06890965,0.00441032,0.08120038,0.16723026,-0.00461930,0.0066859
 7,-0.00288921,0.00810840,0.00105616,-0.00547891,-0.03006366,-0.0458421
 5,-0.04270025,-0.09584114,0.02229746,-0.02263657,0.22047765,0.00530507
 ,-0.00685019,-0.00009677,0.00808165,-0.00312829,0.01092698,-0.02606932
 ,-0.01992441,-0.03747310,-0.03842883,-0.08471518,-0.00497911,-0.115218
 39,0.70516412,0.00193870,-0.00011878,0.00524946,0.00470841,0.00512901,
 0.00159166,-0.02459258,-0.01403090,-0.02310912,-0.04992976,-0.00441424
 ,-0.11084493,0.12195950,-0.04317655,0.20389977,0.00581404,0.00718369,-
 0.00673014,-0.00202760,-0.00341173,0.00412240,-0.00114991,0.00798845,-
 0.00019229,0.03350199,-0.02072099,-0.00781976,-0.10523505,0.14047124,-
 0.02028610,0.23223211,-0.00130196,-0.00403981,-0.00681865,-0.00084895,
 -0.00349101,-0.00245251,0.01152487,0.00213613,0.01006124,-0.00202288,-
 0.08751747,-0.05339777,0.09116232,-0.56203705,0.02583578,-0.13889442,0
 .72333596,0.00540235,-0.00459980,-0.00952470,-0.00373714,-0.00076714,0
 .00923657,0.01500642,-0.00484837,-0.00432710,-0.02137297,-0.05486004,0
 .00851073,-0.02464801,0.06528316,-0.07224502,0.09007544,-0.03572780,0.
 17840350,-0.03912231,-0.03049910,0.01967706,-0.00292417,0.02066683,-0.
 00479410,-0.00398185,-0.00352198,-0.00693663,-0.01316403,-0.01393395,0
 .01117308,0.01721978,0.03648048,-0.03932118,-0.11302044,0.02018952,-0.
 01139346,0.79017724,-0.03536590,-0.00124872,0.01166019,0.00795641,-0.0
 0525242,-0.00133500,-0.01089722,-0.00581014,0.00486390,0.00425632,0.01
 207580,0.01022689,0.04651538,-0.03716719,0.03178686,0.00179518,-0.1040
 4979,0.01786909,0.13471696,0.41192844,0.03408935,0.02120072,-0.0129875
 4,0.00208694,-0.00677686,-0.00755967,-0.00142078,0.00138308,0.00812344
 ,0.01638738,-0.00533352,-0.00941586,-0.03575990,0.02914152,0.00411559,
 -0.02949207,0.02084868,-0.12184945,-0.08684561,-0.22793291,0.38758978,
 -0.10500304,-0.03837751,0.05606968,0.03359481,-0.01701563,0.00843478,-
 0.01245017,0.00214137,0.00220366,0.00516706,0.00641237,0.00180418,-0.0
 0179761,-0.00715009,0.00404547,-0.06053643,0.00514466,-0.03399270,-0.5
 6101353,-0.08860273,0.04339698,0.72969114,-0.02210130,-0.14752482,0.05
 937756,-0.00653382,-0.06451508,0.03159542,-0.00684741,0.00253311,0.008
 80430,-0.00055461,-0.00415856,-0.00896358,-0.00727808,-0.00308215,0.00
 433521,0.01044281,0.03674572,0.00625004,-0.10055699,-0.09490055,0.0331
 5198,0.15676012,0.27117451,0.04271118,0.04053957,-0.14407984,0.0029753
 5,0.04052837,0.01516267,-0.00151899,-0.00551659,-0.01011115,-0.0045654
 5,-0.00204551,0.01395984,0.00686932,-0.01240838,-0.01464570,-0.0301442
 8,0.02197545,0.01900217,0.05882993,0.03049157,-0.07191945,-0.10960146,
 -0.13027482,0.19847827,-0.17846239,0.06103689,0.12625660,-0.00534434,0
 .00303579,0.00195076,0.01016217,0.00195572,0.00653564,-0.00018441,0.00
 063804,-0.00233074,0.00006238,0.00037992,0.00001220,0.00028826,0.00034
 985,0.00066591,0.00448893,-0.00165363,0.00226051,-0.00642854,0.0019535
 7,0.01133221,0.17721068,0.05643640,-0.07240777,-0.05291613,0.02625166,
 -0.02366393,-0.02285086,0.00136016,-0.00183154,0.00119164,0.00169922,0
 .00074522,-0.00073971,-0.00023520,-0.00043865,0.00003010,-0.00046543,0
 .00102020,-0.00072478,0.00155071,-0.00320059,0.00409047,-0.01881028,0.
 00706760,0.01851967,-0.06751363,0.09416961,0.12143856,-0.05394527,-0.1
 7081875,-0.00342315,-0.00711496,0.00333854,0.00777225,0.00328057,0.007
 99027,-0.00020556,0.00018843,-0.00252934,0.00027542,0.00040038,0.00036
 184,0.00051505,-0.00056857,0.00100786,0.00072913,0.00116893,-0.0037090
 2,0.01997589,0.00067353,-0.00880142,-0.14651293,0.05519458,0.17235500,
 -0.00279056,-0.00250497,0.00461623,0.00705160,0.01888574,0.01783457,-0
 .07188680,-0.05756000,-0.05438187,-0.02390473,-0.02479938,-0.02427369,
 -0.00054943,-0.00225222,0.00407498,0.00044052,-0.00201550,-0.00156130,
 -0.00140179,0.00041923,0.00018727,0.00190661,0.00077846,-0.00114468,-0
 .00135702,0.00039277,-0.00126681,0.09228611,0.00105792,0.00378232,-0.0
 0201342,-0.00090632,-0.00622170,-0.01009417,-0.06323618,-0.17541602,-0
 .12877172,-0.00253823,-0.00976615,-0.00351278,-0.00428794,0.01064372,-
 0.00603815,0.00066458,0.00090163,0.00231919,0.00034495,-0.00000353,0.0
 0039271,-0.00045779,0.00032126,-0.00026783,0.00062139,-0.00022508,0.00
 053611,0.06873060,0.17605337,0.00095975,0.00118618,-0.00440158,0.00056
 873,-0.02002414,-0.01013258,-0.05545578,-0.12454688,-0.17113983,-0.006
 98918,0.00537487,0.00226722,0.00669612,-0.00640452,0.01015254,-0.00120
 879,-0.00095158,-0.00295584,0.00041377,-0.00029348,-0.00006393,-0.0012
 3452,-0.00108445,0.00145780,0.00052233,-0.00060557,0.00053215,0.055837
 12,0.14734467,0.17439136,-0.00183014,0.00125624,-0.00016317,0.00079571
 ,-0.00218690,-0.00034721,-0.00087579,0.00048788,0.00095809,0.00330300,
 0.00069137,0.00035115,-0.00776202,-0.00159951,-0.00260962,0.00969251,0
 .01671249,-0.01444454,-0.07725784,-0.05913999,0.05510992,-0.02313029,-
 0.02606274,0.02425687,-0.00043573,-0.00066638,0.00070215,0.00020547,0.
 00000702,-0.00010955,0.09729512,-0.00187813,0.00970599,0.00757555,0.00
 025027,0.00037508,-0.00218430,-0.00085993,0.00032680,-0.00029424,-0.00
 174327,-0.00000695,0.00063094,0.00514448,0.00153526,0.00066165,-0.0050
 5337,-0.00300453,0.00980646,-0.06543744,-0.17237132,0.12983412,-0.0000
 4449,-0.00366106,-0.00154151,-0.00080391,-0.00123508,0.00018628,-0.000
 07473,-0.00006984,0.00000491,0.07050053,0.16840566,-0.00311099,0.00735
 303,0.00847728,0.00050331,0.00025872,-0.00206362,-0.00076974,0.0008289
 5,0.00031377,0.00085674,-0.00028771,0.00079467,-0.00168751,-0.00121361
 ,-0.00452607,0.00116054,0.02119574,-0.00525873,0.05846800,0.12149396,-
 0.17232388,0.00889806,-0.00386520,0.00149681,-0.00069250,-0.00118941,0
 .00027286,0.00007818,0.00010538,-0.00010733,-0.06370408,-0.14467985,0.
 17292424\\0.00003531,0.00002778,-0.00001528,0.00000163,0.00003063,0.00
 001864,0.00001852,-0.00005856,-0.00000856,-0.00003422,0.00002214,-0.00
 001900,0.00006468,0.00004044,0.00001716,-0.00005549,-0.00003729,0.0000
 1711,0.00010374,0.00003505,-0.00002080,-0.00007244,-0.00007275,0.00001
 288,-0.00001603,-0.00001007,-0.00001289,-0.00003955,0.00000982,0.00000
 120,-0.00000615,0.00001281,0.00000953\\\@


 Happiness is a conscious choice, not an automatic response.
 -- Mildred Barthel
 Job cpu time:       0 days  0 hours 55 minutes 25.4 seconds.
 Elapsed time:       0 days  0 hours 13 minutes 54.1 seconds.
 File lengths (MBytes):  RWF=     64 Int=      0 D2E=      0 Chk=      6 Scr=      1
 Normal termination of Gaussian 16 at Sun Jul  3 16:38:19 2022.
### All Done ###
