### Starting Gaussian ###
 Entering Gaussian System, Link 0=g16
 Initial command:
 /cluster/software/gaussian/gaussian-16-A.03/avx2/g16/l1.exe "/local/scratch/yxie/Gau-21857.inp" -scrdir="/local/scratch/yxie/"
 Entering Link 1 = /cluster/software/gaussian/gaussian-16-A.03/avx2/g16/l1.exe PID=     21862.
  
 Copyright (c) 1988,1990,1992,1993,1995,1998,2003,2009,2016,
            Gaussian, Inc.  All Rights Reserved.
  
 This is part of the Gaussian(R) 16 program.  It is based on
 the Gaussian(R) 09 system (copyright 2009, Gaussian, Inc.),
 the Gaussian(R) 03 system (copyright 2003, Gaussian, Inc.),
 the Gaussian(R) 98 system (copyright 1998, Gaussian, Inc.),
 the Gaussian(R) 94 system (copyright 1995, Gaussian, Inc.),
 the Gaussian 92(TM) system (copyright 1992, Gaussian, Inc.),
 the Gaussian 90(TM) system (copyright 1990, Gaussian, Inc.),
 the Gaussian 88(TM) system (copyright 1988, Gaussian, Inc.),
 the Gaussian 86(TM) system (copyright 1986, Carnegie Mellon
 University), and the Gaussian 82(TM) system (copyright 1983,
 Carnegie Mellon University). Gaussian is a federally registered
 trademark of Gaussian, Inc.
  
 This software contains proprietary and confidential information,
 including trade secrets, belonging to Gaussian, Inc.
  
 This software is provided under written license and may be
 used, copied, transmitted, or stored only in accord with that
 written license.
  
 The following legend is applicable only to US Government
 contracts under FAR:
  
                    RESTRICTED RIGHTS LEGEND
  
 Use, reproduction and disclosure by the US Government is
 subject to restrictions as set forth in subparagraphs (a)
 and (c) of the Commercial Computer Software - Restricted
 Rights clause in FAR 52.227-19.
  
 Gaussian, Inc.
 340 Quinnipiac St., Bldg. 40, Wallingford CT 06492
  
  
 ---------------------------------------------------------------
 Warning -- This program may not be used in any manner that
 competes with the business of Gaussian, Inc. or will provide
 assistance to any competitor of Gaussian, Inc.  The licensee
 of this program is prohibited from giving any competitor of
 Gaussian, Inc. access to this program.  By using this program,
 the user acknowledges that Gaussian, Inc. is engaged in the
 business of creating and licensing software in the field of
 computational chemistry and represents and warrants to the
 licensee that it is not a competitor of Gaussian, Inc. and that
 it will not use this program in any manner prohibited above.
 ---------------------------------------------------------------
  

 Cite this work as:
 Gaussian 16, Revision A.03,
 M. J. Frisch, G. W. Trucks, H. B. Schlegel, G. E. Scuseria, 
 M. A. Robb, J. R. Cheeseman, G. Scalmani, V. Barone, 
 G. A. Petersson, H. Nakatsuji, X. Li, M. Caricato, A. V. Marenich, 
 J. Bloino, B. G. Janesko, R. Gomperts, B. Mennucci, H. P. Hratchian, 
 J. V. Ortiz, A. F. Izmaylov, J. L. Sonnenberg, D. Williams-Young, 
 F. Ding, F. Lipparini, F. Egidi, J. Goings, B. Peng, A. Petrone, 
 T. Henderson, D. Ranasinghe, V. G. Zakrzewski, J. Gao, N. Rega, 
 G. Zheng, W. Liang, M. Hada, M. Ehara, K. Toyota, R. Fukuda, 
 J. Hasegawa, M. Ishida, T. Nakajima, Y. Honda, O. Kitao, H. Nakai, 
 T. Vreven, K. Throssell, J. A. Montgomery, Jr., J. E. Peralta, 
 F. Ogliaro, M. J. Bearpark, J. J. Heyd, E. N. Brothers, K. N. Kudin, 
 V. N. Staroverov, T. A. Keith, R. Kobayashi, J. Normand, 
 K. Raghavachari, A. P. Rendell, J. C. Burant, S. S. Iyengar, 
 J. Tomasi, M. Cossi, J. M. Millam, M. Klene, C. Adamo, R. Cammi, 
 J. W. Ochterski, R. L. Martin, K. Morokuma, O. Farkas, 
 J. B. Foresman, and D. J. Fox, Gaussian, Inc., Wallingford CT, 2016.
 
 ******************************************
 Gaussian 16:  ES64L-G16RevA.03 25-Dec-2016
                 3-Aug-2022 
 ******************************************
 %chk=CC12CCpO1pC2CdO.chk
 %NProcShared=20
 Will use up to   20 processors via shared memory.
 -----------------------------
 # opt freq b3lyp/6-31g(2df,p)
 -----------------------------
 1/18=20,19=15,26=3,38=1/1,3;
 2/9=110,12=2,17=6,18=5,40=1/2;
 3/5=1,6=6,7=104,11=2,25=1,30=1,71=1,74=-5/1,2,3;
 4//1;
 5/5=2,38=5/2;
 6/7=2,8=2,9=2,10=2,28=1/1;
 7//1,2,3,16;
 1/18=20,19=15,26=3/3(2);
 2/9=110/2;
 99//99;
 2/9=110/2;
 3/5=1,6=6,7=104,11=2,25=1,30=1,71=1,74=-5/1,2,3;
 4/5=5,16=3,69=1/1;
 5/5=2,38=5/2;
 7//1,2,3,16;
 1/18=20,19=15,26=3/3(-5);
 2/9=110/2;
 6/7=2,8=2,9=2,10=2,19=2,28=1/1;
 99/9=1/99;
 -------------------
 Title Card Required
 -------------------
 Symbolic Z-matrix:
 Charge =  0 Multiplicity = 1
 C                     0.76477  -0.04369   0.10151 
 C                     2.24383   0.09138   0.15527 
 C                     3.04872   1.11913   1.01683 
 C                     3.98623  -0.07697   0.68745 
 O                     2.8406   -0.97021   1.13564 
 C                     3.35169  -0.47785  -0.86796 
 C                     4.53176  -0.06704  -1.73546 
 O                     4.54223   0.03387  -2.97024 
 H                     0.34453  -0.06615   1.11135 
 H                     0.47679  -0.96652  -0.41076 
 H                     0.34067   0.80522  -0.43716 
 H                     2.67812   1.25079   2.03589 
 H                     3.31596   2.06175   0.54205 
 H                     4.93012  -0.31013   1.16742 
 H                     2.6022   -0.14749  -1.62777 
 H                     5.48099   0.07895  -1.20263 
 

 GradGradGradGradGradGradGradGradGradGradGradGradGradGradGradGradGradGrad
 Berny optimization.
 Initialization pass.
                           ----------------------------
                           !    Initial Parameters    !
                           ! (Angstroms and Degrees)  !
 --------------------------                            --------------------------
 ! Name  Definition              Value          Derivative Info.                !
 --------------------------------------------------------------------------------
 ! R1    R(1,2)                  1.4862         estimate D2E/DX2                !
 ! R2    R(1,9)                  1.094          estimate D2E/DX2                !
 ! R3    R(1,10)                 1.0941         estimate D2E/DX2                !
 ! R4    R(1,11)                 1.0912         estimate D2E/DX2                !
 ! R5    R(2,3)                  1.5641         estimate D2E/DX2                !
 ! R6    R(2,4)                  1.8296         estimate D2E/DX2                !
 ! R7    R(2,5)                  1.5634         estimate D2E/DX2                !
 ! R8    R(2,6)                  1.6119         estimate D2E/DX2                !
 ! R9    R(3,4)                  1.555          estimate D2E/DX2                !
 ! R10   R(3,12)                 1.0923         estimate D2E/DX2                !
 ! R11   R(3,13)                 1.0887         estimate D2E/DX2                !
 ! R12   R(4,5)                  1.5203         estimate D2E/DX2                !
 ! R13   R(4,6)                  1.727          estimate D2E/DX2                !
 ! R14   R(4,14)                 1.0843         estimate D2E/DX2                !
 ! R15   R(6,7)                  1.5211         estimate D2E/DX2                !
 ! R16   R(6,15)                 1.1172         estimate D2E/DX2                !
 ! R17   R(7,8)                  1.2389         estimate D2E/DX2                !
 ! R18   R(7,16)                 1.0983         estimate D2E/DX2                !
 ! A1    A(2,1,9)              110.5337         estimate D2E/DX2                !
 ! A2    A(2,1,10)             110.8275         estimate D2E/DX2                !
 ! A3    A(2,1,11)             109.5087         estimate D2E/DX2                !
 ! A4    A(9,1,10)             108.2868         estimate D2E/DX2                !
 ! A5    A(9,1,11)             108.8051         estimate D2E/DX2                !
 ! A6    A(10,1,11)            108.8302         estimate D2E/DX2                !
 ! A7    A(1,2,3)              126.2834         estimate D2E/DX2                !
 ! A8    A(1,2,4)              161.7905         estimate D2E/DX2                !
 ! A9    A(1,2,5)              109.9288         estimate D2E/DX2                !
 ! A10   A(1,2,6)              128.9711         estimate D2E/DX2                !
 ! A11   A(3,2,5)               84.5104         estimate D2E/DX2                !
 ! A12   A(3,2,6)              103.1805         estimate D2E/DX2                !
 ! A13   A(5,2,6)               84.0261         estimate D2E/DX2                !
 ! A14   A(2,3,12)             114.7398         estimate D2E/DX2                !
 ! A15   A(2,3,13)             117.0651         estimate D2E/DX2                !
 ! A16   A(4,3,12)             119.6614         estimate D2E/DX2                !
 ! A17   A(4,3,13)             115.1886         estimate D2E/DX2                !
 ! A18   A(12,3,13)            112.6907         estimate D2E/DX2                !
 ! A19   A(3,4,5)               86.2829         estimate D2E/DX2                !
 ! A20   A(3,4,6)               98.4994         estimate D2E/DX2                !
 ! A21   A(3,4,14)             126.6177         estimate D2E/DX2                !
 ! A22   A(5,4,6)               81.5038         estimate D2E/DX2                !
 ! A23   A(5,4,14)             113.5252         estimate D2E/DX2                !
 ! A24   A(6,4,14)             131.9593         estimate D2E/DX2                !
 ! A25   A(2,6,7)              143.1127         estimate D2E/DX2                !
 ! A26   A(2,6,15)              82.3121         estimate D2E/DX2                !
 ! A27   A(4,6,7)               99.5495         estimate D2E/DX2                !
 ! A28   A(4,6,15)             142.2182         estimate D2E/DX2                !
 ! A29   A(7,6,15)              93.0222         estimate D2E/DX2                !
 ! A30   A(6,7,8)              126.6504         estimate D2E/DX2                !
 ! A31   A(6,7,16)             115.4491         estimate D2E/DX2                !
 ! A32   A(8,7,16)             117.735          estimate D2E/DX2                !
 ! A33   L(2,4,14,7,-1)        189.6765         estimate D2E/DX2                !
 ! A34   L(2,4,14,7,-2)        187.4673         estimate D2E/DX2                !
 ! D1    D(9,1,2,3)            -48.0262         estimate D2E/DX2                !
 ! D2    D(9,1,2,4)             35.6633         estimate D2E/DX2                !
 ! D3    D(9,1,2,5)             50.0176         estimate D2E/DX2                !
 ! D4    D(9,1,2,6)            148.6969         estimate D2E/DX2                !
 ! D5    D(10,1,2,3)          -168.0906         estimate D2E/DX2                !
 ! D6    D(10,1,2,4)           -84.401          estimate D2E/DX2                !
 ! D7    D(10,1,2,5)           -70.0467         estimate D2E/DX2                !
 ! D8    D(10,1,2,6)            28.6326         estimate D2E/DX2                !
 ! D9    D(11,1,2,3)            71.834          estimate D2E/DX2                !
 ! D10   D(11,1,2,4)           155.5235         estimate D2E/DX2                !
 ! D11   D(11,1,2,5)           169.8778         estimate D2E/DX2                !
 ! D12   D(11,1,2,6)           -91.4429         estimate D2E/DX2                !
 ! D13   D(1,2,3,12)            42.403          estimate D2E/DX2                !
 ! D14   D(1,2,3,13)           -93.029          estimate D2E/DX2                !
 ! D15   D(5,2,3,12)           -68.3436         estimate D2E/DX2                !
 ! D16   D(5,2,3,13)           156.2245         estimate D2E/DX2                !
 ! D17   D(6,2,3,12)          -150.8804         estimate D2E/DX2                !
 ! D18   D(6,2,3,13)            73.6877         estimate D2E/DX2                !
 ! D19   D(1,2,6,7)            125.7944         estimate D2E/DX2                !
 ! D20   D(1,2,6,15)            41.0295         estimate D2E/DX2                !
 ! D21   D(3,2,6,7)            -40.4235         estimate D2E/DX2                !
 ! D22   D(3,2,6,15)          -125.1885         estimate D2E/DX2                !
 ! D23   D(5,2,6,7)           -123.3411         estimate D2E/DX2                !
 ! D24   D(5,2,6,15)           151.8939         estimate D2E/DX2                !
 ! D25   D(12,3,4,5)            60.4388         estimate D2E/DX2                !
 ! D26   D(12,3,4,6)           141.2662         estimate D2E/DX2                !
 ! D27   D(12,3,4,14)          -56.3096         estimate D2E/DX2                !
 ! D28   D(13,3,4,5)          -160.2362         estimate D2E/DX2                !
 ! D29   D(13,3,4,6)           -79.4088         estimate D2E/DX2                !
 ! D30   D(13,3,4,14)           83.0154         estimate D2E/DX2                !
 ! D31   D(3,4,6,7)            111.4246         estimate D2E/DX2                !
 ! D32   D(3,4,6,15)             3.7091         estimate D2E/DX2                !
 ! D33   D(5,4,6,7)           -163.6586         estimate D2E/DX2                !
 ! D34   D(5,4,6,15)            88.626          estimate D2E/DX2                !
 ! D35   D(14,4,6,7)           -49.5534         estimate D2E/DX2                !
 ! D36   D(14,4,6,15)         -157.2688         estimate D2E/DX2                !
 ! D37   D(2,6,7,8)           -105.9404         estimate D2E/DX2                !
 ! D38   D(2,6,7,16)            78.8741         estimate D2E/DX2                !
 ! D39   D(4,6,7,8)           -168.9697         estimate D2E/DX2                !
 ! D40   D(4,6,7,16)            15.8449         estimate D2E/DX2                !
 ! D41   D(15,6,7,8)           -24.7315         estimate D2E/DX2                !
 ! D42   D(15,6,7,16)          160.083          estimate D2E/DX2                !
 --------------------------------------------------------------------------------
 Trust Radius=3.00D-01 FncErr=1.00D-07 GrdErr=1.00D-06 EigMax=2.50D+02 EigMin=1.00D-04
 Number of steps in this run=    100 maximum allowed number of steps=    100.
 GradGradGradGradGradGradGradGradGradGradGradGradGradGradGradGradGradGrad

                          Input orientation:                          
 ---------------------------------------------------------------------
 Center     Atomic      Atomic             Coordinates (Angstroms)
 Number     Number       Type             X           Y           Z
 ---------------------------------------------------------------------
      1          6           0        0.764770   -0.043690    0.101510
      2          6           0        2.243830    0.091380    0.155270
      3          6           0        3.048720    1.119130    1.016830
      4          6           0        3.986230   -0.076970    0.687450
      5          8           0        2.840600   -0.970210    1.135640
      6          6           0        3.351690   -0.477850   -0.867960
      7          6           0        4.531760   -0.067040   -1.735460
      8          8           0        4.542230    0.033870   -2.970240
      9          1           0        0.344530   -0.066150    1.111350
     10          1           0        0.476790   -0.966520   -0.410760
     11          1           0        0.340670    0.805220   -0.437160
     12          1           0        2.678120    1.250790    2.035890
     13          1           0        3.315960    2.061750    0.542050
     14          1           0        4.930120   -0.310130    1.167420
     15          1           0        2.602200   -0.147490   -1.627770
     16          1           0        5.480990    0.078950   -1.202630
 ---------------------------------------------------------------------
                    Distance matrix (angstroms):
                    1          2          3          4          5
     1  C    0.000000
     2  C    1.486187   0.000000
     3  C    2.721468   1.564098   0.000000
     4  C    3.274483   1.829622   1.555015   0.000000
     5  O    2.497386   1.563404   2.103039   1.520270   0.000000
     6  C    2.796520   1.611948   2.488889   1.727034   2.125569
     7  C    4.191088   2.972302   3.343876   2.483585   3.452384
     8  O    4.869381   3.880047   4.393756   3.701367   4.556531
     9  H    1.094021   2.132193   2.954059   3.666304   2.654860
    10  H    1.094060   2.135878   3.605936   3.783323   2.824706
    11  H    1.091180   2.117205   3.089686   3.915752   3.446085
    12  H    3.013040   2.251571   1.092320   2.300519   2.402018
    13  H    3.336993   2.276273   1.088745   2.246002   3.125876
    14  H    4.307818   2.898588   2.367515   1.084280   2.191531
    15  H    2.525338   1.834317   2.966077   2.698288   2.893119
    16  H    4.894747   3.510449   3.453102   2.414751   3.679661
                    6          7          8          9         10
     6  C    0.000000
     7  C    1.521146   0.000000
     8  O    2.469580   1.238941   0.000000
     9  H    3.623559   5.063321   5.855772   0.000000
    10  H    2.951759   4.359665   4.907089   1.773408   0.000000
    11  H    3.301227   4.473439   4.966345   1.776847   1.777157
    12  H    3.445902   4.404059   5.478790   2.834563   3.968427
    13  H    2.904991   3.346187   4.237006   3.698845   4.259008
    14  H    2.581151   2.940152   4.170015   4.592418   4.770078
    15  H    1.117222   1.934237   2.366185   3.550559   2.582497
    16  H    2.226196   1.098298   2.001936   5.635493   5.173208
                   11         12         13         14         15
    11  H    0.000000
    12  H    3.431936   0.000000
    13  H    3.374918   1.815504   0.000000
    14  H    4.988159   2.874407   2.936395   0.000000
    15  H    2.727586   3.922162   3.177784   3.641257   0.000000
    16  H    5.247504   4.440417   3.415078   2.464138   2.918810
                   16
    16  H    0.000000
 Stoichiometry    C6H8O2
 Framework group  C1[X(C6H8O2)]
 Deg. of freedom    42
 Full point group                 C1      NOp   1
 Largest Abelian subgroup         C1      NOp   1
 Largest concise Abelian subgroup C1      NOp   1
                         Standard orientation:                         
 ---------------------------------------------------------------------
 Center     Atomic      Atomic             Coordinates (Angstroms)
 Number     Number       Type             X           Y           Z
 ---------------------------------------------------------------------
      1          6           0       -1.827253    1.524698    0.068737
      2          6           0       -0.905455    0.360582    0.130985
      3          6           0       -1.048008   -0.883894    1.067661
      4          6           0       -0.170391   -1.291209   -0.149695
      5          8           0       -1.244737   -0.649571   -1.013003
      6          6           0        0.600496    0.228854   -0.428600
      7          6           0        2.021860   -0.130915   -0.023412
      8          8           0        2.963303    0.655796    0.149059
      9          1           0       -2.866464    1.188401    0.006869
     10          1           0       -1.613882    2.143396   -0.807992
     11          1           0       -1.707253    2.132952    0.966680
     12          1           0       -2.063982   -1.275105    1.156613
     13          1           0       -0.526950   -0.847202    2.022919
     14          1           0        0.084479   -2.300058   -0.454535
     15          1           0        0.683166    1.265206   -0.019547
     16          1           0        2.234872   -1.206089    0.046483
 ---------------------------------------------------------------------
 Rotational constants (GHZ):           3.7540803           1.4587195           1.2618762
 Standard basis: 6-31G(2df,p) (6D, 7F)
 There are   288 symmetry adapted cartesian basis functions of A   symmetry.
 There are   264 symmetry adapted basis functions of A   symmetry.
   264 basis functions,   408 primitive gaussians,   288 cartesian basis functions
    30 alpha electrons       30 beta electrons
       nuclear repulsion energy       364.6463621274 Hartrees.
 NAtoms=   16 NActive=   16 NUniq=   16 SFac= 1.00D+00 NAtFMM=   60 NAOKFM=F Big=F
 Integral buffers will be    131072 words long.
 Raffenetti 2 integral format.
 Two-electron integral symmetry is turned on.
 One-electron integrals computed using PRISM.
 PrsmSu:  requested number of processors reduced to:  13 ShMem   1 Linda.
 NBasis=   264 RedAO= T EigKep=  5.92D-04  NBF=   264
 NBsUse=   264 1.00D-06 EigRej= -1.00D+00 NBFU=   264
 ExpMin= 1.61D-01 ExpMax= 5.48D+03 ExpMxC= 8.25D+02 IAcc=3 IRadAn=         5 AccDes= 0.00D+00
 Harris functional with IExCor=  402 and IRadAn=       5 diagonalized for initial guess.
 HarFok:  IExCor=  402 AccDes= 0.00D+00 IRadAn=         5 IDoV= 1 UseB2=F ITyADJ=14
 ICtDFT=  3500011 ScaDFX=  1.000000  1.000000  1.000000  1.000000
 FoFCou: FMM=F IPFlag=           0 FMFlag=      100000 FMFlg1=           0
         NFxFlg=           0 DoJE=T BraDBF=F KetDBF=T FulRan=T
         wScrn=  0.000000 ICntrl=       500 IOpCl=  0 I1Cent=   200000004 NGrid=           0
         NMat0=    1 NMatS0=      1 NMatT0=    0 NMatD0=    1 NMtDS0=    0 NMtDT0=    0
 Petite list used in FoFCou.
 Requested convergence on RMS density matrix=1.00D-08 within 128 cycles.
 Requested convergence on MAX density matrix=1.00D-06.
 Requested convergence on             energy=1.00D-06.
 No special actions if energy rises.
 Integral accuracy reduced to 1.0D-05 until final iterations.
 EnCoef did     2 forward-backward iterations
 EnCoef did     3 forward-backward iterations
 Initial convergence to 1.0D-05 achieved.  Increase integral accuracy.
 SCF Done:  E(RB3LYP) =  -383.587806028     A.U. after   20 cycles
            NFock= 20  Conv=0.60D-08     -V/T= 2.0078

 **********************************************************************

            Population analysis using the SCF density.

 **********************************************************************

 Orbital symmetries:
       Occupied  (A) (A) (A) (A) (A) (A) (A) (A) (A) (A) (A) (A)
                 (A) (A) (A) (A) (A) (A) (A) (A) (A) (A) (A) (A)
                 (A) (A) (A) (A) (A) (A)
       Virtual   (A) (A) (A) (A) (A) (A) (A) (A) (A) (A) (A) (A)
                 (A) (A) (A) (A) (A) (A) (A) (A) (A) (A) (A) (A)
                 (A) (A) (A) (A) (A) (A) (A) (A) (A) (A) (A) (A)
                 (A) (A) (A) (A) (A) (A) (A) (A) (A) (A) (A) (A)
                 (A) (A) (A) (A) (A) (A) (A) (A) (A) (A) (A) (A)
                 (A) (A) (A) (A) (A) (A) (A) (A) (A) (A) (A) (A)
                 (A) (A) (A) (A) (A) (A) (A) (A) (A) (A) (A) (A)
                 (A) (A) (A) (A) (A) (A) (A) (A) (A) (A) (A) (A)
                 (A) (A) (A) (A) (A) (A) (A) (A) (A) (A) (A) (A)
                 (A) (A) (A) (A) (A) (A) (A) (A) (A) (A) (A) (A)
                 (A) (A) (A) (A) (A) (A) (A) (A) (A) (A) (A) (A)
                 (A) (A) (A) (A) (A) (A) (A) (A) (A) (A) (A) (A)
                 (A) (A) (A) (A) (A) (A) (A) (A) (A) (A) (A) (A)
                 (A) (A) (A) (A) (A) (A) (A) (A) (A) (A) (A) (A)
                 (A) (A) (A) (A) (A) (A) (A) (A) (A) (A) (A) (A)
                 (A) (A) (A) (A) (A) (A) (A) (A) (A) (A) (A) (A)
                 (A) (A) (A) (A) (A) (A) (A) (A) (A) (A) (A) (A)
                 (A) (A) (A) (A) (A) (A) (A) (A) (A) (A) (A) (A)
                 (A) (A) (A) (A) (A) (A) (A) (A) (A) (A) (A) (A)
                 (A) (A) (A) (A) (A) (A)
 The electronic state is 1-A.
 Alpha  occ. eigenvalues --  -19.13852 -19.10458 -10.32111 -10.31264 -10.26376
 Alpha  occ. eigenvalues --  -10.22728 -10.21291 -10.19509  -1.04860  -1.00055
 Alpha  occ. eigenvalues --   -0.80766  -0.77176  -0.73102  -0.65253  -0.60185
 Alpha  occ. eigenvalues --   -0.55010  -0.51470  -0.48545  -0.46252  -0.45096
 Alpha  occ. eigenvalues --   -0.43979  -0.40991  -0.40409  -0.37542  -0.35991
 Alpha  occ. eigenvalues --   -0.34905  -0.32929  -0.25591  -0.24330  -0.19104
 Alpha virt. eigenvalues --   -0.11000   0.00321   0.05695   0.07106   0.08635
 Alpha virt. eigenvalues --    0.09989   0.11772   0.12962   0.13866   0.15115
 Alpha virt. eigenvalues --    0.15817   0.16608   0.19633   0.21438   0.22949
 Alpha virt. eigenvalues --    0.23885   0.28598   0.36042   0.40431   0.42372
 Alpha virt. eigenvalues --    0.44153   0.44746   0.45938   0.46587   0.50938
 Alpha virt. eigenvalues --    0.51954   0.53198   0.54710   0.55990   0.58756
 Alpha virt. eigenvalues --    0.60284   0.61541   0.63260   0.64249   0.67491
 Alpha virt. eigenvalues --    0.69569   0.70146   0.70878   0.72543   0.74576
 Alpha virt. eigenvalues --    0.75092   0.76496   0.78006   0.79103   0.80509
 Alpha virt. eigenvalues --    0.83082   0.84509   0.85562   0.87908   0.91684
 Alpha virt. eigenvalues --    0.92583   0.95529   0.97239   1.00784   1.01359
 Alpha virt. eigenvalues --    1.02642   1.04816   1.07828   1.10377   1.13508
 Alpha virt. eigenvalues --    1.14778   1.17112   1.20925   1.23314   1.24562
 Alpha virt. eigenvalues --    1.27378   1.28379   1.31548   1.34420   1.34735
 Alpha virt. eigenvalues --    1.37778   1.42250   1.42677   1.44638   1.46986
 Alpha virt. eigenvalues --    1.49007   1.49966   1.53221   1.54406   1.54755
 Alpha virt. eigenvalues --    1.58238   1.59922   1.61827   1.63746   1.66630
 Alpha virt. eigenvalues --    1.69056   1.71315   1.76731   1.78764   1.83753
 Alpha virt. eigenvalues --    1.85055   1.85926   1.90767   1.93121   1.94681
 Alpha virt. eigenvalues --    1.97185   2.00149   2.13517   2.18728   2.23340
 Alpha virt. eigenvalues --    2.25912   2.27562   2.31261   2.32545   2.36991
 Alpha virt. eigenvalues --    2.37584   2.44886   2.45871   2.49301   2.52143
 Alpha virt. eigenvalues --    2.55827   2.67433   2.69776   2.72419   2.74132
 Alpha virt. eigenvalues --    2.76454   2.78329   2.80321   2.85018   2.86874
 Alpha virt. eigenvalues --    2.88570   2.89738   2.91735   2.93560   2.94413
 Alpha virt. eigenvalues --    2.97867   3.01061   3.04007   3.07187   3.08934
 Alpha virt. eigenvalues --    3.09531   3.11157   3.14751   3.15554   3.17885
 Alpha virt. eigenvalues --    3.19984   3.26511   3.28334   3.30612   3.33397
 Alpha virt. eigenvalues --    3.38752   3.40950   3.43248   3.46646   3.50689
 Alpha virt. eigenvalues --    3.51771   3.57832   3.61736   3.64168   3.69487
 Alpha virt. eigenvalues --    3.72658   3.73621   3.75667   3.79657   3.85291
 Alpha virt. eigenvalues --    3.86485   3.88343   3.93582   4.00712   4.07692
 Alpha virt. eigenvalues --    4.08990   4.11979   4.16087   4.18283   4.20682
 Alpha virt. eigenvalues --    4.23062   4.26107   4.29985   4.30315   4.32850
 Alpha virt. eigenvalues --    4.33751   4.36233   4.39272   4.40400   4.43052
 Alpha virt. eigenvalues --    4.45320   4.47187   4.51071   4.54137   4.55716
 Alpha virt. eigenvalues --    4.57211   4.59066   4.60106   4.61894   4.64592
 Alpha virt. eigenvalues --    4.68488   4.69644   4.71731   4.73778   4.75881
 Alpha virt. eigenvalues --    4.79580   4.81483   4.83739   4.84804   4.89574
 Alpha virt. eigenvalues --    4.91047   4.94994   4.97491   5.04036   5.05847
 Alpha virt. eigenvalues --    5.10366   5.11818   5.14587   5.16646   5.22977
 Alpha virt. eigenvalues --    5.27216   5.29621   5.38590   5.39713   5.45195
 Alpha virt. eigenvalues --    5.49391   5.53020   5.55662   5.61319   5.67840
 Alpha virt. eigenvalues --    5.70334   5.82486   5.83799   5.91972   5.98904
 Alpha virt. eigenvalues --    6.04103   6.23975   6.29773   6.44544   6.76607
 Alpha virt. eigenvalues --    7.08410  10.53452  11.10794  11.47862  11.62485
 Alpha virt. eigenvalues --   12.01791  12.42465  12.97429  13.52254
          Condensed to atoms (all electrons):
               1          2          3          4          5          6
     1  C    5.135965   0.393957  -0.053323   0.011009  -0.039203  -0.035489
     2  C    0.393957   4.638618   0.339053  -0.028904   0.198642   0.186434
     3  C   -0.053323   0.339053   5.124411   0.343520  -0.097437  -0.065410
     4  C    0.011009  -0.028904   0.343520   4.895281   0.185039   0.308638
     5  O   -0.039203   0.198642  -0.097437   0.185039   8.175668  -0.102906
     6  C   -0.035489   0.186434  -0.065410   0.308638  -0.102906   5.749353
     7  C    0.001346   0.004527  -0.006248  -0.014295   0.002510   0.190970
     8  O    0.000014   0.001560  -0.000059   0.000166  -0.000039  -0.072422
     9  H    0.366390  -0.010151  -0.003150   0.000155  -0.000422   0.002654
    10  H    0.359440  -0.015066   0.005257   0.000091  -0.000849   0.000229
    11  H    0.356121  -0.019699  -0.000597  -0.000723   0.002637   0.000028
    12  H   -0.002648  -0.013995   0.346560  -0.011651   0.002345   0.006912
    13  H    0.000818  -0.014327   0.325048  -0.021617   0.007999   0.001255
    14  H   -0.000810   0.010172  -0.045018   0.354125  -0.015117  -0.022009
    15  H   -0.014715   0.018591   0.006239  -0.027937   0.002190   0.268844
    16  H   -0.000082   0.006997   0.000659  -0.016841  -0.000213  -0.119111
               7          8          9         10         11         12
     1  C    0.001346   0.000014   0.366390   0.359440   0.356121  -0.002648
     2  C    0.004527   0.001560  -0.010151  -0.015066  -0.019699  -0.013995
     3  C   -0.006248  -0.000059  -0.003150   0.005257  -0.000597   0.346560
     4  C   -0.014295   0.000166   0.000155   0.000091  -0.000723  -0.011651
     5  O    0.002510  -0.000039  -0.000422  -0.000849   0.002637   0.002345
     6  C    0.190970  -0.072422   0.002654   0.000229   0.000028   0.006912
     7  C    4.640071   0.724025  -0.000035  -0.000047  -0.000032   0.000148
     8  O    0.724025   7.726657   0.000000  -0.000004  -0.000000   0.000000
     9  H   -0.000035   0.000000   0.534070  -0.026525  -0.027444   0.002392
    10  H   -0.000047  -0.000004  -0.026525   0.544079  -0.026621  -0.000162
    11  H   -0.000032  -0.000000  -0.027444  -0.026621   0.578348  -0.000030
    12  H    0.000148   0.000000   0.002392  -0.000162  -0.000030   0.569994
    13  H    0.000237   0.000009   0.000098  -0.000116   0.000293  -0.037610
    14  H   -0.002589   0.000015   0.000004   0.000026   0.000015  -0.000106
    15  H    0.002954   0.001578   0.000190   0.001395   0.001349  -0.000383
    16  H    0.371935  -0.054455   0.000003   0.000001   0.000001  -0.000037
              13         14         15         16
     1  C    0.000818  -0.000810  -0.014715  -0.000082
     2  C   -0.014327   0.010172   0.018591   0.006997
     3  C    0.325048  -0.045018   0.006239   0.000659
     4  C   -0.021617   0.354125  -0.027937  -0.016841
     5  O    0.007999  -0.015117   0.002190  -0.000213
     6  C    0.001255  -0.022009   0.268844  -0.119111
     7  C    0.000237  -0.002589   0.002954   0.371935
     8  O    0.000009   0.000015   0.001578  -0.054455
     9  H    0.000098   0.000004   0.000190   0.000003
    10  H   -0.000116   0.000026   0.001395   0.000001
    11  H    0.000293   0.000015   0.001349   0.000001
    12  H   -0.037610  -0.000106  -0.000383  -0.000037
    13  H    0.629440   0.001568  -0.000178  -0.000060
    14  H    0.001568   0.550157   0.000713   0.006123
    15  H   -0.000178   0.000713   0.448354   0.006115
    16  H   -0.000060   0.006123   0.006115   0.716715
 Mulliken charges:
               1
     1  C   -0.478790
     2  C    0.303589
     3  C   -0.219506
     4  C    0.023944
     5  O   -0.320842
     6  C   -0.297970
     7  C    0.084525
     8  O   -0.327044
     9  H    0.161774
    10  H    0.158872
    11  H    0.136352
    12  H    0.138270
    13  H    0.107142
    14  H    0.162733
    15  H    0.284700
    16  H    0.082251
 Sum of Mulliken charges =  -0.00000
 Mulliken charges with hydrogens summed into heavy atoms:
               1
     1  C   -0.021792
     2  C    0.303589
     3  C    0.025907
     4  C    0.186677
     5  O   -0.320842
     6  C   -0.013269
     7  C    0.166776
     8  O   -0.327044
 Electronic spatial extent (au):  <R**2>=            991.1191
 Charge=             -0.0000 electrons
 Dipole moment (field-independent basis, Debye):
    X=             -3.9891    Y=             -1.0647    Z=              2.3865  Tot=              4.7688
 Quadrupole moment (field-independent basis, Debye-Ang):
   XX=            -58.2729   YY=            -40.6874   ZZ=            -50.0632
   XY=             -6.7577   XZ=             -3.0459   YZ=             -0.5148
 Traceless Quadrupole moment (field-independent basis, Debye-Ang):
   XX=             -8.5984   YY=              8.9871   ZZ=             -0.3887
   XY=             -6.7577   XZ=             -3.0459   YZ=             -0.5148
 Octapole moment (field-independent basis, Debye-Ang**2):
  XXX=            -46.5426  YYY=             -5.1213  ZZZ=              3.6239  XYY=             -2.3863
  XXY=             -9.1744  XXZ=              0.8093  XZZ=              1.8656  YZZ=              0.7923
  YYZ=             -2.1874  XYZ=              2.4733
 Hexadecapole moment (field-independent basis, Debye-Ang**3):
 XXXX=           -893.9349 YYYY=           -284.3459 ZZZZ=           -156.5489 XXXY=            -37.6430
 XXXZ=             -9.2195 YYYX=              4.0947 YYYZ=              8.5876 ZZZX=              5.6393
 ZZZY=              2.0553 XXYY=           -184.0554 XXZZ=           -157.7412 YYZZ=            -74.8649
 XXYZ=             -6.5066 YYXZ=              1.0686 ZZXY=              0.2404
 N-N= 3.646463621274D+02 E-N=-1.624120868713D+03  KE= 3.806322107873D+02
 PrsmSu:  requested number of processors reduced to:  13 ShMem   1 Linda.
 Calling FoFJK, ICntrl=      2127 FMM=F ISym2X=0 I1Cent= 0 IOpClX= 0 NMat=1 NMatS=1 NMatT=0.
 ***** Axes restored to original set *****
 -------------------------------------------------------------------
 Center     Atomic                   Forces (Hartrees/Bohr)
 Number     Number              X              Y              Z
 -------------------------------------------------------------------
      1        6          -0.005973670    0.001640729   -0.022435492
      2        6           0.014707871   -0.014787413    0.080749211
      3        6           0.012459276    0.000447923   -0.046692980
      4        6          -0.089091929   -0.036371465    0.018888547
      5        8          -0.003512945    0.015706610    0.011893404
      6        6           0.056646619    0.043668797   -0.015139531
      7        6          -0.008617085    0.030719504   -0.041838531
      8        8          -0.004142036   -0.009371235    0.032526584
      9        1           0.006083250    0.001127015    0.000670697
     10        1           0.000072711    0.000225489    0.000260326
     11        1          -0.004669302    0.001452757   -0.001497427
     12        1           0.006551429   -0.006467622    0.000440148
     13        1          -0.001802056    0.005400875   -0.001679619
     14        1           0.014715622   -0.004465001   -0.021129324
     15        1           0.004098769   -0.021316359    0.000310172
     16        1           0.002473476   -0.007610603    0.004673817
 -------------------------------------------------------------------
 Cartesian Forces:  Max     0.089091929 RMS     0.025228953

 GradGradGradGradGradGradGradGradGradGradGradGradGradGradGradGradGradGrad
 Berny optimization.
 FormGI is forming the generalized inverse of G from B-inverse, IUseBI=4.
 Internal  Forces:  Max     0.033215912 RMS     0.009456465
 Search for a local minimum.
 Step number   1 out of a maximum of  100
 All quantities printed in internal units (Hartrees-Bohrs-Radians)
 Mixed Optimization -- RFO/linear search
 Second derivative matrix not updated -- first step.
 ITU=  0
     Eigenvalues ---    0.00486   0.00505   0.00791   0.00949   0.01974
     Eigenvalues ---    0.02306   0.02444   0.02772   0.02876   0.03133
     Eigenvalues ---    0.04648   0.05071   0.05166   0.06706   0.07598
     Eigenvalues ---    0.09236   0.09388   0.10399   0.14647   0.15952
     Eigenvalues ---    0.16000   0.16000   0.16000   0.16000   0.18002
     Eigenvalues ---    0.21120   0.22010   0.22030   0.24741   0.25793
     Eigenvalues ---    0.26787   0.30251   0.31847   0.33871   0.33871
     Eigenvalues ---    0.34348   0.34352   0.34546   0.34677   0.34958
     Eigenvalues ---    0.35482   0.87460
 RFO step:  Lambda=-5.27391242D-02 EMin= 4.86221452D-03
 Linear search not attempted -- first point.
 Maximum step size (   0.300) exceeded in Quadratic search.
    -- Step size scaled by   0.820
 Iteration  1 RMS(Cart)=  0.06908257 RMS(Int)=  0.00461074
 Iteration  2 RMS(Cart)=  0.00419853 RMS(Int)=  0.00275864
 Iteration  3 RMS(Cart)=  0.00001412 RMS(Int)=  0.00275862
 Iteration  4 RMS(Cart)=  0.00000004 RMS(Int)=  0.00275862
 Variable       Old X    -DE/DX   Delta X   Delta X   Delta X     New X
                                 (Linear)    (Quad)   (Total)
    R1        2.80849   0.00489   0.00000   0.01025   0.01025   2.81874
    R2        2.06740  -0.00174   0.00000  -0.00360  -0.00360   2.06380
    R3        2.06747  -0.00033   0.00000  -0.00069  -0.00069   2.06679
    R4        2.06203   0.00368   0.00000   0.00756   0.00756   2.06960
    R5        2.95572  -0.01711   0.00000  -0.03786  -0.03926   2.91645
    R6        3.45748  -0.01619   0.00000  -0.08162  -0.08350   3.37398
    R7        2.95441  -0.00440   0.00000  -0.01571  -0.01517   2.93924
    R8        3.04614   0.02203   0.00000   0.06553   0.06403   3.11017
    R9        2.93855  -0.01725   0.00000  -0.03387  -0.03282   2.90573
   R10        2.06418  -0.00259   0.00000  -0.00534  -0.00534   2.05885
   R11        2.05743   0.00497   0.00000   0.01012   0.01012   2.06755
   R12        2.87289  -0.00764   0.00000  -0.02521  -0.02242   2.85048
   R13        3.26362  -0.02190   0.00000  -0.07976  -0.07899   3.18464
   R14        2.04899   0.00442   0.00000   0.00889   0.00889   2.05788
   R15        2.87455  -0.00151   0.00000  -0.00370  -0.00369   2.87086
   R16        2.11124  -0.00926   0.00000  -0.02047  -0.02047   2.09078
   R17        2.34126  -0.03322   0.00000  -0.02937  -0.02937   2.31189
   R18        2.07548   0.00339   0.00000   0.00711   0.00711   2.08259
    A1        1.92918  -0.00982   0.00000  -0.04031  -0.04022   1.88895
    A2        1.93430   0.00072   0.00000   0.00329   0.00310   1.93740
    A3        1.91129   0.00669   0.00000   0.02775   0.02779   1.93908
    A4        1.88996   0.00360   0.00000   0.01018   0.01002   1.89998
    A5        1.89901   0.00118   0.00000   0.00350   0.00382   1.90283
    A6        1.89945  -0.00234   0.00000  -0.00423  -0.00444   1.89500
    A7        2.20406   0.00529   0.00000   0.03181   0.02941   2.23347
    A8        2.82378  -0.00176   0.00000   0.00935   0.00888   2.83266
    A9        1.91862  -0.00361   0.00000  -0.00767  -0.00809   1.91053
   A10        2.25097   0.00989   0.00000   0.02407   0.02405   2.27502
   A11        1.47498   0.00264   0.00000   0.03096   0.03212   1.50710
   A12        1.80084  -0.01756   0.00000  -0.08317  -0.08670   1.71414
   A13        1.46653   0.00748   0.00000   0.07314   0.07181   1.53834
   A14        2.00259  -0.00480   0.00000  -0.00025   0.00137   2.00396
   A15        2.04317   0.00411   0.00000   0.01159   0.00969   2.05286
   A16        2.08848  -0.00827   0.00000  -0.04526  -0.04213   2.04636
   A17        2.01042   0.00531   0.00000   0.03398   0.03138   2.04179
   A18        1.96682   0.00169   0.00000   0.00812   0.00809   1.97492
   A19        1.50592   0.00397   0.00000   0.03404   0.03379   1.53971
   A20        1.71914   0.00058   0.00000  -0.02243  -0.02999   1.68915
   A21        2.20990   0.01244   0.00000   0.05530   0.04244   2.25233
   A22        1.42251   0.02115   0.00000   0.11640   0.11809   1.54060
   A23        1.98139  -0.00139   0.00000   0.03242   0.03587   2.01726
   A24        2.30312  -0.02072   0.00000  -0.09751  -0.09797   2.20515
   A25        2.49779  -0.00002   0.00000  -0.03285  -0.03195   2.46584
   A26        1.43662   0.01370   0.00000   0.04939   0.05273   1.48934
   A27        1.73747   0.00889   0.00000   0.03728   0.03935   1.77682
   A28        2.48218   0.01068   0.00000   0.05661   0.05586   2.53804
   A29        1.62354  -0.01202   0.00000  -0.04032  -0.04294   1.58060
   A30        2.21047  -0.00563   0.00000  -0.01844  -0.02041   2.19006
   A31        2.01497  -0.00239   0.00000  -0.01373  -0.01571   1.99926
   A32        2.05486   0.00743   0.00000   0.02409   0.02208   2.07694
   A33        3.31048  -0.00738   0.00000  -0.06467  -0.06288   3.24760
   A34        3.27192   0.00269   0.00000  -0.01975  -0.01765   3.25427
    D1       -0.83822  -0.00783   0.00000  -0.08430  -0.08516  -0.92337
    D2        0.62244   0.00439   0.00000   0.04350   0.04373   0.66617
    D3        0.87297  -0.00470   0.00000  -0.03436  -0.03419   0.83878
    D4        2.59525   0.00730   0.00000   0.07141   0.07227   2.66752
    D5       -2.93373  -0.00637   0.00000  -0.07276  -0.07371  -3.00744
    D6       -1.47308   0.00585   0.00000   0.05504   0.05518  -1.41790
    D7       -1.22255  -0.00324   0.00000  -0.02282  -0.02274  -1.24529
    D8        0.49973   0.00875   0.00000   0.08295   0.08372   0.58346
    D9        1.25374  -0.00824   0.00000  -0.08748  -0.08854   1.16520
   D10        2.71440   0.00398   0.00000   0.04032   0.04034   2.75474
   D11        2.96493  -0.00511   0.00000  -0.03754  -0.03758   2.92735
   D12       -1.59598   0.00689   0.00000   0.06823   0.06888  -1.52709
   D13        0.74007   0.00483   0.00000   0.06485   0.06520   0.80527
   D14       -1.62366   0.00299   0.00000   0.03832   0.03847  -1.58519
   D15       -1.19282   0.00644   0.00000   0.04571   0.04421  -1.14861
   D16        2.72663   0.00460   0.00000   0.01918   0.01748   2.74411
   D17       -2.63336  -0.00420   0.00000  -0.04830  -0.04398  -2.67734
   D18        1.28609  -0.00604   0.00000  -0.07483  -0.07071   1.21538
   D19        2.19553  -0.00538   0.00000  -0.06865  -0.06808   2.12745
   D20        0.71610  -0.00362   0.00000  -0.07584  -0.07323   0.64287
   D21       -0.70552   0.00501   0.00000   0.04796   0.04464  -0.66088
   D22       -2.18495   0.00677   0.00000   0.04077   0.03949  -2.14546
   D23       -2.15271  -0.00195   0.00000  -0.01351  -0.00989  -2.16259
   D24        2.65105  -0.00019   0.00000  -0.02070  -0.01504   2.63601
   D25        1.05486  -0.00325   0.00000   0.00485   0.00661   1.06146
   D26        2.46556   0.01881   0.00000   0.13054   0.13258   2.59814
   D27       -0.98279  -0.00840   0.00000  -0.08061  -0.08636  -1.06915
   D28       -2.79665  -0.00412   0.00000   0.00512   0.00684  -2.78981
   D29       -1.38594   0.01794   0.00000   0.13080   0.13281  -1.25313
   D30        1.44889  -0.00927   0.00000  -0.08034  -0.08612   1.36277
   D31        1.94473  -0.01884   0.00000  -0.16316  -0.15815   1.78658
   D32        0.06474  -0.01680   0.00000  -0.17900  -0.17553  -0.11080
   D33       -2.85638  -0.01142   0.00000  -0.10562  -0.10434  -2.96072
   D34        1.54682  -0.00937   0.00000  -0.12146  -0.12173   1.42509
   D35       -0.86487   0.00116   0.00000   0.02226   0.01489  -0.84998
   D36       -2.74486   0.00321   0.00000   0.00641  -0.00249  -2.74735
   D37       -1.84901  -0.00476   0.00000  -0.05294  -0.05435  -1.90336
   D38        1.37661   0.00344   0.00000   0.06309   0.06146   1.43807
   D39       -2.94908  -0.00786   0.00000  -0.07710  -0.07563  -3.02470
   D40        0.27654   0.00034   0.00000   0.03893   0.04018   0.31672
   D41       -0.43165   0.00205   0.00000  -0.01933  -0.01905  -0.45070
   D42        2.79398   0.01025   0.00000   0.09670   0.09675   2.89073
         Item               Value     Threshold  Converged?
 Maximum Force            0.033216     0.000450     NO 
 RMS     Force            0.009456     0.000300     NO 
 Maximum Displacement     0.280129     0.001800     NO 
 RMS     Displacement     0.070678     0.001200     NO 
 Predicted change in Energy=-3.373304D-02
 GradGradGradGradGradGradGradGradGradGradGradGradGradGradGradGradGradGrad

                          Input orientation:                          
 ---------------------------------------------------------------------
 Center     Atomic      Atomic             Coordinates (Angstroms)
 Number     Number       Type             X           Y           Z
 ---------------------------------------------------------------------
      1          6           0        0.741616   -0.051130    0.119661
      2          6           0        2.228001    0.052284    0.189453
      3          6           0        3.072446    1.103805    0.939823
      4          6           0        3.925057   -0.153977    0.704456
      5          8           0        2.771149   -0.975803    1.222520
      6          6           0        3.383048   -0.472042   -0.859220
      7          6           0        4.541059    0.038787   -1.699463
      8          8           0        4.550199    0.122317   -2.919971
      9          1           0        0.350793   -0.049586    1.139450
     10          1           0        0.435873   -0.977555   -0.374741
     11          1           0        0.312827    0.794654   -0.428257
     12          1           0        2.750788    1.304430    1.961236
     13          1           0        3.359416    2.007454    0.393812
     14          1           0        4.902652   -0.406349    1.112501
     15          1           0        2.666660   -0.183278   -1.651372
     16          1           0        5.487625    0.161029   -1.148457
 ---------------------------------------------------------------------
                    Distance matrix (angstroms):
                    1          2          3          4          5
     1  C    0.000000
     2  C    1.491612   0.000000
     3  C    2.727510   1.543321   0.000000
     4  C    3.238343   1.785433   1.537648   0.000000
     5  O    2.488036   1.555377   2.120252   1.508406   0.000000
     6  C    2.848252   1.645832   2.411705   1.685236   2.227517
     7  C    4.213439   2.986373   3.202642   2.489065   3.563700
     8  O    4.875936   3.881498   4.247950   3.688307   4.640163
     9  H    1.092115   2.106367   2.962695   3.602150   2.592856
    10  H    1.093697   2.142570   3.607167   3.743976   2.829268
    11  H    1.095183   2.144894   3.095596   3.902710   3.450062
    12  H    3.043964   2.231679   1.089495   2.255073   2.396993
    13  H    3.341527   2.268160   1.094102   2.255712   3.151608
    14  H    4.292568   2.866378   2.379084   1.088983   2.209001
    15  H    2.619125   1.906973   2.921564   2.671021   2.982997
    16  H    4.917087   3.525192   3.329088   2.444205   3.780630
                    6          7          8          9         10
     6  C    0.000000
     7  C    1.519192   0.000000
     8  O    2.441762   1.223397   0.000000
     9  H    3.656189   5.062170   5.843241   0.000000
    10  H    3.029209   4.431749   4.961411   1.777959   0.000000
    11  H    3.349105   4.479424   4.961451   1.780980   1.777282
    12  H    3.392724   4.267040   5.334927   2.875529   4.002883
    13  H    2.778227   3.107045   3.994104   3.720108   4.248300
    14  H    2.490220   2.869850   4.082223   4.565899   4.742392
    15  H    1.106392   1.888121   2.291387   3.629022   2.690181
    16  H    2.216683   1.102060   2.004626   5.627248   5.235954
                   11         12         13         14         15
    11  H    0.000000
    12  H    3.451550   0.000000
    13  H    3.380589   1.822495   0.000000
    14  H    4.988270   2.877088   2.953733   0.000000
    15  H    2.827170   3.907850   3.076036   3.562081   0.000000
    16  H    5.262955   4.297422   3.212032   2.403341   2.886056
                   16
    16  H    0.000000
 Stoichiometry    C6H8O2
 Framework group  C1[X(C6H8O2)]
 Deg. of freedom    42
 Full point group                 C1      NOp   1
 Largest Abelian subgroup         C1      NOp   1
 Largest concise Abelian subgroup C1      NOp   1
                         Standard orientation:                         
 ---------------------------------------------------------------------
 Center     Atomic      Atomic             Coordinates (Angstroms)
 Number     Number       Type             X           Y           Z
 ---------------------------------------------------------------------
      1          6           0       -1.861821    1.502809    0.068839
      2          6           0       -0.922978    0.344347    0.106887
      3          6           0       -0.893631   -0.821215    1.118047
      4          6           0       -0.184716   -1.256663   -0.175083
      5          8           0       -1.360576   -0.712273   -0.947277
      6          6           0        0.613764    0.198982   -0.464129
      7          6           0        2.024552   -0.123287   -0.001782
      8          8           0        2.944001    0.679057    0.085166
      9          1           0       -2.882904    1.115683    0.084226
     10          1           0       -1.720769    2.091989   -0.841736
     11          1           0       -1.715243    2.157697    0.934322
     12          1           0       -1.864623   -1.267925    1.329291
     13          1           0       -0.271080   -0.703364    2.010011
     14          1           0        0.153847   -2.248389   -0.471294
     15          1           0        0.736575    1.250220   -0.141764
     16          1           0        2.245778   -1.200024    0.077161
 ---------------------------------------------------------------------
 Rotational constants (GHZ):           3.8279245           1.4534146           1.2651106
 Standard basis: 6-31G(2df,p) (6D, 7F)
 There are   288 symmetry adapted cartesian basis functions of A   symmetry.
 There are   264 symmetry adapted basis functions of A   symmetry.
   264 basis functions,   408 primitive gaussians,   288 cartesian basis functions
    30 alpha electrons       30 beta electrons
       nuclear repulsion energy       365.6750168093 Hartrees.
 NAtoms=   16 NActive=   16 NUniq=   16 SFac= 1.00D+00 NAtFMM=   60 NAOKFM=F Big=F
 Integral buffers will be    131072 words long.
 Raffenetti 2 integral format.
 Two-electron integral symmetry is turned on.
 One-electron integrals computed using PRISM.
 PrsmSu:  requested number of processors reduced to:  13 ShMem   1 Linda.
 NBasis=   264 RedAO= T EigKep=  5.95D-04  NBF=   264
 NBsUse=   264 1.00D-06 EigRej= -1.00D+00 NBFU=   264
 Initial guess from the checkpoint file:  "CC12CCpO1pC2CdO.chk"
 B after Tr=     0.000000   -0.000000    0.000000
         Rot=    0.999756    0.015938   -0.014108   -0.005886 Ang=   2.53 deg.
 ExpMin= 1.61D-01 ExpMax= 5.48D+03 ExpMxC= 8.25D+02 IAcc=2 IRadAn=         4 AccDes= 0.00D+00
 Harris functional with IExCor=  402 and IRadAn=       4 diagonalized for initial guess.
 HarFok:  IExCor=  402 AccDes= 0.00D+00 IRadAn=         4 IDoV= 1 UseB2=F ITyADJ=14
 ICtDFT=  3500011 ScaDFX=  1.000000  1.000000  1.000000  1.000000
 FoFCou: FMM=F IPFlag=           0 FMFlag=      100000 FMFlg1=           0
         NFxFlg=           0 DoJE=T BraDBF=F KetDBF=T FulRan=T
         wScrn=  0.000000 ICntrl=       500 IOpCl=  0 I1Cent=   200000004 NGrid=           0
         NMat0=    1 NMatS0=      1 NMatT0=    0 NMatD0=    1 NMtDS0=    0 NMtDT0=    0
 Petite list used in FoFCou.
 Requested convergence on RMS density matrix=1.00D-08 within 128 cycles.
 Requested convergence on MAX density matrix=1.00D-06.
 Requested convergence on             energy=1.00D-06.
 No special actions if energy rises.
 Integral accuracy reduced to 1.0D-05 until final iterations.
 Initial convergence to 1.0D-05 achieved.  Increase integral accuracy.
 SCF Done:  E(RB3LYP) =  -383.623572165     A.U. after   16 cycles
            NFock= 16  Conv=0.85D-08     -V/T= 2.0076
 PrsmSu:  requested number of processors reduced to:  13 ShMem   1 Linda.
 Calling FoFJK, ICntrl=      2127 FMM=F ISym2X=0 I1Cent= 0 IOpClX= 0 NMat=1 NMatS=1 NMatT=0.
 ***** Axes restored to original set *****
 -------------------------------------------------------------------
 Center     Atomic                   Forces (Hartrees/Bohr)
 Number     Number              X              Y              Z
 -------------------------------------------------------------------
      1        6          -0.002976980    0.002381141   -0.021564325
      2        6           0.007592907    0.000767408    0.065376251
      3        6           0.009473607    0.002430945   -0.027685385
      4        6          -0.057592477   -0.039473851    0.012382794
      5        8           0.003792095    0.022290147   -0.014304677
      6        6           0.038416480    0.040180501   -0.001872388
      7        6          -0.004716763    0.021474566   -0.016465907
      8        8          -0.003268934   -0.002326230    0.014071292
      9        1           0.002823246    0.000294767    0.000945001
     10        1           0.000053272   -0.000233558    0.000784485
     11        1          -0.000925871   -0.000171634   -0.000192038
     12        1           0.003815015   -0.003021688    0.002463669
     13        1          -0.001189182   -0.000001834   -0.000369544
     14        1           0.006890144   -0.002847124   -0.015380086
     15        1          -0.005781450   -0.038532586   -0.001813355
     16        1           0.003594890   -0.003210970    0.003624213
 -------------------------------------------------------------------
 Cartesian Forces:  Max     0.065376251 RMS     0.019024386

 GradGradGradGradGradGradGradGradGradGradGradGradGradGradGradGradGradGrad
 Berny optimization.
 Using GEDIIS/GDIIS optimizer.
 FormGI is forming the generalized inverse of G from B-inverse, IUseBI=4.
 Internal  Forces:  Max     0.018857036 RMS     0.006590587
 Search for a local minimum.
 Step number   2 out of a maximum of  100
 All quantities printed in internal units (Hartrees-Bohrs-Radians)
 Mixed Optimization -- RFO/linear search
 Update second derivatives using D2CorX and points    1    2
 DE= -3.58D-02 DEPred=-3.37D-02 R= 1.06D+00
 TightC=F SS=  1.41D+00  RLast= 5.65D-01 DXNew= 5.0454D-01 1.6951D+00
 Trust test= 1.06D+00 RLast= 5.65D-01 DXMaxT set to 5.05D-01
 ITU=  1  0
 Use linear search instead of GDIIS.
     Eigenvalues ---    0.00471   0.00507   0.00646   0.00949   0.02094
     Eigenvalues ---    0.02291   0.02460   0.02778   0.02932   0.03578
     Eigenvalues ---    0.04806   0.05010   0.05272   0.06118   0.07659
     Eigenvalues ---    0.07801   0.08789   0.10765   0.15274   0.15814
     Eigenvalues ---    0.16000   0.16000   0.16018   0.16234   0.18530
     Eigenvalues ---    0.21026   0.21484   0.22067   0.24848   0.24952
     Eigenvalues ---    0.29584   0.30556   0.31870   0.33818   0.33956
     Eigenvalues ---    0.34348   0.34364   0.34590   0.34748   0.35258
     Eigenvalues ---    0.35698   0.86554
 RFO step:  Lambda=-3.82769993D-02 EMin= 4.70541600D-03
 Quartic linear search produced a step of  1.22738.
 Iteration  1 RMS(Cart)=  0.12199044 RMS(Int)=  0.03254130
 Iteration  2 RMS(Cart)=  0.04599467 RMS(Int)=  0.01422018
 Iteration  3 RMS(Cart)=  0.00218819 RMS(Int)=  0.01404345
 Iteration  4 RMS(Cart)=  0.00007195 RMS(Int)=  0.01404328
 Iteration  5 RMS(Cart)=  0.00000192 RMS(Int)=  0.01404328
 Iteration  6 RMS(Cart)=  0.00000015 RMS(Int)=  0.01404328
 Variable       Old X    -DE/DX   Delta X   Delta X   Delta X     New X
                                 (Linear)    (Quad)   (Total)
    R1        2.81874   0.00180   0.01258   0.00339   0.01597   2.83471
    R2        2.06380  -0.00013  -0.00442   0.00114  -0.00328   2.06051
    R3        2.06679  -0.00017  -0.00084  -0.00045  -0.00129   2.06550
    R4        2.06960   0.00033   0.00928  -0.00213   0.00715   2.07675
    R5        2.91645  -0.00980  -0.04819  -0.03298  -0.08586   2.83059
    R6        3.37398  -0.00907  -0.10249  -0.03738  -0.13821   3.23577
    R7        2.93924  -0.01202  -0.01862  -0.06899  -0.08340   2.85583
    R8        3.11017   0.01175   0.07859   0.05164   0.11751   3.22768
    R9        2.90573  -0.00789  -0.04028  -0.02320  -0.07218   2.83356
   R10        2.05885   0.00063  -0.00655   0.00538  -0.00117   2.05768
   R11        2.06755  -0.00013   0.01243  -0.00539   0.00704   2.07459
   R12        2.85048  -0.01563  -0.02752  -0.07734  -0.08283   2.76765
   R13        3.18464  -0.01886  -0.09695  -0.10633  -0.20306   2.98157
   R14        2.05788   0.00108   0.01091   0.00058   0.01149   2.06937
   R15        2.87086   0.00136  -0.00453   0.00868   0.00414   2.87499
   R16        2.09078  -0.00502  -0.02512  -0.01442  -0.03954   2.05124
   R17        2.31189  -0.01422  -0.03605  -0.01582  -0.05187   2.26001
   R18        2.08259   0.00454   0.00873   0.01753   0.02626   2.10885
    A1        1.88895  -0.00476  -0.04937  -0.01829  -0.06741   1.82154
    A2        1.93740   0.00043   0.00380   0.00212   0.00523   1.94263
    A3        1.93908   0.00214   0.03411   0.00280   0.03700   1.97608
    A4        1.89998   0.00154   0.01229   0.00429   0.01592   1.91590
    A5        1.90283   0.00121   0.00469   0.00754   0.01332   1.91615
    A6        1.89500  -0.00053  -0.00545   0.00174  -0.00443   1.89057
    A7        2.23347   0.00255   0.03610   0.02283   0.04662   2.28009
    A8        2.83266   0.00065   0.01090   0.01006   0.03042   2.86308
    A9        1.91053   0.00278  -0.00993   0.01984   0.01733   1.92786
   A10        2.27502   0.00619   0.02952   0.01596   0.04202   2.31704
   A11        1.50710   0.00104   0.03942   0.01876   0.05748   1.56458
   A12        1.71414  -0.01017  -0.10641  -0.04218  -0.14806   1.56609
   A13        1.53834  -0.00282   0.08814  -0.04279   0.03182   1.57016
   A14        2.00396  -0.00167   0.00168   0.00446   0.01101   2.01497
   A15        2.05286   0.00159   0.01189   0.00347   0.00691   2.05977
   A16        2.04636  -0.00359  -0.05171  -0.01728  -0.05185   1.99450
   A17        2.04179   0.00170   0.03851   0.00431   0.02464   2.06644
   A18        1.97492   0.00106   0.00993   0.00448   0.01514   1.99006
   A19        1.53971   0.00174   0.04147   0.01924   0.05523   1.59494
   A20        1.68915   0.00105  -0.03681   0.01565  -0.03390   1.65525
   A21        2.25233   0.00420   0.05209   0.01513   0.00633   2.25867
   A22        1.54060   0.00849   0.14495   0.01228   0.15243   1.69303
   A23        2.01726   0.00425   0.04403   0.04818   0.10858   2.12585
   A24        2.20515  -0.01294  -0.12025  -0.07622  -0.19752   2.00763
   A25        2.46584  -0.00932  -0.03921  -0.12480  -0.16855   2.29729
   A26        1.48934   0.01223   0.06471   0.09276   0.19609   1.68543
   A27        1.77682  -0.00046   0.04830  -0.02527   0.02287   1.79969
   A28        2.53804   0.01428   0.06857   0.17788   0.23227   2.77031
   A29        1.58060  -0.00655  -0.05271   0.00798  -0.06135   1.51925
   A30        2.19006  -0.00381  -0.02505  -0.01162  -0.03961   2.15045
   A31        1.99926  -0.00095  -0.01928   0.00315  -0.01908   1.98018
   A32        2.07694   0.00424   0.02710   0.02493   0.04899   2.12592
   A33        3.24760  -0.00438  -0.07718  -0.03736  -0.11419   3.13341
   A34        3.25427  -0.00080  -0.02166  -0.01930  -0.03373   3.22055
    D1       -0.92337  -0.00548  -0.10452  -0.04015  -0.14756  -1.07093
    D2        0.66617   0.00379   0.05367   0.05152   0.10320   0.76937
    D3        0.83878  -0.00036  -0.04197   0.01430  -0.02220   0.81658
    D4        2.66752   0.00193   0.08871  -0.01856   0.07102   2.73855
    D5       -3.00744  -0.00465  -0.09047  -0.03521  -0.12894  -3.13638
    D6       -1.41790   0.00463   0.06773   0.05646   0.12182  -1.29607
    D7       -1.24529   0.00048  -0.02791   0.01924  -0.00357  -1.24886
    D8        0.58346   0.00277   0.10276  -0.01362   0.08965   0.67311
    D9        1.16520  -0.00572  -0.10868  -0.04077  -0.15306   1.01213
   D10        2.75474   0.00356   0.04951   0.05090   0.09770   2.85243
   D11        2.92735  -0.00059  -0.04612   0.01368  -0.02770   2.89965
   D12       -1.52709   0.00170   0.08455  -0.01918   0.06552  -1.46157
   D13        0.80527   0.00447   0.08002   0.03524   0.12248   0.92775
   D14       -1.58519   0.00283   0.04722   0.01781   0.07283  -1.51236
   D15       -1.14861  -0.00059   0.05426  -0.01131   0.03287  -1.11574
   D16        2.74411  -0.00223   0.02146  -0.02873  -0.01678   2.72734
   D17       -2.67734   0.00140  -0.05398   0.02632  -0.00859  -2.68593
   D18        1.21538  -0.00023  -0.08679   0.00890  -0.05824   1.15715
   D19        2.12745  -0.00288  -0.08355  -0.04027  -0.12405   2.00341
   D20        0.64287  -0.00951  -0.08988  -0.19359  -0.24320   0.39967
   D21       -0.66088   0.00152   0.05479  -0.03257   0.01195  -0.64894
   D22       -2.14546  -0.00511   0.04847  -0.18589  -0.10721  -2.25267
   D23       -2.16259   0.00045  -0.01213  -0.04705  -0.05092  -2.21352
   D24        2.63601  -0.00618  -0.01846  -0.20037  -0.17008   2.46593
   D25        1.06146   0.00182   0.00811   0.03712   0.05048   1.11194
   D26        2.59814   0.01054   0.16272   0.05125   0.20937   2.80751
   D27       -1.06915  -0.00762  -0.10600  -0.05414  -0.16810  -1.23725
   D28       -2.78981   0.00110   0.00840   0.02718   0.03973  -2.75008
   D29       -1.25313   0.00982   0.16301   0.04131   0.19862  -1.05451
   D30        1.36277  -0.00834  -0.10571  -0.06407  -0.17885   1.18391
   D31        1.78658  -0.01604  -0.19411  -0.14822  -0.31829   1.46829
   D32       -0.11080  -0.01303  -0.21544  -0.24954  -0.46136  -0.57216
   D33       -2.96072  -0.01331  -0.12807  -0.12790  -0.24856   3.07390
   D34        1.42509  -0.01029  -0.14941  -0.22921  -0.39163   1.03346
   D35       -0.84998  -0.00588   0.01828  -0.08559  -0.08966  -0.93964
   D36       -2.74735  -0.00287  -0.00306  -0.18690  -0.23274  -2.98009
   D37       -1.90336  -0.00457  -0.06671   0.01804  -0.05867  -1.96203
   D38        1.43807  -0.00206   0.07543  -0.08104  -0.01606   1.42201
   D39       -3.02470  -0.00447  -0.09282   0.00781  -0.07062  -3.09533
   D40        0.31672  -0.00196   0.04931  -0.09127  -0.02801   0.28871
   D41       -0.45070   0.00813  -0.02338   0.19415   0.16705  -0.28365
   D42        2.89073   0.01064   0.11875   0.09507   0.20966   3.10039
         Item               Value     Threshold  Converged?
 Maximum Force            0.018857     0.000450     NO 
 RMS     Force            0.006591     0.000300     NO 
 Maximum Displacement     0.602609     0.001800     NO 
 RMS     Displacement     0.164682     0.001200     NO 
 Predicted change in Energy=-5.511132D-02
 GradGradGradGradGradGradGradGradGradGradGradGradGradGradGradGradGradGrad

                          Input orientation:                          
 ---------------------------------------------------------------------
 Center     Atomic      Atomic             Coordinates (Angstroms)
 Number     Number       Type             X           Y           Z
 ---------------------------------------------------------------------
      1          6           0        0.702853   -0.019567    0.150456
      2          6           0        2.199991    0.000465    0.241957
      3          6           0        3.129822    1.036555    0.794760
      4          6           0        3.825644   -0.287986    0.695843
      5          8           0        2.678107   -0.975383    1.292185
      6          6           0        3.433388   -0.532051   -0.812785
      7          6           0        4.508045    0.227570   -1.576125
      8          8           0        4.524746    0.317632   -2.768559
      9          1           0        0.367776    0.028784    1.186945
     10          1           0        0.345519   -0.943746   -0.310936
     11          1           0        0.291807    0.829448   -0.413408
     12          1           0        2.920318    1.357178    1.814054
     13          1           0        3.453156    1.847217    0.128797
     14          1           0        4.855914   -0.553197    0.955402
     15          1           0        2.842184   -0.497795   -1.722480
     16          1           0        5.399941    0.479917   -0.954675
 ---------------------------------------------------------------------
                    Distance matrix (angstroms):
                    1          2          3          4          5
     1  C    0.000000
     2  C    1.500065   0.000000
     3  C    2.724096   1.497885   0.000000
     4  C    3.181402   1.712297   1.499453   0.000000
     5  O    2.473612   1.511242   2.121173   1.464575   0.000000
     6  C    2.940458   1.708017   2.266467   1.577780   2.279888
     7  C    4.185886   2.946882   2.859204   2.427614   3.608736
     8  O    4.820915   3.816843   3.893572   3.585750   4.644525
     9  H    1.090378   2.061751   2.966195   3.506904   2.521321
    10  H    1.093013   2.153205   3.591170   3.681697   2.830541
    11  H    1.098967   2.181258   3.091423   3.868734   3.443965
    12  H    3.095179   2.197961   1.088877   2.185538   2.402469
    13  H    3.324081   2.234664   1.097827   2.240397   3.149801
    14  H    4.263873   2.805258   2.352128   1.095064   2.243771
    15  H    2.883285   2.125955   2.962003   2.619064   3.056667
    16  H    4.851126   3.449852   2.919555   2.406718   3.817677
                    6          7          8          9         10
     6  C    0.000000
     7  C    1.521381   0.000000
     8  O    2.395429   1.195947   0.000000
     9  H    3.702895   4.981556   5.745420   0.000000
    10  H    3.155357   4.505475   5.009684   1.786045   0.000000
    11  H    3.447132   4.414843   4.870983   1.791078   1.776965
    12  H    3.276081   3.910270   4.965400   2.945058   4.054556
    13  H    2.558884   2.577365   3.447117   3.734427   4.200030
    14  H    2.269474   2.671936   3.838738   4.531633   4.701042
    15  H    1.085468   1.822818   2.142480   3.855481   2.902527
    16  H    2.216199   1.115956   2.020514   5.487507   5.290406
                   11         12         13         14         15
    11  H    0.000000
    12  H    3.485564   0.000000
    13  H    3.365111   1.834161   0.000000
    14  H    4.961494   2.851902   2.900516   0.000000
    15  H    3.159062   3.994259   3.049524   3.351004   0.000000
    16  H    5.148609   3.818897   2.614076   2.238679   2.843864
                   16
    16  H    0.000000
 Stoichiometry    C6H8O2
 Framework group  C1[X(C6H8O2)]
 Deg. of freedom    42
 Full point group                 C1      NOp   1
 Largest Abelian subgroup         C1      NOp   1
 Largest concise Abelian subgroup C1      NOp   1
                         Standard orientation:                         
 ---------------------------------------------------------------------
 Center     Atomic      Atomic             Coordinates (Angstroms)
 Number     Number       Type             X           Y           Z
 ---------------------------------------------------------------------
      1          6           0       -1.926420    1.445590    0.086198
      2          6           0       -0.952271    0.304909    0.077435
      3          6           0       -0.603881   -0.688686    1.142825
      4          6           0       -0.177444   -1.196241   -0.202128
      5          8           0       -1.464506   -0.820501   -0.791425
      6          6           0        0.605335    0.115429   -0.597311
      7          6           0        1.968108   -0.088298    0.047628
      8          8           0        2.840303    0.729015    0.008090
      9          1           0       -2.894626    0.973237    0.254672
     10          1           0       -1.932658    1.969869   -0.872849
     11          1           0       -1.727330    2.179335    0.879740
     12          1           0       -1.446770   -1.224272    1.576804
     13          1           0        0.173470   -0.415584    1.868334
     14          1           0        0.325813   -2.132830   -0.464230
     15          1           0        0.848860    1.172098   -0.646166
     16          1           0        2.166309   -1.146188    0.342489
 ---------------------------------------------------------------------
 Rotational constants (GHZ):           4.0244843           1.5016299           1.3145359
 Standard basis: 6-31G(2df,p) (6D, 7F)
 There are   288 symmetry adapted cartesian basis functions of A   symmetry.
 There are   264 symmetry adapted basis functions of A   symmetry.
   264 basis functions,   408 primitive gaussians,   288 cartesian basis functions
    30 alpha electrons       30 beta electrons
       nuclear repulsion energy       371.8963705909 Hartrees.
 NAtoms=   16 NActive=   16 NUniq=   16 SFac= 1.00D+00 NAtFMM=   60 NAOKFM=F Big=F
 Integral buffers will be    131072 words long.
 Raffenetti 2 integral format.
 Two-electron integral symmetry is turned on.
 One-electron integrals computed using PRISM.
 PrsmSu:  requested number of processors reduced to:  13 ShMem   1 Linda.
 NBasis=   264 RedAO= T EigKep=  5.13D-04  NBF=   264
 NBsUse=   264 1.00D-06 EigRej= -1.00D+00 NBFU=   264
 Initial guess from the checkpoint file:  "CC12CCpO1pC2CdO.chk"
 B after Tr=    -0.000000    0.000000   -0.000000
         Rot=    0.999108    0.032551   -0.022168   -0.015220 Ang=   4.84 deg.
 ExpMin= 1.61D-01 ExpMax= 5.48D+03 ExpMxC= 8.25D+02 IAcc=2 IRadAn=         4 AccDes= 0.00D+00
 Harris functional with IExCor=  402 and IRadAn=       4 diagonalized for initial guess.
 HarFok:  IExCor=  402 AccDes= 0.00D+00 IRadAn=         4 IDoV= 1 UseB2=F ITyADJ=14
 ICtDFT=  3500011 ScaDFX=  1.000000  1.000000  1.000000  1.000000
 FoFCou: FMM=F IPFlag=           0 FMFlag=      100000 FMFlg1=           0
         NFxFlg=           0 DoJE=T BraDBF=F KetDBF=T FulRan=T
         wScrn=  0.000000 ICntrl=       500 IOpCl=  0 I1Cent=   200000004 NGrid=           0
         NMat0=    1 NMatS0=      1 NMatT0=    0 NMatD0=    1 NMtDS0=    0 NMtDT0=    0
 Petite list used in FoFCou.
 Requested convergence on RMS density matrix=1.00D-08 within 128 cycles.
 Requested convergence on MAX density matrix=1.00D-06.
 Requested convergence on             energy=1.00D-06.
 No special actions if energy rises.
 Integral accuracy reduced to 1.0D-05 until final iterations.
 Initial convergence to 1.0D-05 achieved.  Increase integral accuracy.
 SCF Done:  E(RB3LYP) =  -383.672656564     A.U. after   15 cycles
            NFock= 15  Conv=0.23D-08     -V/T= 2.0066
 PrsmSu:  requested number of processors reduced to:  13 ShMem   1 Linda.
 Calling FoFJK, ICntrl=      2127 FMM=F ISym2X=0 I1Cent= 0 IOpClX= 0 NMat=1 NMatS=1 NMatT=0.
 ***** Axes restored to original set *****
 -------------------------------------------------------------------
 Center     Atomic                   Forces (Hartrees/Bohr)
 Number     Number              X              Y              Z
 -------------------------------------------------------------------
      1        6           0.001982162    0.003341270   -0.015175689
      2        6          -0.019872577    0.006647589    0.014121428
      3        6           0.007092864    0.025247852    0.002685993
      4        6           0.023336539   -0.054455314    0.008567099
      5        8           0.005383300    0.012892738   -0.020725535
      6        6          -0.000668733    0.055549518   -0.008780314
      7        6          -0.001086764    0.009618569    0.027889349
      8        8           0.002187387    0.005223145   -0.024192330
      9        1          -0.004168123   -0.000171892    0.001189866
     10        1          -0.000123183   -0.000863920    0.001771141
     11        1           0.003269232   -0.001805699    0.001873995
     12        1           0.000098845    0.001893817    0.003278878
     13        1          -0.001362410   -0.003011240    0.004171074
     14        1          -0.003748589   -0.001832731    0.007508302
     15        1          -0.015055770   -0.061293131   -0.000929217
     16        1           0.002735818    0.003019427   -0.003254044
 -------------------------------------------------------------------
 Cartesian Forces:  Max     0.061293131 RMS     0.017444773

 GradGradGradGradGradGradGradGradGradGradGradGradGradGradGradGradGradGrad
 Berny optimization.
 Using GEDIIS/GDIIS optimizer.
 FormGI is forming the generalized inverse of G from B-inverse, IUseBI=4.
 Internal  Forces:  Max     0.024545329 RMS     0.006591837
 Search for a local minimum.
 Step number   3 out of a maximum of  100
 All quantities printed in internal units (Hartrees-Bohrs-Radians)
 Mixed Optimization -- RFO/linear search
 Update second derivatives using D2CorX and points    2    3
 DE= -4.91D-02 DEPred=-5.51D-02 R= 8.91D-01
 TightC=F SS=  1.41D+00  RLast= 1.20D+00 DXNew= 8.4853D-01 3.6103D+00
 Trust test= 8.91D-01 RLast= 1.20D+00 DXMaxT set to 8.49D-01
 ITU=  1  1  0
 Use linear search instead of GDIIS.
     Eigenvalues ---    0.00425   0.00494   0.00740   0.00948   0.02011
     Eigenvalues ---    0.02285   0.02682   0.02910   0.03258   0.03684
     Eigenvalues ---    0.04837   0.05004   0.05541   0.05597   0.06939
     Eigenvalues ---    0.07811   0.08562   0.10573   0.15350   0.15924
     Eigenvalues ---    0.15994   0.16000   0.16018   0.17219   0.18830
     Eigenvalues ---    0.20800   0.22068   0.22229   0.24641   0.25964
     Eigenvalues ---    0.29704   0.31199   0.32962   0.33797   0.33955
     Eigenvalues ---    0.34348   0.34378   0.34597   0.34786   0.35401
     Eigenvalues ---    0.36640   0.89467
 RFO step:  Lambda=-2.41753290D-02 EMin= 4.25090283D-03
 Quartic linear search produced a step of  0.22196.
 Iteration  1 RMS(Cart)=  0.06457382 RMS(Int)=  0.02630769
 Iteration  2 RMS(Cart)=  0.01548380 RMS(Int)=  0.00854715
 Iteration  3 RMS(Cart)=  0.00078642 RMS(Int)=  0.00851330
 Iteration  4 RMS(Cart)=  0.00001801 RMS(Int)=  0.00851326
 Iteration  5 RMS(Cart)=  0.00000111 RMS(Int)=  0.00851326
 Iteration  6 RMS(Cart)=  0.00000003 RMS(Int)=  0.00851326
 Variable       Old X    -DE/DX   Delta X   Delta X   Delta X     New X
                                 (Linear)    (Quad)   (Total)
    R1        2.83471  -0.00033   0.00355   0.00236   0.00591   2.84062
    R2        2.06051   0.00240  -0.00073   0.00436   0.00363   2.06415
    R3        2.06550   0.00002  -0.00029  -0.00008  -0.00036   2.06513
    R4        2.07675  -0.00358   0.00159  -0.00527  -0.00368   2.07306
    R5        2.83059   0.01286  -0.01906   0.04205   0.02237   2.85297
    R6        3.23577   0.01257  -0.03068   0.05457   0.02404   3.25981
    R7        2.85583  -0.00477  -0.01851  -0.00499  -0.02140   2.83444
    R8        3.22768  -0.00219   0.02608   0.00658   0.03032   3.25800
    R9        2.83356   0.01566  -0.01602   0.04626   0.01864   2.85219
   R10        2.05768   0.00361  -0.00026   0.00515   0.00489   2.06257
   R11        2.07459  -0.00515   0.00156  -0.00697  -0.00540   2.06919
   R12        2.76765  -0.01107  -0.01838  -0.01148  -0.01582   2.75183
   R13        2.98157   0.00709  -0.04507   0.04220  -0.00376   2.97781
   R14        2.06937  -0.00130   0.00255   0.00036   0.00291   2.07228
   R15        2.87499   0.01140   0.00092   0.02923   0.03017   2.90517
   R16        2.05124   0.00704  -0.00878   0.01643   0.00766   2.05889
   R17        2.26001   0.02455  -0.01151   0.01897   0.00746   2.26747
   R18        2.10885   0.00106   0.00583  -0.00056   0.00527   2.11412
    A1        1.82154   0.00558  -0.01496   0.02109   0.00616   1.82771
    A2        1.94263   0.00002   0.00116   0.00016   0.00122   1.94385
    A3        1.97608  -0.00383   0.00821  -0.01041  -0.00218   1.97390
    A4        1.91590  -0.00259   0.00353  -0.00971  -0.00627   1.90963
    A5        1.91615  -0.00111   0.00296  -0.00628  -0.00317   1.91298
    A6        1.89057   0.00187  -0.00098   0.00490   0.00382   1.89439
    A7        2.28009  -0.00216   0.01035   0.00394   0.00772   2.28781
    A8        2.86308   0.00247   0.00675   0.01520   0.03319   2.89626
    A9        1.92786   0.00860   0.00385   0.02962   0.04113   1.96899
   A10        2.31704  -0.00337   0.00933  -0.02003  -0.01528   2.30175
   A11        1.56458  -0.00322   0.01276  -0.01529  -0.00385   1.56073
   A12        1.56609   0.00562  -0.03286   0.00752  -0.01818   1.54791
   A13        1.57016  -0.00765   0.00706  -0.00620  -0.00595   1.56421
   A14        2.01497   0.00188   0.00244  -0.00238   0.00294   2.01791
   A15        2.05977  -0.00022   0.00153   0.00876   0.00582   2.06559
   A16        1.99450   0.00120  -0.01151  -0.00602  -0.01007   1.98443
   A17        2.06644   0.00004   0.00547   0.00793   0.00452   2.07096
   A18        1.99006  -0.00114   0.00336  -0.00638  -0.00248   1.98759
   A19        1.59494  -0.00221   0.01226  -0.01544  -0.00484   1.59010
   A20        1.65525   0.00111  -0.00752  -0.00836  -0.00630   1.64895
   A21        2.25867  -0.00479   0.00141  -0.01660  -0.02798   2.23068
   A22        1.69303  -0.00978   0.03383  -0.01884   0.00545   1.69849
   A23        2.12585   0.00524   0.02410   0.00097   0.03086   2.15671
   A24        2.00763   0.00728  -0.04384   0.04880   0.00254   2.01018
   A25        2.29729  -0.01444  -0.03741  -0.07390  -0.11767   2.17962
   A26        1.68543   0.00871   0.04352   0.04633   0.10341   1.78883
   A27        1.79969  -0.00880   0.00508   0.00322   0.00192   1.80162
   A28        2.77031   0.01399   0.05155   0.08084   0.11321   2.88352
   A29        1.51925   0.00161  -0.01362   0.01741  -0.00832   1.51093
   A30        2.15045   0.00188  -0.00879   0.00481  -0.00417   2.14628
   A31        1.98018   0.00485  -0.00424   0.02114   0.01672   1.99689
   A32        2.12592  -0.00601   0.01087  -0.02908  -0.01840   2.10753
   A33        3.13341   0.00089  -0.02535   0.02941  -0.00127   3.13214
   A34        3.22055  -0.00467  -0.00749  -0.01790  -0.02625   3.19429
    D1       -1.07093  -0.00051  -0.03275  -0.01359  -0.04748  -1.11841
    D2        0.76937   0.00190   0.02291   0.03055   0.05137   0.82074
    D3        0.81658   0.00210  -0.00493  -0.00318  -0.00423   0.81235
    D4        2.73855  -0.00259   0.01576   0.00569   0.02101   2.75956
    D5       -3.13638  -0.00069  -0.02862  -0.01443  -0.04424   3.10257
    D6       -1.29607   0.00172   0.02704   0.02971   0.05461  -1.24147
    D7       -1.24886   0.00192  -0.00079  -0.00403  -0.00099  -1.24985
    D8        0.67311  -0.00277   0.01990   0.00485   0.02425   0.69736
    D9        1.01213  -0.00035  -0.03397  -0.01336  -0.04857   0.96356
   D10        2.85243   0.00205   0.02168   0.03078   0.05027   2.90271
   D11        2.89965   0.00225  -0.00615  -0.00296  -0.00533   2.89432
   D12       -1.46157  -0.00243   0.01454   0.00592   0.01992  -1.44166
   D13        0.92775   0.00322   0.02719   0.02790   0.06083   0.98858
   D14       -1.51236   0.00294   0.01617   0.03056   0.05308  -1.45928
   D15       -1.11574  -0.00468   0.00730  -0.00019   0.00337  -1.11237
   D16        2.72734  -0.00496  -0.00372   0.00248  -0.00438   2.72296
   D17       -2.68593   0.00299  -0.00191   0.00599   0.00912  -2.67681
   D18        1.15715   0.00271  -0.01293   0.00865   0.00138   1.15852
   D19        2.00341  -0.00223  -0.02753  -0.07730  -0.10589   1.89752
   D20        0.39967  -0.01010  -0.05398  -0.13141  -0.15280   0.24688
   D21       -0.64894  -0.00266   0.00265  -0.06611  -0.06416  -0.71310
   D22       -2.25267  -0.01053  -0.02379  -0.12022  -0.11107  -2.36374
   D23       -2.21352   0.00052  -0.01130  -0.05085  -0.06046  -2.27398
   D24        2.46593  -0.00734  -0.03775  -0.10496  -0.10737   2.35857
   D25        1.11194   0.00360   0.01120   0.00350   0.01687   1.12882
   D26        2.80751  -0.00638   0.04647  -0.01707   0.02173   2.82925
   D27       -1.23725   0.00215  -0.03731   0.03421  -0.00136  -1.23861
   D28       -2.75008   0.00329   0.00882  -0.00524   0.00514  -2.74494
   D29       -1.05451  -0.00669   0.04409  -0.02581   0.01000  -1.04451
   D30        1.18391   0.00183  -0.03970   0.02547  -0.01310   1.17082
   D31        1.46829  -0.00894  -0.07065  -0.08083  -0.14417   1.32412
   D32       -0.57216  -0.00956  -0.10240  -0.27215  -0.38147  -0.95362
   D33        3.07390  -0.01191  -0.05517  -0.09918  -0.14941   2.92450
   D34        1.03346  -0.01253  -0.08692  -0.29049  -0.38670   0.64675
   D35       -0.93964  -0.00839  -0.01990  -0.08443  -0.10545  -1.04509
[...]

 ----------------------------------------------------------------------

 Dipole orientation:
     6          1.58911569          0.46303606         -0.12794686
     6          4.35415411          0.00630349         -0.49138986
     6          6.60676524          0.37747063          1.35238437
     6          7.53073819         -1.05109021         -1.01460823
     8          5.23571370         -2.63370676         -0.88528089
     6          6.07698634          0.79163045         -2.79124781
     6          6.88845037          3.47820535         -3.20459244
     8          6.71363997          4.53239599         -5.21929917
     1          0.91344063         -0.55182127          1.54206620
     1          0.52500484         -0.19027209         -1.77483755
     1          1.22225195          2.48108457          0.13465309
     1          6.50393752         -0.77901969          3.05496391
     1          7.30101930          2.28375329          1.72717195
     1          9.32276402         -2.00006993         -1.36933315
     1          5.48272280         -0.06978661         -4.56761566
     1          7.67244231          4.49484741         -1.54062401

 Electric dipole moment (dipole orientation):
 (Debye = 10**-18 statcoulomb cm , SI units = C m)
                  (au)            (Debye)         (10**-30 SI)
   Tot        0.956299D+00      0.243067D+01      0.810784D+01
   x          0.000000D+00      0.000000D+00      0.000000D+00
   y          0.000000D+00      0.000000D+00      0.000000D+00
   z          0.956299D+00      0.243067D+01      0.810784D+01

 Dipole polarizability, Alpha (dipole orientation).
 (esu units = cm**3 , SI units = C**2 m**2 J**-1)
 Alpha(0;0):
               (au)            (10**-24 esu)      (10**-40 SI)
   iso        0.661547D+02      0.980311D+01      0.109074D+02
   aniso      0.140976D+02      0.208905D+01      0.232438D+01
   xx         0.641214D+02      0.950181D+01      0.105722D+02
   yx         0.182112D+01      0.269862D+00      0.300262D+00
   yy         0.652380D+02      0.966728D+01      0.107563D+02
   zx        -0.134414D+01     -0.199182D+00     -0.221619D+00
   zy        -0.736792D+01     -0.109181D+01     -0.121481D+01
   zz         0.691046D+02      0.102402D+02      0.113938D+02

 ----------------------------------------------------------------------
 1\1\GINC-LEWIS4-Z10PH-HPC3-NODE405\Freq\RB3LYP\6-31G(2df,p)\C6H8O2\YXI
 E\04-Aug-2022\0\\#N Geom=AllCheck Guess=TCheck SCRF=Check GenChk RB3LY
 P/6-31G(2df,p) Freq\\Title Card Required\\0,1\C,0.8549585598,0.1941991
 369,-0.0557527578\C,2.3040182362,0.0037010561,0.2609198194\C,3.2979358
 792,0.9176100784,1.0279730918\C,3.9571928552,-0.4551610048,0.782354245
 7\O,2.6898072851,-1.1010206805,1.1793578971\C,3.4626850559,-0.47520934
 87,-0.6946821867\C,4.0373100207,0.4205404626,-1.75337543\O,4.195986265
 9,0.0687005031,-2.8968072645\H,0.2927829562,0.3982359148,0.8605255537\
 H,0.4443684552,-0.7038661139,-0.5258657862\H,0.7228854368,1.0373345133
 ,-0.7406617248\H,3.0230250386,1.1041843604,2.0666476961\H,3.6990109672
 ,1.8043519231,0.5332690335\H,4.8811031938,-0.869011352,1.1846080492\H,
 3.2997491567,-1.4798581042,-1.0876732235\H,4.3163906374,1.4503086554,-
 1.4394070131\\Version=ES64L-G16RevA.03\State=1-A\HF=-383.8093197\RMSD=
 3.531e-09\RMSF=1.055e-05\ZeroPoint=0.1284886\Thermal=0.1360256\Dipole=
 -0.1838785,0.665944,0.6612225\DipoleDeriv=-0.1460684,0.0491607,-0.0509
 606,0.0092312,0.0471142,-0.0280258,0.0115528,0.0011791,-0.024621,0.682
 249,-0.0558349,0.079178,-0.1589661,0.2569698,0.0190038,0.0205317,-0.05
 57222,0.4439543,-0.1374251,0.1117814,-0.1174037,0.0821221,0.0938573,-0
 .0405406,-0.1492777,-0.1131055,0.1523548,0.4711506,-0.0847639,0.017989
 3,-0.0579016,0.2466865,0.0444262,0.0343789,-0.0647469,0.3539038,-0.636
 1619,-0.0498622,0.0143791,-0.0164184,-0.58933,0.1915935,-0.0034844,0.1
 918002,-0.5352707,-0.2345164,0.0179158,0.152632,-0.0022881,0.0547564,0
 .1024334,0.1344737,0.0798347,-0.3507674,0.3108706,0.1498001,-0.3080869
 ,0.283607,0.6646447,-0.1505554,-0.3024177,0.1199435,1.176993,-0.354669
 9,-0.0232324,0.1578961,-0.0300414,-0.4329878,-0.0953137,0.2304138,-0.0
 89017,-1.0613951,-0.0420655,0.0209295,0.0587593,0.0204512,0.0693845,-0
 .0308273,0.0732395,-0.0302253,-0.0379609,-0.0083226,-0.017035,-0.03400
 07,-0.0618022,-0.0344265,-0.0584408,-0.0387855,-0.0529814,0.0417218,0.
 0315209,-0.0096258,0.0012285,0.0251151,-0.0244508,0.0788137,-0.0276337
 ,0.0771483,0.0107128,0.0596597,0.0109475,0.0628316,-0.0136014,0.021449
 4,-0.0114714,0.032843,-0.0748765,-0.1036582,0.0349886,-0.0722093,0.022
 5121,-0.0672441,-0.0977054,0.0426109,0.0416882,0.0922831,0.0185919,-0.
 1057463,0.0576599,-0.0554782,0.1001886,0.0019417,0.0215625,-0.0625795,
 0.0329904,-0.0472635,0.055758,-0.0350187,0.0083142,-0.0257743,-0.06162
 69,-0.0407389,0.0242828,-0.0386724,-0.0338768,0.0187786,-0.0706127,-0.
 0097901,-0.0866777,-0.2162772,-0.0445301,-0.0192259,-0.0758321,-0.0034
 188\Polar=65.3245929,0.3870794,59.84389,-4.1860592,1.6797026,73.295514
 5\Quadrupole=4.0855825,1.6992194,-5.7848019,-0.816228,3.6252099,1.5036
 203\PG=C01 [X(C6H8O2)]\NImag=0\\0.48848311,0.01019908,0.56500770,-0.01
 455430,0.00253008,0.56219467,-0.21505885,0.00705769,-0.02292695,0.6258
 7791,0.01574399,-0.08189332,0.00012232,-0.03446418,0.33038454,-0.02955
 556,-0.00061487,-0.08421235,0.07779751,0.01582706,0.33321890,-0.007737
 07,-0.01608087,-0.00951675,-0.09371210,-0.03766984,-0.02403317,0.32674
 481,0.00396949,0.00874616,0.00311559,-0.04467142,-0.07316954,-0.029596
 16,0.07998697,0.58660747,0.00010654,-0.00091362,0.00002498,-0.02901641
 ,-0.03453987,-0.09115343,-0.10661718,0.00365450,0.60350017,-0.01087304
 ,-0.00211271,-0.00096580,-0.13248223,0.04522122,-0.04764236,-0.0681143
 9,0.05315124,0.01279188,0.61534722,0.00178931,-0.00646328,0.00161636,0
 .04744581,0.01989918,0.01014972,0.05247942,-0.13525601,-0.01907872,-0.
 15111602,0.37530592,-0.00230161,0.00055357,-0.00620618,-0.05830476,0.0
 1251433,0.01864346,0.01299864,-0.01079639,-0.06909390,0.14031407,-0.04
 000502,0.36113310,-0.00093294,0.02643343,-0.02172348,-0.06174874,0.005
 04763,0.00075322,-0.01255612,-0.02624994,0.00914314,-0.11356261,-0.038
 39762,0.02168448,0.20857199,0.00062192,-0.00273314,0.00352120,-0.00093
 946,-0.10371061,0.03181430,-0.04073454,-0.09597030,0.04579189,-0.03080
 667,-0.08442008,0.01936080,0.07586054,0.28323080,-0.00072399,0.0065673
 0,-0.00324494,-0.00210452,0.03488991,-0.08813932,-0.00284231,0.0026214
 8,0.00941643,0.02199943,0.01686101,-0.07125911,-0.05291446,-0.11456710
 ,0.21570037,-0.01124842,0.00573856,0.01956073,-0.08427458,0.00592678,0
 .01496498,0.00758734,-0.00047388,-0.00319518,-0.04932349,-0.00293603,-
 0.03330186,-0.01041042,-0.01177580,0.04481669,0.27001325,-0.00019240,0
 .00071006,0.00064883,0.01573440,-0.07113916,-0.03098840,0.01296716,-0.
 01925944,-0.06545331,0.00171525,-0.06861856,-0.01808404,-0.02567763,-0
 .00797987,0.06648134,0.08639529,0.60086713,-0.00417387,0.00001619,0.00
 507465,0.04235461,-0.01861953,-0.05348766,0.00819080,-0.02139784,-0.03
 769224,-0.04862459,0.00419851,-0.12308961,0.02928613,0.02145680,-0.071
 59061,-0.05189835,0.06738230,0.51471724,0.00064259,-0.00044321,-0.0005
 9671,-0.00443368,-0.01153296,0.00964180,-0.00064681,0.00301795,0.00075
 019,0.00096033,0.01393766,0.00368349,0.00997767,-0.00239370,0.00256082
 ,-0.10455238,-0.03550769,0.01345069,0.25705745,0.00037460,-0.00097872,
 -0.00383751,-0.00409701,0.01234630,0.00519171,0.00145873,0.00416856,-0
 .00003349,0.00256112,0.00344192,0.00533141,0.00103330,0.00519383,-0.00
 930448,-0.02914382,-0.15996098,0.03432420,0.08051898,0.56132689,-0.001
 28871,0.00055755,0.00493716,0.00363567,-0.00043582,-0.02087364,-0.0002
 0873,-0.00212914,-0.00290987,0.01328899,0.00559971,-0.01584094,0.00443
 695,0.00064699,-0.00241487,0.01388817,0.04730010,-0.09986783,-0.108957
 73,0.17547650,0.89006579,-0.00002168,0.00012252,-0.00015167,-0.0000331
 6,0.00006542,0.00121545,0.00022441,-0.00081884,-0.00006683,-0.00090238
 ,-0.00297803,-0.00380344,-0.00378862,0.00010336,0.00124453,0.02016140,
 0.00136283,0.02910071,-0.07983087,0.01347814,0.08882547,0.04419671,0.0
 0005076,0.00014586,0.00038433,0.00148264,-0.00207512,0.00095112,-0.000
 71614,-0.00185534,0.00043597,-0.00250418,-0.00027062,0.00149722,-0.000
 14347,-0.00070874,0.00240775,-0.00471817,0.02338433,0.01692400,0.01349
 729,-0.16198640,-0.19400346,-0.01227294,0.14286666,0.00035154,-0.00032
 412,-0.00228145,-0.00653028,0.00598806,0.00644489,-0.00026630,-0.00075
 091,0.00095459,0.00248067,0.00313760,0.00589327,0.00307847,0.00329480,
 -0.00765453,0.02204648,-0.00795960,-0.06428766,0.08884782,-0.19434928,
 -0.69819523,-0.11116217,0.22070983,0.78454580,-0.11390288,0.02444201,0
 .11213407,-0.02049056,0.00685967,0.03138574,0.00113178,-0.00047524,0.0
 0004495,0.00001779,-0.00013545,0.00140676,0.00278856,0.00001249,-0.001
 28627,-0.00363383,-0.00095297,-0.00185201,0.00025158,0.00149779,-0.001
 76870,0.00001153,-0.00020686,0.00094968,0.12563553,0.02422372,-0.05516
 697,-0.04247536,0.00280103,-0.00265694,-0.00330112,0.00004446,0.000069
 15,0.00058721,0.00028642,0.00051171,-0.00021024,-0.00105662,0.00024034
 ,-0.00024928,0.00082346,0.00092085,0.00010387,0.00012112,-0.00029214,0
 .00035543,0.00000610,0.00003359,-0.00018050,-0.02756279,0.05496886,0.1
 1303292,-0.04237005,-0.23483451,-0.00314897,0.00140992,0.00611284,0.00
 048634,-0.00003090,0.00054925,0.00001605,-0.00006635,0.00088434,0.0011
 1089,-0.00061864,0.00060070,-0.00314747,0.00070298,0.00092323,0.000044
 69,0.00033053,-0.00062101,0.00005938,0.00002686,0.00031919,-0.12447246
 ,0.04648847,0.25249118,-0.08227107,-0.07935913,-0.04102711,-0.01543819
 ,-0.03173138,-0.01610570,-0.00300821,0.00282041,0.00036005,-0.00030317
 ,-0.00151244,-0.00054265,0.00247019,0.00133920,0.00070727,0.00136304,-
 0.00029348,0.00021497,-0.00007405,-0.00024025,0.00002474,0.00004681,0.
 00011524,0.00017015,0.00645750,0.01441310,0.00634608,0.09050379,-0.080
 94485,-0.22800273,-0.09529311,0.00109200,0.00359086,0.00246272,0.00238
 352,0.00056265,0.00104413,0.00015894,0.00082319,0.00007536,-0.00100324
 ,0.00082820,-0.00062295,-0.00035286,0.00033956,0.00011610,-0.00000732,
 -0.00008673,-0.00021162,0.00004292,0.00005050,0.00019177,-0.00150968,-
 0.00419642,-0.00099241,0.08912291,0.24489819,-0.04136164,-0.09513847,-
 0.09549719,-0.00328819,-0.00579594,-0.00521523,-0.00037990,0.00057537,
 0.00127574,-0.00038834,-0.00035014,0.00045030,0.00110303,0.00004518,0.
 00025973,-0.00017674,0.00062734,0.00030528,0.00002339,0.00017844,0.000
 01613,-0.00003065,-0.00005757,-0.00000350,-0.01079956,-0.02210696,-0.0
 1072887,0.04693561,0.10463997,0.09954159,-0.05064184,0.02281636,-0.018
 81116,-0.00048951,0.02721607,-0.02149519,0.00074567,-0.00111549,0.0000
 0902,0.00190567,0.00144847,-0.00106958,-0.00717942,0.00024196,-0.00115
 316,0.00050011,-0.00022486,0.00127339,-0.00020751,0.00040597,-0.000030
 14,-0.00004428,-0.00013343,0.00027764,0.00199570,-0.01381831,0.0094199
 4,0.00104439,-0.00865757,0.00864830,0.05336246,0.02376293,-0.20347035,
 0.12884327,-0.00021012,-0.00500398,0.00197844,0.00048400,0.00013900,0.
 00008080,-0.00010266,0.00005991,0.00043379,0.00024022,0.00210489,-0.00
 092639,0.00023447,0.00003365,-0.00036956,0.00023166,-0.00007987,0.0003
 5469,-0.00006564,-0.00000376,-0.00035304,-0.00152889,0.00534192,-0.004
 94431,0.00372483,-0.01885865,0.01708111,-0.02703706,0.21943747,-0.0196
 6054,0.12877753,-0.14911374,0.00065437,0.00493391,-0.00658417,0.000146
 61,-0.00031717,-0.00003833,0.00017630,0.00052926,0.00010404,-0.0010950
 7,-0.00095113,0.00158592,-0.00054898,-0.00004950,0.00024129,-0.0000401
 7,0.00033663,0.00013971,-0.00005733,-0.00009422,-0.00000065,-0.0042472
 9,0.02084483,-0.01568144,0.00263221,-0.01145690,0.00942974,0.02251699,
 -0.14215376,0.15980286,0.00108943,0.00012131,0.00003196,0.00781099,-0.
 00422334,-0.02080024,-0.06347869,0.01002464,0.06870322,-0.00342085,0.0
 0154050,0.01855094,-0.00217031,0.00136629,-0.00244864,-0.00058747,-0.0
 0064871,-0.00090498,0.00000156,-0.00069888,-0.00008275,-0.00010678,0.0
 0032695,0.00030287,-0.00032498,0.00011701,0.00023980,-0.00024211,-0.00
 000943,0.00027391,0.00000189,-0.00001296,0.00003813,0.06181405,0.00021
 411,0.00012586,0.00037648,0.00559585,-0.00385300,-0.00818724,0.0084080
 3,-0.05450253,-0.03622423,0.00053628,-0.00350769,-0.02217417,0.0020310
 5,0.00421381,0.00029858,-0.00055433,-0.00787142,-0.00359258,-0.0010385
 0,-0.00201859,0.00059098,0.00030914,0.00097215,0.00029679,-0.00022664,
 0.00012277,0.00005330,0.00001593,-0.00001079,-0.00001040,-0.00004171,0
 .00002786,0.00003188,-0.01021801,0.05918807,0.00026710,0.00005631,0.00
 023774,0.00749788,-0.00230310,-0.01274437,0.06782814,-0.04124575,-0.29
 646148,-0.00151217,0.00118597,-0.00150719,-0.00178711,0.00196137,0.003
 89608,-0.00092235,-0.00334896,-0.00152788,-0.00020247,0.00012244,0.001
 07177,0.00009499,-0.00003271,-0.00066566,-0.00060869,0.00001389,0.0000
 6060,-0.00011821,-0.00002942,0.00013490,0.00003476,-0.00001332,0.00003
 605,-0.07337236,0.04762735,0.31726131,0.00047788,-0.00033784,-0.000138
 07,-0.00412165,-0.00808823,0.01339877,-0.08613843,-0.07826788,0.045823
 46,0.00520843,0.00734879,-0.00973737,0.00720391,-0.00429794,0.00111998
 ,-0.00041640,-0.00034198,-0.00085587,-0.00021528,-0.00030065,0.0014413
 3,0.00007995,0.00031625,-0.00015057,0.00010056,-0.00003741,-0.00000129
 ,-0.00024173,0.00001822,-0.00032107,-0.00033070,0.00010539,-0.00026989
 ,-0.00234674,-0.00555845,0.00192822,0.08085159,0.00019689,0.00025820,-
 0.00025987,0.00367784,-0.00591224,0.00757868,-0.07700687,-0.22029988,0
 .09549058,-0.01270173,-0.00607917,0.00933063,-0.00569693,-0.01247501,-
 0.00190444,0.00066490,0.00036873,-0.00051527,-0.00159627,-0.00344840,0
 .00065466,0.00052386,0.00157432,0.00035752,0.00001718,-0.00001870,0.00
 002008,0.00000868,-0.00006596,0.00003781,-0.00032989,0.00013147,-0.000
 13954,0.00264113,0.00569786,-0.00333402,0.08843552,0.23832631,0.000467
 37,0.00002196,-0.00007249,-0.00100521,-0.00799782,0.00750439,0.0464341
 0,0.09854785,-0.11126349,-0.00315514,-0.00170971,-0.00144436,0.0000306
 2,-0.00530254,0.00409543,0.00004557,0.00166741,0.00109446,0.00070621,-
 0.00192496,-0.00343990,-0.00016335,0.00019195,0.00044511,-0.00004714,0
 .00001512,-0.00000092,-0.00010316,0.00000611,-0.00010826,-0.00007844,0
 .00008499,-0.00000769,0.00931842,0.02294943,-0.00941523,-0.05329544,-0
 .10649628,0.11457870,0.00088786,0.00130606,-0.00125151,-0.00740553,-0.
 00089649,0.00050713,0.00075621,-0.00084759,-0.00126912,-0.24213326,0.0
 8776701,-0.08435946,-0.01512729,0.00824414,-0.00766903,0.00227485,-0.0
 0030670,0.00131260,0.00040432,-0.00011857,-0.00062446,-0.00013433,0.00
 019691,0.00001812,0.00014590,-0.00003863,0.00011388,0.00003276,-0.0000
 9036,0.00000844,-0.00060526,0.00020966,-0.00023038,0.00010881,-0.00005
 151,0.00009025,-0.00023752,0.00046078,0.00003016,0.26099913,0.00023665
 ,0.00331302,-0.00010520,0.00274923,-0.00596418,0.00153012,0.01349317,0
 .00212511,0.01086420,0.09509184,-0.09623844,0.04110423,-0.01389606,0.0
 0778241,-0.00725211,-0.00204646,0.00153425,-0.00295072,-0.00059405,-0.
 00057661,0.00020817,0.00022749,0.00006461,-0.00019914,-0.00000898,-0.0
 0008018,0.00000023,0.00089265,-0.00001803,0.00024150,-0.00057039,0.000
 07077,-0.00019122,-0.00014085,0.00037316,-0.00031329,0.00038287,-0.000
 19219,0.00030490,-0.09585503,0.08743930,-0.00039313,-0.00003736,0.0027
 8240,-0.00116142,0.00106496,-0.00415716,0.00518744,-0.00154982,0.00326
 279,-0.09038963,0.04010511,-0.09143341,0.00958851,-0.00561246,0.005446
 37,-0.01468297,0.01151352,-0.00206654,-0.00330479,-0.00221954,0.002995
 82,0.00126488,0.00001710,-0.00165597,-0.00082397,0.00011209,-0.0000300
 5,0.00026069,0.00001520,-0.00000419,0.00043904,-0.00011655,0.00006203,
 -0.00000474,0.00047306,0.00023209,0.00026902,-0.00038125,0.00008878,0.
 09338310,-0.04364421,0.08402991,0.00123376,0.00001044,-0.00014466,0.00
 548506,0.02098603,0.01038619,-0.00162410,0.00075606,0.00173743,-0.0016
 8286,-0.01474003,-0.00482406,-0.00217011,0.00209288,-0.00153174,-0.051
 93983,-0.03898619,-0.01548113,-0.00201081,-0.01329359,-0.00437511,-0.0
 0054152,0.00244055,-0.00114653,-0.00015280,-0.00030814,-0.00007782,-0.
 00038808,-0.00025364,-0.00024004,0.00000446,-0.00004977,0.00000289,0.0
 0182057,0.00021626,0.00085760,0.00001394,-0.00001660,0.00001056,0.0000
 6069,-0.00007264,0.00015683,0.05096218,-0.00016122,0.00015405,0.000123
 15,-0.00363111,-0.00828303,-0.00343020,0.00085222,-0.00055345,-0.00131
 698,0.00071055,0.00171420,0.00232661,0.00148668,0.00364067,0.00191454,
 -0.03926171,-0.28076417,-0.08775545,-0.00291199,-0.01933748,-0.0099078
 0,0.00162000,0.00439830,0.00045470,0.00005280,0.00012620,0.00001535,0.
 00049823,0.00008822,0.00004826,-0.00004101,0.00003181,-0.00001499,-0.0
 0057365,0.00005071,-0.00016134,0.00000480,0.00021632,0.00021825,-0.000
 04838,0.00020129,-0.00031882,0.04308796,0.29952528,-0.00021751,0.00036
 696,0.00021773,-0.00445551,-0.00739489,-0.00562622,0.00166242,-0.00127
 723,-0.00830176,0.00202619,-0.02144389,-0.00764761,-0.00210726,0.00003
 615,0.00347163,-0.01489892,-0.08680977,-0.07882700,0.00433942,0.022968
 18,0.00723684,-0.00144904,-0.00228983,0.00213875,-0.00002701,0.0000061
 6,-0.00001753,0.00031292,0.00005340,0.00015708,0.00001332,0.00003378,0
 .00002732,0.00019349,-0.00247423,-0.00051617,-0.00000811,0.00010713,0.
 00020793,-0.00006599,0.00043517,0.00044865,0.01248127,0.09553410,0.089
 81560,-0.00012684,0.00008630,0.00008143,0.00051481,0.00153960,-0.00041
 857,-0.00017431,-0.00080647,0.00069484,-0.00064117,-0.00194135,-0.0003
 9360,-0.00136575,0.00106533,0.00022538,0.01448684,-0.01504232,-0.00139
 308,-0.07732409,-0.05343587,-0.00820498,0.02068282,0.00226862,0.000732
 41,-0.00003136,-0.00001452,-0.00002196,0.00004813,0.00001044,-0.000006
 56,-0.00006183,0.00001393,-0.00001787,0.00003064,0.00036249,-0.0000755
 8,0.00011220,0.00072149,0.00080488,-0.00002735,0.00011057,0.00021117,0
 .00092946,-0.00168417,0.00220034,0.04294778,-0.00008499,0.00024762,0.0
 0068945,0.00037681,-0.00255977,-0.00136588,-0.00034942,-0.00155163,-0.
 00038905,-0.00008889,-0.00090218,-0.00125808,-0.00001136,0.00076281,0.
 00278483,-0.00852040,-0.01256496,-0.00932104,-0.05529896,-0.23771157,-
 0.02505693,-0.00172634,-0.00659034,-0.03031448,-0.00027445,0.00007596,
 -0.00002503,0.00018549,0.00005793,-0.00001549,-0.00015910,0.00003786,-
 0.00008561,0.00038800,0.00099177,-0.00018543,0.00061854,0.00191836,-0.
 00057667,0.00006870,0.00016571,0.00057895,-0.00186958,-0.00120892,0.00
 214880,0.06674594,0.25883134,0.00000541,-0.00004896,-0.00000646,0.0000
 0218,0.00033652,0.00026907,0.00092986,0.00057650,-0.00206944,-0.000415
 54,-0.00072943,0.00041382,-0.00058804,-0.00087760,-0.00016928,0.007450
 18,0.01636974,0.01008087,-0.01094666,-0.03259079,-0.06229992,-0.004920
 92,-0.04706834,-0.02599695,0.00001191,-0.00000360,-0.00002702,-0.00006
 784,0.00000164,-0.00001322,0.00000527,-0.00001392,-0.00000296,-0.00003
 903,-0.00003501,-0.00009257,0.00079690,-0.00054640,-0.00226246,0.00000
 625,-0.00003263,-0.00000153,0.00218834,0.00227062,-0.00278522,0.005581
 74,0.06239165,0.08496327\\0.00000142,-0.00000439,-0.00000876,0.0000078
 1,0.00001628,0.00002976,-0.00000301,-0.00000270,0.00000428,-0.00002368
 ,0.00000056,0.00000865,-0.00000188,0.00000474,-0.00000375,0.00000486,-
 0.00002078,-0.00002234,0.00001261,0.00000115,0.00003188,0.00000082,0.0
 0000078,-0.00002422,0.00000132,-0.00000513,0.00000167,0.00000168,0.000
 00446,-0.00000789,-0.00000069,0.00000486,0.00000491,0.00000417,0.00000
 722,-0.00000484,0.00000119,-0.00000425,-0.00000074,0.00000360,0.000002
 12,-0.00001015,0.00000247,0.00000032,0.00000297,-0.00001270,-0.0000052
 4,-0.00000143\\\@


 IF I HAVE SEEN FARTHER, IT IS BY STANDING ON THE
 SHOULDERS OF GIANTS. -- SIR ISAAC NEWTON
 Job cpu time:       0 days  1 hours 31 minutes  3.8 seconds.
 Elapsed time:       0 days  0 hours 23 minutes 55.4 seconds.
 File lengths (MBytes):  RWF=     93 Int=      0 D2E=      0 Chk=      7 Scr=      1
 Normal termination of Gaussian 16 at Thu Aug  4 01:53:03 2022.
### All Done ###
