### Starting Gaussian ###
 Entering Gaussian System, Link 0=g16
 Initial command:
 /cluster/software/gaussian/gaussian-16-A.03/avx2/g16/l1.exe "/local/scratch/ks29c/Gau-12020.inp" -scrdir="/local/scratch/ks29c/"
 Entering Link 1 = /cluster/software/gaussian/gaussian-16-A.03/avx2/g16/l1.exe PID=     12021.
  
 Copyright (c) 1988,1990,1992,1993,1995,1998,2003,2009,2016,
            Gaussian, Inc.  All Rights Reserved.
  
 This is part of the Gaussian(R) 16 program.  It is based on
 the Gaussian(R) 09 system (copyright 2009, Gaussian, Inc.),
 the Gaussian(R) 03 system (copyright 2003, Gaussian, Inc.),
 the Gaussian(R) 98 system (copyright 1998, Gaussian, Inc.),
 the Gaussian(R) 94 system (copyright 1995, Gaussian, Inc.),
 the Gaussian 92(TM) system (copyright 1992, Gaussian, Inc.),
 the Gaussian 90(TM) system (copyright 1990, Gaussian, Inc.),
 the Gaussian 88(TM) system (copyright 1988, Gaussian, Inc.),
 the Gaussian 86(TM) system (copyright 1986, Carnegie Mellon
 University), and the Gaussian 82(TM) system (copyright 1983,
 Carnegie Mellon University). Gaussian is a federally registered
 trademark of Gaussian, Inc.
  
 This software contains proprietary and confidential information,
 including trade secrets, belonging to Gaussian, Inc.
  
 This software is provided under written license and may be
 used, copied, transmitted, or stored only in accord with that
 written license.
  
 The following legend is applicable only to US Government
 contracts under FAR:
  
                    RESTRICTED RIGHTS LEGEND
  
 Use, reproduction and disclosure by the US Government is
 subject to restrictions as set forth in subparagraphs (a)
 and (c) of the Commercial Computer Software - Restricted
 Rights clause in FAR 52.227-19.
  
 Gaussian, Inc.
 340 Quinnipiac St., Bldg. 40, Wallingford CT 06492
  
  
 ---------------------------------------------------------------
 Warning -- This program may not be used in any manner that
 competes with the business of Gaussian, Inc. or will provide
 assistance to any competitor of Gaussian, Inc.  The licensee
 of this program is prohibited from giving any competitor of
 Gaussian, Inc. access to this program.  By using this program,
 the user acknowledges that Gaussian, Inc. is engaged in the
 business of creating and licensing software in the field of
 computational chemistry and represents and warrants to the
 licensee that it is not a competitor of Gaussian, Inc. and that
 it will not use this program in any manner prohibited above.
 ---------------------------------------------------------------
  

 Cite this work as:
 Gaussian 16, Revision A.03,
 M. J. Frisch, G. W. Trucks, H. B. Schlegel, G. E. Scuseria, 
 M. A. Robb, J. R. Cheeseman, G. Scalmani, V. Barone, 
 G. A. Petersson, H. Nakatsuji, X. Li, M. Caricato, A. V. Marenich, 
 J. Bloino, B. G. Janesko, R. Gomperts, B. Mennucci, H. P. Hratchian, 
 J. V. Ortiz, A. F. Izmaylov, J. L. Sonnenberg, D. Williams-Young, 
 F. Ding, F. Lipparini, F. Egidi, J. Goings, B. Peng, A. Petrone, 
 T. Henderson, D. Ranasinghe, V. G. Zakrzewski, J. Gao, N. Rega, 
 G. Zheng, W. Liang, M. Hada, M. Ehara, K. Toyota, R. Fukuda, 
 J. Hasegawa, M. Ishida, T. Nakajima, Y. Honda, O. Kitao, H. Nakai, 
 T. Vreven, K. Throssell, J. A. Montgomery, Jr., J. E. Peralta, 
 F. Ogliaro, M. J. Bearpark, J. J. Heyd, E. N. Brothers, K. N. Kudin, 
 V. N. Staroverov, T. A. Keith, R. Kobayashi, J. Normand, 
 K. Raghavachari, A. P. Rendell, J. C. Burant, S. S. Iyengar, 
 J. Tomasi, M. Cossi, J. M. Millam, M. Klene, C. Adamo, R. Cammi, 
 J. W. Ochterski, R. L. Martin, K. Morokuma, O. Farkas, 
 J. B. Foresman, and D. J. Fox, Gaussian, Inc., Wallingford CT, 2016.
 
 ******************************************
 Gaussian 16:  ES64L-G16RevA.03 25-Dec-2016
                 4-Aug-2022 
 ******************************************
 %chk=CC12CC1OCC2O.chk
 %NProcShared=20
 Will use up to   20 processors via shared memory.
 -----------------------------
 # opt freq b3lyp/6-31g(2df,p)
 -----------------------------
 1/18=20,19=15,26=3,38=1/1,3;
 2/9=110,12=2,17=6,18=5,40=1/2;
 3/5=1,6=6,7=104,11=2,25=1,30=1,71=1,74=-5/1,2,3;
 4//1;
 5/5=2,38=5/2;
 6/7=2,8=2,9=2,10=2,28=1/1;
 7//1,2,3,16;
 1/18=20,19=15,26=3/3(2);
 2/9=110/2;
 99//99;
 2/9=110/2;
 3/5=1,6=6,7=104,11=2,25=1,30=1,71=1,74=-5/1,2,3;
 4/5=5,16=3,69=1/1;
 5/5=2,38=5/2;
 7//1,2,3,16;
 1/18=20,19=15,26=3/3(-5);
 2/9=110/2;
 6/7=2,8=2,9=2,10=2,19=2,28=1/1;
 99/9=1/99;
 -------------------
 Title Card Required
 -------------------
 Symbolic Z-matrix:
 Charge =  0 Multiplicity = 1
 C                     1.4084   -0.11183  -0.25265 
 C                     2.87234   0.13798  -0.08861 
 C                     3.65771  -1.06922   0.41127 
 C                     4.17158  -0.35262  -0.78019 
 O                     5.13761   0.73002  -0.61878 
 C                     4.34848   1.93901  -0.5831 
 C                     3.17948   1.55905   0.32244 
 O                     3.53292   1.58728   1.69479 
 H                     1.12969  -1.13952  -0.49063 
 H                     0.95511   0.56937  -0.98127 
 H                     0.93766   0.12593   0.71516 
 H                     3.26879  -2.0604    0.17599 
 H                     4.17995  -1.04008   1.34893 
 H                     4.32298  -1.01073  -1.62132 
 H                     4.01184   2.12564  -1.61084 
 H                     4.92987   2.79017  -0.22129 
 H                     2.33734   2.24865   0.17152 
 H                     4.33058   1.01564   1.77017 
 

 GradGradGradGradGradGradGradGradGradGradGradGradGradGradGradGradGradGrad
 Berny optimization.
 Initialization pass.
                           ----------------------------
                           !    Initial Parameters    !
                           ! (Angstroms and Degrees)  !
 --------------------------                            --------------------------
 ! Name  Definition              Value          Derivative Info.                !
 --------------------------------------------------------------------------------
 ! R1    R(1,2)                  1.4941         estimate D2E/DX2                !
 ! R2    R(1,9)                  1.0911         estimate D2E/DX2                !
 ! R3    R(1,10)                 1.0956         estimate D2E/DX2                !
 ! R4    R(1,11)                 1.1022         estimate D2E/DX2                !
 ! R5    R(2,3)                  1.5245         estimate D2E/DX2                !
 ! R6    R(2,4)                  1.5514         estimate D2E/DX2                !
 ! R7    R(2,7)                  1.5109         estimate D2E/DX2                !
 ! R8    R(3,4)                  1.4823         estimate D2E/DX2                !
 ! R9    R(3,12)                 1.0904         estimate D2E/DX2                !
 ! R10   R(3,13)                 1.0737         estimate D2E/DX2                !
 ! R11   R(4,5)                  1.4599         estimate D2E/DX2                !
 ! R12   R(4,14)                 1.0787         estimate D2E/DX2                !
 ! R13   R(5,6)                  1.4442         estimate D2E/DX2                !
 ! R14   R(6,7)                  1.5267         estimate D2E/DX2                !
 ! R15   R(6,15)                 1.0975         estimate D2E/DX2                !
 ! R16   R(6,16)                 1.0924         estimate D2E/DX2                !
 ! R17   R(7,8)                  1.4174         estimate D2E/DX2                !
 ! R18   R(7,17)                 1.0989         estimate D2E/DX2                !
 ! R19   R(8,18)                 0.9842         estimate D2E/DX2                !
 ! A1    A(2,1,9)              115.576          estimate D2E/DX2                !
 ! A2    A(2,1,10)             111.989          estimate D2E/DX2                !
 ! A3    A(2,1,11)             106.6186         estimate D2E/DX2                !
 ! A4    A(9,1,10)             109.5656         estimate D2E/DX2                !
 ! A5    A(9,1,11)             106.5953         estimate D2E/DX2                !
 ! A6    A(10,1,11)            105.8506         estimate D2E/DX2                !
 ! A7    A(1,2,3)              114.1023         estimate D2E/DX2                !
 ! A8    A(1,2,4)              135.9475         estimate D2E/DX2                !
 ! A9    A(1,2,7)              112.7247         estimate D2E/DX2                !
 ! A10   A(3,2,7)              123.427          estimate D2E/DX2                !
 ! A11   A(4,2,7)              104.3864         estimate D2E/DX2                !
 ! A12   A(2,3,12)             117.7299         estimate D2E/DX2                !
 ! A13   A(2,3,13)             121.0277         estimate D2E/DX2                !
 ! A14   A(4,3,12)             112.9328         estimate D2E/DX2                !
 ! A15   A(4,3,13)             121.3475         estimate D2E/DX2                !
 ! A16   A(12,3,13)            112.7421         estimate D2E/DX2                !
 ! A17   A(2,4,5)              105.6849         estimate D2E/DX2                !
 ! A18   A(2,4,14)             131.1529         estimate D2E/DX2                !
 ! A19   A(3,4,5)              119.9362         estimate D2E/DX2                !
 ! A20   A(3,4,14)             112.3644         estimate D2E/DX2                !
 ! A21   A(5,4,14)             116.4733         estimate D2E/DX2                !
 ! A22   A(4,5,6)              105.187          estimate D2E/DX2                !
 ! A23   A(5,6,7)              102.9852         estimate D2E/DX2                !
 ! A24   A(5,6,15)             106.6688         estimate D2E/DX2                !
 ! A25   A(5,6,16)             111.6932         estimate D2E/DX2                !
 ! A26   A(7,6,15)             111.2781         estimate D2E/DX2                !
 ! A27   A(7,6,16)             113.8888         estimate D2E/DX2                !
 ! A28   A(15,6,16)            109.9324         estimate D2E/DX2                !
 ! A29   A(2,7,6)              103.2009         estimate D2E/DX2                !
 ! A30   A(2,7,8)              109.4409         estimate D2E/DX2                !
 ! A31   A(2,7,17)             113.3966         estimate D2E/DX2                !
 ! A32   A(6,7,8)              112.2333         estimate D2E/DX2                !
 ! A33   A(6,7,17)             110.4357         estimate D2E/DX2                !
 ! A34   A(8,7,17)             108.1541         estimate D2E/DX2                !
 ! A35   A(7,8,18)             105.3475         estimate D2E/DX2                !
 ! D1    D(9,1,2,3)            -29.1561         estimate D2E/DX2                !
 ! D2    D(9,1,2,4)             38.4138         estimate D2E/DX2                !
 ! D3    D(9,1,2,7)           -176.4703         estimate D2E/DX2                !
 ! D4    D(10,1,2,3)          -155.5728         estimate D2E/DX2                !
 ! D5    D(10,1,2,4)           -88.0029         estimate D2E/DX2                !
 ! D6    D(10,1,2,7)            57.113          estimate D2E/DX2                !
 ! D7    D(11,1,2,3)            89.0917         estimate D2E/DX2                !
 ! D8    D(11,1,2,4)           156.6616         estimate D2E/DX2                !
 ! D9    D(11,1,2,7)           -58.2225         estimate D2E/DX2                !
 ! D10   D(1,2,3,12)            27.7375         estimate D2E/DX2                !
 ! D11   D(1,2,3,13)          -117.9396         estimate D2E/DX2                !
 ! D12   D(7,2,3,12)           171.0941         estimate D2E/DX2                !
 ! D13   D(7,2,3,13)            25.417          estimate D2E/DX2                !
 ! D14   D(1,2,4,5)            151.8338         estimate D2E/DX2                !
 ! D15   D(1,2,4,14)             2.4772         estimate D2E/DX2                !
 ! D16   D(7,2,4,5)              4.831          estimate D2E/DX2                !
 ! D17   D(7,2,4,14)          -144.5255         estimate D2E/DX2                !
 ! D18   D(1,2,7,6)           -135.317          estimate D2E/DX2                !
 ! D19   D(1,2,7,8)            105.0173         estimate D2E/DX2                !
 ! D20   D(1,2,7,17)           -15.8283         estimate D2E/DX2                !
 ! D21   D(3,2,7,6)             80.8863         estimate D2E/DX2                !
 ! D22   D(3,2,7,8)            -38.7794         estimate D2E/DX2                !
 ! D23   D(3,2,7,17)          -159.6251         estimate D2E/DX2                !
 ! D24   D(4,2,7,6)             20.4444         estimate D2E/DX2                !
 ! D25   D(4,2,7,8)            -99.2214         estimate D2E/DX2                !
 ! D26   D(4,2,7,17)           139.933          estimate D2E/DX2                !
 ! D27   D(12,3,4,5)          -157.9055         estimate D2E/DX2                !
 ! D28   D(12,3,4,14)          -15.4209         estimate D2E/DX2                !
 ! D29   D(13,3,4,5)           -19.3816         estimate D2E/DX2                !
 ! D30   D(13,3,4,14)          123.103          estimate D2E/DX2                !
 ! D31   D(2,4,5,6)            -30.0625         estimate D2E/DX2                !
 ! D32   D(3,4,5,6)            -94.4364         estimate D2E/DX2                !
 ! D33   D(14,4,5,6)           124.5503         estimate D2E/DX2                !
 ! D34   D(4,5,6,7)             43.291          estimate D2E/DX2                !
 ! D35   D(4,5,6,15)           -73.9541         estimate D2E/DX2                !
 ! D36   D(4,5,6,16)           165.9067         estimate D2E/DX2                !
 ! D37   D(5,6,7,2)            -39.2793         estimate D2E/DX2                !
 ! D38   D(5,6,7,8)             78.4446         estimate D2E/DX2                !
 ! D39   D(5,6,7,17)          -160.7905         estimate D2E/DX2                !
 ! D40   D(15,6,7,2)            74.656          estimate D2E/DX2                !
 ! D41   D(15,6,7,8)          -167.6201         estimate D2E/DX2                !
 ! D42   D(15,6,7,17)          -46.8553         estimate D2E/DX2                !
 ! D43   D(16,6,7,2)          -160.4112         estimate D2E/DX2                !
 ! D44   D(16,6,7,8)           -42.6873         estimate D2E/DX2                !
 ! D45   D(16,6,7,17)           78.0775         estimate D2E/DX2                !
 ! D46   D(2,7,8,18)            60.4282         estimate D2E/DX2                !
 ! D47   D(6,7,8,18)           -53.5196         estimate D2E/DX2                !
 ! D48   D(17,7,8,18)         -175.5923         estimate D2E/DX2                !
 --------------------------------------------------------------------------------
 Trust Radius=3.00D-01 FncErr=1.00D-07 GrdErr=1.00D-06 EigMax=2.50D+02 EigMin=1.00D-04
 Number of steps in this run=    108 maximum allowed number of steps=    108.
 GradGradGradGradGradGradGradGradGradGradGradGradGradGradGradGradGradGrad

                          Input orientation:                          
 ---------------------------------------------------------------------
 Center     Atomic      Atomic             Coordinates (Angstroms)
 Number     Number       Type             X           Y           Z
 ---------------------------------------------------------------------
      1          6           0        1.408400   -0.111830   -0.252650
      2          6           0        2.872340    0.137980   -0.088610
      3          6           0        3.657710   -1.069220    0.411270
      4          6           0        4.171580   -0.352620   -0.780190
      5          8           0        5.137610    0.730020   -0.618780
      6          6           0        4.348480    1.939010   -0.583100
      7          6           0        3.179480    1.559050    0.322440
      8          8           0        3.532920    1.587280    1.694790
      9          1           0        1.129690   -1.139520   -0.490630
     10          1           0        0.955110    0.569370   -0.981270
     11          1           0        0.937660    0.125930    0.715160
     12          1           0        3.268790   -2.060400    0.175990
     13          1           0        4.179950   -1.040080    1.348930
     14          1           0        4.322980   -1.010730   -1.621320
     15          1           0        4.011840    2.125640   -1.610840
     16          1           0        4.929870    2.790170   -0.221290
     17          1           0        2.337340    2.248650    0.171520
     18          1           0        4.330580    1.015640    1.770170
 ---------------------------------------------------------------------
                    Distance matrix (angstroms):
                    1          2          3          4          5
     1  C    0.000000
     2  C    1.494133   0.000000
     3  C    2.533137   1.524473   0.000000
     4  C    2.823374   1.551450   1.482280   0.000000
     5  O    3.840543   2.400633   2.547228   1.459923   0.000000
     6  C    3.599891   2.380592   3.242743   2.306882   1.444180
     7  C    2.501858   1.510873   2.672901   2.419615   2.325394
     8  O    3.345606   2.391098   2.952963   3.208835   2.943218
     9  H    1.091082   2.197830   2.685005   3.155337   4.424367
    10  H    1.095624   2.158405   3.453721   3.352041   4.201251
    11  H    1.102172   2.095037   2.986537   3.594902   4.447910
    12  H    2.727949   2.249458   1.090437   2.155417   3.451172
    13  H    3.332896   2.272486   1.073681   2.237370   2.814649
    14  H    3.343061   2.402726   2.139492   1.078671   2.167699
    15  H    3.691727   2.750716   3.797561   2.618639   2.049218
    16  H    4.563260   3.359337   4.112592   3.280930   2.108405
    17  H    2.571909   2.192902   3.578983   3.322167   3.282122
    18  H    3.728555   2.520281   2.577985   2.898578   2.537707
                    6          7          8          9         10
     6  C    0.000000
     7  C    1.526739   0.000000
     8  O    2.444920   1.417414   0.000000
     9  H    4.454942   3.484968   4.241110   0.000000
    10  H    3.680953   2.761693   3.852602   1.786480   0.000000
    11  H    4.075099   2.689576   3.135378   1.758456   1.753516
    12  H    4.211559   3.623512   3.960062   2.422427   3.688910
    13  H    3.554732   2.968181   2.727872   3.563419   4.291824
    14  H    3.127222   3.419001   4.286075   3.390007   3.774775
    15  H    1.097455   2.179775   3.383251   4.496991   3.487396
    16  H    1.092426   2.207977   2.658905   5.473242   4.616085
    17  H    2.170256   1.098874   2.046258   3.657398   2.461598
    18  H    2.528006   1.927757   0.984234   4.472318   4.377599
                   11         12         13         14         15
    11  H    0.000000
    12  H    3.241128   0.000000
    13  H    3.503382   1.801958   0.000000
    14  H    4.267496   2.333120   2.973837   0.000000
    15  H    4.342775   4.611704   4.337082   3.151783   0.000000
    16  H    4.890077   5.142475   4.206993   4.095759   1.793106
    17  H    2.600113   4.408575   3.949336   4.216705   2.448650
    18  H    3.662859   3.623649   2.103834   3.950752   3.572803
                   16         17         18
    16  H    0.000000
    17  H    2.677453   0.000000
    18  H    2.733865   2.837076   0.000000
 Stoichiometry    C6H10O2
 Framework group  C1[X(C6H10O2)]
 Deg. of freedom    48
 Full point group                 C1      NOp   1
 Largest Abelian subgroup         C1      NOp   1
 Largest concise Abelian subgroup C1      NOp   1
                         Standard orientation:                         
 ---------------------------------------------------------------------
 Center     Atomic      Atomic             Coordinates (Angstroms)
 Number     Number       Type             X           Y           Z
 ---------------------------------------------------------------------
      1          6           0        2.035817   -0.578617   -0.685479
      2          6           0        0.758906   -0.013647   -0.153744
      3          6           0        0.943887    0.962945    1.002140
      4          6           0        0.082209    1.382223   -0.128733
      5          8           0       -1.354010    1.123859   -0.085127
      6          6           0       -1.534493   -0.128252   -0.781761
      7          6           0       -0.392660   -0.987518   -0.244349
      8          8           0       -0.673245   -1.507504    1.044041
      9          1           0        2.912061    0.064110   -0.587714
     10          1           0        1.936826   -0.908305   -1.725623
     11          1           0        2.245904   -1.488477   -0.099988
     12          1           0        1.880546    1.519076    1.051554
     13          1           0        0.531755    0.757057    1.971958
     14          1           0        0.388247    2.327084   -0.549574
     15          1           0       -1.403953    0.084443   -1.850464
     16          1           0       -2.526630   -0.549672   -0.604382
     17          1           0       -0.197615   -1.832306   -0.919490
     18          1           0       -0.911100   -0.726659    1.593971
 ---------------------------------------------------------------------
 Rotational constants (GHZ):           2.7798417           2.2555929           1.7605448
 Standard basis: 6-31G(2df,p) (6D, 7F)
 There are   298 symmetry adapted cartesian basis functions of A   symmetry.
 There are   274 symmetry adapted basis functions of A   symmetry.
   274 basis functions,   422 primitive gaussians,   298 cartesian basis functions
    31 alpha electrons       31 beta electrons
       nuclear repulsion energy       408.8304515566 Hartrees.
 NAtoms=   18 NActive=   18 NUniq=   18 SFac= 1.00D+00 NAtFMM=   60 NAOKFM=F Big=F
 Integral buffers will be    131072 words long.
 Raffenetti 2 integral format.
 Two-electron integral symmetry is turned on.
 One-electron integrals computed using PRISM.
 PrsmSu:  requested number of processors reduced to:  13 ShMem   1 Linda.
 NBasis=   274 RedAO= T EigKep=  4.97D-04  NBF=   274
 NBsUse=   274 1.00D-06 EigRej= -1.00D+00 NBFU=   274
 ExpMin= 1.61D-01 ExpMax= 5.48D+03 ExpMxC= 8.25D+02 IAcc=3 IRadAn=         5 AccDes= 0.00D+00
 Harris functional with IExCor=  402 and IRadAn=       5 diagonalized for initial guess.
 HarFok:  IExCor=  402 AccDes= 0.00D+00 IRadAn=         5 IDoV= 1 UseB2=F ITyADJ=14
 ICtDFT=  3500011 ScaDFX=  1.000000  1.000000  1.000000  1.000000
 FoFCou: FMM=F IPFlag=           0 FMFlag=      100000 FMFlg1=           0
         NFxFlg=           0 DoJE=T BraDBF=F KetDBF=T FulRan=T
         wScrn=  0.000000 ICntrl=       500 IOpCl=  0 I1Cent=   200000004 NGrid=           0
         NMat0=    1 NMatS0=      1 NMatT0=    0 NMatD0=    1 NMtDS0=    0 NMtDT0=    0
 Petite list used in FoFCou.
 Requested convergence on RMS density matrix=1.00D-08 within 128 cycles.
 Requested convergence on MAX density matrix=1.00D-06.
 Requested convergence on             energy=1.00D-06.
 No special actions if energy rises.
 Integral accuracy reduced to 1.0D-05 until final iterations.
 Initial convergence to 1.0D-05 achieved.  Increase integral accuracy.
 SCF Done:  E(RB3LYP) =  -385.052076290     A.U. after   12 cycles
            NFock= 12  Conv=0.76D-08     -V/T= 2.0073

 **********************************************************************

            Population analysis using the SCF density.

 **********************************************************************

 Orbital symmetries:
       Occupied  (A) (A) (A) (A) (A) (A) (A) (A) (A) (A) (A) (A)
                 (A) (A) (A) (A) (A) (A) (A) (A) (A) (A) (A) (A)
                 (A) (A) (A) (A) (A) (A) (A)
       Virtual   (A) (A) (A) (A) (A) (A) (A) (A) (A) (A) (A) (A)
                 (A) (A) (A) (A) (A) (A) (A) (A) (A) (A) (A) (A)
                 (A) (A) (A) (A) (A) (A) (A) (A) (A) (A) (A) (A)
                 (A) (A) (A) (A) (A) (A) (A) (A) (A) (A) (A) (A)
                 (A) (A) (A) (A) (A) (A) (A) (A) (A) (A) (A) (A)
                 (A) (A) (A) (A) (A) (A) (A) (A) (A) (A) (A) (A)
                 (A) (A) (A) (A) (A) (A) (A) (A) (A) (A) (A) (A)
                 (A) (A) (A) (A) (A) (A) (A) (A) (A) (A) (A) (A)
                 (A) (A) (A) (A) (A) (A) (A) (A) (A) (A) (A) (A)
                 (A) (A) (A) (A) (A) (A) (A) (A) (A) (A) (A) (A)
                 (A) (A) (A) (A) (A) (A) (A) (A) (A) (A) (A) (A)
                 (A) (A) (A) (A) (A) (A) (A) (A) (A) (A) (A) (A)
                 (A) (A) (A) (A) (A) (A) (A) (A) (A) (A) (A) (A)
                 (A) (A) (A) (A) (A) (A) (A) (A) (A) (A) (A) (A)
                 (A) (A) (A) (A) (A) (A) (A) (A) (A) (A) (A) (A)
                 (A) (A) (A) (A) (A) (A) (A) (A) (A) (A) (A) (A)
                 (A) (A) (A) (A) (A) (A) (A) (A) (A) (A) (A) (A)
                 (A) (A) (A) (A) (A) (A) (A) (A) (A) (A) (A) (A)
                 (A) (A) (A) (A) (A) (A) (A) (A) (A) (A) (A) (A)
                 (A) (A) (A) (A) (A) (A) (A) (A) (A) (A) (A) (A)
                 (A) (A) (A)
 The electronic state is 1-A.
 Alpha  occ. eigenvalues --  -19.14787 -19.13349 -10.23986 -10.23504 -10.22693
 Alpha  occ. eigenvalues --  -10.20233 -10.18820 -10.18123  -1.04055  -1.00566
 Alpha  occ. eigenvalues --   -0.85496  -0.75612  -0.70693  -0.63862  -0.58142
 Alpha  occ. eigenvalues --   -0.57350  -0.51050  -0.49358  -0.45712  -0.45159
 Alpha  occ. eigenvalues --   -0.43952  -0.42730  -0.40277  -0.38513  -0.37477
 Alpha  occ. eigenvalues --   -0.35340  -0.32976  -0.31438  -0.28327  -0.25342
 Alpha  occ. eigenvalues --   -0.24269
 Alpha virt. eigenvalues --    0.07404   0.09097   0.09484   0.11047   0.11458
 Alpha virt. eigenvalues --    0.13438   0.14376   0.15565   0.17052   0.17183
 Alpha virt. eigenvalues --    0.17983   0.19434   0.20290   0.22693   0.24285
 Alpha virt. eigenvalues --    0.25263   0.29396   0.31711   0.33642   0.41708
 Alpha virt. eigenvalues --    0.44722   0.45264   0.45608   0.48035   0.49308
 Alpha virt. eigenvalues --    0.49618   0.52240   0.52729   0.54730   0.56579
 Alpha virt. eigenvalues --    0.60028   0.60648   0.63800   0.64277   0.66394
 Alpha virt. eigenvalues --    0.67502   0.68934   0.71702   0.72692   0.73482
 Alpha virt. eigenvalues --    0.75265   0.75596   0.77831   0.78163   0.80727
 Alpha virt. eigenvalues --    0.81943   0.82887   0.86528   0.88006   0.89345
 Alpha virt. eigenvalues --    0.91304   0.94002   0.94696   0.95500   0.97346
 Alpha virt. eigenvalues --    1.02653   1.04931   1.05962   1.08770   1.10264
 Alpha virt. eigenvalues --    1.17929   1.19303   1.19500   1.23212   1.24492
 Alpha virt. eigenvalues --    1.25534   1.32119   1.33488   1.34567   1.38495
 Alpha virt. eigenvalues --    1.39749   1.42628   1.43497   1.44995   1.46357
 Alpha virt. eigenvalues --    1.47612   1.49978   1.50828   1.53121   1.55630
 Alpha virt. eigenvalues --    1.58632   1.60401   1.60646   1.64143   1.67799
 Alpha virt. eigenvalues --    1.68987   1.69238   1.72534   1.76175   1.76921
 Alpha virt. eigenvalues --    1.80654   1.86474   1.88729   1.90813   1.93495
 Alpha virt. eigenvalues --    1.96365   1.99179   2.01892   2.03075   2.12183
 Alpha virt. eigenvalues --    2.18641   2.22948   2.26708   2.29493   2.31659
 Alpha virt. eigenvalues --    2.35080   2.37083   2.41143   2.42683   2.47707
 Alpha virt. eigenvalues --    2.49884   2.52143   2.55229   2.59160   2.62516
 Alpha virt. eigenvalues --    2.64919   2.67026   2.68288   2.73287   2.79031
 Alpha virt. eigenvalues --    2.81236   2.81761   2.83589   2.86657   2.87884
 Alpha virt. eigenvalues --    2.89515   2.91038   2.94232   2.94780   2.97985
 Alpha virt. eigenvalues --    2.99311   3.01892   3.04126   3.07122   3.07823
 Alpha virt. eigenvalues --    3.11592   3.16367   3.19486   3.21012   3.24974
 Alpha virt. eigenvalues --    3.25870   3.28030   3.29871   3.31742   3.34686
 Alpha virt. eigenvalues --    3.38298   3.39329   3.40708   3.42283   3.46085
 Alpha virt. eigenvalues --    3.48666   3.50036   3.52932   3.62330   3.63737
 Alpha virt. eigenvalues --    3.65798   3.72232   3.73430   3.79122   3.81850
 Alpha virt. eigenvalues --    3.88359   3.88570   3.92249   3.96282   3.99176
 Alpha virt. eigenvalues --    4.06526   4.08695   4.11294   4.18007   4.18719
 Alpha virt. eigenvalues --    4.21081   4.27609   4.29384   4.32929   4.35164
 Alpha virt. eigenvalues --    4.36899   4.38540   4.41422   4.43043   4.47637
 Alpha virt. eigenvalues --    4.49075   4.49625   4.51879   4.53323   4.55262
 Alpha virt. eigenvalues --    4.59959   4.62411   4.63979   4.65682   4.66281
 Alpha virt. eigenvalues --    4.68895   4.70306   4.71101   4.73176   4.75304
 Alpha virt. eigenvalues --    4.76999   4.79646   4.81737   4.83727   4.85613
 Alpha virt. eigenvalues --    4.88626   4.90566   4.93122   4.98432   5.01043
 Alpha virt. eigenvalues --    5.05798   5.08720   5.11652   5.12895   5.19390
 Alpha virt. eigenvalues --    5.23955   5.30436   5.33789   5.42739   5.45796
 Alpha virt. eigenvalues --    5.47680   5.48876   5.49692   5.54236   5.60508
 Alpha virt. eigenvalues --    5.67865   5.71966   5.73717   5.78289   5.92404
 Alpha virt. eigenvalues --    5.97659   5.99704   6.02016   6.05601   6.06866
 Alpha virt. eigenvalues --    6.11959   6.21601   6.52205   7.08833   7.21974
 Alpha virt. eigenvalues --   10.75777  11.37156  11.60574  12.02898  12.17937
 Alpha virt. eigenvalues --   12.59717  13.38575  13.51708
          Condensed to atoms (all electrons):
               1          2          3          4          5          6
     1  C    5.176689   0.401736  -0.057346  -0.039272   0.001834   0.005118
     2  C    0.401736   4.575764   0.348871   0.273300  -0.045265  -0.014291
     3  C   -0.057346   0.348871   5.168131   0.263064  -0.014100   0.003271
     4  C   -0.039272   0.273300   0.263064   4.875228   0.363095  -0.122249
     5  O    0.001834  -0.045265  -0.014100   0.363095   7.750748   0.366592
     6  C    0.005118  -0.014291   0.003271  -0.122249   0.366592   4.950459
     7  C   -0.050633   0.383365  -0.010951  -0.027400  -0.050181   0.309637
     8  O    0.001057  -0.066302  -0.003254   0.001163  -0.001935  -0.031270
     9  H    0.364873  -0.011616  -0.007067  -0.002511   0.000000  -0.000284
    10  H    0.351266  -0.019858   0.006907  -0.001579   0.000064   0.000299
    11  H    0.359514  -0.020140  -0.004008   0.004783  -0.000059   0.000359
    12  H   -0.011651  -0.012956   0.360758  -0.012117   0.001520  -0.000248
    13  H    0.003505  -0.025394   0.356259  -0.014304  -0.003182   0.000412
    14  H   -0.003237  -0.033276  -0.070872   0.386111  -0.031381   0.001403
    15  H   -0.000595  -0.008007  -0.000949   0.009475  -0.035258   0.336645
    16  H   -0.000123   0.004020  -0.000636   0.005700  -0.016403   0.354276
    17  H   -0.012941  -0.049442   0.003660   0.006819   0.003148  -0.046494
    18  H   -0.000080  -0.010750   0.003880   0.002009   0.012864  -0.006424
               7          8          9         10         11         12
     1  C   -0.050633   0.001057   0.364873   0.351266   0.359514  -0.011651
     2  C    0.383365  -0.066302  -0.011616  -0.019858  -0.020140  -0.012956
     3  C   -0.010951  -0.003254  -0.007067   0.006907  -0.004008   0.360758
     4  C   -0.027400   0.001163  -0.002511  -0.001579   0.004783  -0.012117
     5  O   -0.050181  -0.001935   0.000000   0.000064  -0.000059   0.001520
     6  C    0.309637  -0.031270  -0.000284   0.000299   0.000359  -0.000248
     7  C    4.789506   0.367357   0.004111  -0.004143  -0.005907   0.003080
     8  O    0.367357   7.878176  -0.000130  -0.000076   0.003010   0.000193
     9  H    0.004111  -0.000130   0.599596  -0.030935  -0.033877   0.004841
    10  H   -0.004143  -0.000076  -0.030935   0.619836  -0.036095   0.000149
    11  H   -0.005907   0.003010  -0.033877  -0.036095   0.593273   0.000540
    12  H    0.003080   0.000193   0.004841   0.000149   0.000540   0.587546
    13  H   -0.008443   0.005686  -0.000264  -0.000173   0.000828  -0.037265
    14  H    0.000951  -0.000107   0.000358   0.000579  -0.000069  -0.003683
    15  H   -0.027071   0.003033   0.000002   0.000322  -0.000003   0.000037
    16  H   -0.018193  -0.000689   0.000004  -0.000019  -0.000000   0.000012
    17  H    0.355835  -0.023777   0.000147   0.004472   0.001565  -0.000004
    18  H   -0.068471   0.308213   0.000018   0.000004  -0.000034   0.000037
              13         14         15         16         17         18
     1  C    0.003505  -0.003237  -0.000595  -0.000123  -0.012941  -0.000080
     2  C   -0.025394  -0.033276  -0.008007   0.004020  -0.049442  -0.010750
     3  C    0.356259  -0.070872  -0.000949  -0.000636   0.003660   0.003880
     4  C   -0.014304   0.386111   0.009475   0.005700   0.006819   0.002009
     5  O   -0.003182  -0.031381  -0.035258  -0.016403   0.003148   0.012864
     6  C    0.000412   0.001403   0.336645   0.354276  -0.046494  -0.006424
     7  C   -0.008443   0.000951  -0.027071  -0.018193   0.355835  -0.068471
     8  O    0.005686  -0.000107   0.003033  -0.000689  -0.023777   0.308213
     9  H   -0.000264   0.000358   0.000002   0.000004   0.000147   0.000018
    10  H   -0.000173   0.000579   0.000322  -0.000019   0.004472   0.000004
    11  H    0.000828  -0.000069  -0.000003  -0.000000   0.001565  -0.000034
    12  H   -0.037265  -0.003683   0.000037   0.000012  -0.000004   0.000037
    13  H    0.612830   0.001606   0.000006  -0.000029   0.000003   0.004990
    14  H    0.001606   0.649111   0.002693  -0.000152   0.000029   0.000241
    15  H    0.000006   0.002693   0.664422  -0.041507   0.001863   0.000599
    16  H   -0.000029  -0.000152  -0.041507   0.594269   0.001943  -0.000197
    17  H    0.000003   0.000029   0.001863   0.001943   0.657225   0.007436
    18  H    0.004990   0.000241   0.000599  -0.000197   0.007436   0.457541
 Mulliken charges:
               1
     1  C   -0.489716
     2  C    0.330241
     3  C   -0.345621
     4  C    0.028685
     5  O   -0.302102
     6  C   -0.107210
     7  C    0.057550
     8  O   -0.440347
     9  H    0.112733
    10  H    0.108980
    11  H    0.136319
    12  H    0.119208
    13  H    0.102931
    14  H    0.099695
    15  H    0.094293
    16  H    0.117724
    17  H    0.088513
    18  H    0.288123
 Sum of Mulliken charges =  -0.00000
 Mulliken charges with hydrogens summed into heavy atoms:
               1
     1  C   -0.131684
     2  C    0.330241
     3  C   -0.123481
     4  C    0.128380
     5  O   -0.302102
     6  C    0.104807
     7  C    0.146063
     8  O   -0.152224
 Electronic spatial extent (au):  <R**2>=            836.7908
 Charge=              0.0000 electrons
 Dipole moment (field-independent basis, Debye):
    X=              1.1495    Y=              0.5001    Z=             -0.8209  Tot=              1.4985
 Quadrupole moment (field-independent basis, Debye-Ang):
   XX=            -47.6453   YY=            -51.2666   ZZ=            -46.6207
   XY=              2.7813   XZ=              0.8562   YZ=              2.9146
 Traceless Quadrupole moment (field-independent basis, Debye-Ang):
   XX=              0.8655   YY=             -2.7557   ZZ=              1.8902
   XY=              2.7813   XZ=              0.8562   YZ=              2.9146
 Octapole moment (field-independent basis, Debye-Ang**2):
  XXX=             -7.8682  YYY=              5.3209  ZZZ=              8.2730  XYY=              5.9308
  XXY=             -2.8526  XXZ=              1.4600  XZZ=             -6.2603  YZZ=              0.5355
  YYZ=             -5.7242  XYZ=             -0.9211
 Hexadecapole moment (field-independent basis, Debye-Ang**3):
 XXXX=           -489.3427 YYYY=           -353.6498 ZZZZ=           -203.6119 XXXY=             14.5782
 XXXZ=              3.1098 YYYX=              0.9970 YYYZ=              1.8013 ZZZX=             -6.3202
 ZZZY=             -4.9515 XXYY=           -147.2849 XXZZ=           -119.8428 YYZZ=           -100.7887
 XXYZ=             -0.2053 YYXZ=              4.1356 ZZXY=             -0.3806
 N-N= 4.088304515566D+02 E-N=-1.716012289060D+03  KE= 3.822432512872D+02
 PrsmSu:  requested number of processors reduced to:  13 ShMem   1 Linda.
 Calling FoFJK, ICntrl=      2127 FMM=F ISym2X=0 I1Cent= 0 IOpClX= 0 NMat=1 NMatS=1 NMatT=0.
 ***** Axes restored to original set *****
 -------------------------------------------------------------------
 Center     Atomic                   Forces (Hartrees/Bohr)
 Number     Number              X              Y              Z
 -------------------------------------------------------------------
      1        6          -0.014310891    0.005871669   -0.009438479
      2        6          -0.005394783   -0.033021046   -0.020207257
      3        6           0.015083577    0.017734359    0.019552402
      4        6           0.000392933    0.015442575   -0.000098102
      5        8          -0.012288482   -0.018625362    0.002076828
      6        6           0.000540869   -0.013201124   -0.006633345
      7        6           0.014942136    0.002862055    0.013617771
      8        8           0.015250825    0.002606977    0.007394280
      9        1           0.002498126   -0.000807320   -0.003240341
     10        1          -0.002723811   -0.002028778   -0.002883081
     11        1           0.000970697   -0.001837583   -0.001969467
     12        1          -0.005841944    0.005529029    0.001944408
     13        1           0.006677270   -0.000210111    0.008729806
     14        1          -0.001029371    0.010343033   -0.015439424
     15        1          -0.003506734    0.006107035    0.000344419
     16        1           0.003600006   -0.003884079    0.001669394
     17        1          -0.000545419   -0.005740115    0.004582171
     18        1          -0.014315004    0.012858786   -0.000001983
 -------------------------------------------------------------------
 Cartesian Forces:  Max     0.033021046 RMS     0.010126166

 GradGradGradGradGradGradGradGradGradGradGradGradGradGradGradGradGradGrad
 Berny optimization.
 FormGI is forming the generalized inverse of G from B-inverse, IUseBI=4.
 Internal  Forces:  Max     0.025775962 RMS     0.007644944
 Search for a local minimum.
 Step number   1 out of a maximum of  108
 All quantities printed in internal units (Hartrees-Bohrs-Radians)
 Mixed Optimization -- RFO/linear search
 Second derivative matrix not updated -- first step.
 ITU=  0
     Eigenvalues ---    0.00823   0.00844   0.01461   0.01525   0.01759
     Eigenvalues ---    0.02366   0.03075   0.03293   0.04384   0.04730
     Eigenvalues ---    0.05207   0.05438   0.05721   0.06254   0.06313
     Eigenvalues ---    0.06599   0.09423   0.09969   0.10401   0.11007
     Eigenvalues ---    0.11372   0.12558   0.16000   0.16000   0.16000
     Eigenvalues ---    0.16000   0.17172   0.18257   0.20022   0.20718
     Eigenvalues ---    0.24069   0.28316   0.29673   0.31034   0.33001
     Eigenvalues ---    0.33443   0.33807   0.33965   0.34171   0.34534
     Eigenvalues ---    0.34688   0.34762   0.35369   0.36155   0.36568
     Eigenvalues ---    0.36769   0.42852   0.50571
 RFO step:  Lambda=-3.16599203D-02 EMin= 8.23419824D-03
 Linear search not attempted -- first point.
 Maximum step size (   0.300) exceeded in Quadratic search.
    -- Step size scaled by   0.953
 Iteration  1 RMS(Cart)=  0.09002429 RMS(Int)=  0.00365179
 Iteration  2 RMS(Cart)=  0.00418537 RMS(Int)=  0.00158329
 Iteration  3 RMS(Cart)=  0.00001154 RMS(Int)=  0.00158327
 Iteration  4 RMS(Cart)=  0.00000004 RMS(Int)=  0.00158327
 Variable       Old X    -DE/DX   Delta X   Delta X   Delta X     New X
                                 (Linear)    (Quad)   (Total)
    R1        2.82350   0.01502   0.00000   0.03959   0.03959   2.86309
    R2        2.06185   0.00083   0.00000   0.00209   0.00209   2.06393
    R3        2.07043   0.00178   0.00000   0.00455   0.00455   2.07498
    R4        2.08280  -0.00254   0.00000  -0.00661  -0.00661   2.07619
    R5        2.88084  -0.00297   0.00000  -0.00677  -0.00662   2.87422
    R6        2.93181  -0.00294   0.00000  -0.04084  -0.04610   2.88572
    R7        2.85514   0.01573   0.00000   0.04658   0.04661   2.90175
    R8        2.80110   0.00371   0.00000   0.02721   0.03173   2.83283
    R9        2.06063  -0.00336   0.00000  -0.00845  -0.00845   2.05218
   R10        2.02896   0.01087   0.00000   0.02594   0.02594   2.05490
   R11        2.75886  -0.02404   0.00000  -0.06393  -0.06428   2.69457
   R12        2.03839   0.00559   0.00000   0.01354   0.01354   2.05193
   R13        2.72910  -0.00764   0.00000  -0.01120  -0.01109   2.71801
   R14        2.88512  -0.00025   0.00000   0.00533   0.00621   2.89133
   R15        2.07389   0.00179   0.00000   0.00460   0.00460   2.07849
   R16        2.06439  -0.00056   0.00000  -0.00141  -0.00141   2.06298
   R17        2.67852   0.00770   0.00000   0.01595   0.01595   2.69447
   R18        2.07657  -0.00381   0.00000  -0.00984  -0.00984   2.06674
   R19        1.85993  -0.01907   0.00000  -0.03383  -0.03383   1.82610
    A1        2.01718  -0.00550   0.00000  -0.03255  -0.03250   1.98468
    A2        1.95458   0.00476   0.00000   0.02308   0.02288   1.97746
    A3        1.86085   0.00141   0.00000   0.01246   0.01228   1.87312
    A4        1.91228  -0.00162   0.00000  -0.01657  -0.01655   1.89573
    A5        1.86044   0.00164   0.00000   0.00818   0.00828   1.86872
    A6        1.84744  -0.00031   0.00000   0.00950   0.00905   1.85649
    A7        1.99146   0.01097   0.00000   0.07134   0.07702   2.06848
    A8        2.37273  -0.00936   0.00000  -0.06928  -0.06849   2.30424
    A9        1.96742   0.01400   0.00000   0.04838   0.04587   2.01328
   A10        2.15421  -0.02578   0.00000  -0.11297  -0.11390   2.04031
   A11        1.82189  -0.00604   0.00000  -0.00895  -0.00837   1.81352
   A12        2.05477  -0.01564   0.00000  -0.06459  -0.06276   1.99202
   A13        2.11233   0.01348   0.00000   0.04218   0.04194   2.15428
   A14        1.97105  -0.00852   0.00000   0.00469   0.00643   1.97748
   A15        2.11791   0.00978   0.00000   0.02222   0.02072   2.13863
   A16        1.96772   0.00076   0.00000   0.00647   0.00572   1.97345
   A17        1.84455   0.00958   0.00000   0.03746   0.03877   1.88332
   A18        2.28905  -0.00670   0.00000  -0.04972  -0.05198   2.23707
   A19        2.09328  -0.01765   0.00000  -0.08221  -0.08181   2.01147
   A20        1.96113   0.01937   0.00000   0.12489   0.12890   2.09003
   A21        2.03284  -0.00497   0.00000  -0.02923  -0.03023   2.00261
   A22        1.83586  -0.00118   0.00000  -0.01198  -0.01311   1.82275
   A23        1.79743   0.00584   0.00000   0.01921   0.01835   1.81578
   A24        1.86172  -0.00062   0.00000   0.02486   0.02535   1.88708
   A25        1.94941  -0.00233   0.00000  -0.02523  -0.02500   1.92441
   A26        1.94217  -0.00164   0.00000  -0.01461  -0.01444   1.92772
   A27        1.98774  -0.00175   0.00000  -0.00032  -0.00032   1.98742
   A28        1.91868   0.00072   0.00000  -0.00165  -0.00172   1.91696
   A29        1.80120  -0.00952   0.00000  -0.03597  -0.03687   1.76433
   A30        1.91010   0.01292   0.00000   0.09048   0.09108   2.00119
   A31        1.97914  -0.00061   0.00000  -0.02437  -0.02401   1.95513
   A32        1.95884   0.00045   0.00000   0.00126   0.00146   1.96030
   A33        1.92747   0.00415   0.00000   0.01739   0.01685   1.94432
   A34        1.88764  -0.00704   0.00000  -0.04596  -0.04564   1.84201
   A35        1.83866   0.00334   0.00000   0.01661   0.01661   1.85527
    D1       -0.50887  -0.00910   0.00000  -0.05831  -0.05487  -0.56374
    D2        0.67045   0.00431   0.00000   0.03294   0.03058   0.70103
    D3       -3.07999   0.00133   0.00000  -0.02767  -0.02868  -3.10867
    D4       -2.71526  -0.00638   0.00000  -0.02789  -0.02435  -2.73961
    D5       -1.53594   0.00702   0.00000   0.06335   0.06110  -1.47484
    D6        0.99681   0.00404   0.00000   0.00275   0.00184   0.99865
    D7        1.55494  -0.00932   0.00000  -0.05864  -0.05537   1.49957
    D8        2.73426   0.00409   0.00000   0.03260   0.03007   2.76434
    D9       -1.01617   0.00111   0.00000  -0.02800  -0.02919  -1.04536
   D10        0.48411  -0.01173   0.00000  -0.13774  -0.13561   0.34850
   D11       -2.05843  -0.00910   0.00000  -0.10955  -0.10851  -2.16694
   D12        2.98615  -0.00680   0.00000  -0.10273  -0.10182   2.88434
   D13        0.44361  -0.00417   0.00000  -0.07453  -0.07472   0.36889
   D14        2.65000  -0.00006   0.00000  -0.05885  -0.05534   2.59466
   D15        0.04324   0.00458   0.00000   0.03071   0.03047   0.07371
   D16        0.08432  -0.00210   0.00000  -0.01706  -0.01652   0.06780
   D17       -2.52245   0.00254   0.00000   0.07250   0.06930  -2.45315
   D18       -2.36173   0.00672   0.00000   0.08168   0.08211  -2.27962
   D19        1.83290   0.00524   0.00000   0.05702   0.05798   1.89087
   D20       -0.27626   0.00542   0.00000   0.06744   0.06850  -0.20775
   D21        1.41173   0.00257   0.00000   0.03869   0.03696   1.44869
   D22       -0.67683   0.00109   0.00000   0.01403   0.01283  -0.66400
   D23       -2.78598   0.00126   0.00000   0.02445   0.02336  -2.76263
   D24        0.35682   0.00113   0.00000   0.01133   0.01120   0.36803
   D25       -1.73174  -0.00034   0.00000  -0.01333  -0.01293  -1.74467
   D26        2.44229  -0.00017   0.00000  -0.00290  -0.00240   2.43989
   D27       -2.75597   0.00634   0.00000   0.01186   0.00966  -2.74631
   D28       -0.26915   0.00075   0.00000   0.02607   0.02513  -0.24401
   D29       -0.33827   0.00876   0.00000   0.05938   0.05874  -0.27953
   D30        2.14855   0.00318   0.00000   0.07360   0.07421   2.22276
   D31       -0.52469   0.00072   0.00000   0.01401   0.01296  -0.51173
   D32       -1.64823  -0.00203   0.00000  -0.00309   0.00205  -1.64618
   D33        2.17381  -0.00460   0.00000  -0.07145  -0.07147   2.10235
   D34        0.75557   0.00330   0.00000   0.00073   0.00145   0.75702
   D35       -1.29074   0.00273   0.00000  -0.00190  -0.00189  -1.29263
   D36        2.89562   0.00359   0.00000  -0.00108  -0.00102   2.89460
   D37       -0.68555  -0.00153   0.00000  -0.00504  -0.00539  -0.69094
   D38        1.36912   0.00840   0.00000   0.08148   0.08122   1.45033
   D39       -2.80632   0.00263   0.00000   0.03586   0.03572  -2.77060
   D40        1.30299   0.00015   0.00000   0.02760   0.02734   1.33033
   D41       -2.92552   0.01008   0.00000   0.11411   0.11394  -2.81158
   D42       -0.81778   0.00431   0.00000   0.06850   0.06845  -0.74933
   D43       -2.79970  -0.00159   0.00000   0.01326   0.01325  -2.78646
   D44       -0.74503   0.00834   0.00000   0.09977   0.09985  -0.64518
   D45        1.36271   0.00257   0.00000   0.05416   0.05436   1.41707
   D46        1.05467  -0.00104   0.00000   0.02731   0.02799   1.08266
   D47       -0.93409   0.00251   0.00000   0.01584   0.01559  -0.91851
   D48       -3.06466   0.00184   0.00000   0.02479   0.02436  -3.04031
         Item               Value     Threshold  Converged?
 Maximum Force            0.025776     0.000450     NO 
 RMS     Force            0.007645     0.000300     NO 
 Maximum Displacement     0.283054     0.001800     NO 
 RMS     Displacement     0.090012     0.001200     NO 
 Predicted change in Energy=-1.913144D-02
 GradGradGradGradGradGradGradGradGradGradGradGradGradGradGradGradGradGrad

                          Input orientation:                          
 ---------------------------------------------------------------------
 Center     Atomic      Atomic             Coordinates (Angstroms)
 Number     Number       Type             X           Y           Z
 ---------------------------------------------------------------------
      1          6           0        1.381511   -0.134075   -0.331470
      2          6           0        2.854238    0.117987   -0.080447
      3          6           0        3.701521   -1.018021    0.471778
      4          6           0        4.110799   -0.354183   -0.808464
      5          8           0        5.101944    0.662412   -0.676659
      6          6           0        4.350575    1.884503   -0.573359
      7          6           0        3.208431    1.538108    0.383975
      8          8           0        3.599578    1.636556    1.751591
      9          1           0        1.156007   -1.160495   -0.628926
     10          1           0        0.943767    0.549414   -1.070998
     11          1           0        0.852181    0.051615    0.613204
     12          1           0        3.271282   -2.004379    0.325776
     13          1           0        4.287316   -0.939508    1.384540
     14          1           0        4.177991   -0.938790   -1.721022
     15          1           0        3.955610    2.128579   -1.570447
     16          1           0        4.992337    2.694192   -0.220779
     17          1           0        2.368137    2.228637    0.269126
     18          1           0        4.399106    1.101787    1.844171
 ---------------------------------------------------------------------
                    Distance matrix (angstroms):
                    1          2          3          4          5
     1  C    0.000000
     2  C    1.515082   0.000000
     3  C    2.609409   1.520972   0.000000
     4  C    2.779385   1.527056   1.499070   0.000000
     5  O    3.820362   2.388315   2.470617   1.425906   0.000000
     6  C    3.598404   2.366975   3.152496   2.263732   1.438309
     7  C    2.577924   1.535540   2.604735   2.411834   2.340337
     8  O    3.520525   2.493581   2.948744   3.283028   3.017028
     9  H    1.092186   2.195298   2.776957   3.068089   4.346917
    10  H    1.098034   2.194816   3.527352   3.303861   4.178361
    11  H    1.098672   2.119855   3.046778   3.578324   4.483001
    12  H    2.738840   2.200768   1.085966   2.171274   3.386439
    13  H    3.469455   2.306121   1.087407   2.276627   2.734649
    14  H    3.224705   2.358090   2.245367   1.085837   2.123259
    15  H    3.644263   2.734155   3.759833   2.601694   2.064603
    16  H    4.587963   3.350819   3.990785   3.227239   2.085178
    17  H    2.629934   2.193932   3.515646   3.296821   3.289569
    18  H    3.920032   2.656809   2.619862   3.039645   2.653604
                    6          7          8          9         10
     6  C    0.000000
     7  C    1.530024   0.000000
     8  O    2.455782   1.425855   0.000000
     9  H    4.413657   3.538484   4.411507   0.000000
    10  H    3.692756   2.867606   4.025198   1.778837   0.000000
    11  H    4.123854   2.795374   3.369888   1.761933   1.758616
    12  H    4.134818   3.543522   3.923918   2.469410   3.726951
    13  H    3.436919   2.881615   2.691434   3.729341   4.407480
    14  H    3.052524   3.392062   4.361881   3.220903   3.619045
    15  H    1.099889   2.174097   3.377097   4.420661   3.437209
    16  H    1.091680   2.210108   2.636023   5.453679   4.659813
    17  H    2.181346   1.093670   2.016112   3.709713   2.577703
    18  H    2.541545   1.933974   0.966331   4.663885   4.554415
                   11         12         13         14         15
    11  H    0.000000
    12  H    3.187754   0.000000
    13  H    3.657518   1.813079   0.000000
    14  H    4.182168   2.479311   3.107486   0.000000
    15  H    4.325897   4.598403   4.272603   3.079103   0.000000
    16  H    4.981930   5.033618   4.034585   4.014030   1.793411
    17  H    2.675058   4.328660   3.868402   4.155581   2.431894
    18  H    3.898566   3.636726   2.095386   4.113812   3.593133
                   16         17         18
    16  H    0.000000
    17  H    2.709829   0.000000
    18  H    2.674265   2.806313   0.000000
 Stoichiometry    C6H10O2
 Framework group  C1[X(C6H10O2)]
 Deg. of freedom    48
 Full point group                 C1      NOp   1
 Largest Abelian subgroup         C1      NOp   1
 Largest concise Abelian subgroup C1      NOp   1
                         Standard orientation:                         
 ---------------------------------------------------------------------
 Center     Atomic      Atomic             Coordinates (Angstroms)
 Number     Number       Type             X           Y           Z
 ---------------------------------------------------------------------
      1          6           0        2.087018   -0.581515   -0.668192
      2          6           0        0.788441   -0.046187   -0.100218
      3          6           0        0.839838    0.778988    1.176418
      4          6           0        0.199273    1.361640   -0.047267
      5          8           0       -1.220706    1.245076   -0.104547
      6          6           0       -1.451618    0.042910   -0.859670
      7          6           0       -0.436460   -0.951862   -0.293230
      8          8           0       -0.903110   -1.583047    0.897108
      9          1           0        2.946260    0.068079   -0.487639
     10          1           0        2.033253   -0.801119   -1.742698
     11          1           0        2.294072   -1.536965   -0.166869
     12          1           0        1.816412    1.201846    1.392788
     13          1           0        0.274084    0.533055    2.071903
     14          1           0        0.598351    2.272963   -0.482317
     15          1           0       -1.232933    0.255404   -1.916448
     16          1           0       -2.490019   -0.276737   -0.753313
     17          1           0       -0.238498   -1.764735   -0.997618
     18          1           0       -1.169407   -0.871864    1.494686
 ---------------------------------------------------------------------
 Rotational constants (GHZ):           2.7198056           2.2328459           1.7564885
 Standard basis: 6-31G(2df,p) (6D, 7F)
 There are   298 symmetry adapted cartesian basis functions of A   symmetry.
 There are   274 symmetry adapted basis functions of A   symmetry.
   274 basis functions,   422 primitive gaussians,   298 cartesian basis functions
    31 alpha electrons       31 beta electrons
       nuclear repulsion energy       407.8464549777 Hartrees.
 NAtoms=   18 NActive=   18 NUniq=   18 SFac= 1.00D+00 NAtFMM=   60 NAOKFM=F Big=F
 Integral buffers will be    131072 words long.
 Raffenetti 2 integral format.
 Two-electron integral symmetry is turned on.
 One-electron integrals computed using PRISM.
 PrsmSu:  requested number of processors reduced to:  13 ShMem   1 Linda.
 NBasis=   274 RedAO= T EigKep=  4.91D-04  NBF=   274
 NBsUse=   274 1.00D-06 EigRej= -1.00D+00 NBFU=   274
 Initial guess from the checkpoint file:  "CC12CC1OCC2O.chk"
 B after Tr=     0.000000   -0.000000   -0.000000
         Rot=    0.998035   -0.042240    0.035395    0.029831 Ang=  -7.19 deg.
 ExpMin= 1.61D-01 ExpMax= 5.48D+03 ExpMxC= 8.25D+02 IAcc=2 IRadAn=         4 AccDes= 0.00D+00
 Harris functional with IExCor=  402 and IRadAn=       4 diagonalized for initial guess.
 HarFok:  IExCor=  402 AccDes= 0.00D+00 IRadAn=         4 IDoV= 1 UseB2=F ITyADJ=14
 ICtDFT=  3500011 ScaDFX=  1.000000  1.000000  1.000000  1.000000
 FoFCou: FMM=F IPFlag=           0 FMFlag=      100000 FMFlg1=           0
         NFxFlg=           0 DoJE=T BraDBF=F KetDBF=T FulRan=T
         wScrn=  0.000000 ICntrl=       500 IOpCl=  0 I1Cent=   200000004 NGrid=           0
         NMat0=    1 NMatS0=      1 NMatT0=    0 NMatD0=    1 NMtDS0=    0 NMtDT0=    0
 Petite list used in FoFCou.
 Requested convergence on RMS density matrix=1.00D-08 within 128 cycles.
 Requested convergence on MAX density matrix=1.00D-06.
 Requested convergence on             energy=1.00D-06.
 No special actions if energy rises.
 Integral accuracy reduced to 1.0D-05 until final iterations.
 Initial convergence to 1.0D-05 achieved.  Increase integral accuracy.
 SCF Done:  E(RB3LYP) =  -385.070919092     A.U. after   11 cycles
            NFock= 11  Conv=0.53D-08     -V/T= 2.0075
 PrsmSu:  requested number of processors reduced to:  13 ShMem   1 Linda.
 Calling FoFJK, ICntrl=      2127 FMM=F ISym2X=0 I1Cent= 0 IOpClX= 0 NMat=1 NMatS=1 NMatT=0.
 ***** Axes restored to original set *****
 -------------------------------------------------------------------
 Center     Atomic                   Forces (Hartrees/Bohr)
 Number     Number              X              Y              Z
 -------------------------------------------------------------------
      1        6          -0.000526635    0.003057513   -0.001378352
      2        6          -0.002524973   -0.009380483    0.000967281
      3        6           0.000606466   -0.000076334   -0.000066297
      4        6           0.003228539    0.001628138    0.006636963
      5        8          -0.008511839   -0.002050640   -0.001423258
      6        6           0.001846063   -0.002602952   -0.003715243
      7        6           0.007963465    0.004644673    0.006131929
      8        8           0.000024089   -0.000412231   -0.003919205
      9        1           0.001933316   -0.000741946   -0.001926268
     10        1           0.002322049   -0.001309409   -0.001069180
     11        1          -0.000281768   -0.001377368   -0.001104143
     12        1          -0.002100650   -0.000776203    0.003058268
     13        1           0.001064683    0.003001025   -0.002594935
     14        1          -0.002992930    0.003277718   -0.002734732
     15        1          -0.001210524    0.004029309    0.000736655
     16        1           0.002164977   -0.001511307    0.000946181
     17        1          -0.001367248   -0.002102709    0.000682154
     18        1          -0.001637079    0.002703204    0.000772183
 -------------------------------------------------------------------
 Cartesian Forces:  Max     0.009380483 RMS     0.003122310

 GradGradGradGradGradGradGradGradGradGradGradGradGradGradGradGradGradGrad
 Berny optimization.
 Using GEDIIS/GDIIS optimizer.
 FormGI is forming the generalized inverse of G from B-inverse, IUseBI=4.
 Internal  Forces:  Max     0.006890358 RMS     0.002076541
 Search for a local minimum.
 Step number   2 out of a maximum of  108
 All quantities printed in internal units (Hartrees-Bohrs-Radians)
 Mixed Optimization -- RFO/linear search
 Update second derivatives using D2CorX and points    1    2
 DE= -1.88D-02 DEPred=-1.91D-02 R= 9.85D-01
 TightC=F SS=  1.41D+00  RLast= 4.83D-01 DXNew= 5.0454D-01 1.4494D+00
 Trust test= 9.85D-01 RLast= 4.83D-01 DXMaxT set to 5.05D-01
 ITU=  1  0
 Use linear search instead of GDIIS.
     Eigenvalues ---    0.00835   0.00844   0.01462   0.01635   0.01906
     Eigenvalues ---    0.02544   0.03055   0.03203   0.04341   0.04946
     Eigenvalues ---    0.05274   0.05493   0.05785   0.05989   0.06140
     Eigenvalues ---    0.06628   0.09449   0.09760   0.10126   0.11035
     Eigenvalues ---    0.11534   0.12657   0.15670   0.16000   0.16000
     Eigenvalues ---    0.16061   0.17632   0.17936   0.20759   0.21545
     Eigenvalues ---    0.23394   0.28149   0.28759   0.31055   0.33431
     Eigenvalues ---    0.33509   0.33821   0.33960   0.34205   0.34537
     Eigenvalues ---    0.34682   0.34807   0.35257   0.36160   0.36457
     Eigenvalues ---    0.37153   0.43276   0.50457
 RFO step:  Lambda=-4.71112549D-03 EMin= 8.34818566D-03
 Quartic linear search produced a step of  0.30894.
 Iteration  1 RMS(Cart)=  0.06825381 RMS(Int)=  0.00293326
 Iteration  2 RMS(Cart)=  0.00306125 RMS(Int)=  0.00126671
 Iteration  3 RMS(Cart)=  0.00000664 RMS(Int)=  0.00126670
 Iteration  4 RMS(Cart)=  0.00000002 RMS(Int)=  0.00126670
 Variable       Old X    -DE/DX   Delta X   Delta X   Delta X     New X
                                 (Linear)    (Quad)   (Total)
    R1        2.86309  -0.00238   0.01223  -0.02045  -0.00822   2.85487
    R2        2.06393   0.00082   0.00064   0.00242   0.00307   2.06700
    R3        2.07498  -0.00102   0.00141  -0.00509  -0.00368   2.07130
    R4        2.07619  -0.00105  -0.00204  -0.00209  -0.00413   2.07206
    R5        2.87422  -0.00175  -0.00204  -0.00265  -0.00514   2.86908
    R6        2.88572  -0.00460  -0.01424  -0.02271  -0.03984   2.84588
    R7        2.90175   0.00689   0.01440   0.01509   0.02989   2.93164
    R8        2.83283  -0.00019   0.00980  -0.00395   0.00928   2.84211
    R9        2.05218   0.00113  -0.00261   0.00651   0.00390   2.05608
   R10        2.05490  -0.00139   0.00801  -0.01212  -0.00411   2.05080
   R11        2.69457  -0.00539  -0.01986  -0.00342  -0.02360   2.67097
   R12        2.05193   0.00035   0.00418  -0.00261   0.00158   2.05351
   R13        2.71801  -0.00342  -0.00343  -0.00337  -0.00729   2.71072
   R14        2.89133   0.00034   0.00192   0.00199   0.00418   2.89550
   R15        2.07849   0.00066   0.00142   0.00116   0.00259   2.08107
   R16        2.06298   0.00046  -0.00044   0.00208   0.00165   2.06462
   R17        2.69447  -0.00330   0.00493  -0.01426  -0.00933   2.68514
   R18        2.06674  -0.00035  -0.00304   0.00149  -0.00155   2.06519
   R19        1.82610  -0.00278  -0.01045   0.00231  -0.00814   1.81796
    A1        1.98468  -0.00305  -0.01004  -0.02106  -0.03161   1.95307
    A2        1.97746  -0.00213   0.00707  -0.02862  -0.02227   1.95519
    A3        1.87312   0.00296   0.00379   0.03099   0.03495   1.90807
    A4        1.89573   0.00115  -0.00511  -0.00435  -0.01071   1.88501
    A5        1.86872   0.00051   0.00256   0.00930   0.01222   1.88094
    A6        1.85649   0.00100   0.00280   0.01939   0.02214   1.87863
    A7        2.06848   0.00071   0.02379   0.01278   0.04032   2.10880
    A8        2.30424  -0.00374  -0.02116  -0.05576  -0.07556   2.22868
    A9        2.01328   0.00472   0.01417   0.01369   0.02345   2.03673
   A10        2.04031  -0.00441  -0.03519   0.01125  -0.02509   2.01522
   A11        1.81352  -0.00166  -0.00258   0.00567   0.00247   1.81599
   A12        1.99202  -0.00134  -0.01939   0.01004  -0.00858   1.98344
   A13        2.15428   0.00108   0.01296  -0.01719  -0.00414   2.15013
   A14        1.97748   0.00050   0.00199   0.03815   0.04108   2.01856
   A15        2.13863   0.00032   0.00640  -0.03319  -0.02756   2.11107
   A16        1.97345   0.00022   0.00177   0.00602   0.00736   1.98081
   A17        1.88332   0.00136   0.01198  -0.00326   0.00937   1.89269
   A18        2.23707  -0.00202  -0.01606  -0.03076  -0.04825   2.18882
   A19        2.01147  -0.00165  -0.02527   0.02546  -0.00006   2.01141
   A20        2.09003   0.00295   0.03982   0.00587   0.04745   2.13748
   A21        2.00261  -0.00068  -0.00934   0.00150  -0.01016   1.99245
   A22        1.82275   0.00354  -0.00405   0.03891   0.03390   1.85664
   A23        1.81578  -0.00160   0.00567  -0.00767  -0.00319   1.81259
   A24        1.88708   0.00149   0.00783   0.02660   0.03502   1.92210
   A25        1.92441   0.00024  -0.00772  -0.01315  -0.02062   1.90379
   A26        1.92772  -0.00073  -0.00446  -0.00273  -0.00709   1.92064
   A27        1.98742   0.00105  -0.00010   0.00273   0.00279   1.99020
   A28        1.91696  -0.00043  -0.00053  -0.00439  -0.00495   1.91201
   A29        1.76433  -0.00098  -0.01139   0.01542   0.00359   1.76792
   A30        2.00119   0.00076   0.02814  -0.00924   0.01911   2.02029
   A31        1.95513   0.00010  -0.00742  -0.01309  -0.02044   1.93469
   A32        1.96030   0.00138   0.00045   0.00721   0.00755   1.96785
   A33        1.94432   0.00014   0.00521   0.00408   0.00911   1.95343
   A34        1.84201  -0.00128  -0.01410  -0.00378  -0.01768   1.82432
   A35        1.85527   0.00239   0.00513   0.01346   0.01860   1.87387
    D1       -0.56374  -0.00163  -0.01695  -0.00801  -0.02137  -0.58511
    D2        0.70103  -0.00054   0.00945  -0.00931  -0.00191   0.69912
    D3       -3.10867  -0.00184  -0.00886  -0.07427  -0.08343   3.09109
    D4       -2.73961   0.00109  -0.00752   0.03920   0.03454  -2.70507
    D5       -1.47484   0.00218   0.01888   0.03790   0.05401  -1.42084
    D6        0.99865   0.00088   0.00057  -0.02706  -0.02752   0.97113
    D7        1.49957  -0.00083  -0.01711   0.01175  -0.00229   1.49728
    D8        2.76434   0.00027   0.00929   0.01045   0.01717   2.78151
    D9       -1.04536  -0.00103  -0.00902  -0.05451  -0.06435  -1.10971
   D10        0.34850  -0.00517  -0.04190  -0.10852  -0.14900   0.19950
   D11       -2.16694  -0.00511  -0.03352  -0.10964  -0.14238  -2.30933
   D12        2.88434  -0.00186  -0.03146  -0.04041  -0.07166   2.81268
   D13        0.36889  -0.00181  -0.02308  -0.04153  -0.06505   0.30385
   D14        2.59466  -0.00098  -0.01710  -0.07622  -0.08985   2.50481
   D15        0.07371   0.00132   0.00941  -0.02257  -0.01295   0.06076
   D16        0.06780  -0.00169  -0.00510  -0.02170  -0.02624   0.04156
   D17       -2.45315   0.00062   0.02141   0.03196   0.05066  -2.40249
   D18       -2.27962   0.00323   0.02537   0.06143   0.08764  -2.19198
   D19        1.89087   0.00182   0.01791   0.04728   0.06599   1.95686
   D20       -0.20775   0.00288   0.02116   0.06913   0.09119  -0.11657
   D21        1.44869   0.00129   0.01142  -0.00425   0.00682   1.45552
   D22       -0.66400  -0.00013   0.00396  -0.01839  -0.01482  -0.67882
   D23       -2.76263   0.00093   0.00722   0.00345   0.01037  -2.75225
   D24        0.36803   0.00075   0.00346  -0.01071  -0.00771   0.36031
   D25       -1.74467  -0.00067  -0.00399  -0.02485  -0.02936  -1.77403
   D26        2.43989   0.00039  -0.00074  -0.00301  -0.00416   2.43573
   D27       -2.74631   0.00039   0.00299  -0.02331  -0.02192  -2.76823
   D28       -0.24401   0.00107   0.00776   0.02930   0.03718  -0.20683
   D29       -0.27953   0.00207   0.01815  -0.00172   0.01567  -0.26387
   D30        2.22276   0.00274   0.02293   0.05089   0.07477   2.29753
   D31       -0.51173   0.00063   0.00400   0.04203   0.04595  -0.46578
   D32       -1.64618   0.00002   0.00063   0.03480   0.03772  -1.60846
   D33        2.10235  -0.00200  -0.02208  -0.01619  -0.03764   2.06471
   D34        0.75702  -0.00048   0.00045  -0.05628  -0.05573   0.70129
   D35       -1.29263   0.00047  -0.00058  -0.06135  -0.06206  -1.35469
   D36        2.89460  -0.00006  -0.00032  -0.06459  -0.06498   2.82962
   D37       -0.69094   0.00123  -0.00167   0.05028   0.04820  -0.64274
   D38        1.45033   0.00223   0.02509   0.05232   0.07721   1.52754
   D39       -2.77060   0.00160   0.01104   0.05507   0.06594  -2.70466
   D40        1.33033   0.00177   0.00845   0.07581   0.08391   1.41424
   D41       -2.81158   0.00276   0.03520   0.07785   0.11292  -2.69866
   D42       -0.74933   0.00214   0.02115   0.08060   0.10165  -0.64767
   D43       -2.78646   0.00142   0.00409   0.06989   0.07389  -2.71256
   D44       -0.64518   0.00241   0.03085   0.07193   0.10290  -0.54228
   D45        1.41707   0.00178   0.01679   0.07468   0.09163   1.50871
   D46        1.08266   0.00081   0.00865   0.03953   0.04854   1.13121
   D47       -0.91851   0.00060   0.00482   0.02085   0.02544  -0.89306
   D48       -3.04031   0.00048   0.00753   0.01414   0.02153  -3.01878
         Item               Value     Threshold  Converged?
 Maximum Force            0.006890     0.000450     NO 
 RMS     Force            0.002077     0.000300     NO 
 Maximum Displacement     0.274786     0.001800     NO 
 RMS     Displacement     0.068133     0.001200     NO 
 Predicted change in Energy=-3.994875D-03
 GradGradGradGradGradGradGradGradGradGradGradGradGradGradGradGradGradGrad

                          Input orientation:                          
 ---------------------------------------------------------------------
 Center     Atomic      Atomic             Coordinates (Angstroms)
 Number     Number       Type             X           Y           Z
 ---------------------------------------------------------------------
      1          6           0        1.391976   -0.146003   -0.370590
      2          6           0        2.846037    0.098558   -0.041646
      3          6           0        3.716283   -1.015229    0.512647
      4          6           0        4.054980   -0.374272   -0.805087
      5          8           0        5.042689    0.635156   -0.748238
      6          6           0        4.343676    1.875712   -0.574877
      7          6           0        3.225812    1.531732    0.414971
      8          8           0        3.633087    1.660351    1.770178
      9          1           0        1.220893   -1.164427   -0.731092
     10          1           0        1.020075    0.549691   -1.131576
     11          1           0        0.786853   -0.004729    0.532820
     12          1           0        3.255895   -1.999267    0.453313
     13          1           0        4.361833   -0.891008    1.376110
     14          1           0        4.032581   -0.922252   -1.743208
     15          1           0        3.911516    2.204297   -1.533019
     16          1           0        5.043167    2.631917   -0.210827
     17          1           0        2.373511    2.209061    0.319425
     18          1           0        4.451465    1.165051    1.872285
 ---------------------------------------------------------------------
                    Distance matrix (angstroms):
                    1          2          3          4          5
     1  C    0.000000
     2  C    1.510731   0.000000
     3  C    2.634021   1.518252   0.000000
     4  C    2.707856   1.505972   1.503982   0.000000
     5  O    3.752403   2.369069   2.464336   1.413417   0.000000
     6  C    3.583517   2.384435   3.151804   2.280081   1.434452
     7  C    2.606694   1.551358   2.595594   2.410168   2.336224
     8  O    3.587253   2.518204   2.957538   3.309029   3.062747
     9  H    1.093809   2.170613   2.792153   2.943105   4.224324
    10  H    1.096084   2.173846   3.524484   3.189193   4.041741
    11  H    1.096486   2.140308   3.098884   3.550663   4.490290
    12  H    2.754559   2.194046   1.088030   2.205156   3.402432
    13  H    3.525060   2.299329   1.085235   2.262475   2.702886
    14  H    3.075620   2.311981   2.279819   1.086672   2.106135
    15  H    3.636377   2.791698   3.819452   2.683186   2.087496
    16  H    4.590595   3.357664   3.947874   3.219757   2.067817
    17  H    2.643078   2.192687   3.498059   3.281079   3.277437
    18  H    4.013704   2.716236   2.672588   3.113685   2.738152
                    6          7          8          9         10
     6  C    0.000000
     7  C    1.532233   0.000000
     8  O    2.459797   1.420916   0.000000
     9  H    4.361034   3.549990   4.478214   0.000000
    10  H    3.621404   2.867314   4.059751   1.771699   0.000000
    11  H    4.173013   2.884982   3.522016   1.769396   1.769742
    12  H    4.154022   3.531334   3.907584   2.498200   3.742720
    13  H    3.385472   2.843238   2.682498   3.792171   4.419441
    14  H    3.048013   3.366103   4.378735   2.998102   3.408211
    15  H    1.101257   2.171911   3.359243   4.385298   3.355489
    16  H    1.092551   2.214680   2.618520   5.412272   4.622631
    17  H    2.189166   1.092850   1.998074   3.716522   2.586640
    18  H    2.550541   1.939187   0.962024   4.758217   4.601770
                   11         12         13         14         15
    11  H    0.000000
    12  H    3.175007   0.000000
    13  H    3.778507   1.817386   0.000000
    14  H    4.069017   2.566692   3.136803   0.000000
    15  H    4.348679   4.695243   4.271620   3.135944   0.000000
    16  H    5.061731   5.008322   3.923466   4.000200   1.792118
    17  H    2.732012   4.301924   3.831506   4.100255   2.407703
    18  H    4.073320   3.668211   2.116979   4.195723   3.601066
                   16         17         18
    16  H    0.000000
    17  H    2.754458   0.000000
    18  H    2.615562   2.796287   0.000000
 Stoichiometry    C6H10O2
 Framework group  C1[X(C6H10O2)]
 Deg. of freedom    48
 Full point group                 C1      NOp   1
 Largest Abelian subgroup         C1      NOp   1
 Largest concise Abelian subgroup C1      NOp   1
                         Standard orientation:                         
 ---------------------------------------------------------------------
 Center     Atomic      Atomic             Coordinates (Angstroms)
 Number     Number       Type             X           Y           Z
 ---------------------------------------------------------------------
      1          6           0        2.045560   -0.665850   -0.696569
      2          6           0        0.790682   -0.118557   -0.057774
      3          6           0        0.853274    0.637504    1.257348
      4          6           0        0.346353    1.318489    0.015876
      5          8           0       -1.060139    1.359057   -0.117847
      6          6           0       -1.428512    0.195445   -0.871479
      7          6           0       -0.521520   -0.905862   -0.312707
      8          8           0       -1.081054   -1.556565    0.819774
      9          1           0        2.911832   -0.024936   -0.508900
     10          1           0        1.937998   -0.781009   -1.781267
     11          1           0        2.264221   -1.655217   -0.277496
     12          1           0        1.864023    0.902467    1.560647
     13          1           0        0.190623    0.433317    2.092174
     14          1           0        0.860815    2.160710   -0.438930
     15          1           0       -1.215939    0.353300   -1.940432
     16          1           0       -2.495625    0.004756   -0.735191
     17          1           0       -0.359480   -1.707741   -1.037314
     18          1           0       -1.343952   -0.872599    1.443125
 ---------------------------------------------------------------------
 Rotational constants (GHZ):           2.7035857           2.2198176           1.7638083
 Standard basis: 6-31G(2df,p) (6D, 7F)
 There are   298 symmetry adapted cartesian basis functions of A   symmetry.
 There are   274 symmetry adapted basis functions of A   symmetry.
   274 basis functions,   422 primitive gaussians,   298 cartesian basis functions
    31 alpha electrons       31 beta electrons
       nuclear repulsion energy       407.8455923067 Hartrees.
 NAtoms=   18 NActive=   18 NUniq=   18 SFac= 1.00D+00 NAtFMM=   60 NAOKFM=F Big=F
 Integral buffers will be    131072 words long.
 Raffenetti 2 integral format.
 Two-electron integral symmetry is turned on.
 One-electron integrals computed using PRISM.
 PrsmSu:  requested number of processors reduced to:  13 ShMem   1 Linda.
 NBasis=   274 RedAO= T EigKep=  5.02D-04  NBF=   274
 NBsUse=   274 1.00D-06 EigRej= -1.00D+00 NBFU=   274
 Initial guess from the checkpoint file:  "CC12CC1OCC2O.chk"
 B after Tr=     0.000000    0.000000    0.000000
         Rot=    0.998835   -0.022715    0.009253    0.041561 Ang=  -5.53 deg.
 ExpMin= 1.61D-01 ExpMax= 5.48D+03 ExpMxC= 8.25D+02 IAcc=2 IRadAn=         4 AccDes= 0.00D+00
 Harris functional with IExCor=  402 and IRadAn=       4 diagonalized for initial guess.
 HarFok:  IExCor=  402 AccDes= 0.00D+00 IRadAn=         4 IDoV= 1 UseB2=F ITyADJ=14
 ICtDFT=  3500011 ScaDFX=  1.000000  1.000000  1.000000  1.000000
 FoFCou: FMM=F IPFlag=           0 FMFlag=      100000 FMFlg1=           0
         NFxFlg=           0 DoJE=T BraDBF=F KetDBF=T FulRan=T
         wScrn=  0.000000 ICntrl=       500 IOpCl=  0 I1Cent=   200000004 NGrid=           0
         NMat0=    1 NMatS0=      1 NMatT0=    0 NMatD0=    1 NMtDS0=    0 NMtDT0=    0
 Petite list used in FoFCou.
 Requested convergence on RMS density matrix=1.00D-08 within 128 cycles.
 Requested convergence on MAX density matrix=1.00D-06.
 Requested convergence on             energy=1.00D-06.
 No special actions if energy rises.
 Integral accuracy reduced to 1.0D-05 until final iterations.
 Initial convergence to 1.0D-05 achieved.  Increase integral accuracy.
 SCF Done:  E(RB3LYP) =  -385.075129070     A.U. after   11 cycles
            NFock= 11  Conv=0.40D-08     -V/T= 2.0074
 PrsmSu:  requested number of processors reduced to:  13 ShMem   1 Linda.
 Calling FoFJK, ICntrl=      2127 FMM=F ISym2X=0 I1Cent= 0 IOpClX= 0 NMat=1 NMatS=1 NMatT=0.
 ***** Axes restored to original set *****
 -------------------------------------------------------------------
 Center     Atomic                   Forces (Hartrees/Bohr)
 Number     Number              X              Y              Z
 -------------------------------------------------------------------
      1        6           0.001630897   -0.001140113    0.000392861
      2        6           0.000532771    0.004846137    0.006185385
      3        6          -0.004892992   -0.005403414   -0.004646327
      4        6           0.001995276    0.002042676    0.001215547
      5        8           0.001360075    0.000618507   -0.002227615
      6        6          -0.000947657   -0.004240635   -0.001179012
      7        6           0.000889425    0.003374543    0.003308890
      8        8          -0.002150359   -0.000507198   -0.002005950
      9        1           0.000073919   -0.000295048   -0.000520120
     10        1           0.000710645   -0.000041683   -0.000312860
     11        1          -0.000815616   -0.000730607   -0.000848729
     12        1           0.001673258   -0.000454668    0.001384016
     13        1           0.000184641    0.003123826   -0.001296403
     14        1          -0.001543050   -0.000734894    0.000355870
     15        1           0.000881018    0.000976421   -0.000174460
     16        1           0.000198211   -0.000651835    0.000698442
     17        1          -0.001143061   -0.000611650   -0.000799329
     18        1           0.001362599   -0.000170366    0.000469792
 -------------------------------------------------------------------
 Cartesian Forces:  Max     0.006185385 RMS     0.002105838

 GradGradGradGradGradGradGradGradGradGradGradGradGradGradGradGradGradGrad
 Berny optimization.
 Using GEDIIS/GDIIS optimizer.
 FormGI is forming the generalized inverse of G from B-inverse, IUseBI=4.
 Internal  Forces:  Max     0.002212352 RMS     0.000905672
 Search for a local minimum.
 Step number   3 out of a maximum of  108
 All quantities printed in internal units (Hartrees-Bohrs-Radians)
 Mixed Optimization -- En-DIIS/RFO-DIIS
 Update second derivatives using D2CorX and points    2    3
 DE= -4.21D-03 DEPred=-3.99D-03 R= 1.05D+00
 TightC=F SS=  1.41D+00  RLast= 4.73D-01 DXNew= 8.4853D-01 1.4186D+00
 Trust test= 1.05D+00 RLast= 4.73D-01 DXMaxT set to 8.49D-01
 ITU=  1  1  0
 Use linear search instead of GDIIS.
     Eigenvalues ---    0.00777   0.00843   0.01452   0.01672   0.01814
     Eigenvalues ---    0.02492   0.03101   0.03163   0.04299   0.04899
     Eigenvalues ---    0.05264   0.05626   0.05890   0.05988   0.06004
     Eigenvalues ---    0.06574   0.09332   0.09885   0.10208   0.10981
     Eigenvalues ---    0.11684   0.12803   0.15437   0.16000   0.16049
     Eigenvalues ---    0.16054   0.17551   0.19105   0.21250   0.21672
     Eigenvalues ---    0.23406   0.28022   0.29064   0.31081   0.33423
     Eigenvalues ---    0.33457   0.33832   0.33959   0.34197   0.34538
     Eigenvalues ---    0.34672   0.34831   0.35242   0.36162   0.36556
     Eigenvalues ---    0.37111   0.43128   0.50638
 RFO step:  Lambda=-1.19983562D-03 EMin= 7.77115486D-03
 Quartic linear search produced a step of  0.24929.
 Iteration  1 RMS(Cart)=  0.03473154 RMS(Int)=  0.00084882
 Iteration  2 RMS(Cart)=  0.00089644 RMS(Int)=  0.00037574
 Iteration  3 RMS(Cart)=  0.00000040 RMS(Int)=  0.00037574
 Variable       Old X    -DE/DX   Delta X   Delta X   Delta X     New X
                                 (Linear)    (Quad)   (Total)
    R1        2.85487  -0.00090  -0.00205  -0.00160  -0.00365   2.85121
    R2        2.06700   0.00043   0.00076   0.00127   0.00203   2.06903
    R3        2.07130  -0.00005  -0.00092   0.00032  -0.00060   2.07070
    R4        2.07206  -0.00034  -0.00103  -0.00098  -0.00201   2.07005
    R5        2.86908  -0.00105  -0.00128  -0.00156  -0.00296   2.86612
    R6        2.84588   0.00073  -0.00993   0.00616  -0.00426   2.84161
    R7        2.93164  -0.00030   0.00745  -0.00213   0.00545   2.93709
    R8        2.84211  -0.00017   0.00231  -0.00509  -0.00198   2.84013
    R9        2.05608  -0.00037   0.00097  -0.00193  -0.00096   2.05512
[...]
 364997,0.5445709,0.0886381,0.1528714,0.2194081,0.3735298,0.1766682,0.0
 183947,-0.0257647,-0.0835629,0.4659201,0.20489,-0.0997346,0.1975761,0.
 7176142,-0.3797612,-0.1161682,0.0603467,-0.0663388,-0.4476105,-0.20265
 16,0.1405786,-0.2930051,-0.8232577,0.0100175,-0.000547,0.0069784,-0.06
 16894,-0.1300241,-0.0441483,-0.011981,-0.0475696,0.0491038,-0.0593104,
 0.0359505,-0.0419604,0.0650116,-0.0013465,0.0813042,-0.0863239,0.07108
 99,-0.0273928,-0.0413629,-0.0007826,0.0478156,0.0090679,0.0660317,-0.0
 206105,0.107814,-0.0092075,-0.091039,0.0512575,-0.0538455,-0.0089735,-
 0.0251043,-0.0876058,0.0393883,-0.0299309,0.0261679,0.0598687,-0.04064
 13,-0.0144805,-0.0750874,-0.0360439,0.0308759,-0.0321498,-0.0700437,0.
 0135237,-0.0049065,0.0517279,-0.0366127,-0.015479,-0.0493151,-0.027677
 ,-0.0475773,0.0162923,-0.0597988,-0.0784585,0.0334002,-0.0262967,-0.00
 03592,-0.0556138,-0.1226179,0.0546439,0.0338242,0.0804003,0.0083979,-0
 .0717427,-0.0075201,-0.0760087,0.0271264,-0.0163164,0.021909,-0.125514
 9,-0.0500033,-0.115254,-0.0645306,0.0701469,-0.0452699,0.0813734,-0.05
 1484,0.0304752,-0.0339961,0.0227204,-0.0353219,0.20234,0.1019599,-0.05
 07316,0.0962493,0.1933571,0.0928353,-0.0227681,0.0579104,0.2868986\Pol
 ar=66.9892702,2.7986352,69.8626227,0.113726,0.2741152,62.3708102\Quadr
 upole=-0.5534244,0.7881304,-0.234706,1.4100533,3.4787836,-1.7768516\PG
 =C01 [X(C6H10O2)]\NImag=0\\0.48141309,-0.01948760,0.56588722,-0.000590
 59,0.00134210,0.55270487,-0.20145527,-0.03712851,-0.00122995,0.6094969
 6,-0.03701732,-0.08728704,-0.00415594,0.01297607,0.48356853,-0.0018048
 1,-0.00354311,-0.07283228,-0.04425701,0.03848489,0.30976649,-0.0175692
 7,0.01872264,-0.01971951,-0.12391158,0.04023023,-0.02491092,0.44143486
 ,0.00009972,0.00387007,-0.00934853,0.06158301,-0.11530037,0.00809458,0
 .11803287,0.58648113,-0.00031787,0.00138015,-0.00338821,-0.05952107,0.
 03452007,-0.02914723,0.18185713,-0.06756768,0.42713760,-0.01552246,0.0
 0365976,0.01987041,-0.11319121,0.02448669,0.05804963,-0.04311642,-0.02
 759143,0.00018018,0.34849684,-0.00064782,-0.00192523,0.01184246,0.0147
 2474,-0.07000252,-0.03234723,-0.01329860,-0.06031265,0.02816115,0.1111
 8950,0.49328531,-0.00004643,0.00174151,0.00500876,0.09020015,-0.065360
 89,-0.11098241,-0.04041422,0.04824897,-0.19477922,-0.04485744,0.154630
 07,0.65069138,0.00150849,0.00171652,0.00779020,-0.03144198,-0.02211551
 ,0.01468289,0.00958806,-0.00113692,0.00815801,-0.12761900,-0.06607329,
 0.04924106,0.23110271,0.00072956,0.00120794,0.00324905,-0.01192779,0.0
 0468607,0.00054744,-0.01361070,-0.02609721,0.01017233,-0.09146771,-0.1
 4485523,0.03066482,0.11672274,0.36197001,-0.00108369,0.00017584,-0.000
 98228,0.00920425,0.00564271,-0.00840914,0.02093830,0.02241674,-0.00464
 125,0.02791685,0.00396943,-0.09213998,-0.09725769,0.07938768,0.2710313
 7,-0.00039047,-0.00091122,0.00154220,-0.01646280,-0.01763613,-0.001345
 57,0.00248138,-0.00082613,0.00213479,-0.00271369,-0.02015402,-0.017490
 96,-0.07605493,0.01591024,0.03062530,0.48111316,0.00090698,-0.00660658
 ,-0.00345358,-0.03009509,-0.00872000,0.00627359,-0.00105865,0.00011474
 ,-0.00040364,-0.01768251,-0.05690853,-0.02072035,-0.01012654,-0.131366
 38,-0.04556439,0.05187925,0.57513248,-0.00018006,-0.00175963,-0.002953
 52,0.00912505,0.00852926,0.00515855,0.00163722,0.00448928,0.00141998,-
 0.01059306,-0.01190397,0.00178584,0.00819733,-0.07270889,-0.13872023,0
 .06018875,-0.07733919,0.50531211,-0.00489425,-0.03146885,-0.00941231,-
 0.09012453,-0.01620301,-0.00095602,0.00177527,0.01706622,0.00411134,0.
 01056784,0.01358864,-0.00241083,-0.00862168,-0.00042304,0.01064842,-0.
 15072824,-0.00773772,0.01394692,0.51189188,-0.00643391,-0.00819316,-0.
 00185403,-0.02839614,-0.15591660,0.00246471,0.00500612,-0.02367340,-0.
 00767628,0.02612568,-0.00690895,-0.01051267,0.01334278,-0.01517588,-0.
 01954280,-0.01469734,-0.07947040,0.01713905,-0.09214155,0.50518095,-0.
 00167912,0.00147458,0.00161342,-0.00555365,-0.00526591,-0.06449878,0.0
 0703582,0.02243388,0.00055730,0.00909961,-0.03318023,-0.01768083,0.019
 13760,-0.01520095,-0.01937974,0.01426627,0.00997444,-0.07080416,0.0571
 9053,-0.02957065,0.51070127,0.00023461,0.00062823,0.00094166,0.0048977
 5,-0.00280072,-0.00945092,0.00053626,0.00082927,0.00040738,-0.00643901
 ,-0.00496873,0.00211673,-0.00220866,0.00572226,0.00711926,0.00234218,0
 .00968626,0.02729940,-0.07048052,0.01658316,-0.01061425,0.19208171,0.0
 0149172,0.00065603,0.00026615,0.00723030,-0.01301273,-0.04061795,-0.00
 163300,0.00580650,0.00059977,-0.00724504,-0.00904757,-0.00395445,0.000
 05819,0.00298482,0.00084373,0.00305635,0.00313097,-0.00439386,0.021831
 25,-0.09193280,-0.01243738,-0.20143760,0.34445400,0.00176905,-0.000332
 61,-0.00071067,0.00181746,-0.01470010,-0.02356099,-0.00088578,0.002037
 33,0.00247686,-0.00507904,0.00037055,-0.00023771,0.00474853,-0.0009331
 8,-0.00321454,0.00118849,-0.01009556,-0.02980595,0.01836049,-0.0544961
 3,-0.21183456,0.11478410,-0.09942649,0.46438494,-0.04874814,-0.0214460
 2,-0.00567626,-0.00512255,-0.03231402,-0.00814076,0.00166316,-0.001341
 24,-0.00010284,0.00176034,-0.00113716,-0.00031149,0.00024927,0.0005576
 6,0.00024080,0.00029473,-0.00217832,-0.00051071,-0.00631444,0.00075956
 ,0.00111158,0.00036131,-0.00019132,-0.00074533,0.05456991,-0.02405842,
 -0.29160260,-0.06146857,-0.00047934,-0.00858687,-0.00107562,0.00070478
 ,0.00058648,0.00016462,0.00067734,-0.00028930,-0.00014380,-0.00013377,
 0.00049174,0.00026593,0.00025597,-0.00069436,-0.00070906,-0.00161322,0
 .00109968,0.00074176,-0.00003266,-0.00003125,-0.00033942,0.02718278,0.
 31706611,-0.00616027,-0.06142710,-0.06125248,-0.00012896,0.00061076,-0
 .00132025,0.00007023,-0.00063210,0.00009084,0.00012504,0.00065789,0.00
 072836,-0.00011982,-0.00005902,-0.00014057,0.00029081,-0.00014467,0.00
 005575,-0.00009988,0.00025042,0.00011153,-0.00006050,0.00007767,0.0005
 2978,0.00641602,0.06747159,0.06219106,-0.10913157,0.06901034,-0.085513
 03,-0.01975429,0.01834185,-0.02161119,-0.00442050,-0.00378049,-0.00198
 461,0.00218684,0.00100570,0.00002293,0.00003783,-0.00042900,0.00007485
 ,0.00026061,0.00023724,0.00024286,0.00058345,0.00199085,-0.00014893,0.
 00026183,-0.00037389,0.00005114,0.00119043,-0.00158324,0.00283584,0.12
 278328,0.06945390,-0.12467342,0.09520751,-0.00440148,0.00446020,-0.006
 89486,-0.00152081,-0.00004848,-0.00004034,0.00058536,0.00013899,0.0003
 1547,0.00030138,0.00014364,-0.00026819,0.00002708,0.00013858,-0.000075
 55,-0.00036517,0.00118579,-0.00075299,0.00009220,-0.00015478,0.0000908
 4,0.01505716,-0.01584876,0.02175485,-0.07621730,0.13159416,-0.08620884
 ,0.09532859,-0.16472080,-0.00058209,-0.00055690,0.00018877,0.00137287,
 -0.00084048,0.00101346,-0.00058155,0.00007083,0.00089559,-0.00037758,-
 0.00037175,0.00004063,0.00002998,0.00007736,0.00038371,-0.00009825,0.0
 0068080,-0.00021413,-0.00005580,-0.00036314,0.00011301,0.00507944,-0.0
 0479330,0.00564397,0.09578439,-0.10558364,0.17571166,-0.08990306,0.016
 43923,0.09550136,-0.01890813,0.00492080,0.03182032,0.00191005,0.001192
 86,-0.00083962,-0.00089489,-0.00416837,-0.00178877,-0.00309392,-0.0013
 0894,0.00013519,-0.00010741,0.00117698,0.00112544,0.00109258,0.0014358
 5,0.00118590,0.00095694,0.00015591,-0.00140664,0.00081871,-0.00002895,
 -0.00314212,0.00690049,-0.00306083,-0.01454782,0.10193569,0.01647021,-
 0.05283717,-0.03434607,-0.00487616,0.00153332,0.00933516,0.00003063,0.
 00018618,-0.00023502,-0.00041012,-0.00014659,-0.00099744,-0.00074118,-
 0.00065398,0.00012228,-0.00001689,0.00038535,0.00035121,0.00021958,0.0
 0036534,0.00099544,0.00080266,0.00038004,-0.00027853,0.01336573,-0.003
 89066,-0.02885698,-0.00810192,0.00239051,0.01694238,-0.01646097,0.0521
 3298,0.09604509,-0.03395413,-0.25661034,0.00044087,0.00158044,0.002666
 50,0.00146757,-0.00038876,0.00046769,-0.00200386,-0.00033535,0.0015981
 4,0.00015954,0.00048211,0.00035337,0.00000359,-0.00010684,-0.00033371,
 0.00039460,-0.00064386,-0.00042028,-0.00016071,0.00045066,0.00066988,0
 .00207946,-0.00044372,-0.00652192,0.00857047,-0.00398067,-0.01916464,-
 0.10716986,0.03724076,0.27735820,0.00208413,-0.00005744,0.00217753,0.0
 0890834,0.02456845,-0.00267646,-0.06837636,-0.08868150,0.00557718,-0.0
 0631122,-0.00644219,-0.00414165,0.00039138,-0.00351796,0.00340455,-0.0
 0076616,0.00109537,0.00088851,-0.00390764,0.00118490,-0.00493273,0.000
 26296,-0.00025576,0.00025023,-0.00024948,-0.00029656,-0.00036821,0.000
 44960,-0.00028026,0.00000706,-0.00038341,0.00011079,0.00018099,0.07094
 831,-0.00200846,0.00115370,-0.00191591,-0.00622219,-0.01609484,0.00235
 247,-0.08665350,-0.30295951,0.03684183,0.00193564,-0.00172093,-0.00018
 197,0.00049133,0.00162636,-0.00066209,0.00033895,0.00029139,-0.0004823
 7,0.00231566,0.00057515,0.00355607,0.00008233,0.00006512,-0.00026048,0
 .00083327,0.00072849,0.00027049,-0.00037652,0.00030451,0.00006971,0.00
 044519,0.00013647,0.00009078,0.08965610,0.32126685,-0.00079389,0.00160
 359,0.00089966,-0.00432787,-0.00456580,-0.00334138,0.00387111,0.036637
 05,-0.04699119,0.00874202,0.02504824,0.00241573,-0.00074622,0.00613515
 ,-0.00491306,-0.00022092,-0.00158544,-0.00217570,0.00126950,-0.0015064
 8,0.00003438,0.00011693,-0.00011726,0.00060678,-0.00009773,0.00005844,
 -0.00006106,-0.00022558,-0.00001756,-0.00008721,-0.00043909,-0.0002301
 9,-0.00001371,-0.00478180,-0.04169985,0.04740994,-0.00075480,0.0027581
 7,-0.00382480,-0.01294173,-0.00939066,-0.01101030,-0.19891287,-0.06677
 428,-0.13266628,0.00677347,0.00779475,0.00652932,0.00004957,0.00181958
 ,-0.00240726,-0.00048662,-0.00101936,-0.00099831,0.00083917,-0.0030269
 5,0.00002734,0.00061972,0.00027695,0.00152377,0.00023978,0.00008721,0.
 00009948,-0.00160343,-0.00012178,0.00020917,0.00000883,-0.00009273,0.0
 0015795,-0.00450222,-0.00031763,-0.00399206,0.20974131,0.00002209,-0.0
 0189900,0.00254012,0.01203294,0.00643949,0.01306086,-0.06747127,-0.073
 10300,-0.04961133,0.00555057,-0.00318470,0.00273880,-0.00113341,0.0000
 4051,-0.00002635,0.00045595,-0.00027170,0.00115133,0.00034323,0.001775
 86,-0.00104409,-0.00065799,-0.00047865,-0.00047540,0.00032189,0.000175
 06,0.00014397,0.00110932,0.00038580,-0.00003970,-0.00004507,0.00011843
 ,-0.00023513,-0.01973228,-0.00499234,-0.01818732,0.06925082,0.07598377
 ,0.00160891,-0.00141334,0.00110237,0.00551477,0.00834823,-0.00162471,-
 0.12998139,-0.04953440,-0.14058384,-0.02465833,-0.01112093,-0.01556357
 ,0.00312739,-0.00231357,0.00482747,-0.00060219,0.00015768,-0.00047092,
 -0.00215650,-0.00057800,-0.00008221,0.00043226,0.00055195,0.00049649,-
 0.00017916,-0.00019626,-0.00007179,0.00086448,-0.00014686,0.00009328,-
 0.00003780,-0.00008881,0.00007197,0.00480843,0.00153811,0.00327774,0.1
 4261714,0.05085802,0.14968567,0.00218095,-0.00000408,-0.00205173,0.009
 61277,0.01472704,0.01611156,-0.00345364,-0.00595389,-0.00638385,-0.052
 85379,-0.03222947,-0.03778203,-0.00512170,-0.01951619,-0.01511416,-0.0
 0310921,0.00010432,0.00265658,-0.00156666,-0.00248976,0.00358277,0.000
 65466,0.00250459,0.00127248,-0.00023861,-0.00040607,-0.00003609,-0.000
 38124,0.00013859,-0.00019253,0.00016338,-0.00017427,-0.00016359,0.0005
 8521,0.00001043,0.00151080,0.00060469,0.00007749,-0.00210730,0.0528411
 1,-0.00087706,0.00080697,0.00083191,-0.00450598,-0.00563067,-0.0055897
 4,0.00568977,0.01015339,0.01245897,-0.03445513,-0.14205807,-0.13219501
 ,-0.00547860,-0.02085066,-0.01663469,-0.00375365,-0.00045853,0.0012737
 1,-0.00056554,0.00019096,-0.00072054,0.00037085,-0.00055371,-0.0009525
 5,0.00039686,0.00027721,0.00006546,0.00014665,0.00003138,-0.00005396,-
 0.00008973,-0.00001671,0.00010546,0.00087649,0.00032012,-0.00157074,-0
 .00139705,0.00041254,0.00307248,0.04376813,0.15928570,-0.00019870,-0.0
 0100171,0.00125454,-0.00300858,-0.00007187,-0.00668884,-0.00142386,-0.
 01233556,-0.01436356,-0.04057835,-0.13962115,-0.22816380,0.00149439,0.
 00771012,0.01118582,0.00152817,0.00193924,0.00016200,0.00001765,0.0015
 5608,-0.00103037,-0.00011067,-0.00085207,-0.00006141,0.00033435,0.0003
 6099,-0.00010967,0.00061277,0.00012565,-0.00000508,-0.00006970,0.00014
 521,0.00003953,-0.00104119,0.00049767,0.00157607,0.00196013,-0.0004727
 0,-0.00187086,0.04027262,0.14127051,0.23700883,0.00024011,-0.00139811,
 -0.00017503,-0.00412248,-0.00149873,0.00057521,-0.00021371,0.00039189,
 0.00001065,-0.00238919,-0.00028625,0.00055899,0.00349184,0.00436917,-0
 .00027457,-0.05278537,-0.03019287,0.01609061,-0.00159845,-0.02500015,0
 .01128254,-0.00104139,0.00113024,0.00143137,-0.00048976,-0.00011616,-0
 .00001662,-0.00001677,0.00004731,-0.00003644,0.00000684,0.00003688,0.0
 0002240,0.00016549,-0.00008721,0.00026112,0.00020789,-0.00021207,0.000
 16951,0.00017516,-0.00011862,-0.00003773,0.05396833,0.00002842,0.00014
 467,0.00028874,0.00029298,0.00047184,-0.00106338,0.00001411,-0.0001822
 6,-0.00011319,0.00435197,-0.00108702,-0.00157957,-0.00699029,-0.029336
 72,-0.00102350,-0.02965615,-0.24371888,0.10991011,0.00174157,0.0014183
 3,0.00029252,-0.00084197,0.00032921,0.00092603,0.00005560,0.00003709,0
 .00001975,-0.00006307,0.00001192,-0.00003737,-0.00012918,-0.00003855,0
 .00002541,-0.00006957,0.00002818,0.00024653,-0.00006668,-0.00001638,0.
 00007047,-0.00048896,-0.00062786,0.00031537,0.03326318,0.27399328,-0.0
 0016618,0.00058874,0.00031248,0.00136505,-0.00003617,-0.00099917,-0.00
 029684,-0.00073829,-0.00036144,0.00241940,-0.00341449,-0.00219057,-0.0
 0576561,-0.03066108,0.00932291,0.01743275,0.11908316,-0.11165773,-0.00
 180018,0.00969168,-0.00271675,0.00113208,-0.00124172,-0.00044927,0.000
 23820,0.00005446,0.00000681,0.00002924,-0.00001019,0.00000862,-0.00006
 867,-0.00004110,-0.00001023,0.00003732,0.00002538,0.00041451,0.0002233
 6,-0.00011363,0.00028005,-0.00064258,-0.00064801,0.00034436,-0.0165253
 9,-0.11221103,0.11625425,0.00005932,-0.00055251,-0.00010363,-0.0005148
 8,0.00187277,0.00069884,-0.00082643,0.00004487,-0.00081648,0.00053773,
 0.00056016,-0.00013946,0.00923212,-0.00359739,0.00400351,-0.16601159,0
 .01970383,-0.11836513,-0.02394919,0.00588603,-0.02235632,0.00564263,-0
 .00001363,-0.00055628,-0.00017105,-0.00021936,0.00002317,0.00020751,0.
 00000268,0.00010904,0.00000784,0.00002325,-0.00001145,0.00034792,-0.00
 005484,0.00030535,0.00075718,-0.00041466,0.00046916,0.00025607,-0.0001
 5359,0.00006049,0.00329569,-0.00101485,0.00276741,0.17650534,0.0000472
 6,0.00003364,0.00022954,0.00014148,-0.00011952,0.00006084,0.00018885,-
 0.00043857,0.00106031,0.00077366,0.00264506,-0.00374282,-0.01880547,-0
 .00401529,-0.02722333,0.02152939,-0.05484442,0.02777534,-0.00309506,0.
 00126688,-0.00177803,0.00045847,0.00008525,-0.00057697,0.00003478,-0.0
 0000562,0.00000688,0.00001376,-0.00000238,-0.00003034,-0.00007154,-0.0
 0001471,0.00001918,0.00021403,0.00009360,-0.00014289,-0.00080301,-0.00
 136312,0.00073643,-0.00029344,-0.00091674,0.00030034,0.01942327,-0.002
 30451,0.02039727,-0.01951884,0.05929806,-0.00000651,0.00018116,0.00033
 073,-0.00022486,-0.00067080,-0.00057466,-0.00045579,-0.00003139,0.0003
 5164,0.00260008,0.00509098,-0.00337295,-0.01204704,-0.01778998,-0.0245
 2305,-0.11768725,0.02662059,-0.16445651,0.00909304,-0.00066179,0.00539
 056,0.00039355,-0.00019837,0.00371266,0.00004178,0.00012823,0.00000397
 ,-0.00002209,-0.00001014,-0.00004479,-0.00019571,-0.00004123,0.0000673
 3,-0.00001807,0.00004330,0.00062645,0.00069355,0.00038163,0.00055864,-
 0.00053927,-0.00078288,0.00036851,-0.01314738,0.00440553,-0.00979771,0
 .13004596,-0.01678081,0.19165359,0.00084655,-0.00048028,0.00089581,0.0
 0540140,-0.00490008,0.00307370,0.00022989,-0.00206040,-0.00082891,-0.0
 0061405,-0.00049647,0.00057233,-0.00031698,0.00124560,0.00264694,-0.01
 989614,0.01505768,-0.01409217,-0.16236403,0.10032699,-0.07962988,0.003
 67298,-0.00131278,-0.00126675,0.00012923,0.00003978,0.00012804,0.00042
 858,0.00024945,-0.00009046,-0.00003426,-0.00002147,0.00003784,0.000538
 25,-0.00023309,-0.00008662,-0.00008488,0.00003888,0.00030913,0.0000324
 8,0.00013503,0.00000316,0.00151206,-0.00042165,-0.00003646,-0.00420080
 ,-0.00029201,0.00191727,0.17342881,0.00152875,0.00166503,0.00073304,0.
 02104204,-0.02278852,0.01360799,-0.00375474,-0.00469549,-0.00089976,-0
 .00102622,0.00061951,0.00151848,0.00063597,0.00117130,-0.00101318,-0.0
 0583328,0.00364457,-0.00178505,0.10184560,-0.13858798,0.07228414,-0.00
 643739,0.00778533,-0.00645953,0.00007623,0.00052023,-0.00026179,-0.001
 14796,-0.00000770,-0.00063994,-0.00027451,-0.00008281,0.00009708,0.001
 70053,-0.00101714,-0.00055166,-0.00028693,0.00046004,0.00030973,0.0002
 0596,-0.00006667,-0.00014668,0.00029879,0.00086332,-0.00065115,-0.0018
 3386,0.00038357,-0.00016294,-0.10605260,0.14939003,0.00027736,-0.00032
 681,0.00013535,0.00229583,-0.00285506,0.00388923,-0.00061753,-0.001609
 30,0.00071340,-0.00086217,0.00117292,0.00097020,-0.00042334,0.00098496
 ,-0.00079791,0.00868231,-0.00500880,0.00729262,-0.07294528,0.06516639,
 -0.09609449,-0.02280729,0.01907424,-0.03518586,0.00013932,-0.00009958,
 0.00007894,0.00016935,0.00025155,0.00008166,-0.00009939,0.00006595,-0.
 00011648,0.00040757,-0.00026267,0.00002304,0.00016146,-0.00004536,-0.0
 0011202,-0.00008778,0.00000450,0.00002469,-0.00023594,-0.00030555,0.00
 070407,0.00236834,-0.00032421,-0.00043107,0.08501979,-0.07312534,0.125
 40309,-0.00019796,-0.00000026,-0.00042235,-0.00036578,0.00175227,0.001
 15181,0.00118185,-0.00109443,0.00102488,0.00134187,0.00103889,0.000141
 78,-0.00117241,-0.00127807,-0.00082084,0.00302057,0.00024315,0.0033407
 7,-0.00220057,-0.00045611,0.00099492,-0.13235597,0.17472753,-0.1372573
 0,0.00005717,0.00001987,0.00014383,0.00001736,0.00001252,0.00017939,-0
 .00047628,-0.00016401,-0.00005089,-0.00018511,-0.00015545,-0.00036504,
 -0.00055505,0.00046357,-0.00019851,-0.00038164,0.00001116,0.00018504,-
 0.00040631,-0.00000545,-0.00034289,-0.00117541,0.00005440,-0.00044127,
 0.00129090,-0.00068638,-0.00144260,0.13256277,-0.00024802,-0.00040106,
 0.00001202,-0.00199086,0.00230023,-0.00315065,0.00038126,-0.00038754,0
 .00118804,0.00054200,0.00175841,-0.00046915,-0.00053393,-0.00197104,-0
 .00086580,0.00003163,0.00022170,0.00053828,-0.00533859,0.00680023,-0.0
 1180206,0.18192137,-0.25046578,0.18590219,-0.00003344,-0.00003266,0.00
 005192,0.00021769,-0.00004997,0.00014085,-0.00012873,0.00005256,-0.000
 00341,-0.00007314,0.00019483,0.00044618,0.00130955,-0.00048263,-0.0002
 5093,0.00001959,-0.00029866,0.00028057,-0.00005054,0.00001433,-0.00007
 382,-0.00072006,0.00021883,0.00027892,-0.00082257,0.00074340,-0.002757
 84,-0.17448320,0.24178483,-0.00046345,-0.00005783,0.00008839,-0.001129
 40,0.00052306,0.00231030,0.00045559,-0.00133133,0.00002717,0.00021058,
 0.00090883,0.00101704,0.00000035,0.00070476,0.00110019,-0.00056653,0.0
 0029641,-0.00019213,-0.02515325,0.03009355,-0.03365215,-0.11148320,0.1
 4173854,-0.16792943,0.00008332,0.00002330,0.00003673,0.00024711,0.0000
 3514,0.00006229,0.00003697,-0.00008299,-0.00010131,0.00022076,0.000179
 53,0.00029901,0.00069634,-0.00062374,-0.00001374,-0.00030589,0.0000651
 3,0.00032925,0.00004670,-0.00016688,0.00053482,0.00149747,0.00001325,0
 .00013664,0.00142725,-0.00285344,-0.00657844,0.13417926,-0.16946530,0.
 20252536\\0.00000581,-0.00000515,-0.00000070,-0.00000495,0.00001084,-0
 .00000062,-0.00000297,-0.00001370,-0.00000441,-0.00000792,-0.00001042,
 0.00000583,-0.00000461,0.00001241,0.00000663,0.00001119,-0.00000616,-0
 .00001212,0.00000212,-0.00000963,-0.00000591,-0.00000532,0.00000667,0.
 00000781,0.00000098,-0.00000043,0.00000159,-0.00000004,-0.00000054,0.0
 0000173,-0.00000072,-0.00000027,0.00000118,0.00000285,0.00000139,0.000
 00306,0.00000056,0.00000717,-0.00000287,0.00000524,0.00000269,-0.00000
 313,-0.00000160,0.00000434,0.00000092,-0.00000149,0.00000203,0.0000012
 9,0.00000107,-0.00000036,0.00000402,-0.00000020,-0.00000089,-0.0000042
 7\\\@


 BULLDOZER: SOMEONE WHO SLEEPS THROUGH SPEECHES.
 Job cpu time:       0 days  1 hours 29 minutes 27.8 seconds.
 Elapsed time:       0 days  0 hours 22 minutes 22.8 seconds.
 File lengths (MBytes):  RWF=    111 Int=      0 D2E=      0 Chk=      7 Scr=      1
 Normal termination of Gaussian 16 at Thu Aug  4 07:29:12 2022.
### All Done ###
