### Starting Gaussian ###
 Entering Gaussian System, Link 0=g16
 Initial command:
 /cluster/software/gaussian/gaussian-16-A.03/avx2/g16/l1.exe "/local/scratch/yxie/Gau-25207.inp" -scrdir="/local/scratch/yxie/"
 Entering Link 1 = /cluster/software/gaussian/gaussian-16-A.03/avx2/g16/l1.exe PID=     25208.
  
 Copyright (c) 1988,1990,1992,1993,1995,1998,2003,2009,2016,
            Gaussian, Inc.  All Rights Reserved.
  
 This is part of the Gaussian(R) 16 program.  It is based on
 the Gaussian(R) 09 system (copyright 2009, Gaussian, Inc.),
 the Gaussian(R) 03 system (copyright 2003, Gaussian, Inc.),
 the Gaussian(R) 98 system (copyright 1998, Gaussian, Inc.),
 the Gaussian(R) 94 system (copyright 1995, Gaussian, Inc.),
 the Gaussian 92(TM) system (copyright 1992, Gaussian, Inc.),
 the Gaussian 90(TM) system (copyright 1990, Gaussian, Inc.),
 the Gaussian 88(TM) system (copyright 1988, Gaussian, Inc.),
 the Gaussian 86(TM) system (copyright 1986, Carnegie Mellon
 University), and the Gaussian 82(TM) system (copyright 1983,
 Carnegie Mellon University). Gaussian is a federally registered
 trademark of Gaussian, Inc.
  
 This software contains proprietary and confidential information,
 including trade secrets, belonging to Gaussian, Inc.
  
 This software is provided under written license and may be
 used, copied, transmitted, or stored only in accord with that
 written license.
  
 The following legend is applicable only to US Government
 contracts under FAR:
  
                    RESTRICTED RIGHTS LEGEND
  
 Use, reproduction and disclosure by the US Government is
 subject to restrictions as set forth in subparagraphs (a)
 and (c) of the Commercial Computer Software - Restricted
 Rights clause in FAR 52.227-19.
  
 Gaussian, Inc.
 340 Quinnipiac St., Bldg. 40, Wallingford CT 06492
  
  
 ---------------------------------------------------------------
 Warning -- This program may not be used in any manner that
 competes with the business of Gaussian, Inc. or will provide
 assistance to any competitor of Gaussian, Inc.  The licensee
 of this program is prohibited from giving any competitor of
 Gaussian, Inc. access to this program.  By using this program,
 the user acknowledges that Gaussian, Inc. is engaged in the
 business of creating and licensing software in the field of
 computational chemistry and represents and warrants to the
 licensee that it is not a competitor of Gaussian, Inc. and that
 it will not use this program in any manner prohibited above.
 ---------------------------------------------------------------
  

 Cite this work as:
 Gaussian 16, Revision A.03,
 M. J. Frisch, G. W. Trucks, H. B. Schlegel, G. E. Scuseria, 
 M. A. Robb, J. R. Cheeseman, G. Scalmani, V. Barone, 
 G. A. Petersson, H. Nakatsuji, X. Li, M. Caricato, A. V. Marenich, 
 J. Bloino, B. G. Janesko, R. Gomperts, B. Mennucci, H. P. Hratchian, 
 J. V. Ortiz, A. F. Izmaylov, J. L. Sonnenberg, D. Williams-Young, 
 F. Ding, F. Lipparini, F. Egidi, J. Goings, B. Peng, A. Petrone, 
 T. Henderson, D. Ranasinghe, V. G. Zakrzewski, J. Gao, N. Rega, 
 G. Zheng, W. Liang, M. Hada, M. Ehara, K. Toyota, R. Fukuda, 
 J. Hasegawa, M. Ishida, T. Nakajima, Y. Honda, O. Kitao, H. Nakai, 
 T. Vreven, K. Throssell, J. A. Montgomery, Jr., J. E. Peralta, 
 F. Ogliaro, M. J. Bearpark, J. J. Heyd, E. N. Brothers, K. N. Kudin, 
 V. N. Staroverov, T. A. Keith, R. Kobayashi, J. Normand, 
 K. Raghavachari, A. P. Rendell, J. C. Burant, S. S. Iyengar, 
 J. Tomasi, M. Cossi, J. M. Millam, M. Klene, C. Adamo, R. Cammi, 
 J. W. Ochterski, R. L. Martin, K. Morokuma, O. Farkas, 
 J. B. Foresman, and D. J. Fox, Gaussian, Inc., Wallingford CT, 2016.
 
 ******************************************
 Gaussian 16:  ES64L-G16RevA.03 25-Dec-2016
                 4-Aug-2022 
 ******************************************
 %chk=CC1CCCdC2CpCpC21.chk
 %NProcShared=20
 Will use up to   20 processors via shared memory.
 -----------------------------
 # opt freq b3lyp/6-31g(2df,p)
 -----------------------------
 1/18=20,19=15,26=3,38=1/1,3;
 2/9=110,12=2,17=6,18=5,40=1/2;
 3/5=1,6=6,7=104,11=2,25=1,30=1,71=1,74=-5/1,2,3;
 4//1;
 5/5=2,38=5/2;
 6/7=2,8=2,9=2,10=2,28=1/1;
 7//1,2,3,16;
 1/18=20,19=15,26=3/3(2);
 2/9=110/2;
 99//99;
 2/9=110/2;
 3/5=1,6=6,7=104,11=2,25=1,30=1,71=1,74=-5/1,2,3;
 4/5=5,16=3,69=1/1;
 5/5=2,38=5/2;
 7//1,2,3,16;
 1/18=20,19=15,26=3/3(-5);
 2/9=110/2;
 6/7=2,8=2,9=2,10=2,19=2,28=1/1;
 99/9=1/99;
 -------------------
 Title Card Required
 -------------------
 Symbolic Z-matrix:
 Charge =  0 Multiplicity = 1
 C                     0.94215   0.0044    0.06363 
 C                     2.46166   0.21784   0.08664 
 C                     2.73492   1.55707   0.80434 
 C                     2.41407   2.71116  -0.13582 
 C                     3.29243   2.6377   -1.35073 
 C                     3.59565   1.44766  -1.91321 
 C                     4.49142   0.36004  -1.57308 
 C                     5.49444   0.33877  -0.48041 
 C                     3.04371   0.19448  -1.32193 
 H                     0.53583   0.08293   1.07866 
 H                     0.67519  -0.97566  -0.3385 
 H                     0.43629   0.75195  -0.55582 
 H                     2.90683  -0.60872   0.65487 
 H                     3.77395   1.67033   1.11077 
 H                     2.18541   1.61615   1.74764 
 H                     2.5273    3.66599   0.38179 
 H                     1.37526   2.66069  -0.48223 
 H                     3.41999   3.55106  -1.92083 
 H                     4.89859  -0.14601  -2.44501 
 H                     5.267     0.93534   0.39485 
 H                     6.45721   0.70809  -0.83738 
 H                     5.60889  -0.691    -0.12832 
 H                     2.5399   -0.50395  -1.9847 
 

 GradGradGradGradGradGradGradGradGradGradGradGradGradGradGradGradGradGrad
 Berny optimization.
 Initialization pass.
                           ----------------------------
                           !    Initial Parameters    !
                           ! (Angstroms and Degrees)  !
 --------------------------                            --------------------------
 ! Name  Definition              Value          Derivative Info.                !
 --------------------------------------------------------------------------------
 ! R1    R(1,2)                  1.5346         estimate D2E/DX2                !
 ! R2    R(1,10)                 1.0962         estimate D2E/DX2                !
 ! R3    R(1,11)                 1.0925         estimate D2E/DX2                !
 ! R4    R(1,12)                 1.0947         estimate D2E/DX2                !
 ! R5    R(2,3)                  1.5438         estimate D2E/DX2                !
 ! R6    R(2,9)                  1.5243         estimate D2E/DX2                !
 ! R7    R(2,13)                 1.0974         estimate D2E/DX2                !
 ! R8    R(3,4)                  1.5228         estimate D2E/DX2                !
 ! R9    R(3,14)                 1.0892         estimate D2E/DX2                !
 ! R10   R(3,15)                 1.0933         estimate D2E/DX2                !
 ! R11   R(4,5)                  1.501          estimate D2E/DX2                !
 ! R12   R(4,16)                 1.092          estimate D2E/DX2                !
 ! R13   R(4,17)                 1.0962         estimate D2E/DX2                !
 ! R14   R(5,6)                  1.3507         estimate D2E/DX2                !
 ! R15   R(5,18)                 1.0842         estimate D2E/DX2                !
 ! R16   R(6,7)                  1.4495         estimate D2E/DX2                !
 ! R17   R(6,9)                  1.4915         estimate D2E/DX2                !
 ! R18   R(7,8)                  1.4834         estimate D2E/DX2                !
 ! R19   R(7,9)                  1.4786         estimate D2E/DX2                !
 ! R20   R(7,19)                 1.0873         estimate D2E/DX2                !
 ! R21   R(8,20)                 1.0834         estimate D2E/DX2                !
 ! R22   R(8,21)                 1.0912         estimate D2E/DX2                !
 ! R23   R(8,22)                 1.0943         estimate D2E/DX2                !
 ! R24   R(9,23)                 1.0867         estimate D2E/DX2                !
 ! A1    A(2,1,10)             110.071          estimate D2E/DX2                !
 ! A2    A(2,1,11)             111.8547         estimate D2E/DX2                !
 ! A3    A(2,1,12)             111.7804         estimate D2E/DX2                !
 ! A4    A(10,1,11)            108.3331         estimate D2E/DX2                !
 ! A5    A(10,1,12)            107.6838         estimate D2E/DX2                !
 ! A6    A(11,1,12)            106.9416         estimate D2E/DX2                !
 ! A7    A(1,2,3)              107.6313         estimate D2E/DX2                !
 ! A8    A(1,2,9)              111.23           estimate D2E/DX2                !
 ! A9    A(1,2,13)             107.7388         estimate D2E/DX2                !
 ! A10   A(3,2,9)              112.0435         estimate D2E/DX2                !
 ! A11   A(3,2,13)             109.9301         estimate D2E/DX2                !
 ! A12   A(9,2,13)             108.1828         estimate D2E/DX2                !
 ! A13   A(2,3,4)              109.4598         estimate D2E/DX2                !
 ! A14   A(2,3,14)             112.9456         estimate D2E/DX2                !
 ! A15   A(2,3,15)             111.0405         estimate D2E/DX2                !
 ! A16   A(4,3,14)             107.2111         estimate D2E/DX2                !
 ! A17   A(4,3,15)             112.6964         estimate D2E/DX2                !
 ! A18   A(14,3,15)            103.3629         estimate D2E/DX2                !
 ! A19   A(3,4,5)              109.837          estimate D2E/DX2                !
 ! A20   A(3,4,16)             110.3771         estimate D2E/DX2                !
 ! A21   A(3,4,17)             111.093          estimate D2E/DX2                !
 ! A22   A(5,4,16)             111.4558         estimate D2E/DX2                !
 ! A23   A(5,4,17)             107.2486         estimate D2E/DX2                !
 ! A24   A(16,4,17)            106.7568         estimate D2E/DX2                !
 ! A25   A(4,5,6)              120.7666         estimate D2E/DX2                !
 ! A26   A(4,5,18)             116.9509         estimate D2E/DX2                !
 ! A27   A(6,5,18)             119.7896         estimate D2E/DX2                !
 ! A28   A(5,6,7)              134.5947         estimate D2E/DX2                !
 ! A29   A(5,6,9)              119.4773         estimate D2E/DX2                !
 ! A30   A(6,7,8)              126.9756         estimate D2E/DX2                !
 ! A31   A(6,7,19)             113.1095         estimate D2E/DX2                !
 ! A32   A(8,7,9)              122.3649         estimate D2E/DX2                !
 ! A33   A(8,7,19)             109.3191         estimate D2E/DX2                !
 ! A34   A(9,7,19)             116.7924         estimate D2E/DX2                !
 ! A35   A(7,8,20)             116.4397         estimate D2E/DX2                !
 ! A36   A(7,8,21)             110.5338         estimate D2E/DX2                !
 ! A37   A(7,8,22)             108.7364         estimate D2E/DX2                !
 ! A38   A(20,8,21)            105.2567         estimate D2E/DX2                !
 ! A39   A(20,8,22)            106.2722         estimate D2E/DX2                !
 ! A40   A(21,8,22)            109.3579         estimate D2E/DX2                !
 ! A41   A(2,9,6)              119.6538         estimate D2E/DX2                !
 ! A42   A(2,9,7)              121.9456         estimate D2E/DX2                !
 ! A43   A(2,9,23)             113.3545         estimate D2E/DX2                !
 ! A44   A(6,9,23)             118.0203         estimate D2E/DX2                !
 ! A45   A(7,9,23)             114.9795         estimate D2E/DX2                !
 ! D1    D(10,1,2,3)           -53.6178         estimate D2E/DX2                !
 ! D2    D(10,1,2,9)          -176.7072         estimate D2E/DX2                !
 ! D3    D(10,1,2,13)           64.8846         estimate D2E/DX2                !
 ! D4    D(11,1,2,3)          -174.1055         estimate D2E/DX2                !
 ! D5    D(11,1,2,9)            62.8051         estimate D2E/DX2                !
 ! D6    D(11,1,2,13)          -55.6031         estimate D2E/DX2                !
 ! D7    D(12,1,2,3)            66.0032         estimate D2E/DX2                !
 ! D8    D(12,1,2,9)           -57.0862         estimate D2E/DX2                !
 ! D9    D(12,1,2,13)         -175.4944         estimate D2E/DX2                !
 ! D10   D(1,2,3,4)            -76.2629         estimate D2E/DX2                !
 ! D11   D(1,2,3,14)           164.3723         estimate D2E/DX2                !
 ! D12   D(1,2,3,15)            48.7931         estimate D2E/DX2                !
 ! D13   D(9,2,3,4)             46.3266         estimate D2E/DX2                !
 ! D14   D(9,2,3,14)           -73.0382         estimate D2E/DX2                !
 ! D15   D(9,2,3,15)           171.3825         estimate D2E/DX2                !
 ! D16   D(13,2,3,4)           166.6528         estimate D2E/DX2                !
 ! D17   D(13,2,3,14)           47.288          estimate D2E/DX2                !
 ! D18   D(13,2,3,15)          -68.2912         estimate D2E/DX2                !
 ! D19   D(1,2,9,6)            111.5971         estimate D2E/DX2                !
 ! D20   D(1,2,9,7)           -179.2087         estimate D2E/DX2                !
 ! D21   D(1,2,9,23)           -34.9831         estimate D2E/DX2                !
 ! D22   D(3,2,9,6)             -8.9248         estimate D2E/DX2                !
 ! D23   D(3,2,9,7)             60.2694         estimate D2E/DX2                !
 ! D24   D(3,2,9,23)          -155.5051         estimate D2E/DX2                !
 ! D25   D(13,2,9,6)          -130.2624         estimate D2E/DX2                !
 ! D26   D(13,2,9,7)           -61.0681         estimate D2E/DX2                !
 ! D27   D(13,2,9,23)           83.1574         estimate D2E/DX2                !
 ! D28   D(2,3,4,5)            -61.1309         estimate D2E/DX2                !
 ! D29   D(2,3,4,16)           175.5834         estimate D2E/DX2                !
 ! D30   D(2,3,4,17)            57.3595         estimate D2E/DX2                !
 ! D31   D(14,3,4,5)            61.71           estimate D2E/DX2                !
 ! D32   D(14,3,4,16)          -61.5757         estimate D2E/DX2                !
 ! D33   D(14,3,4,17)         -179.7996         estimate D2E/DX2                !
 ! D34   D(15,3,4,5)           174.7775         estimate D2E/DX2                !
 ! D35   D(15,3,4,16)           51.4919         estimate D2E/DX2                !
 ! D36   D(15,3,4,17)          -66.7321         estimate D2E/DX2                !
 ! D37   D(3,4,5,6)             38.6192         estimate D2E/DX2                !
 ! D38   D(3,4,5,18)          -159.3297         estimate D2E/DX2                !
 ! D39   D(16,4,5,6)           161.2692         estimate D2E/DX2                !
 ! D40   D(16,4,5,18)          -36.6796         estimate D2E/DX2                !
 ! D41   D(17,4,5,6)           -82.2185         estimate D2E/DX2                !
 ! D42   D(17,4,5,18)           79.8327         estimate D2E/DX2                !
 ! D43   D(4,5,6,7)            -75.7404         estimate D2E/DX2                !
 ! D44   D(4,5,6,9)              0.3244         estimate D2E/DX2                !
 ! D45   D(18,5,6,7)           122.7126         estimate D2E/DX2                !
 ! D46   D(18,5,6,9)          -161.2227         estimate D2E/DX2                !
 ! D47   D(5,6,7,8)             -7.0314         estimate D2E/DX2                !
 ! D48   D(5,6,7,19)          -147.5219         estimate D2E/DX2                !
 ! D49   D(5,6,9,2)            -15.9268         estimate D2E/DX2                !
 ! D50   D(5,6,9,23)           129.1285         estimate D2E/DX2                !
 ! D51   D(6,7,8,20)            29.7326         estimate D2E/DX2                !
 ! D52   D(6,7,8,21)           -90.2725         estimate D2E/DX2                !
 ! D53   D(6,7,8,22)           149.674          estimate D2E/DX2                !
 ! D54   D(9,7,8,20)           -46.6194         estimate D2E/DX2                !
 ! D55   D(9,7,8,21)          -166.6245         estimate D2E/DX2                !
 ! D56   D(9,7,8,22)            73.3219         estimate D2E/DX2                !
 ! D57   D(19,7,8,20)          171.4113         estimate D2E/DX2                !
 ! D58   D(19,7,8,21)           51.4062         estimate D2E/DX2                !
 ! D59   D(19,7,8,22)          -68.6473         estimate D2E/DX2                !
 ! D60   D(8,7,9,2)             10.1505         estimate D2E/DX2                !
 ! D61   D(8,7,9,23)          -133.5444         estimate D2E/DX2                !
 ! D62   D(19,7,9,2)           149.5097         estimate D2E/DX2                !
 ! D63   D(19,7,9,23)            5.8148         estimate D2E/DX2                !
 --------------------------------------------------------------------------------
 Trust Radius=3.00D-01 FncErr=1.00D-07 GrdErr=1.00D-06 EigMax=2.50D+02 EigMin=1.00D-04
 Number of steps in this run=    138 maximum allowed number of steps=    138.
 GradGradGradGradGradGradGradGradGradGradGradGradGradGradGradGradGradGrad

                          Input orientation:                          
 ---------------------------------------------------------------------
 Center     Atomic      Atomic             Coordinates (Angstroms)
 Number     Number       Type             X           Y           Z
 ---------------------------------------------------------------------
      1          6           0        0.942150    0.004400    0.063630
      2          6           0        2.461660    0.217840    0.086640
      3          6           0        2.734920    1.557070    0.804340
      4          6           0        2.414070    2.711160   -0.135820
      5          6           0        3.292430    2.637700   -1.350730
      6          6           0        3.595650    1.447660   -1.913210
      7          6           0        4.491420    0.360040   -1.573080
      8          6           0        5.494440    0.338770   -0.480410
      9          6           0        3.043710    0.194480   -1.321930
     10          1           0        0.535830    0.082930    1.078660
     11          1           0        0.675190   -0.975660   -0.338500
     12          1           0        0.436290    0.751950   -0.555820
     13          1           0        2.906830   -0.608720    0.654870
     14          1           0        3.773950    1.670330    1.110770
     15          1           0        2.185410    1.616150    1.747640
     16          1           0        2.527300    3.665990    0.381790
     17          1           0        1.375260    2.660690   -0.482230
     18          1           0        3.419990    3.551060   -1.920830
     19          1           0        4.898590   -0.146010   -2.445010
     20          1           0        5.267000    0.935340    0.394850
     21          1           0        6.457210    0.708090   -0.837380
     22          1           0        5.608890   -0.691000   -0.128320
     23          1           0        2.539900   -0.503950   -1.984700
 ---------------------------------------------------------------------
                    Distance matrix (angstroms):
                    1          2          3          4          5
     1  C    0.000000
     2  C    1.534600   0.000000
     3  C    2.484645   1.543794   0.000000
     4  C    3.087536   2.503677   1.522751   0.000000
     5  C    3.802433   2.934610   2.474451   1.500973   0.000000
     6  C    3.609980   2.607257   2.852701   2.480258   1.350748
     7  C    3.924617   2.625798   3.189091   3.450922   2.583554
     8  C    4.596861   3.087705   3.278687   3.903288   3.300210
     9  C    2.524373   1.524269   2.544214   2.852540   2.456016
    10  H    1.096152   2.170513   2.661642   3.451136   4.475224
    11  H    1.092471   2.190128   3.458799   4.081351   4.575033
    12  H    1.094735   2.190925   2.789615   2.815407   3.513612
    13  H    2.141366   1.097389   2.177738   3.448131   3.835409
    14  H    3.448321   2.209225   1.089179   2.118157   2.688243
    15  H    2.641841   2.188722   1.093282   2.190606   3.445135
    16  H    4.002645   3.461381   2.160833   1.091990   2.155094
    17  H    2.746165   2.733385   2.172997   1.096209   2.104842
    18  H    4.759892   4.007329   3.445558   2.214400   1.084210
    19  H    4.687144   3.532742   4.259134   4.434932   3.395032
    20  H    4.436292   2.911998   2.639254   3.402111   3.137516
    21  H    5.632307   4.130203   4.155894   4.566340   3.742026
    22  H    4.722170   3.282873   3.766082   4.667079   4.235625
    23  H    2.647051   2.194892   3.473410   3.710946   3.292140
                    6          7          8          9         10
     6  C    0.000000
     7  C    1.449486   0.000000
     8  C    2.624492   1.483384   0.000000
     9  C    1.491546   1.478631   2.595198   0.000000
    10  H    4.491801   4.770242   5.204226   3.473433   0.000000
    11  H    4.108683   4.227516   4.997303   2.818909   1.774366
    12  H    3.508287   4.199106   5.075558   2.774227   1.768904
    13  H    3.361280   2.900549   2.980323   2.138131   2.505917
    14  H    3.037405   3.071591   2.695365   2.937586   3.606424
    15  H    3.926702   4.233518   4.188745   3.489998   2.349343
    16  H    3.365915   4.313767   4.540672   3.901374   4.158112
    17  H    2.906764   4.024102   4.728526   3.093705   3.128237
    18  H    2.110736   3.384007   4.086191   3.430291   5.416941
    19  H    2.126087   1.087261   2.109432   2.194954   5.612694
    20  H    2.895345   2.192086   1.083377   2.905035   4.855736
    21  H    3.145298   2.127610   1.091215   3.485766   6.254980
    22  H    3.436980   2.107310   1.094300   2.964613   5.271784
    23  H    2.220023   2.173555   3.420873   1.086689   3.707411
                   11         12         13         14         15
    11  H    0.000000
    12  H    1.757537   0.000000
    13  H    2.470151   3.069326   0.000000
    14  H    4.324808   3.841994   2.480688   0.000000
    15  H    3.653796   3.018640   2.581596   1.712308   0.000000
    16  H    5.049163   3.707164   4.300205   2.463373   2.486821
    17  H    3.705914   2.128466   3.785201   3.045025   2.592244
    18  H    5.525295   4.312857   4.919485   3.585112   4.327324
    19  H    4.791953   4.928234   3.713551   4.148190   5.295741
    20  H    5.027369   4.926780   2.832337   1.811615   3.433619
    21  H    6.042818   6.027659   4.070135   3.452691   5.074956
    22  H    4.946373   5.387082   2.814478   3.237009   4.534576
    23  H    2.531724   2.836222   2.667010   3.978983   4.307070
                   16         17         18         19         20
    16  H    0.000000
    17  H    1.756233   0.000000
    18  H    2.472279   2.653912   0.000000
    19  H    5.305201   4.913647   4.016136   0.000000
    20  H    3.868149   4.346463   3.951685   3.061021   0.000000
    21  H    5.067518   5.455730   4.298959   2.396509   1.728188
    22  H    5.360949   5.411349   5.098965   2.483665   1.742291
    23  H    4.794667   3.691714   4.149909   2.429696   3.894982
                   21         22         23
    21  H    0.000000
    22  H    1.783218   0.000000
    23  H    4.258016   3.591634   0.000000
 Stoichiometry    C9H14
 Framework group  C1[X(C9H14)]
 Deg. of freedom    63
 Full point group                 C1      NOp   1
 Largest Abelian subgroup         C1      NOp   1
 Largest concise Abelian subgroup C1      NOp   1
                         Standard orientation:                         
 ---------------------------------------------------------------------
 Center     Atomic      Atomic             Coordinates (Angstroms)
 Number     Number       Type             X           Y           Z
 ---------------------------------------------------------------------
      1          6           0       -2.171561   -1.187886   -0.355781
      2          6           0       -0.801122   -0.900721    0.272256
      3          6           0       -0.940568    0.369687    1.138234
      4          6           0       -0.976420    1.596562    0.236979
      5          6           0        0.302581    1.693473   -0.542562
      6          6           0        0.900003    0.584691   -1.030631
      7          6           0        1.688416   -0.485052   -0.451785
      8          6           0        2.195054   -0.567515    0.939958
      9          6           0        0.275017   -0.749218   -0.796560
     10          1           0       -2.940337   -1.235104    0.424157
     11          1           0       -2.178207   -2.133671   -0.902535
     12          1           0       -2.464936   -0.407314   -1.065064
     13          1           0       -0.537123   -1.757602    0.904967
     14          1           0       -0.111805    0.503648    1.832148
     15          1           0       -1.811941    0.303229    1.795166
     16          1           0       -1.153161    2.497554    0.828095
     17          1           0       -1.795145    1.529103   -0.488839
     18          1           0        0.558605    2.665986   -0.947758
     19          1           0        2.440386   -0.877212   -1.132143
     20          1           0        1.599279   -0.076609    1.700068
     21          1           0        3.185131   -0.114780    1.014321
     22          1           0        2.255140   -1.620876    1.230322
     23          1           0        0.125709   -1.400485   -1.653561
 ---------------------------------------------------------------------
 Rotational constants (GHZ):           2.3173200           1.5866205           1.3159284
 Standard basis: 6-31G(2df,p) (6D, 7F)
 There are   349 symmetry adapted cartesian basis functions of A   symmetry.
 There are   322 symmetry adapted basis functions of A   symmetry.
   322 basis functions,   494 primitive gaussians,   349 cartesian basis functions
    34 alpha electrons       34 beta electrons
       nuclear repulsion energy       467.4684099051 Hartrees.
 NAtoms=   23 NActive=   23 NUniq=   23 SFac= 1.00D+00 NAtFMM=   60 NAOKFM=F Big=F
 Integral buffers will be    131072 words long.
 Raffenetti 2 integral format.
 Two-electron integral symmetry is turned on.
 One-electron integrals computed using PRISM.
 PrsmSu:  requested number of processors reduced to:  13 ShMem   1 Linda.
 NBasis=   322 RedAO= T EigKep=  4.40D-04  NBF=   322
 NBsUse=   322 1.00D-06 EigRej= -1.00D+00 NBFU=   322
 ExpMin= 1.61D-01 ExpMax= 3.05D+03 ExpMxC= 4.57D+02 IAcc=3 IRadAn=         5 AccDes= 0.00D+00
 Harris functional with IExCor=  402 and IRadAn=       5 diagonalized for initial guess.
 HarFok:  IExCor=  402 AccDes= 0.00D+00 IRadAn=         5 IDoV= 1 UseB2=F ITyADJ=14
 ICtDFT=  3500011 ScaDFX=  1.000000  1.000000  1.000000  1.000000
 FoFCou: FMM=F IPFlag=           0 FMFlag=      100000 FMFlg1=           0
         NFxFlg=           0 DoJE=T BraDBF=F KetDBF=T FulRan=T
         wScrn=  0.000000 ICntrl=       500 IOpCl=  0 I1Cent=   200000004 NGrid=           0
         NMat0=    1 NMatS0=      1 NMatT0=    0 NMatD0=    1 NMtDS0=    0 NMtDT0=    0
 Petite list used in FoFCou.
 Requested convergence on RMS density matrix=1.00D-08 within 128 cycles.
 Requested convergence on MAX density matrix=1.00D-06.
 Requested convergence on             energy=1.00D-06.
 No special actions if energy rises.
 Integral accuracy reduced to 1.0D-05 until final iterations.
 Initial convergence to 1.0D-05 achieved.  Increase integral accuracy.
 SCF Done:  E(RB3LYP) =  -351.287132160     A.U. after   14 cycles
            NFock= 14  Conv=0.31D-08     -V/T= 2.0078

 **********************************************************************

            Population analysis using the SCF density.

 **********************************************************************

 Orbital symmetries:
       Occupied  (A) (A) (A) (A) (A) (A) (A) (A) (A) (A) (A) (A)
                 (A) (A) (A) (A) (A) (A) (A) (A) (A) (A) (A) (A)
                 (A) (A) (A) (A) (A) (A) (A) (A) (A) (A)
       Virtual   (A) (A) (A) (A) (A) (A) (A) (A) (A) (A) (A) (A)
                 (A) (A) (A) (A) (A) (A) (A) (A) (A) (A) (A) (A)
                 (A) (A) (A) (A) (A) (A) (A) (A) (A) (A) (A) (A)
                 (A) (A) (A) (A) (A) (A) (A) (A) (A) (A) (A) (A)
                 (A) (A) (A) (A) (A) (A) (A) (A) (A) (A) (A) (A)
                 (A) (A) (A) (A) (A) (A) (A) (A) (A) (A) (A) (A)
                 (A) (A) (A) (A) (A) (A) (A) (A) (A) (A) (A) (A)
                 (A) (A) (A) (A) (A) (A) (A) (A) (A) (A) (A) (A)
                 (A) (A) (A) (A) (A) (A) (A) (A) (A) (A) (A) (A)
                 (A) (A) (A) (A) (A) (A) (A) (A) (A) (A) (A) (A)
                 (A) (A) (A) (A) (A) (A) (A) (A) (A) (A) (A) (A)
                 (A) (A) (A) (A) (A) (A) (A) (A) (A) (A) (A) (A)
                 (A) (A) (A) (A) (A) (A) (A) (A) (A) (A) (A) (A)
                 (A) (A) (A) (A) (A) (A) (A) (A) (A) (A) (A) (A)
                 (A) (A) (A) (A) (A) (A) (A) (A) (A) (A) (A) (A)
                 (A) (A) (A) (A) (A) (A) (A) (A) (A) (A) (A) (A)
                 (A) (A) (A) (A) (A) (A) (A) (A) (A) (A) (A) (A)
                 (A) (A) (A) (A) (A) (A) (A) (A) (A) (A) (A) (A)
                 (A) (A) (A) (A) (A) (A) (A) (A) (A) (A) (A) (A)
                 (A) (A) (A) (A) (A) (A) (A) (A) (A) (A) (A) (A)
                 (A) (A) (A) (A) (A) (A) (A) (A) (A) (A) (A) (A)
                 (A) (A) (A) (A) (A) (A) (A) (A) (A) (A) (A) (A)
                 (A) (A) (A) (A) (A) (A) (A) (A) (A) (A) (A) (A)
                 (A) (A) (A) (A) (A) (A) (A) (A) (A) (A) (A) (A)
 The electronic state is 1-A.
 Alpha  occ. eigenvalues --  -10.19559 -10.18778 -10.18213 -10.17791 -10.17353
 Alpha  occ. eigenvalues --  -10.17221 -10.16831 -10.16810 -10.16574  -0.88426
 Alpha  occ. eigenvalues --   -0.79821  -0.75614  -0.71888  -0.67450  -0.62230
 Alpha  occ. eigenvalues --   -0.60095  -0.53647  -0.50406  -0.47874  -0.46445
 Alpha  occ. eigenvalues --   -0.44062  -0.42288  -0.42048  -0.39370  -0.38981
 Alpha  occ. eigenvalues --   -0.37713  -0.37183  -0.35808  -0.33354  -0.31923
 Alpha  occ. eigenvalues --   -0.31436  -0.28825  -0.27427  -0.18483
 Alpha virt. eigenvalues --   -0.03915   0.09114   0.10591   0.11454   0.13174
 Alpha virt. eigenvalues --    0.13753   0.14327   0.15782   0.15912   0.16900
 Alpha virt. eigenvalues --    0.18426   0.18978   0.20036   0.20359   0.20776
 Alpha virt. eigenvalues --    0.23043   0.23341   0.25761   0.26237   0.27738
 Alpha virt. eigenvalues --    0.28938   0.29445   0.31278   0.35729   0.41231
 Alpha virt. eigenvalues --    0.43863   0.43957   0.47206   0.48088   0.49342
 Alpha virt. eigenvalues --    0.52311   0.53092   0.53272   0.53947   0.54730
 Alpha virt. eigenvalues --    0.55509   0.56571   0.58070   0.58815   0.61725
 Alpha virt. eigenvalues --    0.62194   0.62898   0.65048   0.65543   0.67842
 Alpha virt. eigenvalues --    0.68738   0.69447   0.70152   0.72343   0.73417
 Alpha virt. eigenvalues --    0.74188   0.74763   0.75786   0.77175   0.77887
 Alpha virt. eigenvalues --    0.78643   0.79000   0.79715   0.80889   0.82740
 Alpha virt. eigenvalues --    0.83471   0.85326   0.86082   0.89528   0.90827
 Alpha virt. eigenvalues --    0.91998   0.92884   0.94928   0.99393   1.02340
 Alpha virt. eigenvalues --    1.06920   1.08645   1.10685   1.12853   1.14846
 Alpha virt. eigenvalues --    1.16235   1.18670   1.23651   1.27535   1.28055
 Alpha virt. eigenvalues --    1.29916   1.32443   1.33480   1.34255   1.37531
 Alpha virt. eigenvalues --    1.40580   1.41067   1.43093   1.44160   1.46438
 Alpha virt. eigenvalues --    1.48249   1.48724   1.51249   1.52126   1.54187
 Alpha virt. eigenvalues --    1.56688   1.57862   1.59863   1.62157   1.62556
 Alpha virt. eigenvalues --    1.65764   1.67179   1.68870   1.73067   1.75368
 Alpha virt. eigenvalues --    1.77241   1.79838   1.81345   1.82700   1.84075
 Alpha virt. eigenvalues --    1.87783   1.89627   1.92768   1.93998   1.96244
 Alpha virt. eigenvalues --    1.97874   1.99363   2.01173   2.05758   2.08088
 Alpha virt. eigenvalues --    2.09171   2.10737   2.21344   2.23402   2.26736
 Alpha virt. eigenvalues --    2.27052   2.30490   2.33635   2.35845   2.36861
 Alpha virt. eigenvalues --    2.37024   2.39982   2.43107   2.44255   2.47342
 Alpha virt. eigenvalues --    2.47927   2.51858   2.55322   2.57304   2.60079
 Alpha virt. eigenvalues --    2.62341   2.65778   2.71681   2.73050   2.76648
 Alpha virt. eigenvalues --    2.77369   2.78392   2.81139   2.81934   2.82677
 Alpha virt. eigenvalues --    2.84794   2.86282   2.86948   2.89927   2.90739
 Alpha virt. eigenvalues --    2.92668   2.93619   2.94770   2.95916   2.97442
 Alpha virt. eigenvalues --    2.98046   3.02634   3.03592   3.04348   3.06764
 Alpha virt. eigenvalues --    3.08657   3.09980   3.12921   3.13810   3.18656
 Alpha virt. eigenvalues --    3.19799   3.22132   3.25514   3.26823   3.29718
 Alpha virt. eigenvalues --    3.30337   3.32890   3.33295   3.34143   3.37882
 Alpha virt. eigenvalues --    3.38834   3.41983   3.42353   3.43172   3.44985
 Alpha virt. eigenvalues --    3.46587   3.46942   3.48652   3.56463   3.59699
 Alpha virt. eigenvalues --    3.60651   3.62218   3.63175   3.64377   3.66477
 Alpha virt. eigenvalues --    3.67141   3.68574   3.70399   3.72107   3.74651
 Alpha virt. eigenvalues --    3.77175   3.79891   3.80826   3.85517   3.89591
 Alpha virt. eigenvalues --    3.92111   3.94712   3.96161   4.00030   4.01947
 Alpha virt. eigenvalues --    4.04104   4.07148   4.09614   4.15259   4.17090
 Alpha virt. eigenvalues --    4.22047   4.25912   4.29514   4.33449   4.36336
 Alpha virt. eigenvalues --    4.37789   4.40988   4.42475   4.47310   4.48820
 Alpha virt. eigenvalues --    4.49461   4.52325   4.53934   4.55693   4.56419
 Alpha virt. eigenvalues --    4.58674   4.61181   4.62502   4.65263   4.67265
 Alpha virt. eigenvalues --    4.67514   4.69341   4.71795   4.73550   4.75156
 Alpha virt. eigenvalues --    4.77070   4.78552   4.81441   4.81827   4.82372
 Alpha virt. eigenvalues --    4.84074   4.84877   4.85751   4.87193   4.88750
 Alpha virt. eigenvalues --    4.90448   4.92329   4.92861   4.99503   4.99826
 Alpha virt. eigenvalues --    5.06987   5.08804   5.10757   5.18757   5.19116
 Alpha virt. eigenvalues --    5.20982   5.26518   5.30952   5.34050   5.37574
 Alpha virt. eigenvalues --    5.41898   5.42673   5.46840   5.48732   5.52993
 Alpha virt. eigenvalues --    5.57672   5.65377   5.67966   5.73113   5.77298
 Alpha virt. eigenvalues --    5.92312   6.19220   6.52393   6.84249  10.41080
 Alpha virt. eigenvalues --   11.34623  11.52291  11.76030  11.98284  12.30679
 Alpha virt. eigenvalues --   12.53389  12.59836  12.80829
          Condensed to atoms (all electrons):
               1          2          3          4          5          6
     1  C    5.008426   0.405682  -0.037914  -0.006130  -0.000712   0.001123
     2  C    0.405682   4.648421   0.404201  -0.019388  -0.006268  -0.037275
     3  C   -0.037914   0.404201   4.921622   0.410227  -0.019792  -0.037267
     4  C   -0.006130  -0.019388   0.410227   4.913016   0.416261  -0.037000
     5  C   -0.000712  -0.006268  -0.019792   0.416261   4.819849   0.675701
     6  C    0.001123  -0.037275  -0.037267  -0.037000   0.675701   4.836846
     7  C    0.003566  -0.004575  -0.000425   0.003284  -0.024733   0.351262
     8  C    0.000022  -0.010422  -0.003594   0.000735  -0.008896  -0.031859
     9  C   -0.032809   0.434455  -0.011456  -0.035015  -0.049928   0.337081
    10  H    0.367890  -0.023284  -0.004469  -0.000172   0.000074  -0.000136
    11  H    0.368471  -0.023916   0.004280   0.000196  -0.000022  -0.000056
    12  H    0.372375  -0.024850  -0.006862   0.000093  -0.000298   0.001742
    13  H   -0.044755   0.360373  -0.046739   0.003866   0.000914   0.004785
    14  H    0.005173  -0.027973   0.358583  -0.037788  -0.006084   0.003988
    15  H   -0.009549  -0.026755   0.355667  -0.026543   0.002972   0.001472
    16  H    0.000202   0.003072  -0.033700   0.362799  -0.023969   0.003225
    17  H   -0.000045  -0.007049  -0.038266   0.346732  -0.033330   0.001789
    18  H   -0.000062   0.000504   0.003053  -0.068063   0.356015  -0.036716
    19  H   -0.000110   0.002408  -0.000393  -0.000220   0.001016  -0.039602
    20  H    0.000019   0.001126  -0.005661  -0.001216   0.003482  -0.004029
    21  H   -0.000004   0.000152   0.000276   0.000018   0.000150   0.000074
    22  H   -0.000010   0.000168   0.000363   0.000002   0.000390   0.004392
    23  H   -0.006362  -0.060724   0.005308   0.000462  -0.001498  -0.023083
               7          8          9         10         11         12
     1  C    0.003566   0.000022  -0.032809   0.367890   0.368471   0.372375
     2  C   -0.004575  -0.010422   0.434455  -0.023284  -0.023916  -0.024850
     3  C   -0.000425  -0.003594  -0.011456  -0.004469   0.004280  -0.006862
     4  C    0.003284   0.000735  -0.035015  -0.000172   0.000196   0.000093
     5  C   -0.024733  -0.008896  -0.049928   0.000074  -0.000022  -0.000298
     6  C    0.351262  -0.031859   0.337081  -0.000136  -0.000056   0.001742
     7  C    4.702426   0.433570   0.321628  -0.000167  -0.000013  -0.000045
     8  C    0.433570   5.016003  -0.018477   0.000006   0.000012   0.000008
     9  C    0.321628  -0.018477   4.817337   0.003257  -0.001956  -0.004649
    10  H   -0.000167   0.000006   0.003257   0.609833  -0.030947  -0.033178
    11  H   -0.000013   0.000012  -0.001956  -0.030947   0.608548  -0.032614
    12  H   -0.000045   0.000008  -0.004649  -0.033178  -0.032614   0.595581
    13  H   -0.007201   0.001760  -0.051795  -0.001634  -0.003643   0.006532
    14  H    0.000966  -0.008367  -0.003825   0.000090  -0.000221  -0.000032
    15  H   -0.000135   0.000187   0.003283   0.005686   0.000096   0.000096
    16  H   -0.000206   0.000008   0.001110  -0.000060   0.000001  -0.000176
    17  H   -0.000453  -0.000110   0.002321   0.000355  -0.000240   0.007009
    18  H    0.000122   0.000103   0.006681   0.000001   0.000001   0.000035
    19  H    0.357150  -0.062436  -0.025572   0.000002   0.000002   0.000005
    20  H   -0.017529   0.364501  -0.006781  -0.000001   0.000001   0.000001
    21  H   -0.022653   0.367986   0.003857  -0.000000  -0.000000   0.000000
    22  H   -0.025402   0.368128  -0.004718   0.000002  -0.000001   0.000000
    23  H   -0.038763   0.005304   0.378885   0.000017   0.004845   0.000374
              13         14         15         16         17         18
     1  C   -0.044755   0.005173  -0.009549   0.000202  -0.000045  -0.000062
     2  C    0.360373  -0.027973  -0.026755   0.003072  -0.007049   0.000504
     3  C   -0.046739   0.358583   0.355667  -0.033700  -0.038266   0.003053
     4  C    0.003866  -0.037788  -0.026543   0.362799   0.346732  -0.068063
     5  C    0.000914  -0.006084   0.002972  -0.023969  -0.033330   0.356015
     6  C    0.004785   0.003988   0.001472   0.003225   0.001789  -0.036716
     7  C   -0.007201   0.000966  -0.000135  -0.000206  -0.000453   0.000122
     8  C    0.001760  -0.008367   0.000187   0.000008  -0.000110   0.000103
     9  C   -0.051795  -0.003825   0.003283   0.001110   0.002321   0.006681
    10  H   -0.001634   0.000090   0.005686  -0.000060   0.000355   0.000001
    11  H   -0.003643  -0.000221   0.000096   0.000001  -0.000240   0.000001
    12  H    0.006532  -0.000032   0.000096  -0.000176   0.007009   0.000035
    13  H    0.716053  -0.004063   0.000204  -0.000195   0.000315   0.000031
    14  H   -0.004063   0.642042  -0.038580  -0.002276   0.006433   0.000216
    15  H    0.000204  -0.038580   0.647173  -0.001623  -0.002572  -0.000151
    16  H   -0.000195  -0.002276  -0.001623   0.629897  -0.032746  -0.005275
    17  H    0.000315   0.006433  -0.002572  -0.032746   0.631732   0.005033
    18  H    0.000031   0.000216  -0.000151  -0.005275   0.005033   0.644715
    19  H    0.000441   0.000067   0.000006   0.000006   0.000024   0.000118
    20  H    0.000967   0.011841   0.000053   0.000092   0.000053   0.000112
    21  H   -0.000133   0.000009  -0.000006   0.000000   0.000000  -0.000048
    22  H    0.001113   0.000280   0.000002  -0.000003   0.000003  -0.000000
    23  H    0.001313  -0.000147  -0.000118  -0.000000   0.000238  -0.000165
              19         20         21         22         23
     1  C   -0.000110   0.000019  -0.000004  -0.000010  -0.006362
     2  C    0.002408   0.001126   0.000152   0.000168  -0.060724
     3  C   -0.000393  -0.005661   0.000276   0.000363   0.005308
     4  C   -0.000220  -0.001216   0.000018   0.000002   0.000462
     5  C    0.001016   0.003482   0.000150   0.000390  -0.001498
     6  C   -0.039602  -0.004029   0.000074   0.004392  -0.023083
     7  C    0.357150  -0.017529  -0.022653  -0.025402  -0.038763
     8  C   -0.062436   0.364501   0.367986   0.368128   0.005304
     9  C   -0.025572  -0.006781   0.003857  -0.004718   0.378885
    10  H    0.000002  -0.000001  -0.000000   0.000002   0.000017
    11  H    0.000002   0.000001  -0.000000  -0.000001   0.004845
    12  H    0.000005   0.000001   0.000000   0.000000   0.000374
    13  H    0.000441   0.000967  -0.000133   0.001113   0.001313
    14  H    0.000067   0.011841   0.000009   0.000280  -0.000147
    15  H    0.000006   0.000053  -0.000006   0.000002  -0.000118
    16  H    0.000006   0.000092   0.000000  -0.000003  -0.000000
    17  H    0.000024   0.000053   0.000000   0.000003   0.000238
    18  H    0.000118   0.000112  -0.000048  -0.000000  -0.000165
    19  H    0.697618   0.006857  -0.005177  -0.001261  -0.009743
    20  H    0.006857   0.589317  -0.033096  -0.034187  -0.000112
    21  H   -0.005177  -0.033096   0.602467  -0.030321  -0.000119
    22  H   -0.001261  -0.034187  -0.030321   0.598967   0.000320
    23  H   -0.009743  -0.000112  -0.000119   0.000320   0.662316
 Mulliken charges:
               1
     1  C   -0.394486
     2  C    0.011917
     3  C   -0.217041
     4  C   -0.226153
     5  C   -0.101293
     6  C    0.023542
     7  C   -0.031673
     8  C   -0.414170
     9  C   -0.062913
    10  H    0.106836
    11  H    0.107178
    12  H    0.118852
    13  H    0.061491
    14  H    0.099668
    15  H    0.089136
    16  H    0.099818
    17  H    0.112773
    18  H    0.093739
    19  H    0.078794
    20  H    0.124191
    21  H    0.116567
    22  H    0.121774
    23  H    0.081453
 Sum of Mulliken charges =  -0.00000
 Mulliken charges with hydrogens summed into heavy atoms:
               1
     1  C   -0.061620
     2  C    0.073408
     3  C   -0.028237
     4  C   -0.013562
     5  C   -0.007554
     6  C    0.023542
     7  C    0.047121
     8  C   -0.051638
     9  C    0.018540
 Electronic spatial extent (au):  <R**2>=           1130.4996
 Charge=             -0.0000 electrons
 Dipole moment (field-independent basis, Debye):
    X=             -0.3936    Y=             -0.1574    Z=              0.8167  Tot=              0.9201
 Quadrupole moment (field-independent basis, Debye-Ang):
   XX=            -56.3796   YY=            -55.0440   ZZ=            -57.1862
   XY=             -1.4034   XZ=              0.6446   YZ=              0.9220
 Traceless Quadrupole moment (field-independent basis, Debye-Ang):
   XX=             -0.1764   YY=              1.1593   ZZ=             -0.9829
   XY=             -1.4034   XZ=              0.6446   YZ=              0.9220
 Octapole moment (field-independent basis, Debye-Ang**2):
  XXX=              2.4357  YYY=              2.9265  ZZZ=              4.2787  XYY=             -1.1007
  XXY=             -0.9279  XXZ=              2.1328  XZZ=             -2.0415  YZZ=             -2.0533
  YYZ=             -0.7769  XYZ=              0.8781
 Hexadecapole moment (field-independent basis, Debye-Ang**3):
 XXXX=           -781.1459 YYYY=           -464.2842 ZZZZ=           -303.6511 XXXY=             -5.3290
 XXXZ=             -2.0089 YYYX=             -3.0858 YYYZ=             -1.6780 ZZZX=              1.6350
 ZZZY=              7.3453 XXYY=           -213.9605 XXZZ=           -179.8810 YYZZ=           -125.7707
 XXYZ=              0.9801 YYXZ=              0.6730 ZZXY=             -2.8818
 N-N= 4.674684099051D+02 E-N=-1.747522653668D+03  KE= 3.485839151854D+02
 PrsmSu:  requested number of processors reduced to:  13 ShMem   1 Linda.
 Calling FoFJK, ICntrl=      2127 FMM=F ISym2X=0 I1Cent= 0 IOpClX= 0 NMat=1 NMatS=1 NMatT=0.
 ***** Axes restored to original set *****
 -------------------------------------------------------------------
 Center     Atomic                   Forces (Hartrees/Bohr)
 Number     Number              X              Y              Z
 -------------------------------------------------------------------
      1        6          -0.001807725   -0.003538376   -0.000003836
      2        6          -0.001867230   -0.002715184    0.007498442
      3        6           0.002870311   -0.001967365    0.000479692
      4        6          -0.015930292    0.003654074   -0.010012986
      5        6          -0.015605971    0.011766439   -0.017576422
      6        6          -0.022617717    0.018781803    0.024732316
      7        6           0.029292406   -0.028536642   -0.041038718
      8        6           0.018380774    0.006599040    0.009007041
      9        6          -0.006251365   -0.004033368    0.021059284
     10        1          -0.000848662   -0.001575127   -0.001266614
     11        1          -0.000154414   -0.001922751   -0.000424317
     12        1           0.000129940   -0.000030402    0.000016106
     13        1          -0.000549476    0.000227080    0.004028669
     14        1           0.002533207   -0.002243323   -0.000627337
     15        1          -0.006709062   -0.000003822   -0.001880456
     16        1           0.001375220    0.003676247   -0.003205690
     17        1          -0.006229859    0.002263965    0.006335862
     18        1           0.023743834    0.009483600    0.010576439
     19        1          -0.000900085   -0.012811665   -0.000254949
     20        1          -0.004391853    0.003390533    0.001104398
     21        1           0.004445467   -0.002952564   -0.000741457
     22        1           0.003229576   -0.001783053   -0.002184584
     23        1          -0.002137025    0.004270859   -0.005620884
 -------------------------------------------------------------------
 Cartesian Forces:  Max     0.041038718 RMS     0.010906268

 GradGradGradGradGradGradGradGradGradGradGradGradGradGradGradGradGradGrad
 Berny optimization.
 FormGI is forming the generalized inverse of G from B-inverse, IUseBI=4.
 Internal  Forces:  Max     0.032118250 RMS     0.008138895
 Search for a local minimum.
 Step number   1 out of a maximum of  138
 All quantities printed in internal units (Hartrees-Bohrs-Radians)
 Mixed Optimization -- RFO/linear search
 Second derivative matrix not updated -- first step.
 ITU=  0
     Eigenvalues ---    0.00308   0.00504   0.00896   0.00986   0.01625
     Eigenvalues ---    0.01910   0.02557   0.02629   0.03385   0.03575
     Eigenvalues ---    0.04409   0.04582   0.04696   0.04991   0.05366
     Eigenvalues ---    0.05435   0.05470   0.05515   0.06062   0.06070
     Eigenvalues ---    0.06595   0.07820   0.08027   0.09112   0.10286
     Eigenvalues ---    0.10897   0.12281   0.13641   0.14503   0.15552
     Eigenvalues ---    0.15765   0.16000   0.16000   0.16000   0.16000
     Eigenvalues ---    0.16000   0.16000   0.17511   0.19774   0.24826
     Eigenvalues ---    0.26789   0.28150   0.28781   0.29003   0.29766
     Eigenvalues ---    0.31552   0.33972   0.34105   0.34111   0.34185
     Eigenvalues ---    0.34271   0.34320   0.34436   0.34529   0.34584
     Eigenvalues ---    0.34673   0.34908   0.35131   0.35198   0.35404
     Eigenvalues ---    0.35490   0.35589   0.52226
 RFO step:  Lambda=-4.67102616D-02 EMin= 3.08257695D-03
 Linear search not attempted -- first point.
 Maximum step size (   0.300) exceeded in Quadratic search.
    -- Step size scaled by   0.933
 Iteration  1 RMS(Cart)=  0.15503418 RMS(Int)=  0.00654835
 Iteration  2 RMS(Cart)=  0.01231767 RMS(Int)=  0.00089019
 Iteration  3 RMS(Cart)=  0.00011846 RMS(Int)=  0.00088858
 Iteration  4 RMS(Cart)=  0.00000011 RMS(Int)=  0.00088858
 Variable       Old X    -DE/DX   Delta X   Delta X   Delta X     New X
                                 (Linear)    (Quad)   (Total)
    R1        2.89997   0.00366   0.00000   0.01014   0.01014   2.91012
    R2        2.07143  -0.00097   0.00000  -0.00233  -0.00233   2.06910
    R3        2.06447   0.00192   0.00000   0.00456   0.00456   2.06903
    R4        2.06875  -0.00009   0.00000  -0.00022  -0.00022   2.06853
    R5        2.91735   0.00182   0.00000  -0.00076  -0.00098   2.91637
    R6        2.88045   0.00893   0.00000   0.02311   0.02314   2.90359
    R7        2.07377   0.00169   0.00000   0.00409   0.00409   2.07785
    R8        2.87758   0.01196   0.00000   0.02948   0.02866   2.90624
    R9        2.05825   0.00201   0.00000   0.00473   0.00473   2.06298
   R10        2.06600   0.00175   0.00000   0.00417   0.00417   2.07018
   R11        2.83643   0.00543   0.00000   0.01426   0.01450   2.85093
   R12        2.06356   0.00184   0.00000   0.00437   0.00437   2.06793
   R13        2.07153   0.00380   0.00000   0.00914   0.00914   2.08067
   R14        2.55254   0.01452   0.00000   0.02563   0.02613   2.57868
   R15        2.04886   0.00522   0.00000   0.01213   0.01213   2.06099
   R16        2.73913   0.02616   0.00000   0.07101   0.07360   2.81273
   R17        2.81861   0.01617   0.00000   0.02107   0.02267   2.84128
   R18        2.80319   0.01986   0.00000   0.04769   0.04769   2.85088
   R19        2.79421   0.02518   0.00000   0.06643   0.06263   2.85684
   R20        2.05463   0.00583   0.00000   0.01367   0.01367   2.06829
   R21        2.04729   0.00368   0.00000   0.00853   0.00853   2.05581
   R22        2.06210   0.00317   0.00000   0.00750   0.00750   2.06960
   R23        2.06793   0.00131   0.00000   0.00314   0.00314   2.07107
   R24        2.05354   0.00167   0.00000   0.00392   0.00392   2.05746
    A1        1.92110   0.00230   0.00000   0.01095   0.01095   1.93205
    A2        1.95223  -0.00101   0.00000  -0.00586  -0.00586   1.94637
    A3        1.95094  -0.00022   0.00000  -0.00028  -0.00030   1.95064
    A4        1.89077  -0.00109   0.00000  -0.00633  -0.00631   1.88446
    A5        1.87944  -0.00042   0.00000   0.00062   0.00059   1.88002
    A6        1.86648   0.00037   0.00000   0.00059   0.00058   1.86707
    A7        1.87852   0.00269   0.00000   0.01314   0.01352   1.89204
    A8        1.94133  -0.00393   0.00000  -0.03136  -0.03168   1.90965
    A9        1.88040  -0.00208   0.00000  -0.01998  -0.01983   1.86057
   A10        1.95553  -0.00011   0.00000   0.00255   0.00253   1.95805
   A11        1.91864   0.00080   0.00000   0.00914   0.00871   1.92735
   A12        1.88815   0.00253   0.00000   0.02547   0.02529   1.91343
   A13        1.91043   0.00845   0.00000   0.03829   0.03785   1.94828
   A14        1.97127  -0.00528   0.00000  -0.03058  -0.03024   1.94103
   A15        1.93802  -0.00188   0.00000  -0.00726  -0.00721   1.93081
   A16        1.87119   0.00047   0.00000  -0.00371  -0.00352   1.86767
   A17        1.96692  -0.00593   0.00000  -0.01909  -0.01859   1.94834
   A18        1.80402   0.00352   0.00000   0.01928   0.01905   1.82307
   A19        1.91702  -0.00191   0.00000  -0.02454  -0.02524   1.89178
   A20        1.92644   0.00299   0.00000  -0.00346  -0.00372   1.92272
   A21        1.93894  -0.00165   0.00000   0.01775   0.01768   1.95662
   A22        1.94527  -0.00288   0.00000  -0.01992  -0.02038   1.92489
   A23        1.87184   0.00544   0.00000   0.04544   0.04589   1.91773
   A24        1.86326  -0.00197   0.00000  -0.01324  -0.01303   1.85023
   A25        2.10777  -0.00530   0.00000  -0.00913  -0.00884   2.09893
   A26        2.04118  -0.00067   0.00000   0.00197   0.00055   2.04173
   A27        2.09072   0.00701   0.00000   0.02667   0.02566   2.11638
   A28        2.34912   0.03212   0.00000   0.13345   0.13341   2.48253
   A29        2.08527   0.00771   0.00000   0.02624   0.02338   2.10865
   A30        2.21614  -0.01123   0.00000  -0.04185  -0.03854   2.17761
   A31        1.97413   0.01396   0.00000   0.05636   0.05428   2.02842
   A32        2.13567   0.01258   0.00000   0.07020   0.07132   2.20699
   A33        1.90798  -0.00451   0.00000  -0.01540  -0.01555   1.89242
   A34        2.03841  -0.00582   0.00000  -0.05085  -0.05070   1.98771
   A35        2.03226  -0.00580   0.00000  -0.02342  -0.02337   2.00889
   A36        1.92918   0.00283   0.00000   0.01187   0.01193   1.94110
   A37        1.89781   0.00059   0.00000   0.00092   0.00094   1.89874
   A38        1.83708   0.00240   0.00000   0.01403   0.01412   1.85120
   A39        1.85480   0.00326   0.00000   0.01666   0.01667   1.87147
   A40        1.90866  -0.00336   0.00000  -0.02081  -0.02079   1.88786
   A41        2.08835  -0.00606   0.00000  -0.01453  -0.01473   2.07362
   A42        2.12835   0.03047   0.00000   0.14562   0.14790   2.27625
   A43        1.97841  -0.00424   0.00000  -0.03313  -0.03436   1.94405
   A44        2.05984   0.00463   0.00000   0.00340   0.00217   2.06202
   A45        2.00677  -0.02293   0.00000  -0.08413  -0.08490   1.92188
    D1       -0.93581  -0.00134   0.00000  -0.01274  -0.01264  -0.94845
    D2       -3.08412  -0.00052   0.00000  -0.00490  -0.00472  -3.08884
    D3        1.13245  -0.00007   0.00000  -0.00561  -0.00593   1.12652
    D4       -3.03871  -0.00086   0.00000  -0.00833  -0.00821  -3.04692
    D5        1.09616  -0.00004   0.00000  -0.00049  -0.00029   1.09587
    D6       -0.97046   0.00042   0.00000  -0.00120  -0.00149  -0.97195
    D7        1.15197  -0.00048   0.00000  -0.00483  -0.00472   1.14725
    D8       -0.99634   0.00034   0.00000   0.00300   0.00320  -0.99314
    D9       -3.06296   0.00079   0.00000   0.00229   0.00200  -3.06096
   D10       -1.33104   0.00340   0.00000  -0.00702  -0.00743  -1.33847
   D11        2.86884   0.00043   0.00000  -0.00886  -0.00867   2.86016
   D12        0.85160   0.00056   0.00000  -0.00907  -0.00915   0.84245
   D13        0.80855   0.00025   0.00000  -0.03568  -0.03631   0.77224
   D14       -1.27476  -0.00272   0.00000  -0.03752  -0.03755  -1.31231
   D15        2.99119  -0.00259   0.00000  -0.03773  -0.03803   2.95316
   D16        2.90864   0.00392   0.00000   0.00440   0.00377   2.91241
   D17        0.82533   0.00095   0.00000   0.00255   0.00253   0.82786
   D18       -1.19191   0.00107   0.00000   0.00234   0.00206  -1.18985
   D19        1.94774  -0.00058   0.00000   0.02571   0.02765   1.97538
   D20       -3.12778   0.01107   0.00000   0.08779   0.08593  -3.04185
   D21       -0.61057   0.00726   0.00000   0.09873   0.09858  -0.51199
   D22       -0.15577  -0.00120   0.00000   0.02904   0.03062  -0.12515
   D23        1.05190   0.01045   0.00000   0.09112   0.08890   1.14080
   D24       -2.71408   0.00663   0.00000   0.10206   0.10155  -2.61252
   D25       -2.27351  -0.00384   0.00000  -0.00116   0.00033  -2.27318
   D26       -1.06584   0.00782   0.00000   0.06092   0.05861  -1.00723
   D27        1.45137   0.00400   0.00000   0.07185   0.07126   1.52263
   D28       -1.06694  -0.00081   0.00000   0.00321   0.00295  -1.06399
   D29        3.06451   0.00211   0.00000   0.04741   0.04714   3.11165
   D30        1.00111   0.00369   0.00000   0.05490   0.05465   1.05576
   D31        1.07704  -0.00190   0.00000  -0.01346  -0.01359   1.06345
   D32       -1.07470   0.00102   0.00000   0.03074   0.03060  -1.04410
   D33       -3.13809   0.00260   0.00000   0.03823   0.03811  -3.09999
   D34        3.05044  -0.00045   0.00000  -0.00233  -0.00238   3.04807
   D35        0.89870   0.00247   0.00000   0.04187   0.04181   0.94052
   D36       -1.16469   0.00404   0.00000   0.04936   0.04932  -1.11537
   D37        0.67403  -0.00138   0.00000   0.04922   0.04887   0.72290
   D38       -2.78083   0.00356   0.00000   0.12233   0.12156  -2.65927
   D39        2.81468  -0.00087   0.00000   0.01414   0.01443   2.82911
   D40       -0.64018   0.00407   0.00000   0.08725   0.08712  -0.55306
   D41       -1.43498  -0.00158   0.00000   0.01439   0.01438  -1.42060
   D42        1.39334   0.00336   0.00000   0.08750   0.08706   1.48041
   D43       -1.32192  -0.02505   0.00000  -0.16593  -0.16679  -1.48871
   D44        0.00566  -0.00497   0.00000  -0.08512  -0.08480  -0.07914
   D45        2.14174  -0.02868   0.00000  -0.23648  -0.23783   1.90390
   D46       -2.81387  -0.00860   0.00000  -0.15566  -0.15585  -2.96971
   D47       -0.12272  -0.01564   0.00000  -0.09163  -0.09088  -0.21361
   D48       -2.57474  -0.01249   0.00000  -0.09014  -0.08979  -2.66453
   D49       -0.27798   0.00479   0.00000   0.03703   0.03566  -0.24231
   D50        2.25372  -0.00651   0.00000  -0.05155  -0.05236   2.20136
   D51        0.51893  -0.00186   0.00000  -0.00732  -0.00794   0.51099
   D52       -1.57555  -0.00312   0.00000  -0.01849  -0.01907  -1.59462
   D53        2.61230  -0.00108   0.00000  -0.00072  -0.00132   2.61099
   D54       -0.81366   0.00119   0.00000  -0.00382  -0.00314  -0.81680
   D55       -2.90815  -0.00007   0.00000  -0.01499  -0.01427  -2.92242
   D56        1.27971   0.00197   0.00000   0.00278   0.00348   1.28319
   D57        2.99169   0.00108   0.00000   0.01452   0.01440   3.00609
   D58        0.89721  -0.00018   0.00000   0.00335   0.00327   0.90048
   D59       -1.19812   0.00186   0.00000   0.02112   0.02102  -1.17710
   D60        0.17716   0.00106   0.00000  -0.00179  -0.00351   0.17365
   D61       -2.33079  -0.00155   0.00000  -0.03123  -0.03128  -2.36207
   D62        2.60944   0.00235   0.00000  -0.00451  -0.00637   2.60307
   D63        0.10149  -0.00026   0.00000  -0.03395  -0.03414   0.06735
         Item               Value     Threshold  Converged?
 Maximum Force            0.032118     0.000450     NO 
 RMS     Force            0.008139     0.000300     NO 
 Maximum Displacement     0.675921     0.001800     NO 
 RMS     Displacement     0.161968     0.001200     NO 
 Predicted change in Energy=-3.068973D-02
 GradGradGradGradGradGradGradGradGradGradGradGradGradGradGradGradGradGrad

                          Input orientation:                          
 ---------------------------------------------------------------------
 Center     Atomic      Atomic             Coordinates (Angstroms)
 Number     Number       Type             X           Y           Z
 ---------------------------------------------------------------------
      1          6           0        0.900842   -0.038522    0.033283
      2          6           0        2.405455    0.252565    0.184639
      3          6           0        2.569688    1.630919    0.859085
      4          6           0        2.310312    2.780177   -0.129404
      5          6           0        3.316671    2.681275   -1.248989
      6          6           0        3.638156    1.465727   -1.779236
      7          6           0        4.536391    0.295630   -1.580522
      8          6           0        5.715240    0.266039   -0.639578
      9          6           0        3.077571    0.198355   -1.196012
     10          1           0        0.391028    0.047460    0.998448
     11          1           0        0.723883   -1.047392   -0.353552
     12          1           0        0.420373    0.658606   -0.660514
     13          1           0        2.815799   -0.540187    0.826647
     14          1           0        3.582292    1.763827    1.244753
     15          1           0        1.928020    1.706602    1.743750
     16          1           0        2.403098    3.744155    0.380135
     17          1           0        1.289192    2.750865   -0.540197
     18          1           0        3.586239    3.608817   -1.755416
     19          1           0        4.796683   -0.272293   -2.479201
     20          1           0        5.624682    0.908054    0.233989
     21          1           0        6.635580    0.573364   -1.147477
     22          1           0        5.851353   -0.758987   -0.276358
     23          1           0        2.559542   -0.488745   -1.863052
 ---------------------------------------------------------------------
                    Distance matrix (angstroms):
                    1          2          3          4          5
     1  C    0.000000
     2  C    1.539968   0.000000
     3  C    2.500805   1.543278   0.000000
     4  C    3.155652   2.548823   1.537915   0.000000
     5  C    3.857168   2.963821   2.470872   1.508645   0.000000
     6  C    3.611216   2.616891   2.851254   2.492568   1.364577
     7  C    3.991646   2.767406   3.406258   3.637876   2.699802
     8  C    4.870722   3.410893   3.742110   4.263180   3.458017
     9  C    2.511061   1.536515   2.556092   2.896920   2.494968
    10  H    1.094918   2.182263   2.696910   3.524691   4.532917
    11  H    1.094886   2.192539   3.471431   4.149372   4.628965
    12  H    1.094620   2.195383   2.806088   2.890504   3.581345
    13  H    2.132640   1.099551   2.185251   3.492044   3.864836
    14  H    3.450550   2.189223   1.091683   2.130542   2.670397
    15  H    2.650707   2.184718   1.095490   2.192582   3.440178
    16  H    4.084816   3.497059   2.173226   1.094300   2.149041
    17  H    2.874088   2.830713   2.202712   1.101043   2.148929
    18  H    4.869691   4.052467   3.432357   2.226780   1.090628
    19  H    4.641639   3.617941   4.441382   4.584884   3.525255
    20  H    4.821924   3.285654   3.200979   3.823866   3.266566
    21  H    5.886919   4.446504   4.655769   4.961294   3.933033
    22  H    5.012236   3.620769   4.215472   5.008618   4.382468
    23  H    2.559312   2.183192   3.450088   3.708572   3.316526
                    6          7          8          9         10
     6  C    0.000000
     7  C    1.488435   0.000000
     8  C    2.655626   1.508621   0.000000
     9  C    1.503542   1.511775   2.696572   0.000000
    10  H    4.502317   4.888426   5.574778   3.472167   0.000000
    11  H    4.103819   4.224261   5.169194   2.793112   1.771270
    12  H    3.501016   4.233175   5.309442   2.749417   1.768195
    13  H    3.389777   3.074653   3.347622   2.169129   2.500872
    14  H    3.039161   3.323866   3.216138   2.943260   3.631907
    15  H    3.923521   4.454798   4.700906   3.498354   2.381296
    16  H    3.373350   4.504158   4.909928   3.938509   4.253973
    17  H    2.950327   4.201756   5.076824   3.184918   3.237674
    18  H    2.143851   3.451171   4.117270   3.493269   5.520544
    19  H    2.202919   1.094493   2.125503   2.196231   5.621929
    20  H    2.882769   2.202701   1.087890   3.006052   5.358745
    21  H    3.190608   2.161310   1.095187   3.578046   6.623896
    22  H    3.479402   2.131242   1.095963   3.075083   5.664860
    23  H    2.233919   2.145460   3.467711   1.088762   3.630173
                   11         12         13         14         15
    11  H    0.000000
    12  H    1.759765   0.000000
    13  H    2.454840   3.063792   0.000000
    14  H    4.316020   3.853477   2.463900   0.000000
    15  H    3.665120   3.025191   2.584046   1.728840   0.000000
    16  H    5.130008   3.812448   4.327272   2.461659   2.497351
    17  H    3.844629   2.268672   3.876831   3.068974   2.591332
    18  H    5.642569   4.463773   4.947208   3.522076   4.314194
    19  H    4.659063   4.829730   3.863198   4.414563   5.475269
    20  H    5.309125   5.286510   3.215349   2.434204   4.072145
    21  H    6.181046   6.234837   4.441608   4.057405   5.639551
    22  H    5.136155   5.626073   3.237141   3.718468   5.054949
    23  H    2.441377   2.708978   2.702368   3.972223   4.269355
                   16         17         18         19         20
    16  H    0.000000
    17  H    1.753403   0.000000
    18  H    2.445142   2.736651   0.000000
    19  H    5.480594   5.020131   4.129414   0.000000
    20  H    4.294582   4.774075   3.925189   3.072491   0.000000
    21  H    5.504672   5.804667   4.345348   2.422843   1.744242
    22  H    5.709618   5.762116   5.137711   2.490325   1.758084
    23  H    4.793100   3.722743   4.225602   2.330513   3.967834
                   21         22         23
    21  H    0.000000
    22  H    1.774548   0.000000
    23  H    4.272494   3.664239   0.000000
 Stoichiometry    C9H14
 Framework group  C1[X(C9H14)]
 Deg. of freedom    63
 Full point group                 C1      NOp   1
 Largest Abelian subgroup         C1      NOp   1
 Largest concise Abelian subgroup C1      NOp   1
                         Standard orientation:                         
 ---------------------------------------------------------------------
 Center     Atomic      Atomic             Coordinates (Angstroms)
 Number     Number       Type             X           Y           Z
 ---------------------------------------------------------------------
      1          6           0       -2.105618   -1.384630   -0.346201
      2          6           0       -0.824034   -0.919275    0.369682
      3          6           0       -1.127043    0.407065    1.098184
      4          6           0       -1.171906    1.593373    0.120512
      5          6           0        0.178837    1.717222   -0.539916
      6          6           0        0.850188    0.601119   -0.946944
      7          6           0        1.775411   -0.458452   -0.460416
      8          6           0        2.514854   -0.417749    0.853930
      9          6           0        0.309540   -0.771568   -0.656998
     10          1           0       -2.941888   -1.445417    0.357933
     11          1           0       -1.975271   -2.371603   -0.801907
     12          1           0       -2.394645   -0.697988   -1.148185
     13          1           0       -0.566038   -1.704944    1.094371
     14          1           0       -0.359737    0.634092    1.840795
     15          1           0       -2.053111    0.326192    1.677800
     16          1           0       -1.418025    2.514993    0.656733
     17          1           0       -1.953191    1.469775   -0.645394
     18          1           0        0.474729    2.710736   -0.878807
     19          1           0        2.429959   -0.911180   -1.211761
     20          1           0        2.014284    0.131801    1.648240
     21          1           0        3.500792    0.045225    0.739847
     22          1           0        2.658511   -1.444223    1.210087
     23          1           0        0.182257   -1.460078   -1.490758
 ---------------------------------------------------------------------
 Rotational constants (GHZ):           2.3204669           1.4701907           1.1871905
 Standard basis: 6-31G(2df,p) (6D, 7F)
 There are   349 symmetry adapted cartesian basis functions of A   symmetry.
 There are   322 symmetry adapted basis functions of A   symmetry.
   322 basis functions,   494 primitive gaussians,   349 cartesian basis functions
    34 alpha electrons       34 beta electrons
       nuclear repulsion energy       458.1453434006 Hartrees.
 NAtoms=   23 NActive=   23 NUniq=   23 SFac= 1.00D+00 NAtFMM=   60 NAOKFM=F Big=F
 Integral buffers will be    131072 words long.
 Raffenetti 2 integral format.
 Two-electron integral symmetry is turned on.
 One-electron integrals computed using PRISM.
 PrsmSu:  requested number of processors reduced to:  13 ShMem   1 Linda.
 NBasis=   322 RedAO= T EigKep=  4.97D-04  NBF=   322
 NBsUse=   322 1.00D-06 EigRej= -1.00D+00 NBFU=   322
 Initial guess from the checkpoint file:  "CC1CCCdC2CpCpC21.chk"
 B after Tr=     0.000000   -0.000000    0.000000
         Rot=    0.999234    0.021557   -0.002937   -0.032539 Ang=   4.49 deg.
 ExpMin= 1.61D-01 ExpMax= 3.05D+03 ExpMxC= 4.57D+02 IAcc=2 IRadAn=         4 AccDes= 0.00D+00
 Harris functional with IExCor=  402 and IRadAn=       4 diagonalized for initial guess.
 HarFok:  IExCor=  402 AccDes= 0.00D+00 IRadAn=         4 IDoV= 1 UseB2=F ITyADJ=14
 ICtDFT=  3500011 ScaDFX=  1.000000  1.000000  1.000000  1.000000
 FoFCou: FMM=F IPFlag=           0 FMFlag=      100000 FMFlg1=           0
         NFxFlg=           0 DoJE=T BraDBF=F KetDBF=T FulRan=T
         wScrn=  0.000000 ICntrl=       500 IOpCl=  0 I1Cent=   200000004 NGrid=           0
         NMat0=    1 NMatS0=      1 NMatT0=    0 NMatD0=    1 NMtDS0=    0 NMtDT0=    0
 Petite list used in FoFCou.
 Requested convergence on RMS density matrix=1.00D-08 within 128 cycles.
 Requested convergence on MAX density matrix=1.00D-06.
 Requested convergence on             energy=1.00D-06.
 No special actions if energy rises.
 Integral accuracy reduced to 1.0D-05 until final iterations.
 Initial convergence to 1.0D-05 achieved.  Increase integral accuracy.
 SCF Done:  E(RB3LYP) =  -351.314567947     A.U. after   12 cycles
            NFock= 12  Conv=0.93D-08     -V/T= 2.0090
 PrsmSu:  requested number of processors reduced to:  13 ShMem   1 Linda.
 Calling FoFJK, ICntrl=      2127 FMM=F ISym2X=0 I1Cent= 0 IOpClX= 0 NMat=1 NMatS=1 NMatT=0.
 ***** Axes restored to original set *****
 -------------------------------------------------------------------
 Center     Atomic                   Forces (Hartrees/Bohr)
 Number     Number              X              Y              Z
 -------------------------------------------------------------------
      1        6          -0.000435287   -0.003597506   -0.001736165
      2        6          -0.000250387   -0.002707203    0.002517472
      3        6           0.002656877    0.000244809    0.001004547
      4        6          -0.007880522   -0.002221841   -0.009046908
      5        6          -0.002012595   -0.006882102   -0.028730782
      6        6          -0.018822233    0.005422520    0.034134991
      7        6           0.014499516   -0.002310855   -0.021843318
      8        6           0.004706061    0.003579268    0.003336192
      9        6           0.000059074    0.003281171    0.010297291
     10        1           0.000152289   -0.000762580   -0.000091854
     11        1           0.000220169   -0.000493786   -0.000038938
     12        1           0.000268699    0.000552325   -0.000083676
     13        1           0.001194538    0.002890389    0.002361024
     14        1           0.004331935   -0.001484399   -0.000459958
     15        1          -0.003737952   -0.000882411   -0.001991221
     16        1           0.001405935    0.001141064   -0.001637704
     17        1          -0.001586204   -0.000551834    0.004682108
     18        1           0.017034262    0.000581984    0.011169666
     19        1          -0.004910435   -0.002543455    0.001162439
     20        1          -0.005121266    0.003216721    0.002317271
     21        1          -0.000190856   -0.001407599   -0.001204014
     22        1           0.001418002   -0.000572316   -0.001224380
     23        1          -0.002999620    0.005507637   -0.004894080
 -------------------------------------------------------------------
 Cartesian Forces:  Max     0.034134991 RMS     0.007722746

 GradGradGradGradGradGradGradGradGradGradGradGradGradGradGradGradGradGrad
 Berny optimization.
 Using GEDIIS/GDIIS optimizer.
 FormGI is forming the generalized inverse of G from B-inverse, IUseBI=4.
 Internal  Forces:  Max     0.017506124 RMS     0.003286039
 Search for a local minimum.
 Step number   2 out of a maximum of  138
 All quantities printed in internal units (Hartrees-Bohrs-Radians)
 Mixed Optimization -- RFO/linear search
 Update second derivatives using D2CorX and points    1    2
 DE= -2.74D-02 DEPred=-3.07D-02 R= 8.94D-01
 TightC=F SS=  1.41D+00  RLast= 5.68D-01 DXNew= 5.0454D-01 1.7040D+00
 Trust test= 8.94D-01 RLast= 5.68D-01 DXMaxT set to 5.05D-01
 ITU=  1  0
 Use linear search instead of GDIIS.
     Eigenvalues ---    0.00308   0.00516   0.00916   0.00986   0.01576
     Eigenvalues ---    0.01902   0.02549   0.02615   0.03382   0.03620
     Eigenvalues ---    0.04402   0.04439   0.04604   0.05031   0.05348
     Eigenvalues ---    0.05393   0.05457   0.05546   0.05919   0.06079
     Eigenvalues ---    0.06269   0.07994   0.08295   0.08888   0.10297
     Eigenvalues ---    0.11005   0.11550   0.13090   0.13242   0.15303
     Eigenvalues ---    0.15637   0.15915   0.16000   0.16000   0.16000
     Eigenvalues ---    0.16000   0.16036   0.19219   0.19495   0.23615
     Eigenvalues ---    0.26763   0.28662   0.28824   0.29010   0.30175
     Eigenvalues ---    0.31607   0.33973   0.34082   0.34111   0.34123
     Eigenvalues ---    0.34272   0.34320   0.34434   0.34526   0.34582
     Eigenvalues ---    0.34674   0.34840   0.35141   0.35191   0.35449
     Eigenvalues ---    0.35494   0.36895   0.56173
 RFO step:  Lambda=-2.83872595D-02 EMin= 3.08256768D-03
 Quartic linear search produced a step of  0.84888.
 Iteration  1 RMS(Cart)=  0.10569993 RMS(Int)=  0.02948016
 Iteration  2 RMS(Cart)=  0.03254547 RMS(Int)=  0.00284826
 Iteration  3 RMS(Cart)=  0.00154395 RMS(Int)=  0.00232043
 Iteration  4 RMS(Cart)=  0.00000339 RMS(Int)=  0.00232043
 Iteration  5 RMS(Cart)=  0.00000001 RMS(Int)=  0.00232043
 Variable       Old X    -DE/DX   Delta X   Delta X   Delta X     New X
                                 (Linear)    (Quad)   (Total)
    R1        2.91012   0.00080   0.00861  -0.00275   0.00586   2.91598
    R2        2.06910  -0.00021  -0.00198   0.00067  -0.00131   2.06778
    R3        2.06903   0.00043   0.00387  -0.00124   0.00263   2.07166
    R4        2.06853   0.00029  -0.00018   0.00142   0.00123   2.06976
    R5        2.91637  -0.00379  -0.00083  -0.01061  -0.01351   2.90286
    R6        2.90359  -0.00263   0.01964  -0.02542  -0.00667   2.89692
    R7        2.07785  -0.00026   0.00347  -0.00397  -0.00051   2.07734
    R8        2.90624   0.00307   0.02433  -0.00022   0.02226   2.92850
    R9        2.06298   0.00367   0.00402   0.01273   0.01674   2.07973
   R10        2.07018   0.00052   0.00354  -0.00058   0.00296   2.07313
   R11        2.85093   0.00133   0.01231  -0.00685   0.00690   2.85782
   R12        2.06793   0.00036   0.00371  -0.00143   0.00228   2.07021
   R13        2.08067  -0.00026   0.00775  -0.00746   0.00030   2.08097
   R14        2.57868  -0.01751   0.02218  -0.07315  -0.04849   2.53018
   R15        2.06099  -0.00048   0.01030  -0.01045  -0.00016   2.06083
   R16        2.81273  -0.00134   0.06248  -0.05538   0.01147   2.82421
   R17        2.84128   0.00272   0.01924  -0.03340  -0.00892   2.83236
   R18        2.85088   0.00255   0.04048  -0.02156   0.01892   2.86981
   R19        2.85684   0.00203   0.05317  -0.01080   0.03423   2.89107
   R20        2.06829  -0.00080   0.01160  -0.01292  -0.00132   2.06697
   R21        2.05581   0.00419   0.00724   0.01200   0.01924   2.07505
   R22        2.06960   0.00000   0.00637  -0.00517   0.00120   2.07081
   R23        2.07107   0.00031   0.00267  -0.00082   0.00185   2.07292
   R24        2.05746   0.00095   0.00333   0.00139   0.00472   2.06218
    A1        1.93205   0.00028   0.00929  -0.00425   0.00504   1.93709
    A2        1.94637  -0.00041  -0.00497  -0.00120  -0.00617   1.94020
    A3        1.95064  -0.00057  -0.00025  -0.00361  -0.00389   1.94675
    A4        1.88446  -0.00014  -0.00536   0.00049  -0.00484   1.87962
    A5        1.88002   0.00035   0.00050   0.00519   0.00567   1.88569
    A6        1.86707   0.00053   0.00050   0.00397   0.00445   1.87151
    A7        1.89204   0.00500   0.01148   0.02868   0.04019   1.93223
    A8        1.90965  -0.00243  -0.02690  -0.01474  -0.04139   1.86826
    A9        1.86057  -0.00114  -0.01683   0.00359  -0.01294   1.84762
   A10        1.95805  -0.00341   0.00214  -0.01842  -0.01657   1.94148
   A11        1.92735  -0.00078   0.00739  -0.01585  -0.00841   1.91894
   A12        1.91343   0.00285   0.02146   0.01782   0.03918   1.95262
   A13        1.94828   0.00120   0.03213   0.00245   0.03173   1.98001
   A14        1.94103  -0.00208  -0.02567  -0.01351  -0.03772   1.90331
   A15        1.93081  -0.00073  -0.00612  -0.01238  -0.01806   1.91275
   A16        1.86767   0.00073  -0.00299  -0.00174  -0.00352   1.86415
   A17        1.94834  -0.00101  -0.01578   0.00469  -0.00956   1.93878
   A18        1.82307   0.00191   0.01617   0.02170   0.03704   1.86010
   A19        1.89178  -0.00111  -0.02142  -0.00934  -0.03068   1.86110
   A20        1.92272   0.00008  -0.00316  -0.02339  -0.02914   1.89358
   A21        1.95662  -0.00089   0.01501   0.00649   0.01990   1.97652
   A22        1.92489  -0.00181  -0.01730  -0.02774  -0.04817   1.87672
   A23        1.91773   0.00402   0.03896   0.04830   0.08739   2.00512
   A24        1.85023  -0.00028  -0.01106   0.00546  -0.00390   1.84632
   A25        2.09893  -0.00185  -0.00751  -0.02291  -0.03328   2.06565
   A26        2.04173   0.00213   0.00047   0.04634   0.03362   2.07535
   A27        2.11638   0.00085   0.02178   0.01720   0.02577   2.14216
   A28        2.48253   0.00800   0.11325  -0.02035   0.09029   2.57283
   A29        2.10865   0.00446   0.01985   0.02101   0.03487   2.14352
   A30        2.17761  -0.00608  -0.03271  -0.03820  -0.06700   2.11061
   A31        2.02842   0.00137   0.04608  -0.00733   0.03605   2.06446
   A32        2.20699   0.00137   0.06054  -0.03300   0.02841   2.23540
   A33        1.89242   0.00500  -0.01320   0.06445   0.05163   1.94405
   A34        1.98771  -0.00522  -0.04304  -0.02445  -0.06808   1.91963
   A35        2.00889  -0.00657  -0.01984  -0.04124  -0.06102   1.94787
   A36        1.94110  -0.00015   0.01012  -0.00929   0.00083   1.94193
   A37        1.89874   0.00157   0.00079   0.01223   0.01310   1.91184
   A38        1.85120   0.00380   0.01199   0.02585   0.03782   1.88901
   A39        1.87147   0.00255   0.01415   0.01270   0.02697   1.89844
   A40        1.88786  -0.00089  -0.01765   0.00245  -0.01518   1.87269
   A41        2.07362  -0.00007  -0.01250   0.01042  -0.00268   2.07095
   A42        2.27625   0.00694   0.12555  -0.03770   0.08884   2.36509
   A43        1.94405  -0.00073  -0.02916   0.01542  -0.01736   1.92669
   A44        2.06202   0.00009   0.00185  -0.04335  -0.04327   2.01875
   A45        1.92188  -0.00468  -0.07207   0.04484  -0.02937   1.89251
    D1       -0.94845  -0.00156  -0.01073  -0.01484  -0.02597  -0.97442
    D2       -3.08884   0.00098  -0.00401  -0.00117  -0.00435  -3.09320
    D3        1.12652  -0.00048  -0.00503  -0.01651  -0.02200   1.10452
    D4       -3.04692  -0.00130  -0.00697  -0.01178  -0.01913  -3.06605
    D5        1.09587   0.00124  -0.00024   0.00188   0.00249   1.09836
    D6       -0.97195  -0.00021  -0.00127  -0.01345  -0.01516  -0.98711
    D7        1.14725  -0.00131  -0.00401  -0.01356  -0.01796   1.12929
    D8       -0.99314   0.00123   0.00272   0.00010   0.00366  -0.98948
    D9       -3.06096  -0.00022   0.00170  -0.01523  -0.01399  -3.07495
   D10       -1.33847   0.00127  -0.00631  -0.02840  -0.03492  -1.37339
   D11        2.86016   0.00094  -0.00736  -0.01873  -0.02550   2.83467
   D12        0.84245   0.00029  -0.00777  -0.02974  -0.03785   0.80460
   D13        0.77224  -0.00056  -0.03082  -0.03914  -0.07065   0.70159
   D14       -1.31231  -0.00088  -0.03188  -0.02947  -0.06122  -1.37353
   D15        2.95316  -0.00153  -0.03228  -0.04047  -0.07357   2.87959
   D16        2.91241   0.00016   0.00320  -0.04057  -0.03798   2.87444
   D17        0.82786  -0.00016   0.00215  -0.03091  -0.02855   0.79931
   D18       -1.18985  -0.00082   0.00174  -0.04191  -0.04090  -1.23075
[...]
 12,0.00008987,0.00015259,-0.00129272,-0.00111345,0.00002275,0.00016421
 ,0.00018450,-0.00005908,-0.00049247,0.00100121,-0.00020136,0.03810031,
 0.06678479,0.00111521,-0.00126561,-0.00056487,-0.00969754,-0.00103980,
 -0.00593737,-0.11945836,-0.03186735,-0.14555221,-0.01824474,-0.0011094
 1,-0.01800662,-0.00161252,0.00051222,0.00192569,0.00014706,-0.00138684
 ,0.00048330,-0.00006059,-0.00036751,-0.00040981,0.00003958,-0.00006090
 ,-0.00041419,0.00066678,-0.00042608,-0.00050396,-0.00008341,-0.0000358
 5,0.00016202,-0.00055796,-0.00011486,0.00015643,0.00008182,0.00006280,
 -0.00008907,0.00062427,0.00055548,0.00144413,0.13251113,0.02973208,0.1
 5746090,0.00058464,-0.00222599,-0.00039069,-0.00149345,-0.00064703,0.0
 0018927,-0.23063742,0.01429119,0.11385310,0.00130438,0.00041978,-0.002
 19679,0.00067903,0.00090256,0.00094666,0.00045917,-0.00088341,0.000078
 57,0.00013518,0.00011151,0.00006683,0.00009668,-0.00000362,-0.00016657
 ,-0.00051091,-0.00033391,-0.00072147,0.00069413,0.00029501,-0.00045236
 ,0.00014001,-0.00027232,-0.00041962,0.00044157,0.00035822,0.00005686,0
 .00008292,0.00054440,0.00031439,-0.02145165,0.00118375,0.01329808,0.24
 870245,0.00150197,0.00099776,-0.00149559,0.02182571,-0.00452353,-0.015
 87549,0.01330808,-0.04568748,-0.00829818,-0.01982911,0.00050259,0.0127
 0159,0.00047959,-0.00268024,0.00277396,-0.00077932,-0.00045439,0.00129
 537,-0.00029516,-0.00107569,-0.00148852,0.00008327,0.00038774,-0.00002
 242,0.00111098,-0.00328443,-0.00023536,-0.00025781,-0.00065327,0.00047
 004,-0.00001823,0.00026574,0.00031079,-0.00041338,0.00014891,-0.000142
 57,0.00030976,-0.00159241,-0.00009892,-0.00455934,0.00015977,0.0028823
 1,-0.01272813,0.05560167,0.00085588,0.00106442,0.00099939,0.00929765,-
 0.00126749,-0.00694171,0.11158376,-0.00852924,-0.11739805,0.01960903,-
 0.00123151,-0.01187540,0.00046394,0.00277860,-0.00270403,-0.00009165,0
 .00067124,0.00005988,-0.00043162,-0.00050413,-0.00045069,-0.00025215,-
 0.00022249,-0.00017223,0.00172972,-0.00138151,-0.00097788,-0.00044952,
 -0.00029107,0.00046936,-0.00014845,0.00042479,0.00030271,-0.00022160,-
 0.00003421,-0.00041798,0.00017422,-0.00052171,-0.00030259,-0.01752761,
 0.00101343,0.01137842,-0.12518595,0.00912994,0.12729917,-0.00007465,0.
 00019523,-0.00008047,0.00055633,0.00026884,0.00075505,-0.00065308,-0.0
 0015074,-0.00044726,-0.04789098,0.00527489,0.00255121,-0.00128641,0.02
 576018,0.01286689,-0.00557365,0.00135270,0.00209772,-0.00003095,-0.000
 19070,0.00070105,0.00019074,0.00019841,0.00006532,0.00036621,0.0000440
 5,-0.00025270,0.00007357,-0.00004464,0.00002170,0.00005600,-0.00001753
 ,-0.00000913,0.00013771,0.00011668,-0.00000143,0.00006600,-0.00019960,
 -0.00000821,0.00020593,0.00030328,0.00039084,-0.00000868,-0.00013696,-
 0.00022232,0.05146774,0.00037005,-0.00028486,-0.00013164,0.00032794,-0
 .00060037,0.00377681,0.00032028,-0.02009913,-0.01038804,0.00833443,-0.
 25507015,-0.10528068,-0.00106043,-0.00088721,0.00068498,0.00037077,-0.
 00007603,-0.00020311,-0.00008808,0.00027753,-0.00046833,0.00002893,0.0
 0007730,-0.00005367,0.00002660,0.00067077,0.00081393,-0.00001081,-0.00
 003278,0.00003651,-0.00025301,-0.00009468,-0.00005699,-0.00007402,0.00
 007025,-0.00004450,0.00003423,-0.00111714,-0.00036246,0.00066991,0.001
 07240,-0.00013778,-0.00063686,0.00042805,0.00009176,-0.00879309,0.2776
 1947,-0.00045425,0.00053011,0.00023399,0.00008366,0.00223316,-0.004220
 21,-0.00099384,0.02306261,0.01036204,0.00462133,-0.10457736,-0.0990499
 7,-0.00264078,-0.01512132,-0.00805372,0.00454164,-0.00264181,-0.001128
 53,0.00060902,0.00046808,0.00028745,-0.00011243,-0.00042565,-0.0001031
 4,-0.00005619,0.00037354,-0.00082663,-0.00002569,-0.00001780,0.0000444
 7,0.00030140,0.00014621,0.00006115,0.00016539,-0.00004922,0.00002014,-
 0.00013693,0.00117560,0.00030880,-0.00013761,-0.00070966,0.00119854,0.
 00020316,-0.00078416,0.00075530,-0.00611416,0.11288707,0.10780805,-0.0
 0026798,0.00028583,-0.00016036,0.00001267,0.00024390,-0.00060472,0.000
 88247,0.00099800,0.00020839,-0.20923341,-0.01762381,-0.12135545,-0.023
 92961,-0.00157850,-0.00959097,0.00082531,-0.00408433,0.00141802,0.0006
 9964,0.00008199,0.00146452,0.00033234,-0.00006490,-0.00005064,-0.00008
 733,0.00061062,-0.00166636,0.00010761,-0.00003960,0.00003891,0.0000595
 5,0.00001640,0.00000146,0.00017777,-0.00002003,0.00010389,0.00004844,0
 .00007565,-0.00010383,0.00118240,-0.00051444,0.00026800,0.00066152,0.0
 0041890,-0.00030362,0.00092373,-0.00033589,0.00051853,0.23051806,0.000
 06900,0.00014123,0.00022847,0.00056751,0.00113417,-0.00010882,0.019591
 87,0.00104969,0.01693733,-0.01763310,-0.04822105,-0.01614192,0.0013074
 5,-0.00066286,0.00225392,0.00162337,-0.00084622,-0.00152618,0.00025034
 ,0.00097216,0.00015310,-0.00002813,-0.00019992,0.00007785,-0.00064554,
 0.00071803,-0.00073379,-0.00001480,0.00008588,-0.00007877,-0.00002113,
 0.00008490,-0.00010998,-0.00035015,-0.00018589,-0.00002497,-0.00009495
 ,0.00026445,-0.00024572,0.00030339,-0.00311950,0.00393200,-0.00034957,
 0.00109115,-0.00109472,-0.02402261,-0.00240865,-0.01683085,0.01968464,
 0.05046657,-0.00031126,0.00027627,-0.00000492,0.00046483,-0.00130564,0
 .00041309,-0.01876331,-0.00086718,-0.01608553,-0.11907180,-0.01569288,
 -0.12836296,0.01696346,0.00054215,0.01037560,0.00119307,0.00126617,-0.
 00011301,-0.00021921,0.00045877,-0.00064248,0.00000771,0.00010296,-0.0
 0013986,-0.00051171,0.00044953,0.00112514,0.00000481,-0.00006007,0.000
 02636,0.00017580,0.00003043,0.00007773,0.00029820,0.00014518,0.0001274
 5,0.00001820,-0.00013955,0.00030351,0.00055837,0.00425398,-0.00271821,
 0.00042125,-0.00071782,0.00065968,-0.01164404,-0.00125132,-0.00859813,
 0.12892305,0.01286586,0.14470470,0.00005762,0.00003209,0.00003451,0.00
 020225,-0.00085076,0.00018096,-0.00256629,0.00150317,-0.00034653,-0.01
 042947,-0.01598619,-0.00107466,-0.18300252,-0.14286112,0.01743949,0.00
 664242,0.00408836,-0.00008431,-0.00012983,-0.00251560,-0.00296650,0.00
 002471,0.00060610,-0.00008680,0.00347208,0.00158530,0.00513197,-0.0000
 0324,0.00003105,-0.00000053,0.00000805,-0.00008325,-0.00002260,0.00001
 647,0.00004812,0.00002321,-0.00005433,-0.00008786,0.00013928,0.0002207
 7,-0.00006764,0.00015717,0.00022170,-0.00074961,0.00049487,0.00150965,
 0.00064263,-0.00045184,-0.00280371,-0.00012609,0.00167702,0.18644140,0
 .00003486,0.00004358,0.00003159,0.00019143,0.00098714,-0.00073750,0.00
 070515,-0.00023303,-0.00001840,0.00541819,0.00572291,-0.00148915,-0.13
 852963,-0.19525325,0.00194648,-0.02239383,-0.02015317,0.00318116,0.001
 26195,0.00227541,0.00233223,0.00026234,-0.00069097,-0.00038171,-0.0018
 1965,-0.00109649,-0.00683354,-0.00004917,0.00000195,0.00005546,0.00003
 427,0.00007901,-0.00001072,0.00000823,-0.00001918,-0.00002018,0.000003
 44,0.00001619,0.00002932,-0.00006812,0.00004709,0.00013398,-0.00008982
 ,0.00015615,-0.00010296,-0.00050214,0.00064362,0.00044180,0.00133466,0
 .00007648,-0.00003883,0.15365786,0.20942266,0.00010241,0.00005456,0.00
 034978,0.00070049,-0.00255126,-0.00014756,0.00102570,0.00039432,-0.001
 03080,0.00948442,0.00857473,0.00331352,0.01342097,0.00401389,-0.040046
 08,-0.00917286,-0.00967681,0.00356389,-0.00185182,-0.00360522,-0.00550
 210,0.00007431,0.00137698,0.00000850,0.00587443,-0.00212704,0.01047456
 ,-0.00015830,-0.00001982,0.00003363,0.00003542,0.00001515,-0.00000803,
 -0.00006364,0.00000117,-0.00005046,-0.00025135,0.00002947,0.00053773,-
 0.00020895,-0.00001936,-0.00027160,-0.00004264,0.00039529,-0.00066486,
 -0.00047353,0.00017847,0.00057702,0.00081791,0.00057756,-0.00113440,-0
 .01969730,0.00043647,0.03102732,0.00017114,0.00013761,0.00034928,-0.00
 152421,0.00368611,-0.00317678,-0.00104398,0.00053912,0.00104319,-0.000
 20423,-0.00051994,0.00006412,0.00100528,-0.00046824,-0.00030172,-0.004
 08780,0.00195579,0.00399030,-0.04243229,0.01440635,0.01722764,0.002805
 43,-0.01061966,-0.02352471,-0.00884220,0.01032748,0.02205407,-0.000127
 59,-0.00006572,0.00000837,-0.00004707,-0.00008531,-0.00003224,-0.00000
 570,0.00003056,0.00002158,0.00027442,-0.00020922,-0.00002345,0.0001066
 3,0.00008457,0.00017233,-0.00014276,0.00029144,0.00050460,-0.00001134,
 0.00008271,0.00001359,-0.00022955,-0.00011199,-0.00007782,0.00034986,-
 0.00021259,0.00071922,0.05440836,0.00006449,0.00022291,0.00038562,-0.0
 0206657,0.00103370,-0.00063863,-0.00054878,-0.00037937,0.00076192,0.00
 140636,-0.00153658,0.00138468,0.00352602,0.00167329,-0.00036485,0.0009
 2692,-0.01617451,-0.02713453,0.01298703,-0.08834363,-0.10660558,-0.000
 00841,0.00346132,0.00614381,-0.00061495,0.00416356,0.01305898,-0.00013
 911,-0.00008781,0.00000964,-0.00001219,-0.00004102,-0.00002335,-0.0000
 5905,-0.00001283,-0.00001106,0.00023177,0.00001836,-0.00015407,-0.0000
 2642,0.00005013,-0.00000054,-0.00003944,0.00020151,0.00013439,0.000348
 21,-0.00013138,-0.00016803,0.00037057,-0.00013957,-0.00036442,-0.00051
 826,0.00021709,-0.00086458,-0.01790766,0.09504349,-0.00004720,-0.00017
 436,-0.00016783,0.00065900,-0.00080004,0.00131509,0.00041196,-0.000204
 68,-0.00030883,-0.00019697,0.00053886,-0.00048242,-0.00105542,0.001415
 89,0.00047432,0.00285900,-0.00014592,0.00631222,0.01670739,-0.10495409
 ,-0.26793035,0.00229718,-0.00766914,-0.01590934,0.00081112,-0.00423243
 ,-0.00960962,0.00005558,0.00004679,0.00001058,0.00003893,0.00009740,0.
 00000069,0.00004625,-0.00000353,-0.00000623,-0.00018538,-0.00002055,0.
 00011526,-0.00001243,0.00003357,0.00001657,0.00007360,-0.00005185,-0.0
 0017617,-0.00003682,-0.00000068,0.00001257,0.00000952,0.00000671,0.000
 05940,0.00008715,0.00003514,0.00017702,-0.01848379,0.11411421,0.284801
 38,0.00002333,-0.00018382,0.00010981,-0.00058358,0.00039140,-0.0001885
 1,-0.00026244,0.00007628,0.00002799,0.00003559,0.00007263,0.00001552,-
 0.00002856,0.00023989,0.00051354,0.00203394,-0.00113696,-0.00028491,0.
 00338816,-0.01043385,-0.02511396,-0.05388327,0.01924635,0.04183989,0.0
 0089357,-0.00083578,0.00006372,0.00000872,0.00000084,-0.00000399,0.000
 00386,0.00003454,0.00000240,0.00010340,0.00004022,-0.00000153,-0.00055
 682,-0.00036129,0.00041669,0.00001517,0.00014486,0.00011521,0.00003190
 ,-0.00003517,0.00004743,-0.00001810,-0.00003706,0.00002036,-0.00000596
 ,-0.00002264,0.00001241,-0.00004085,-0.00004722,-0.00001338,-0.0038350
 7,0.00118053,-0.00316697,0.05851038,0.00007723,-0.00021919,0.00017909,
 -0.00003273,0.00033431,-0.00068958,0.00023503,0.00022522,0.00020115,0.
 00000731,-0.00004625,-0.00012270,-0.00033896,-0.00016129,-0.00042674,-
 0.00012924,0.00151071,0.00122924,-0.00175466,0.00124017,0.00619090,0.0
 1830785,-0.09012496,-0.09660501,-0.00004894,-0.00008676,-0.00042255,-0
 .00002061,0.00001013,-0.00000174,-0.00001412,0.00000818,-0.00001508,0.
 00012112,0.00004889,0.00001655,-0.00003201,-0.00033373,0.00043415,-0.0
 0004494,-0.00002791,-0.00008136,0.00000299,-0.00006102,-0.00001183,-0.
 00002457,-0.00002199,0.00004895,-0.00005283,0.00000714,0.00001101,0.00
 001414,-0.00009699,0.00011185,0.00119300,0.00073311,0.00085873,-0.0210
 2328,0.09340239,0.00014865,-0.00016087,0.00024248,0.00001474,0.0004353
 2,-0.00013882,-0.00021569,0.00026598,0.00007130,-0.00003868,0.00005853
 ,0.00003593,-0.00013491,0.00049035,0.00062170,0.00187667,-0.00124855,0
 .00055845,0.00237510,-0.00772401,-0.02008234,0.03969126,-0.09517754,-0
 .25912969,0.00033466,-0.00063000,0.00014921,-0.00002212,-0.00000633,0.
 00001623,0.00000620,0.00003149,-0.00001768,0.00013020,0.00005415,-0.00
 001434,-0.00003838,-0.00027820,0.00039018,-0.00003425,0.00010632,0.000
 11887,0.00005476,-0.00000154,0.00009996,-0.00004112,-0.00001311,0.0000
 3478,-0.00000934,-0.00002158,-0.00001225,0.00000735,0.00011843,-0.0000
 3857,-0.00340188,0.00126449,-0.00121340,-0.04182611,0.10547528,0.28410
 765,0.00001432,0.00007843,0.00004259,0.00047381,0.00000519,-0.00077566
 ,-0.00001921,-0.00018509,0.00001514,0.00000065,0.00006959,-0.00004541,
 -0.00004453,0.00017177,-0.00002729,0.00082081,0.00044658,0.00082266,-0
 .02414493,-0.00839120,0.00886219,-0.23103216,-0.08615105,0.08184577,-0
 .00046482,-0.00094182,-0.00452703,-0.00004245,-0.00002971,0.00005838,0
 .00001342,0.00001418,-0.00002015,0.00002447,-0.00001540,-0.00000117,0.
 00030335,-0.00005958,0.00016978,0.00001532,0.00001808,0.00002690,-0.00
 002717,0.00007021,0.00003419,-0.00000844,0.00005984,0.00002159,0.00004
 668,-0.00002151,0.00001136,0.00001277,0.00026924,0.00008550,0.00072905
 ,-0.00009190,-0.00027167,-0.00425868,-0.00187626,0.00180093,0.25474665
 ,0.00003744,-0.00006182,0.00004366,-0.00007400,0.00000282,0.00018741,-
 0.00006732,0.00011433,-0.00002712,0.00008958,-0.00005627,0.00007428,-0
 .00004391,-0.00004715,0.00002745,-0.00078224,0.00121828,-0.00077931,0.
 00692135,0.00226158,-0.00338343,-0.08655733,-0.08609285,0.03742445,0.0
 0186531,0.00064808,0.00099762,-0.00000617,0.00000928,-0.00000706,0.000
 01626,0.00001095,0.00001246,0.00000443,0.00003297,-0.00001314,-0.00013
 950,-0.00015532,-0.00006718,-0.00000708,0.00003506,0.00003175,0.000014
 82,-0.00003136,0.00003759,-0.00001731,-0.00000586,0.00001729,-0.000033
 48,-0.00000880,-0.00000189,0.00004565,-0.00007881,-0.00003541,-0.00043
 042,-0.00003693,-0.00011246,0.01230458,0.00498386,-0.00489795,0.093982
 09,0.08979300,0.00009269,-0.00008339,0.00022177,-0.00004254,0.00030761
 ,-0.00066216,-0.00004450,-0.00003370,0.00004578,-0.00001962,0.00002779
 ,-0.00013758,0.00008705,0.00030702,-0.00000215,0.00112606,-0.00006226,
 0.00082134,-0.02064231,-0.00846251,0.00846790,0.08162576,0.03720660,-0
 .08094453,-0.00202972,-0.00038300,-0.00299696,-0.00003543,-0.00002444,
 0.00003578,0.00000796,0.00002888,-0.00002272,0.00013028,0.00003834,-0.
 00001194,0.00001234,-0.00033309,0.00051033,-0.00001151,0.00009392,0.00
 008914,0.00004783,0.00002302,0.00005060,0.00000180,-0.00000237,0.00001
 663,0.00002116,-0.00005085,0.00001361,-0.00000532,0.00004083,0.0001067
 2,0.00084489,-0.00028859,0.00056604,0.02442315,0.01240905,-0.01043240,
 -0.08667840,-0.04183454,0.08600299,0.00003373,0.00000167,0.00016342,-0
 .00020900,-0.00016133,-0.00021176,-0.00015265,0.00034992,-0.00001785,0
 .00032419,-0.00024201,0.00060993,-0.00056831,-0.00073701,-0.00063402,-
 0.00176618,0.00199844,-0.00387206,-0.00556021,0.02709794,-0.00325192,-
 0.04942189,0.03021730,-0.00254647,0.00100614,-0.00050644,0.00186509,-0
 .00004748,-0.00000874,-0.00000055,-0.00005145,-0.00005627,-0.00002699,
 0.00004274,-0.00000188,-0.00000111,-0.00008751,0.00003740,0.00027820,0
 .00001159,-0.00002589,-0.00000234,-0.00003230,-0.00011858,0.00009289,-
 0.00009121,-0.00001213,0.00015964,-0.00000575,0.00007510,-0.00000845,-
 0.00020044,0.00022771,-0.00038330,0.00090383,-0.00078420,0.00042725,-0
 .00167907,0.00554839,-0.00071986,0.00392222,-0.02759646,0.00197841,0.0
 5353653,-0.00001470,-0.00005636,-0.00012223,0.00027166,-0.00002895,0.0
 0034871,0.00001510,-0.00005182,-0.00008244,-0.00012455,0.00014001,-0.0
 0007343,0.00001131,0.00052442,0.00054100,-0.00015748,0.00094717,0.0011
 0619,0.00170011,-0.00494237,0.00036650,0.03027916,-0.29952715,0.025338
 37,0.00062965,0.00028144,-0.00033715,0.00005263,0.00001555,-0.00001706
 ,0.00002512,0.00003933,0.00002724,-0.00003113,0.00000195,0.00000118,-0
 .00002772,-0.00002153,-0.00018603,-0.00000939,0.00001967,0.00003926,0.
 00004453,0.00003852,-0.00006442,0.00003117,-0.00000359,-0.00007271,0.0
 0002463,-0.00002250,-0.00001536,0.00004455,-0.00003034,0.00010174,0.00
 024232,0.00045773,0.00047566,0.00054187,-0.01141843,0.00189291,0.00151
 289,-0.01219628,0.00045391,-0.03533422,0.32589999,0.00001929,0.0000306
 8,0.00010712,-0.00014299,-0.00023562,-0.00005725,-0.00028297,0.0001456
 9,-0.00013351,0.00032940,0.00006496,0.00044759,-0.00047201,-0.00026545
 ,0.00047142,-0.00104289,-0.00040016,-0.00258639,-0.00335872,0.02215442
 ,-0.00304461,-0.00274885,0.02528730,-0.05070669,-0.00032544,-0.0004459
 3,0.00155586,-0.00004141,-0.00001730,0.00001312,-0.00000072,-0.0000165
 8,0.00000211,0.00000104,0.00000367,-0.00000224,-0.00009466,-0.00002353
 ,0.00001170,0.00002521,0.00006281,0.00008170,-0.00000848,-0.00006214,0
 .00009477,-0.00009061,0.00000982,0.00011151,0.00001295,0.00000715,-0.0
 0001360,-0.00009966,0.00020496,-0.00033934,0.00083743,-0.00028888,0.00
 047449,0.00274842,-0.02881161,0.00449083,-0.00155514,0.01232286,-0.001
 85792,0.00625088,-0.02967136,0.05098072,0.00095544,0.00006021,0.002238
 89,0.00465125,0.00380070,0.00877266,-0.00037660,-0.00082186,0.00118302
 ,0.00004566,0.00046753,-0.00063572,-0.00071735,0.00103317,0.00040978,-
 0.00519688,-0.00173252,0.00107730,-0.01931818,-0.01111704,-0.01413085,
 -0.00174447,-0.00299319,0.00286353,-0.13958906,-0.07250706,-0.11611381
 ,-0.00014980,0.00005477,0.00018681,0.00036299,0.00022282,-0.00009807,0
 .00010792,0.00035801,-0.00009477,-0.00016653,0.00000781,0.00080245,-0.
 00002311,0.00019880,0.00010310,0.00006908,0.00052090,-0.00005369,0.000
 09389,0.00003307,-0.00013561,0.00008510,-0.00003044,-0.00012193,0.0000
 5094,0.00030285,-0.00002370,0.00177979,0.00177502,-0.00102725,0.000104
 39,-0.00011391,0.00004181,-0.00108116,0.00047374,-0.00089004,0.0000925
 0,0.00027250,0.00003992,0.15996417,-0.00061713,0.00122462,0.00046497,0
 .00110239,0.00091025,0.00221323,0.00051026,-0.00046164,-0.00031181,-0.
 00132398,0.00077948,-0.00201807,-0.00285604,0.00159098,0.00218125,-0.0
 1961014,-0.01355549,-0.02302927,0.01144616,0.00446992,0.01263294,0.002
 74927,0.00122089,-0.00177872,-0.07253748,-0.07594261,-0.07745676,0.000
 24284,-0.00013067,0.00015955,0.00017819,-0.00012072,0.00015843,0.00039
 965,-0.00010120,-0.00012670,-0.00000624,-0.00035737,0.00114526,-0.0000
 0236,-0.00016823,0.00001201,0.00004133,0.00006425,-0.00008885,0.000206
 25,-0.00002556,0.00001415,0.00020203,-0.00027689,0.00005266,0.00154737
 ,-0.00203707,0.00263784,-0.00234631,-0.00039258,0.00074678,-0.00015690
 ,0.00009441,-0.00003356,0.00106545,-0.00033877,0.00062176,0.00003129,-
 0.00006647,-0.00005575,0.07973411,0.08362045,-0.00202879,-0.00136437,0
 .00104072,-0.01398249,-0.00948157,-0.01906133,-0.00021567,0.00252354,-
 0.00204286,0.00016289,-0.00050076,0.00120036,0.00082162,-0.00018418,0.
 00026769,0.00612144,0.00198595,0.00674778,0.00515500,0.00130961,-0.000
 01828,-0.00004614,0.00095481,-0.00015244,-0.11479352,-0.07644760,-0.17
 280980,-0.00007373,0.00013800,0.00066306,0.00028224,0.00093694,-0.0001
 1603,0.00096670,-0.00018639,0.00017030,0.00102455,-0.00047999,-0.00333
 031,0.00017669,-0.00044730,-0.00004780,-0.00001980,-0.00070775,-0.0000
 8767,-0.00002978,-0.00008465,0.00014791,0.00003899,-0.00007184,-0.0000
 6094,-0.00053692,0.00064514,-0.00093590,0.00117177,-0.00035065,0.00146
 852,0.00024285,0.00002226,0.00014192,0.00010495,-0.00001734,0.00011973
 ,-0.00014903,-0.00005049,-0.00010141,0.11560618,0.08185864,0.18679676\
 \0.00000005,0.00000191,-0.00000004,0.00000364,-0.00000190,0.00000585,-
 0.00000079,0.00000371,-0.00000925,-0.00000427,-0.00001212,0.,0.0000041
 4,-0.00000420,-0.00000325,-0.00000115,0.00000302,0.00001828,0.00001152
 ,-0.00000382,-0.00003125,-0.00000716,0.00000550,0.00000921,-0.00001141
 ,0.00000237,0.00000602,0.00000079,0.00000045,0.00000146,0.00000206,0.0
 0000056,0.00000168,0.00000007,-0.00000070,0.00000087,-0.00000131,0.000
 00071,0.00000206,0.00000160,0.00000032,-0.00000028,0.00000004,-0.00000
 145,0.00000161,0.00000136,0.00000002,-0.00000039,-0.00000149,0.0000037
 8,-0.00000127,-0.00000158,-0.00000028,-0.00000496,0.00000305,0.0000001
 9,0.00000378,-0.00000018,0.00000115,-0.00000162,0.00000087,-0.00000043
 ,-0.00000045,0.00000067,0.00000013,0.00000008,-0.00000050,0.00000105,0
 .00000185\\\@


 THE MORE PROGRESS PHYSICAL SCIENCES MAKE, THE MORE THEY TEND TO ENTER
 THE DOMAIN OF MATHEMATICS, WHICH IS A KIND OF CENTRE TO WHICH THEY ALL
 CONVERGE.  WE MAY EVEN JUDGE THE DEGREE OF PERFECTION TO WHICH A 
 SCIENCE HAS ARRIVED BY THE FACILITY WITH WHICH IT MAY BE SUBMITTED
 TO CALCULATION.

                               -- ADOLPHE QUETELET, 1796-1874
 Job cpu time:       0 days  2 hours 59 minutes 30.8 seconds.
 Elapsed time:       0 days  0 hours 44 minutes 53.2 seconds.
 File lengths (MBytes):  RWF=    175 Int=      0 D2E=      0 Chk=     10 Scr=      1
 Normal termination of Gaussian 16 at Thu Aug  4 04:33:03 2022.
### All Done ###
