### Starting Gaussian ###
 Entering Gaussian System, Link 0=g16
 Initial command:
 /cluster/software/gaussian/gaussian-16-A.03/avx2/g16/l1.exe "/local/scratch/ks29c/Gau-12093.inp" -scrdir="/local/scratch/ks29c/"
 Entering Link 1 = /cluster/software/gaussian/gaussian-16-A.03/avx2/g16/l1.exe PID=     12094.
  
 Copyright (c) 1988,1990,1992,1993,1995,1998,2003,2009,2016,
            Gaussian, Inc.  All Rights Reserved.
  
 This is part of the Gaussian(R) 16 program.  It is based on
 the Gaussian(R) 09 system (copyright 2009, Gaussian, Inc.),
 the Gaussian(R) 03 system (copyright 2003, Gaussian, Inc.),
 the Gaussian(R) 98 system (copyright 1998, Gaussian, Inc.),
 the Gaussian(R) 94 system (copyright 1995, Gaussian, Inc.),
 the Gaussian 92(TM) system (copyright 1992, Gaussian, Inc.),
 the Gaussian 90(TM) system (copyright 1990, Gaussian, Inc.),
 the Gaussian 88(TM) system (copyright 1988, Gaussian, Inc.),
 the Gaussian 86(TM) system (copyright 1986, Carnegie Mellon
 University), and the Gaussian 82(TM) system (copyright 1983,
 Carnegie Mellon University). Gaussian is a federally registered
 trademark of Gaussian, Inc.
  
 This software contains proprietary and confidential information,
 including trade secrets, belonging to Gaussian, Inc.
  
 This software is provided under written license and may be
 used, copied, transmitted, or stored only in accord with that
 written license.
  
 The following legend is applicable only to US Government
 contracts under FAR:
  
                    RESTRICTED RIGHTS LEGEND
  
 Use, reproduction and disclosure by the US Government is
 subject to restrictions as set forth in subparagraphs (a)
 and (c) of the Commercial Computer Software - Restricted
 Rights clause in FAR 52.227-19.
  
 Gaussian, Inc.
 340 Quinnipiac St., Bldg. 40, Wallingford CT 06492
  
  
 ---------------------------------------------------------------
 Warning -- This program may not be used in any manner that
 competes with the business of Gaussian, Inc. or will provide
 assistance to any competitor of Gaussian, Inc.  The licensee
 of this program is prohibited from giving any competitor of
 Gaussian, Inc. access to this program.  By using this program,
 the user acknowledges that Gaussian, Inc. is engaged in the
 business of creating and licensing software in the field of
 computational chemistry and represents and warrants to the
 licensee that it is not a competitor of Gaussian, Inc. and that
 it will not use this program in any manner prohibited above.
 ---------------------------------------------------------------
  

 Cite this work as:
 Gaussian 16, Revision A.03,
 M. J. Frisch, G. W. Trucks, H. B. Schlegel, G. E. Scuseria, 
 M. A. Robb, J. R. Cheeseman, G. Scalmani, V. Barone, 
 G. A. Petersson, H. Nakatsuji, X. Li, M. Caricato, A. V. Marenich, 
 J. Bloino, B. G. Janesko, R. Gomperts, B. Mennucci, H. P. Hratchian, 
 J. V. Ortiz, A. F. Izmaylov, J. L. Sonnenberg, D. Williams-Young, 
 F. Ding, F. Lipparini, F. Egidi, J. Goings, B. Peng, A. Petrone, 
 T. Henderson, D. Ranasinghe, V. G. Zakrzewski, J. Gao, N. Rega, 
 G. Zheng, W. Liang, M. Hada, M. Ehara, K. Toyota, R. Fukuda, 
 J. Hasegawa, M. Ishida, T. Nakajima, Y. Honda, O. Kitao, H. Nakai, 
 T. Vreven, K. Throssell, J. A. Montgomery, Jr., J. E. Peralta, 
 F. Ogliaro, M. J. Bearpark, J. J. Heyd, E. N. Brothers, K. N. Kudin, 
 V. N. Staroverov, T. A. Keith, R. Kobayashi, J. Normand, 
 K. Raghavachari, A. P. Rendell, J. C. Burant, S. S. Iyengar, 
 J. Tomasi, M. Cossi, J. M. Millam, M. Klene, C. Adamo, R. Cammi, 
 J. W. Ochterski, R. L. Martin, K. Morokuma, O. Farkas, 
 J. B. Foresman, and D. J. Fox, Gaussian, Inc., Wallingford CT, 2016.
 
 ******************************************
 Gaussian 16:  ES64L-G16RevA.03 25-Dec-2016
                 3-Jul-2022 
 ******************************************
 %chk=CC1CCNCC1C.chk
 %NProcShared=20
 Will use up to   20 processors via shared memory.
 -----------------------------
 # opt freq b3lyp/6-31g(2df,p)
 -----------------------------
 1/18=20,19=15,26=3,38=1/1,3;
 2/9=110,12=2,17=6,18=5,40=1/2;
 3/5=1,6=6,7=104,11=2,25=1,30=1,71=1,74=-5/1,2,3;
 4//1;
 5/5=2,38=5/2;
 6/7=2,8=2,9=2,10=2,28=1/1;
 7//1,2,3,16;
 1/18=20,19=15,26=3/3(2);
 2/9=110/2;
 99//99;
 2/9=110/2;
 3/5=1,6=6,7=104,11=2,25=1,30=1,71=1,74=-5/1,2,3;
 4/5=5,16=3,69=1/1;
 5/5=2,38=5/2;
 7//1,2,3,16;
 1/18=20,19=15,26=3/3(-5);
 2/9=110/2;
 6/7=2,8=2,9=2,10=2,19=2,28=1/1;
 99/9=1/99;
 -------------------
 Title Card Required
 -------------------
 Symbolic Z-matrix:
 Charge =  0 Multiplicity = 1
 C                     1.00238   0.12812   0.06561 
 C                     2.5366    0.08595  -0.03119 
 C                     3.01025  -1.32309  -0.41822 
 C                     2.62939  -1.66274  -1.86086 
 N                     3.10195  -0.66029  -2.82033 
 C                     2.65395   0.69504  -2.48387 
 C                     3.07218   1.10772  -1.0621 
 C                     4.60194   1.24967  -0.97617 
 H                     0.64231  -0.60203   0.7979 
 H                     0.51101  -0.1049   -0.88388 
 H                     0.65753   1.11969   0.37375 
 H                     2.93161   0.33321   0.96251 
 H                     2.59044  -2.06799   0.26753 
 H                     4.09945  -1.39302  -0.30194 
 H                     1.54361  -1.7788   -1.94918 
 H                     3.06612  -2.63222  -2.12354 
 H                     2.77085  -0.90163  -3.74991 
 H                     1.56675   0.76856  -2.60265 
 H                     3.08129   1.39819  -3.20866 
 H                     2.64236   2.0932   -0.8397 
 H                     5.125     0.32487  -1.24079 
 H                     4.91317   1.53002   0.03485 
 H                     4.95453   2.02364  -1.66608 
 

 GradGradGradGradGradGradGradGradGradGradGradGradGradGradGradGradGradGrad
 Berny optimization.
 Initialization pass.
                           ----------------------------
                           !    Initial Parameters    !
                           ! (Angstroms and Degrees)  !
 --------------------------                            --------------------------
 ! Name  Definition              Value          Derivative Info.                !
 --------------------------------------------------------------------------------
 ! R1    R(1,2)                  1.5378         estimate D2E/DX2                !
 ! R2    R(1,9)                  1.095          estimate D2E/DX2                !
 ! R3    R(1,10)                 1.0942         estimate D2E/DX2                !
 ! R4    R(1,11)                 1.0941         estimate D2E/DX2                !
 ! R5    R(2,3)                  1.5361         estimate D2E/DX2                !
 ! R6    R(2,7)                  1.5471         estimate D2E/DX2                !
 ! R7    R(2,12)                 1.0975         estimate D2E/DX2                !
 ! R8    R(3,4)                  1.5302         estimate D2E/DX2                !
 ! R9    R(3,13)                 1.0961         estimate D2E/DX2                !
 ! R10   R(3,14)                 1.0976         estimate D2E/DX2                !
 ! R11   R(4,5)                  1.4659         estimate D2E/DX2                !
 ! R12   R(4,15)                 1.0955         estimate D2E/DX2                !
 ! R13   R(4,16)                 1.0953         estimate D2E/DX2                !
 ! R14   R(5,6)                  1.4666         estimate D2E/DX2                !
 ! R15   R(5,17)                 1.0159         estimate D2E/DX2                !
 ! R16   R(6,7)                  1.5384         estimate D2E/DX2                !
 ! R17   R(6,18)                 1.0961         estimate D2E/DX2                !
 ! R18   R(6,19)                 1.0965         estimate D2E/DX2                !
 ! R19   R(7,8)                  1.5387         estimate D2E/DX2                !
 ! R20   R(7,20)                 1.0979         estimate D2E/DX2                !
 ! R21   R(8,21)                 1.0949         estimate D2E/DX2                !
 ! R22   R(8,22)                 1.0944         estimate D2E/DX2                !
 ! R23   R(8,23)                 1.0951         estimate D2E/DX2                !
 ! A1    A(2,1,9)              110.6015         estimate D2E/DX2                !
 ! A2    A(2,1,10)             112.802          estimate D2E/DX2                !
 ! A3    A(2,1,11)             110.9174         estimate D2E/DX2                !
 ! A4    A(9,1,10)             106.8966         estimate D2E/DX2                !
 ! A5    A(9,1,11)             108.1992         estimate D2E/DX2                !
 ! A6    A(10,1,11)            107.2084         estimate D2E/DX2                !
 ! A7    A(1,2,3)              110.4039         estimate D2E/DX2                !
 ! A8    A(1,2,7)              111.6657         estimate D2E/DX2                !
 ! A9    A(1,2,12)             107.2107         estimate D2E/DX2                !
 ! A10   A(3,2,7)              109.3401         estimate D2E/DX2                !
 ! A11   A(3,2,12)             108.8927         estimate D2E/DX2                !
 ! A12   A(7,2,12)             109.2636         estimate D2E/DX2                !
 ! A13   A(2,3,4)              111.3703         estimate D2E/DX2                !
 ! A14   A(2,3,13)             110.3446         estimate D2E/DX2                !
 ! A15   A(2,3,14)             109.7389         estimate D2E/DX2                !
 ! A16   A(4,3,13)             110.0998         estimate D2E/DX2                !
 ! A17   A(4,3,14)             109.4335         estimate D2E/DX2                !
 ! A18   A(13,3,14)            105.6939         estimate D2E/DX2                !
 ! A19   A(3,4,5)              112.6465         estimate D2E/DX2                !
 ! A20   A(3,4,15)             110.2546         estimate D2E/DX2                !
 ! A21   A(3,4,16)             108.8642         estimate D2E/DX2                !
 ! A22   A(5,4,15)             109.8271         estimate D2E/DX2                !
 ! A23   A(5,4,16)             108.6504         estimate D2E/DX2                !
 ! A24   A(15,4,16)            106.3846         estimate D2E/DX2                !
 ! A25   A(4,5,6)              112.541          estimate D2E/DX2                !
 ! A26   A(4,5,17)             109.354          estimate D2E/DX2                !
 ! A27   A(6,5,17)             109.2639         estimate D2E/DX2                !
 ! A28   A(5,6,7)              112.141          estimate D2E/DX2                !
 ! A29   A(5,6,18)             109.8834         estimate D2E/DX2                !
 ! A30   A(5,6,19)             108.7791         estimate D2E/DX2                !
 ! A31   A(7,6,18)             110.5975         estimate D2E/DX2                !
 ! A32   A(7,6,19)             109.4456         estimate D2E/DX2                !
 ! A33   A(18,6,19)            105.7779         estimate D2E/DX2                !
 ! A34   A(2,7,6)              110.1541         estimate D2E/DX2                !
 ! A35   A(2,7,8)              111.5843         estimate D2E/DX2                !
 ! A36   A(2,7,20)             108.802          estimate D2E/DX2                !
 ! A37   A(6,7,8)              110.2816         estimate D2E/DX2                !
 ! A38   A(6,7,20)             108.7577         estimate D2E/DX2                !
 ! A39   A(8,7,20)             107.1631         estimate D2E/DX2                !
 ! A40   A(7,8,21)             112.5514         estimate D2E/DX2                !
 ! A41   A(7,8,22)             110.975          estimate D2E/DX2                !
 ! A42   A(7,8,23)             110.4933         estimate D2E/DX2                !
 ! A43   A(21,8,22)            107.6852         estimate D2E/DX2                !
 ! A44   A(21,8,23)            106.9099         estimate D2E/DX2                !
 ! A45   A(22,8,23)            108.0224         estimate D2E/DX2                !
 ! D1    D(9,1,2,3)             58.0364         estimate D2E/DX2                !
 ! D2    D(9,1,2,7)            179.905          estimate D2E/DX2                !
 ! D3    D(9,1,2,12)           -60.446          estimate D2E/DX2                !
 ! D4    D(10,1,2,3)           -61.6239         estimate D2E/DX2                !
 ! D5    D(10,1,2,7)            60.2447         estimate D2E/DX2                !
 ! D6    D(10,1,2,12)          179.8938         estimate D2E/DX2                !
 ! D7    D(11,1,2,3)           178.0943         estimate D2E/DX2                !
 ! D8    D(11,1,2,7)           -60.0371         estimate D2E/DX2                !
 ! D9    D(11,1,2,12)           59.6119         estimate D2E/DX2                !
 ! D10   D(1,2,3,4)             69.202          estimate D2E/DX2                !
 ! D11   D(1,2,3,13)           -53.3913         estimate D2E/DX2                !
 ! D12   D(1,2,3,14)          -169.4667         estimate D2E/DX2                !
 ! D13   D(7,2,3,4)            -54.0292         estimate D2E/DX2                !
 ! D14   D(7,2,3,13)          -176.6225         estimate D2E/DX2                !
 ! D15   D(7,2,3,14)            67.3022         estimate D2E/DX2                !
 ! D16   D(12,2,3,4)          -173.3482         estimate D2E/DX2                !
 ! D17   D(12,2,3,13)           64.0585         estimate D2E/DX2                !
 ! D18   D(12,2,3,14)          -52.0168         estimate D2E/DX2                !
 ! D19   D(1,2,7,6)            -67.5695         estimate D2E/DX2                !
 ! D20   D(1,2,7,8)            169.5912         estimate D2E/DX2                !
 ! D21   D(1,2,7,20)            51.5616         estimate D2E/DX2                !
 ! D22   D(3,2,7,6)             54.9104         estimate D2E/DX2                !
 ! D23   D(3,2,7,8)            -67.929          estimate D2E/DX2                !
 ! D24   D(3,2,7,20)           174.0414         estimate D2E/DX2                !
 ! D25   D(12,2,7,6)           173.9999         estimate D2E/DX2                !
 ! D26   D(12,2,7,8)            51.1605         estimate D2E/DX2                !
 ! D27   D(12,2,7,20)          -66.8691         estimate D2E/DX2                !
 ! D28   D(2,3,4,5)             54.1549         estimate D2E/DX2                !
 ! D29   D(2,3,4,15)           -68.9175         estimate D2E/DX2                !
 ! D30   D(2,3,4,16)           174.7342         estimate D2E/DX2                !
 ! D31   D(13,3,4,5)           176.8889         estimate D2E/DX2                !
 ! D32   D(13,3,4,15)           53.8164         estimate D2E/DX2                !
 ! D33   D(13,3,4,16)          -62.5319         estimate D2E/DX2                !
 ! D34   D(14,3,4,5)           -67.3543         estimate D2E/DX2                !
 ! D35   D(14,3,4,15)          169.5733         estimate D2E/DX2                !
 ! D36   D(14,3,4,16)           53.225          estimate D2E/DX2                !
 ! D37   D(3,4,5,6)            -54.6652         estimate D2E/DX2                !
 ! D38   D(3,4,5,17)          -176.2925         estimate D2E/DX2                !
 ! D39   D(15,4,5,6)            68.6456         estimate D2E/DX2                !
 ! D40   D(15,4,5,17)          -52.9818         estimate D2E/DX2                !
 ! D41   D(16,4,5,6)          -175.367          estimate D2E/DX2                !
 ! D42   D(16,4,5,17)           63.0056         estimate D2E/DX2                !
 ! D43   D(4,5,6,7)             56.0066         estimate D2E/DX2                !
 ! D44   D(4,5,6,18)           -67.4321         estimate D2E/DX2                !
 ! D45   D(4,5,6,19)           177.2032         estimate D2E/DX2                !
 ! D46   D(17,5,6,7)           177.6852         estimate D2E/DX2                !
 ! D47   D(17,5,6,18)           54.2465         estimate D2E/DX2                !
 ! D48   D(17,5,6,19)          -61.1182         estimate D2E/DX2                !
 ! D49   D(5,6,7,2)            -56.3706         estimate D2E/DX2                !
 ! D50   D(5,6,7,8)             67.2298         estimate D2E/DX2                !
 ! D51   D(5,6,7,20)          -175.5286         estimate D2E/DX2                !
 ! D52   D(18,6,7,2)            66.6664         estimate D2E/DX2                !
 ! D53   D(18,6,7,8)          -169.7333         estimate D2E/DX2                !
 ! D54   D(18,6,7,20)          -52.4916         estimate D2E/DX2                !
 ! D55   D(19,6,7,2)          -177.1828         estimate D2E/DX2                !
 ! D56   D(19,6,7,8)           -53.5825         estimate D2E/DX2                !
 ! D57   D(19,6,7,20)           63.6591         estimate D2E/DX2                !
 ! D58   D(2,7,8,21)            64.2951         estimate D2E/DX2                !
 ! D59   D(2,7,8,22)           -56.4674         estimate D2E/DX2                !
 ! D60   D(2,7,8,23)          -176.2701         estimate D2E/DX2                !
 ! D61   D(6,7,8,21)           -58.4715         estimate D2E/DX2                !
 ! D62   D(6,7,8,22)          -179.2339         estimate D2E/DX2                !
 ! D63   D(6,7,8,23)            60.9634         estimate D2E/DX2                !
 ! D64   D(20,7,8,21)         -176.6963         estimate D2E/DX2                !
 ! D65   D(20,7,8,22)           62.5412         estimate D2E/DX2                !
 ! D66   D(20,7,8,23)          -57.2614         estimate D2E/DX2                !
 --------------------------------------------------------------------------------
 Trust Radius=3.00D-01 FncErr=1.00D-07 GrdErr=1.00D-06 EigMax=2.50D+02 EigMin=1.00D-04
 Number of steps in this run=    138 maximum allowed number of steps=    138.
 GradGradGradGradGradGradGradGradGradGradGradGradGradGradGradGradGradGrad

                          Input orientation:                          
 ---------------------------------------------------------------------
 Center     Atomic      Atomic             Coordinates (Angstroms)
 Number     Number       Type             X           Y           Z
 ---------------------------------------------------------------------
      1          6           0        1.002380    0.128120    0.065610
      2          6           0        2.536600    0.085950   -0.031190
      3          6           0        3.010250   -1.323090   -0.418220
      4          6           0        2.629390   -1.662740   -1.860860
      5          7           0        3.101950   -0.660290   -2.820330
      6          6           0        2.653950    0.695040   -2.483870
      7          6           0        3.072180    1.107720   -1.062100
      8          6           0        4.601940    1.249670   -0.976170
      9          1           0        0.642310   -0.602030    0.797900
     10          1           0        0.511010   -0.104900   -0.883880
     11          1           0        0.657530    1.119690    0.373750
     12          1           0        2.931610    0.333210    0.962510
     13          1           0        2.590440   -2.067990    0.267530
     14          1           0        4.099450   -1.393020   -0.301940
     15          1           0        1.543610   -1.778800   -1.949180
     16          1           0        3.066120   -2.632220   -2.123540
     17          1           0        2.770850   -0.901630   -3.749910
     18          1           0        1.566750    0.768560   -2.602650
     19          1           0        3.081290    1.398190   -3.208660
     20          1           0        2.642360    2.093200   -0.839700
     21          1           0        5.125000    0.324870   -1.240790
     22          1           0        4.913170    1.530020    0.034850
     23          1           0        4.954530    2.023640   -1.666080
 ---------------------------------------------------------------------
                    Distance matrix (angstroms):
                    1          2          3          4          5
     1  C    0.000000
     2  C    1.537849   0.000000
     3  C    2.524212   1.536076   0.000000
     4  C    3.092835   2.532631   1.530237   0.000000
     5  N    3.654919   2.942074   2.493561   1.465879   0.000000
     6  C    3.090134   2.529901   2.909761   2.438826   1.466570
     7  C    2.552532   1.547138   2.515403   2.917110   2.493616
     8  C    3.911523   2.552031   3.076342   3.627087   3.049400
     9  H    1.094997   2.179230   2.757901   3.484623   4.375478
    10  H    1.094200   2.206019   2.819047   2.805154   3.281961
    11  H    1.094113   2.182544   3.482769   4.077209   4.398371
    12  H    2.137386   1.097547   2.157760   3.470817   3.914835
    13  H    2.717647   2.175222   1.096070   2.166977   3.431930
    14  H    3.469986   2.168677   1.097619   2.159643   2.806098
    15  H    2.826420   2.853420   2.168535   1.095531   2.106749
    16  H    4.082999   3.470845   2.150595   1.095274   2.091724
    17  H    4.329673   3.854746   3.366764   2.041521   1.015870
    18  H    2.801480   2.831779   3.351183   2.755118   2.108515
    19  H    4.081150   3.480657   3.898329   3.374918   2.094891
    20  H    2.714896   2.166547   3.461795   3.892303   3.422839
    21  H    4.329132   2.867059   2.804382   3.250100   2.749221
    22  H    4.154582   2.781687   3.459279   4.359253   4.028651
    23  H    4.712880   3.503412   4.066692   4.362753   3.459455
                    6          7          8          9         10
     6  C    0.000000
     7  C    1.538392   0.000000
     8  C    2.524963   1.538733   0.000000
     9  H    4.061908   3.505298   4.717498   0.000000
    10  H    2.791427   2.839331   4.310346   1.758625   0.000000
    11  H    3.511697   2.809331   4.171037   1.773261   1.761455
    12  H    3.476428   2.172250   2.718158   2.478440   3.075776
    13  H    3.899817   3.476366   4.074284   2.495104   3.082774
    14  H    3.348176   2.808350   2.773246   3.713103   3.856787
    15  H    2.763808   3.384588   4.412682   3.121470   2.236754
    16  H    3.372000   3.887653   4.329465   4.304804   3.801669
    17  H    2.041048   3.369363   3.959118   5.030211   3.735744
    18  H    1.096138   2.180514   3.476965   3.781117   2.198110
    19  H    1.096522   2.166143   2.705263   5.099218   3.777595
    20  H    2.158305   1.097897   2.137784   3.734461   3.062066
    21  H    2.790764   2.204281   1.094929   5.010979   4.647687
    22  H    3.484999   2.184235   1.094359   4.834059   4.784981
    23  H    2.779681   2.178748   1.095137   5.617881   4.988726
                   11         12         13         14         15
    11  H    0.000000
    12  H    2.477222   0.000000
    13  H    3.729441   2.522926   0.000000
    14  H    4.314752   2.437735   1.748426   0.000000
    15  H    3.818689   3.855524   2.468458   3.065052   0.000000
    16  H    5.110244   4.282006   2.502367   2.433437   1.754071
    17  H    5.055337   4.874174   4.187215   3.727618   2.349079
    18  H    3.131921   3.842231   4.163159   4.047254   2.629943
    19  H    4.334263   4.307580   4.933481   4.156504   3.747535
    20  H    2.521851   2.535585   4.306293   3.816546   4.174995
    21  H    4.816302   3.108948   3.798000   2.210054   4.213502
    22  H    4.288787   2.493890   4.288927   3.052823   5.122363
    23  H    4.841719   3.722801   5.105801   3.776984   5.115962
                   16         17         18         19         20
    16  H    0.000000
    17  H    2.393158   0.000000
    18  H    3.747394   2.357031   0.000000
    19  H    4.173957   2.382960   1.748575   0.000000
    20  H    4.915019   4.177899   2.453487   2.507523   0.000000
    21  H    3.709800   3.652671   3.835709   3.033361   3.074307
    22  H    5.039294   4.982656   4.328366   3.727401   2.497716
    23  H    5.045037   4.203333   3.732217   2.505947   2.456394
                   21         22         23
    21  H    0.000000
    22  H    1.767630   0.000000
    23  H    1.759475   1.771591   0.000000
 Stoichiometry    C7H15N
 Framework group  C1[X(C7H15N)]
 Deg. of freedom    63
 Full point group                 C1      NOp   1
 Largest Abelian subgroup         C1      NOp   1
 Largest concise Abelian subgroup C1      NOp   1
                         Standard orientation:                         
 ---------------------------------------------------------------------
 Center     Atomic      Atomic             Coordinates (Angstroms)
 Number     Number       Type             X           Y           Z
 ---------------------------------------------------------------------
      1          6           0        1.779771   -1.071229   -0.755958
      2          6           0        0.671454   -0.950330    0.303285
      3          6           0        0.898942    0.292429    1.176973
      4          6           0        0.669970    1.581013    0.384035
      5          7           0       -0.644565    1.619225   -0.263528
      6          6           0       -0.885581    0.450374   -1.115894
      7          6           0       -0.731423   -0.871568   -0.344302
      8          6           0       -1.847998   -1.009804    0.705389
      9          1           0        2.764173   -1.123961   -0.279313
     10          1           0        1.804319   -0.220036   -1.443084
     11          1           0        1.644649   -1.972346   -1.361609
     12          1           0        0.728307   -1.845076    0.936379
     13          1           0        1.911523    0.283176    1.596452
     14          1           0        0.220147    0.268713    2.039204
     15          1           0        1.457730    1.709625   -0.366353
     16          1           0        0.749796    2.434935    1.065261
     17          1           0       -0.719623    2.463533   -0.823441
     18          1           0       -0.211272    0.473541   -1.979774
     19          1           0       -1.899775    0.516709   -1.527440
     20          1           0       -0.843512   -1.706465   -1.048405
     21          1           0       -1.853744   -0.183412    1.423660
     22          1           0       -1.741232   -1.940804    1.270597
     23          1           0       -2.830347   -1.018014    0.221396
 ---------------------------------------------------------------------
 Rotational constants (GHZ):           2.2725839           2.1409962           1.6322174
 Standard basis: 6-31G(2df,p) (6D, 7F)
 There are   323 symmetry adapted cartesian basis functions of A   symmetry.
 There are   299 symmetry adapted basis functions of A   symmetry.
   299 basis functions,   457 primitive gaussians,   323 cartesian basis functions
    32 alpha electrons       32 beta electrons
       nuclear repulsion energy       422.1393728197 Hartrees.
 NAtoms=   23 NActive=   23 NUniq=   23 SFac= 1.00D+00 NAtFMM=   60 NAOKFM=F Big=F
 Integral buffers will be    131072 words long.
 Raffenetti 2 integral format.
 Two-electron integral symmetry is turned on.
 One-electron integrals computed using PRISM.
 PrsmSu:  requested number of processors reduced to:  13 ShMem   1 Linda.
 NBasis=   299 RedAO= T EigKep=  3.91D-04  NBF=   299
 NBsUse=   299 1.00D-06 EigRej= -1.00D+00 NBFU=   299
 ExpMin= 1.61D-01 ExpMax= 4.17D+03 ExpMxC= 6.27D+02 IAcc=3 IRadAn=         5 AccDes= 0.00D+00
 Harris functional with IExCor=  402 and IRadAn=       5 diagonalized for initial guess.
 HarFok:  IExCor=  402 AccDes= 0.00D+00 IRadAn=         5 IDoV= 1 UseB2=F ITyADJ=14
 ICtDFT=  3500011 ScaDFX=  1.000000  1.000000  1.000000  1.000000
 FoFCou: FMM=F IPFlag=           0 FMFlag=      100000 FMFlg1=           0
         NFxFlg=           0 DoJE=T BraDBF=F KetDBF=T FulRan=T
         wScrn=  0.000000 ICntrl=       500 IOpCl=  0 I1Cent=   200000004 NGrid=           0
         NMat0=    1 NMatS0=      1 NMatT0=    0 NMatD0=    1 NMtDS0=    0 NMtDT0=    0
 Petite list used in FoFCou.
 Requested convergence on RMS density matrix=1.00D-08 within 128 cycles.
 Requested convergence on MAX density matrix=1.00D-06.
 Requested convergence on             energy=1.00D-06.
 No special actions if energy rises.
 Integral accuracy reduced to 1.0D-05 until final iterations.
 Initial convergence to 1.0D-05 achieved.  Increase integral accuracy.
 SCF Done:  E(RB3LYP) =  -330.552964328     A.U. after   12 cycles
            NFock= 12  Conv=0.50D-08     -V/T= 2.0087

 **********************************************************************

            Population analysis using the SCF density.

 **********************************************************************

 Orbital symmetries:
       Occupied  (A) (A) (A) (A) (A) (A) (A) (A) (A) (A) (A) (A)
                 (A) (A) (A) (A) (A) (A) (A) (A) (A) (A) (A) (A)
                 (A) (A) (A) (A) (A) (A) (A) (A)
       Virtual   (A) (A) (A) (A) (A) (A) (A) (A) (A) (A) (A) (A)
                 (A) (A) (A) (A) (A) (A) (A) (A) (A) (A) (A) (A)
                 (A) (A) (A) (A) (A) (A) (A) (A) (A) (A) (A) (A)
                 (A) (A) (A) (A) (A) (A) (A) (A) (A) (A) (A) (A)
                 (A) (A) (A) (A) (A) (A) (A) (A) (A) (A) (A) (A)
                 (A) (A) (A) (A) (A) (A) (A) (A) (A) (A) (A) (A)
                 (A) (A) (A) (A) (A) (A) (A) (A) (A) (A) (A) (A)
                 (A) (A) (A) (A) (A) (A) (A) (A) (A) (A) (A) (A)
                 (A) (A) (A) (A) (A) (A) (A) (A) (A) (A) (A) (A)
                 (A) (A) (A) (A) (A) (A) (A) (A) (A) (A) (A) (A)
                 (A) (A) (A) (A) (A) (A) (A) (A) (A) (A) (A) (A)
                 (A) (A) (A) (A) (A) (A) (A) (A) (A) (A) (A) (A)
                 (A) (A) (A) (A) (A) (A) (A) (A) (A) (A) (A) (A)
                 (A) (A) (A) (A) (A) (A) (A) (A) (A) (A) (A) (A)
                 (A) (A) (A) (A) (A) (A) (A) (A) (A) (A) (A) (A)
                 (A) (A) (A) (A) (A) (A) (A) (A) (A) (A) (A) (A)
                 (A) (A) (A) (A) (A) (A) (A) (A) (A) (A) (A) (A)
                 (A) (A) (A) (A) (A) (A) (A) (A) (A) (A) (A) (A)
                 (A) (A) (A) (A) (A) (A) (A) (A) (A) (A) (A) (A)
                 (A) (A) (A) (A) (A) (A) (A) (A) (A) (A) (A) (A)
                 (A) (A) (A) (A) (A) (A) (A) (A) (A) (A) (A) (A)
                 (A) (A) (A) (A) (A) (A) (A) (A) (A) (A) (A) (A)
                 (A) (A) (A)
 The electronic state is 1-A.
 Alpha  occ. eigenvalues --  -14.30217 -10.19499 -10.19339 -10.17852 -10.17831
 Alpha  occ. eigenvalues --  -10.17107 -10.16606 -10.16090  -0.89770  -0.80084
 Alpha  occ. eigenvalues --   -0.75445  -0.70305  -0.65522  -0.61197  -0.59758
 Alpha  occ. eigenvalues --   -0.50849  -0.50274  -0.45830  -0.44313  -0.42231
 Alpha  occ. eigenvalues --   -0.41894  -0.40740  -0.38965  -0.37896  -0.36341
 Alpha  occ. eigenvalues --   -0.35374  -0.34265  -0.33111  -0.30976  -0.29730
 Alpha  occ. eigenvalues --   -0.29480  -0.20820
 Alpha virt. eigenvalues --    0.07356   0.10397   0.12440   0.12911   0.13993
 Alpha virt. eigenvalues --    0.14623   0.15264   0.15628   0.16910   0.17675
 Alpha virt. eigenvalues --    0.18998   0.19598   0.20286   0.21595   0.22910
 Alpha virt. eigenvalues --    0.23029   0.24092   0.24185   0.24936   0.26695
 Alpha virt. eigenvalues --    0.27135   0.29425   0.30229   0.44156   0.45934
 Alpha virt. eigenvalues --    0.46563   0.48761   0.49969   0.51401   0.51744
 Alpha virt. eigenvalues --    0.53047   0.55109   0.56184   0.57970   0.59254
 Alpha virt. eigenvalues --    0.60294   0.62784   0.63984   0.65575   0.66958
 Alpha virt. eigenvalues --    0.68673   0.70326   0.72456   0.73339   0.73548
 Alpha virt. eigenvalues --    0.73945   0.74940   0.75354   0.75632   0.76555
 Alpha virt. eigenvalues --    0.78470   0.79128   0.80212   0.81463   0.83641
 Alpha virt. eigenvalues --    0.84571   0.85065   0.86282   0.88320   0.89256
 Alpha virt. eigenvalues --    0.90045   0.92072   0.92449   0.96637   1.00343
 Alpha virt. eigenvalues --    1.05297   1.06160   1.09038   1.16803   1.19384
 Alpha virt. eigenvalues --    1.20325   1.23506   1.27067   1.28902   1.33338
 Alpha virt. eigenvalues --    1.34926   1.37810   1.39455   1.40328   1.42677
 Alpha virt. eigenvalues --    1.43118   1.44358   1.46253   1.47415   1.48584
 Alpha virt. eigenvalues --    1.49958   1.52979   1.53926   1.56385   1.59383
 Alpha virt. eigenvalues --    1.60710   1.61234   1.64719   1.66812   1.70407
 Alpha virt. eigenvalues --    1.72804   1.76766   1.78516   1.80061   1.80247
 Alpha virt. eigenvalues --    1.82621   1.84534   1.87886   1.91264   1.94239
 Alpha virt. eigenvalues --    1.94437   1.95319   1.97870   1.98907   2.00473
 Alpha virt. eigenvalues --    2.04074   2.04775   2.20827   2.23403   2.27606
 Alpha virt. eigenvalues --    2.28082   2.29582   2.31848   2.36343   2.38626
 Alpha virt. eigenvalues --    2.39231   2.41060   2.41742   2.45282   2.46418
 Alpha virt. eigenvalues --    2.51193   2.51908   2.53804   2.56582   2.57809
 Alpha virt. eigenvalues --    2.60449   2.64693   2.70055   2.72101   2.74922
 Alpha virt. eigenvalues --    2.77511   2.79286   2.79625   2.80791   2.84639
 Alpha virt. eigenvalues --    2.85965   2.86554   2.90033   2.92002   2.92570
 Alpha virt. eigenvalues --    2.93701   2.94148   2.96216   2.96916   2.98983
 Alpha virt. eigenvalues --    2.99841   3.01218   3.04066   3.05985   3.07021
 Alpha virt. eigenvalues --    3.09157   3.14001   3.15408   3.20334   3.21793
 Alpha virt. eigenvalues --    3.24031   3.24581   3.29373   3.31612   3.35275
 Alpha virt. eigenvalues --    3.37269   3.38790   3.40127   3.41355   3.43057
 Alpha virt. eigenvalues --    3.43504   3.45459   3.48356   3.52688   3.55951
 Alpha virt. eigenvalues --    3.57535   3.61545   3.63159   3.63854   3.66455
 Alpha virt. eigenvalues --    3.67529   3.68753   3.71183   3.75264   3.77814
 Alpha virt. eigenvalues --    3.79815   3.82000   3.89272   3.91013   3.94179
 Alpha virt. eigenvalues --    3.96813   3.97985   3.99281   4.02649   4.06285
 Alpha virt. eigenvalues --    4.09088   4.15842   4.16429   4.23352   4.31384
 Alpha virt. eigenvalues --    4.34071   4.36770   4.38360   4.41129   4.45133
 Alpha virt. eigenvalues --    4.46834   4.48842   4.49915   4.50533   4.52067
 Alpha virt. eigenvalues --    4.54093   4.58484   4.59683   4.60140   4.61844
 Alpha virt. eigenvalues --    4.63274   4.64074   4.65425   4.67765   4.68818
 Alpha virt. eigenvalues --    4.70973   4.73338   4.74500   4.76931   4.77914
 Alpha virt. eigenvalues --    4.79622   4.80599   4.82271   4.84607   4.85100
 Alpha virt. eigenvalues --    4.85550   4.87830   4.90656   4.92220   4.94256
 Alpha virt. eigenvalues --    4.95763   4.95841   4.99698   5.01521   5.04254
 Alpha virt. eigenvalues --    5.06734   5.11260   5.21360   5.24552   5.28803
 Alpha virt. eigenvalues --    5.35936   5.36079   5.40836   5.44574   5.46319
 Alpha virt. eigenvalues --    5.48505   5.53535   5.58435   5.60103   5.63355
 Alpha virt. eigenvalues --    5.79640   6.27929   6.39514  10.87477  11.40276
 Alpha virt. eigenvalues --   11.53431  11.65959  12.04419  12.26129  12.69046
 Alpha virt. eigenvalues --   12.81822  14.97172
          Condensed to atoms (all electrons):
               1          2          3          4          5          6
     1  C    5.025461   0.400539  -0.042794  -0.004753  -0.000708  -0.003676
     2  C    0.400539   4.630550   0.416842  -0.022523  -0.010384  -0.016429
     3  C   -0.042794   0.416842   4.855550   0.411796  -0.024057  -0.022501
     4  C   -0.004753  -0.022523   0.411796   4.817793   0.401167  -0.073160
     5  N   -0.000708  -0.010384  -0.024057   0.401167   6.357080   0.394011
     6  C   -0.003676  -0.016429  -0.022501  -0.073160   0.394011   4.880297
     7  C   -0.034824   0.428502  -0.014533  -0.018192  -0.024131   0.402994
     8  C    0.003411  -0.035400  -0.003350  -0.000501  -0.005020  -0.038408
     9  H    0.366891  -0.021518  -0.002746  -0.000378   0.000001   0.000191
    10  H    0.375920  -0.022424  -0.006752   0.001627  -0.000159   0.001096
    11  H    0.368077  -0.023648   0.004533   0.000134   0.000007  -0.000473
    12  H   -0.042802   0.363008  -0.044140   0.004386   0.000264   0.004638
    13  H   -0.006759  -0.030258   0.364155  -0.032602   0.002677   0.000521
    14  H    0.005405  -0.028662   0.361540  -0.030257  -0.001719   0.000584
    15  H    0.000207  -0.009198  -0.044744   0.365029  -0.053682   0.000059
    16  H    0.000140   0.003717  -0.025587   0.364987  -0.025571   0.004820
    17  H   -0.000109   0.000983   0.004662  -0.044911   0.348805  -0.045751
    18  H   -0.001028  -0.010161  -0.000107  -0.000779  -0.052382   0.361156
    19  H    0.000110   0.004230   0.000463   0.004780  -0.026687   0.361345
    20  H   -0.004593  -0.042852   0.004857   0.000548   0.002671  -0.043737
    21  H    0.000099  -0.006796  -0.000052   0.000654   0.009676  -0.006740
    22  H    0.000166  -0.003430  -0.000577   0.000042   0.000242   0.004334
    23  H   -0.000175   0.003424   0.000173   0.000002   0.000034  -0.002518
               7          8          9         10         11         12
     1  C   -0.034824   0.003411   0.366891   0.375920   0.368077  -0.042802
     2  C    0.428502  -0.035400  -0.021518  -0.022424  -0.023648   0.363008
     3  C   -0.014533  -0.003350  -0.002746  -0.006752   0.004533  -0.044140
     4  C   -0.018192  -0.000501  -0.000378   0.001627   0.000134   0.004386
     5  N   -0.024131  -0.005020   0.000001  -0.000159   0.000007   0.000264
     6  C    0.402994  -0.038408   0.000191   0.001096  -0.000473   0.004638
     7  C    4.640960   0.395131   0.003567  -0.007339  -0.002123  -0.043426
     8  C    0.395131   5.019159  -0.000164   0.000112   0.000163  -0.005369
     9  H    0.003567  -0.000164   0.610554  -0.033770  -0.030892  -0.003333
    10  H   -0.007339   0.000112  -0.033770   0.592078  -0.033273   0.006116
    11  H   -0.002123   0.000163  -0.030892  -0.033273   0.609727  -0.003468
    12  H   -0.043426  -0.005369  -0.003333   0.006116  -0.003468   0.711136
    13  H    0.004126   0.000081   0.004768  -0.000306   0.000001  -0.002890
    14  H   -0.005501   0.000379  -0.000003  -0.000007  -0.000194  -0.004379
    15  H   -0.000906   0.000138   0.000823   0.003760  -0.000100  -0.000132
    16  H    0.000706  -0.000052  -0.000034  -0.000125  -0.000000  -0.000175
    17  H    0.004238   0.000091  -0.000001   0.000058  -0.000001   0.000028
    18  H   -0.039120   0.006942  -0.000070   0.004382   0.000846  -0.000176
    19  H   -0.022667  -0.008257   0.000001  -0.000147  -0.000035  -0.000170
    20  H    0.362891  -0.041805  -0.000034  -0.000353   0.004864  -0.003496
    21  H   -0.022132   0.376451   0.000003  -0.000000   0.000005  -0.000463
    22  H   -0.024774   0.367545  -0.000002   0.000005  -0.000010   0.005173
    23  H   -0.022172   0.367134   0.000002   0.000001  -0.000002  -0.000043
              13         14         15         16         17         18
     1  C   -0.006759   0.005405   0.000207   0.000140  -0.000109  -0.001028
     2  C   -0.030258  -0.028662  -0.009198   0.003717   0.000983  -0.010161
     3  C    0.364155   0.361540  -0.044744  -0.025587   0.004662  -0.000107
     4  C   -0.032602  -0.030257   0.365029   0.364987  -0.044911  -0.000779
     5  N    0.002677  -0.001719  -0.053682  -0.025571   0.348805  -0.052382
     6  C    0.000521   0.000584   0.000059   0.004820  -0.045751   0.361156
     7  C    0.004126  -0.005501  -0.000906   0.000706   0.004238  -0.039120
     8  C    0.000081   0.000379   0.000138  -0.000052   0.000091   0.006942
     9  H    0.004768  -0.000003   0.000823  -0.000034  -0.000001  -0.000070
    10  H   -0.000306  -0.000007   0.003760  -0.000125   0.000058   0.004382
    11  H    0.000001  -0.000194  -0.000100  -0.000000  -0.000001   0.000846
    12  H   -0.002890  -0.004379  -0.000132  -0.000175   0.000028  -0.000176
    13  H    0.650658  -0.037699  -0.001892  -0.001569  -0.000203   0.000036
    14  H   -0.037699   0.634821   0.006351  -0.005618  -0.000119   0.000074
    15  H   -0.001892   0.006351   0.705624  -0.050177  -0.006001   0.009082
    16  H   -0.001569  -0.005618  -0.050177   0.645587  -0.002606  -0.000244
    17  H   -0.000203  -0.000119  -0.006001  -0.002606   0.536072  -0.005885
    18  H    0.000036   0.000074   0.009082  -0.000244  -0.005885   0.705395
    19  H    0.000017  -0.000025  -0.000243  -0.000210  -0.002898  -0.049403
    20  H   -0.000195  -0.000022  -0.000017   0.000018  -0.000220  -0.001675
    21  H   -0.000094   0.004407   0.000115  -0.000066  -0.000298   0.000325
    22  H   -0.000036   0.000773   0.000003  -0.000003   0.000005  -0.000175
    23  H    0.000002  -0.000129   0.000004  -0.000001  -0.000028  -0.000031
              19         20         21         22         23
     1  C    0.000110  -0.004593   0.000099   0.000166  -0.000175
     2  C    0.004230  -0.042852  -0.006796  -0.003430   0.003424
     3  C    0.000463   0.004857  -0.000052  -0.000577   0.000173
     4  C    0.004780   0.000548   0.000654   0.000042   0.000002
     5  N   -0.026687   0.002671   0.009676   0.000242   0.000034
     6  C    0.361345  -0.043737  -0.006740   0.004334  -0.002518
     7  C   -0.022667   0.362891  -0.022132  -0.024774  -0.022172
     8  C   -0.008257  -0.041805   0.376451   0.367545   0.367134
     9  H    0.000001  -0.000034   0.000003  -0.000002   0.000002
    10  H   -0.000147  -0.000353  -0.000000   0.000005   0.000001
    11  H   -0.000035   0.004864   0.000005  -0.000010  -0.000002
    12  H   -0.000170  -0.003496  -0.000463   0.005173  -0.000043
    13  H    0.000017  -0.000195  -0.000094  -0.000036   0.000002
    14  H   -0.000025  -0.000022   0.004407   0.000773  -0.000129
    15  H   -0.000243  -0.000017   0.000115   0.000003   0.000004
    16  H   -0.000210   0.000018  -0.000066  -0.000003  -0.000001
    17  H   -0.002898  -0.000220  -0.000298   0.000005  -0.000028
    18  H   -0.049403  -0.001675   0.000325  -0.000175  -0.000031
    19  H    0.647954  -0.002027  -0.000497  -0.000055   0.004274
    20  H   -0.002027   0.703991   0.005825  -0.002873  -0.003795
    21  H   -0.000497   0.005825   0.571529  -0.033919  -0.030882
    22  H   -0.000055  -0.002873  -0.033919   0.617966  -0.031781
    23  H    0.004274  -0.003795  -0.030882  -0.031781   0.612326
 Mulliken charges:
               1
     1  C   -0.404206
     2  C    0.031888
     3  C   -0.192630
     4  C   -0.144890
     5  N   -0.292138
     6  C   -0.162653
     7  C    0.038725
     8  C   -0.398411
     9  H    0.106142
    10  H    0.119500
    11  H    0.105863
    12  H    0.059714
    13  H    0.087459
    14  H    0.099999
    15  H    0.075896
    16  H    0.092067
    17  H    0.214090
    18  H    0.072999
    19  H    0.090147
    20  H    0.062028
    21  H    0.132850
    22  H    0.101381
    23  H    0.104180
 Sum of Mulliken charges =  -0.00000
 Mulliken charges with hydrogens summed into heavy atoms:
               1
     1  C   -0.072700
     2  C    0.091602
     3  C   -0.005173
     4  C    0.023073
     5  N   -0.078048
     6  C    0.000493
     7  C    0.100752
     8  C   -0.060000
 Electronic spatial extent (au):  <R**2>=            971.9819
 Charge=             -0.0000 electrons
 Dipole moment (field-independent basis, Debye):
    X=              0.5613    Y=              0.1347    Z=             -0.5955  Tot=              0.8293
 Quadrupole moment (field-independent basis, Debye-Ang):
   XX=            -53.4197   YY=            -50.4119   ZZ=            -51.4747
   XY=              0.9501   XZ=              1.7389   YZ=             -1.5924
 Traceless Quadrupole moment (field-independent basis, Debye-Ang):
   XX=             -1.6510   YY=              1.3569   ZZ=              0.2941
   XY=              0.9501   XZ=              1.7389   YZ=             -1.5924
 Octapole moment (field-independent basis, Debye-Ang**2):
  XXX=             -0.7929  YYY=             10.6750  ZZZ=             -0.0425  XYY=              0.2702
  XXY=              0.5008  XXZ=             -1.3699  XZZ=             -1.2989  YZZ=              3.4499
  YYZ=             -4.3617  XYZ=              1.2583
 Hexadecapole moment (field-independent basis, Debye-Ang**3):
 XXXX=           -548.6066 YYYY=           -452.3945 ZZZZ=           -296.2785 XXXY=             -1.4827
 XXXZ=             12.7360 YYYX=             -4.5475 YYYZ=            -11.4961 ZZZX=              1.6675
 ZZZY=             -2.2610 XXYY=           -178.1309 XXZZ=           -140.8841 YYZZ=           -122.6735
 XXYZ=             -2.9720 YYXZ=              5.8665 ZZXY=             -1.8283
 N-N= 4.221393728197D+02 E-N=-1.609657519151D+03  KE= 3.277134770500D+02
 PrsmSu:  requested number of processors reduced to:  13 ShMem   1 Linda.
 Calling FoFJK, ICntrl=      2127 FMM=F ISym2X=0 I1Cent= 0 IOpClX= 0 NMat=1 NMatS=1 NMatT=0.
 ***** Axes restored to original set *****
 -------------------------------------------------------------------
 Center     Atomic                   Forces (Hartrees/Bohr)
 Number     Number              X              Y              Z
 -------------------------------------------------------------------
      1        6          -0.001219988    0.001288072    0.002461951
      2        6          -0.006404721   -0.000685737   -0.002357226
      3        6           0.004956376    0.001061961    0.000106992
      4        6           0.000118342   -0.004337667   -0.006009800
      5        7           0.010650897    0.002192805    0.006815903
      6        6          -0.002669745   -0.000708293   -0.005665152
      7        6           0.007450488   -0.004150662    0.000026627
      8        6           0.002080991    0.000793195    0.000071688
      9        1          -0.000311633    0.000628596    0.001091102
     10        1           0.000766427    0.000527260    0.001156539
     11        1          -0.000654572    0.000590564    0.000848316
     12        1           0.001410030    0.000723649   -0.000921509
     13        1          -0.001871165   -0.000396173   -0.001602359
     14        1          -0.001330422   -0.000058828   -0.001572562
     15        1          -0.006505626   -0.003155385    0.003936842
     16        1           0.000334476   -0.000324292   -0.001628629
     17        1           0.001992856    0.000386268    0.001996148
     18        1          -0.006003146    0.004357279    0.002622631
     19        1           0.001540451   -0.000834725   -0.000194769
     20        1          -0.002199079   -0.001061402   -0.001760727
     21        1          -0.002408674    0.001416963   -0.000645384
     22        1           0.000080861    0.001028035    0.000664167
     23        1           0.000196575    0.000718514    0.000559213
 -------------------------------------------------------------------
 Cartesian Forces:  Max     0.010650897 RMS     0.002952965

 GradGradGradGradGradGradGradGradGradGradGradGradGradGradGradGradGradGrad
 Berny optimization.
 FormGI is forming the generalized inverse of G from B-inverse, IUseBI=4.
 Internal  Forces:  Max     0.006464195 RMS     0.001854372
 Search for a local minimum.
 Step number   1 out of a maximum of  138
 All quantities printed in internal units (Hartrees-Bohrs-Radians)
 Mixed Optimization -- RFO/linear search
 Second derivative matrix not updated -- first step.
 ITU=  0
     Eigenvalues ---    0.00254   0.00265   0.00494   0.00556   0.00968
     Eigenvalues ---    0.01929   0.02298   0.03491   0.03914   0.04217
     Eigenvalues ---    0.04446   0.04552   0.04709   0.04735   0.04876
     Eigenvalues ---    0.05282   0.05288   0.05465   0.05480   0.05546
     Eigenvalues ---    0.05822   0.06388   0.07273   0.08138   0.08207
     Eigenvalues ---    0.09241   0.09446   0.09515   0.11917   0.13040
     Eigenvalues ---    0.14184   0.16000   0.16000   0.16000   0.16000
     Eigenvalues ---    0.16000   0.16000   0.16627   0.16979   0.20601
     Eigenvalues ---    0.26791   0.27453   0.28029   0.28631   0.28710
     Eigenvalues ---    0.29106   0.33916   0.33947   0.33955   0.34070
     Eigenvalues ---    0.34113   0.34120   0.34181   0.34210   0.34226
     Eigenvalues ---    0.34242   0.34249   0.34314   0.34332   0.34342
     Eigenvalues ---    0.34721   0.35206   0.45004
 RFO step:  Lambda=-6.08021971D-03 EMin= 2.53583419D-03
 Linear search not attempted -- first point.
 Iteration  1 RMS(Cart)=  0.08277572 RMS(Int)=  0.00220586
 Iteration  2 RMS(Cart)=  0.00345110 RMS(Int)=  0.00036918
 Iteration  3 RMS(Cart)=  0.00000355 RMS(Int)=  0.00036917
 Iteration  4 RMS(Cart)=  0.00000000 RMS(Int)=  0.00036917
 Variable       Old X    -DE/DX   Delta X   Delta X   Delta X     New X
                                 (Linear)    (Quad)   (Total)
    R1        2.90611   0.00185   0.00000   0.00630   0.00630   2.91242
    R2        2.06924   0.00041   0.00000   0.00119   0.00119   2.07043
    R3        2.06774  -0.00146   0.00000  -0.00418  -0.00418   2.06356
    R4        2.06757   0.00098   0.00000   0.00280   0.00280   2.07038
    R5        2.90276   0.00384   0.00000   0.01865   0.01879   2.92155
    R6        2.92367   0.00144   0.00000   0.00926   0.00925   2.93292
    R7        2.07406  -0.00016   0.00000  -0.00047  -0.00047   2.07359
    R8        2.89173  -0.00025   0.00000  -0.00073  -0.00080   2.89093
    R9        2.07127  -0.00002   0.00000  -0.00005  -0.00005   2.07122
   R10        2.07420  -0.00148   0.00000  -0.00429  -0.00429   2.06991
   R11        2.77011   0.00201   0.00000   0.00208   0.00210   2.77221
   R12        2.07025   0.00646   0.00000   0.01858   0.01858   2.08883
   R13        2.06977   0.00081   0.00000   0.00233   0.00233   2.07210
   R14        2.77142   0.00255   0.00000   0.00240   0.00224   2.77366
   R15        1.91972  -0.00257   0.00000  -0.00563  -0.00563   1.91409
   R16        2.90714  -0.00085   0.00000  -0.00327  -0.00321   2.90394
   R17        2.07140   0.00596   0.00000   0.01717   0.01717   2.08857
   R18        2.07213   0.00019   0.00000   0.00056   0.00056   2.07268
   R19        2.90778   0.00035   0.00000   0.00120   0.00120   2.90898
   R20        2.07472  -0.00045   0.00000  -0.00130  -0.00130   2.07343
   R21        2.06912  -0.00219   0.00000  -0.00629  -0.00629   2.06283
   R22        2.06804   0.00090   0.00000   0.00258   0.00258   2.07061
   R23        2.06951   0.00022   0.00000   0.00063   0.00063   2.07014
    A1        1.93036   0.00028   0.00000   0.00130   0.00129   1.93165
    A2        1.96877  -0.00011   0.00000   0.00155   0.00154   1.97031
    A3        1.93587   0.00036   0.00000   0.00036   0.00036   1.93623
    A4        1.86570   0.00031   0.00000   0.00528   0.00527   1.87097
    A5        1.88843  -0.00085   0.00000  -0.00937  -0.00937   1.87906
    A6        1.87114  -0.00004   0.00000   0.00051   0.00051   1.87165
    A7        1.92691   0.00336   0.00000   0.03516   0.03513   1.96204
    A8        1.94893   0.00237   0.00000   0.01799   0.01738   1.96631
    A9        1.87118  -0.00235   0.00000  -0.02770  -0.02762   1.84356
   A10        1.90834  -0.00321   0.00000   0.01212   0.01015   1.91850
   A11        1.90054   0.00046   0.00000  -0.01176  -0.01132   1.88921
   A12        1.90701  -0.00066   0.00000  -0.02799  -0.02766   1.87935
   A13        1.94378   0.00392   0.00000   0.02460   0.02412   1.96789
   A14        1.92588  -0.00012   0.00000   0.00269   0.00307   1.92895
   A15        1.91531  -0.00115   0.00000  -0.00360  -0.00347   1.91183
   A16        1.92160  -0.00231   0.00000  -0.00998  -0.00998   1.91162
   A17        1.90998  -0.00193   0.00000  -0.02471  -0.02459   1.88539
   A18        1.84471   0.00141   0.00000   0.00971   0.00947   1.85418
   A19        1.96605  -0.00575   0.00000  -0.04301  -0.04376   1.92229
   A20        1.92431  -0.00126   0.00000  -0.00637  -0.00568   1.91863
   A21        1.90004   0.00228   0.00000   0.00521   0.00494   1.90498
   A22        1.91685   0.00541   0.00000   0.05434   0.05437   1.97121
   A23        1.89631   0.00052   0.00000  -0.00893  -0.00901   1.88729
   A24        1.85676  -0.00093   0.00000   0.00064   0.00043   1.85719
   A25        1.96421   0.00378   0.00000   0.00137  -0.00078   1.96344
   A26        1.90859  -0.00243   0.00000  -0.01268  -0.01228   1.89630
   A27        1.90701  -0.00146   0.00000  -0.01094  -0.01037   1.89665
   A28        1.95723  -0.00320   0.00000  -0.02545  -0.02622   1.93101
   A29        1.91783   0.00463   0.00000   0.04907   0.04892   1.96675
   A30        1.89855   0.00002   0.00000  -0.01084  -0.01084   1.88772
   A31        1.93029  -0.00126   0.00000  -0.01096  -0.01042   1.91987
   A32        1.91019  -0.00018   0.00000  -0.00907  -0.00943   1.90075
   A33        1.84617   0.00020   0.00000   0.00897   0.00876   1.85493
   A34        1.92255   0.00146   0.00000   0.01191   0.01126   1.93382
   A35        1.94751   0.00059   0.00000   0.01805   0.01755   1.96506
   A36        1.89895  -0.00069   0.00000  -0.01347  -0.01298   1.88597
   A37        1.92478  -0.00080   0.00000   0.00908   0.00906   1.93383
   A38        1.89818  -0.00063   0.00000  -0.02048  -0.02046   1.87772
   A39        1.87035  -0.00002   0.00000  -0.00707  -0.00705   1.86330
   A40        1.96439  -0.00216   0.00000  -0.01218  -0.01217   1.95222
   A41        1.93688   0.00022   0.00000   0.00208   0.00209   1.93897
   A42        1.92847   0.00054   0.00000   0.00163   0.00163   1.93010
   A43        1.87946   0.00139   0.00000   0.01127   0.01129   1.89075
   A44        1.86593   0.00068   0.00000   0.00274   0.00273   1.86866
   A45        1.88535  -0.00059   0.00000  -0.00518  -0.00518   1.88017
    D1        1.01293   0.00085   0.00000  -0.00596  -0.00599   1.00693
    D2        3.13993   0.00073   0.00000   0.04639   0.04632  -3.09693
    D3       -1.05498  -0.00018   0.00000   0.00507   0.00517  -1.04981
    D4       -1.07554   0.00032   0.00000  -0.01465  -0.01468  -1.09022
    D5        1.05147   0.00021   0.00000   0.03770   0.03763   1.08910
    D6        3.13974  -0.00070   0.00000  -0.00362  -0.00352   3.13622
    D7        3.10833   0.00020   0.00000  -0.01663  -0.01666   3.09167
    D8       -1.04784   0.00009   0.00000   0.03572   0.03565  -1.01219
    D9        1.04042  -0.00083   0.00000  -0.00560  -0.00549   1.03493
   D10        1.20780   0.00151   0.00000   0.10927   0.10961   1.31741
   D11       -0.93185   0.00184   0.00000   0.10314   0.10327  -0.82859
   D12       -2.95775   0.00088   0.00000   0.09190   0.09202  -2.86573
   D13       -0.94299  -0.00154   0.00000   0.05517   0.05505  -0.88793
   D14       -3.08264  -0.00121   0.00000   0.04904   0.04871  -3.03393
   D15        1.17464  -0.00217   0.00000   0.03781   0.03746   1.21211
   D16       -3.02550   0.00088   0.00000   0.08897   0.08925  -2.93625
   D17        1.11803   0.00121   0.00000   0.08284   0.08291   1.20094
   D18       -0.90786   0.00024   0.00000   0.07161   0.07166  -0.83621
   D19       -1.17931  -0.00286   0.00000  -0.13001  -0.12988  -1.30919
   D20        2.95992  -0.00328   0.00000  -0.16254  -0.16260   2.79733
   D21        0.89992  -0.00318   0.00000  -0.15613  -0.15606   0.74386
   D22        0.95837   0.00076   0.00000  -0.06502  -0.06464   0.89373
   D23       -1.18558   0.00034   0.00000  -0.09755  -0.09735  -1.28293
   D24        3.03760   0.00044   0.00000  -0.09114  -0.09081   2.94678
   D25        3.03687  -0.00098   0.00000  -0.08879  -0.08869   2.94818
   D26        0.89292  -0.00140   0.00000  -0.12132  -0.12141   0.77151
   D27       -1.16709  -0.00130   0.00000  -0.11491  -0.11487  -1.28196
   D28        0.94518   0.00022   0.00000   0.00431   0.00375   0.94893
   D29       -1.20284  -0.00176   0.00000  -0.03082  -0.03113  -1.23397
   D30        3.04969  -0.00126   0.00000  -0.03103  -0.03130   3.01839
   D31        3.08729   0.00114   0.00000   0.01764   0.01727   3.10457
   D32        0.93927  -0.00084   0.00000  -0.01749  -0.01761   0.92166
   D33       -1.09139  -0.00034   0.00000  -0.01770  -0.01778  -1.10916
   D34       -1.17555   0.00041   0.00000   0.00944   0.00933  -1.16622
   D35        2.95961  -0.00157   0.00000  -0.02569  -0.02555   2.93406
   D36        0.92895  -0.00107   0.00000  -0.02590  -0.02572   0.90323
   D37       -0.95409  -0.00115   0.00000  -0.08306  -0.08250  -1.03658
   D38       -3.07689  -0.00012   0.00000  -0.06114  -0.06041  -3.13730
   D39        1.19809  -0.00286   0.00000  -0.08164  -0.08215   1.11594
   D40       -0.92471  -0.00183   0.00000  -0.05972  -0.06007  -0.98477
   D41       -3.06073  -0.00070   0.00000  -0.05597  -0.05612  -3.11685
   D42        1.09966   0.00034   0.00000  -0.03405  -0.03404   1.06562
   D43        0.97750   0.00313   0.00000   0.08958   0.08949   1.06699
   D44       -1.17691   0.00365   0.00000   0.08592   0.08646  -1.09046
   D45        3.09278   0.00086   0.00000   0.05440   0.05469  -3.13572
   D46        3.10119   0.00154   0.00000   0.06668   0.06632  -3.11568
   D47        0.94678   0.00206   0.00000   0.06302   0.06328   1.01006
   D48       -1.06671  -0.00073   0.00000   0.03150   0.03151  -1.03520
   D49       -0.98385  -0.00159   0.00000  -0.00148  -0.00067  -0.98452
   D50        1.17338  -0.00039   0.00000   0.03582   0.03637   1.20975
   D51       -3.06355  -0.00124   0.00000   0.02036   0.02094  -3.04261
   D52        1.16355   0.00119   0.00000   0.03586   0.03616   1.19970
   D53       -2.96240   0.00239   0.00000   0.07316   0.07319  -2.88921
   D54       -0.91615   0.00154   0.00000   0.05770   0.05777  -0.85839
   D55       -3.09242   0.00059   0.00000   0.03505   0.03532  -3.05711
   D56       -0.93519   0.00180   0.00000   0.07234   0.07235  -0.86284
   D57        1.11106   0.00095   0.00000   0.05689   0.05693   1.16799
   D58        1.12216   0.00117   0.00000   0.04363   0.04349   1.16565
   D59       -0.98554   0.00073   0.00000   0.03610   0.03596  -0.94958
   D60       -3.07649   0.00097   0.00000   0.04016   0.04002  -3.03647
   D61       -1.02052  -0.00054   0.00000   0.00943   0.00951  -1.01101
   D62       -3.12822  -0.00099   0.00000   0.00190   0.00198  -3.12624
   D63        1.06401  -0.00074   0.00000   0.00596   0.00604   1.07006
   D64       -3.08393   0.00066   0.00000   0.03315   0.03321  -3.05073
   D65        1.09155   0.00022   0.00000   0.02561   0.02568   1.11723
   D66       -0.99940   0.00046   0.00000   0.02968   0.02974  -0.96966
         Item               Value     Threshold  Converged?
 Maximum Force            0.006464     0.000450     NO 
 RMS     Force            0.001854     0.000300     NO 
 Maximum Displacement     0.329537     0.001800     NO 
 RMS     Displacement     0.082549     0.001200     NO 
 Predicted change in Energy=-3.934771D-03
 GradGradGradGradGradGradGradGradGradGradGradGradGradGradGradGradGradGrad

                          Input orientation:                          
 ---------------------------------------------------------------------
 Center     Atomic      Atomic             Coordinates (Angstroms)
 Number     Number       Type             X           Y           Z
 ---------------------------------------------------------------------
      1          6           0        1.005337    0.175497    0.167099
      2          6           0        2.526166    0.059259   -0.053846
      3          6           0        2.955850   -1.370208   -0.456548
      4          6           0        2.616512   -1.702414   -1.910788
      5          7           0        3.186321   -0.689855   -2.806388
      6          6           0        2.685477    0.659599   -2.519263
      7          6           0        3.059844    1.083666   -1.090469
      8          6           0        4.577120    1.312907   -0.968125
      9          1           0        0.671125   -0.529789    0.936040
     10          1           0        0.427758   -0.033563   -0.735749
     11          1           0        0.733974    1.183405    0.499988
     12          1           0        2.984505    0.295711    0.914698
     13          1           0        2.493949   -2.111217    0.205921
     14          1           0        4.038373   -1.477207   -0.328158
     15          1           0        1.522864   -1.813603   -2.026546
     16          1           0        3.055701   -2.673148   -2.169858
     17          1           0        2.945233   -0.928956   -3.760670
     18          1           0        1.593777    0.749370   -2.666427
     19          1           0        3.149649    1.354753   -3.229413
     20          1           0        2.577132    2.049209   -0.894037
     21          1           0        5.145880    0.421185   -1.238198
     22          1           0        4.851441    1.600495    0.052976
     23          1           0        4.900682    2.116074   -1.639158
 ---------------------------------------------------------------------
                    Distance matrix (angstroms):
                    1          2          3          4          5
     1  C    0.000000
     2  C    1.541185   0.000000
     3  C    2.565666   1.546018   0.000000
     4  C    3.231107   2.561228   1.529813   0.000000
     5  N    3.787763   2.928047   2.457182   1.466990   0.000000
     6  C    3.205272   2.542454   2.906546   2.440103   1.467757
     7  C    2.574344   1.552034   2.536566   2.937977   2.470981
     8  C    3.916640   2.571760   3.176371   3.718166   3.053618
     9  H    1.095625   2.183581   2.804562   3.641979   4.511939
    10  H    1.091988   2.208376   2.873294   2.992728   3.511115
    11  H    1.095596   2.186867   3.517475   4.205204   4.522745
    12  H    2.119071   1.097297   2.157874   3.480128   3.854678
    13  H    2.728834   2.186203   1.096044   2.159305   3.402008
    14  H    3.489415   2.173188   1.095349   2.139422   2.736337
    15  H    3.006066   2.899272   2.171392   1.105364   2.153614
    16  H    4.216650   3.496279   2.154775   1.096507   2.087027
    17  H    4.517785   3.859110   3.333473   2.031836   1.012891
    18  H    2.950333   2.858528   3.351331   2.761924   2.151081
    19  H    4.186289   3.485866   3.892525   3.371836   2.088233
    20  H    2.665961   2.160652   3.468030   3.887160   3.395683
    21  H    4.379420   2.897685   2.935353   3.370423   2.744722
    22  H    4.103189   2.791724   3.560612   4.445277   4.024213
    23  H    4.711912   3.518810   4.163544   4.457810   3.489225
                    6          7          8          9         10
     6  C    0.000000
     7  C    1.536696   0.000000
     8  C    2.532026   1.539366   0.000000
     9  H    4.172694   3.523627   4.719975   0.000000
    10  H    2.959508   2.881302   4.368545   1.760780   0.000000
    11  H    3.632989   2.819427   4.116054   1.768933   1.761200
    12  H    3.466110   2.155746   2.667608   2.456345   3.060940
    13  H    3.891110   3.494015   4.176435   2.521245   3.077748
    14  H    3.346223   2.845471   2.912823   3.719429   3.909831
    15  H    2.776898   3.410676   4.497088   3.339244   2.456411
    16  H    3.371402   3.908803   4.432551   4.463943   3.991260
    17  H    2.032750   3.345707   3.935392   5.233544   4.036032
    18  H    1.105226   2.178244   3.478813   3.932595   2.387489
    19  H    1.096817   2.157924   2.674481   5.200536   3.943915
    20  H    2.141054   1.097210   2.132506   3.692326   2.997132
    21  H    2.784161   2.193684   1.091601   5.065085   4.766542
    22  H    3.491862   2.187327   1.095722   4.774196   4.781339
    23  H    2.793392   2.180736   1.095470   5.614391   5.044218
                   11         12         13         14         15
    11  H    0.000000
    12  H    2.454562   0.000000
    13  H    3.746801   2.556621   0.000000
    14  H    4.322468   2.408021   1.752842   0.000000
    15  H    3.998472   3.903398   2.452650   3.053764   0.000000
    16  H    5.233688   4.281784   2.505127   2.405781   1.763220
    17  H    5.244515   4.833261   4.163561   3.643854   2.410999
    18  H    3.309657   3.868383   4.152548   4.049839   2.642594
    19  H    4.446715   4.280479   4.923862   4.150555   3.759228
    20  H    2.467824   2.551907   4.304181   3.858893   4.161174
    21  H    4.802830   3.053235   3.940975   2.378789   4.329205
    22  H    4.162609   2.435257   4.399769   3.206024   5.201913
    23  H    4.775696   3.675274   5.202564   3.920965   5.196353
                   16         17         18         19         20
    16  H    0.000000
    17  H    2.363279   0.000000
    18  H    3.754654   2.416729   0.000000
    19  H    4.165989   2.353582   1.761868   0.000000
    20  H    4.915018   4.150006   2.407890   2.502803   0.000000
    21  H    3.848602   3.609514   3.842522   2.970088   3.060616
    22  H    5.140982   4.957383   4.328041   3.705477   2.504128
    23  H    5.159674   4.194854   3.722738   2.484881   2.441016
                   21         22         23
    21  H    0.000000
    22  H    1.773301   0.000000
    23  H    1.758846   1.769623   0.000000
 Stoichiometry    C7H15N
 Framework group  C1[X(C7H15N)]
 Deg. of freedom    63
 Full point group                 C1      NOp   1
 Largest Abelian subgroup         C1      NOp   1
 Largest concise Abelian subgroup C1      NOp   1
                         Standard orientation:                         
 ---------------------------------------------------------------------
 Center     Atomic      Atomic             Coordinates (Angstroms)
 Number     Number       Type             X           Y           Z
 ---------------------------------------------------------------------
      1          6           0        1.960674   -0.909958   -0.712731
      2          6           0        0.825874   -0.786328    0.322738
      3          6           0        0.886619    0.544055    1.107954
      4          6           0        0.403335    1.739520    0.284774
      5          7           0       -0.940599    1.479357   -0.242687
      6          6           0       -0.986820    0.288557   -1.099524
      7          6           0       -0.581049   -0.964456   -0.307854
      8          6           0       -1.655088   -1.324018    0.734644
      9          1           0        2.938857   -0.824370   -0.226700
     10          1           0        1.915861   -0.140172   -1.485945
     11          1           0        1.924791   -1.880979   -1.218854
     12          1           0        0.980540   -1.610386    1.030600
     13          1           0        1.905382    0.733121    1.465289
     14          1           0        0.257249    0.471158    2.001469
     15          1           0        1.138742    1.974186   -0.506389
     16          1           0        0.351006    2.623699    0.931161
     17          1           0       -1.236192    2.281447   -0.786032
     18          1           0       -0.354979    0.387238   -2.000947
     19          1           0       -2.016140    0.164832   -1.457573
     20          1           0       -0.533319   -1.802202   -1.014802
     21          1           0       -1.836532   -0.503074    1.430863
     22          1           0       -1.363345   -2.207984    1.312655
     23          1           0       -2.608999   -1.546244    0.244007
 ---------------------------------------------------------------------
 Rotational constants (GHZ):           2.2443311           2.1281283           1.5647356
 Standard basis: 6-31G(2df,p) (6D, 7F)
 There are   323 symmetry adapted cartesian basis functions of A   symmetry.
 There are   299 symmetry adapted basis functions of A   symmetry.
   299 basis functions,   457 primitive gaussians,   323 cartesian basis functions
    32 alpha electrons       32 beta electrons
       nuclear repulsion energy       419.6577425088 Hartrees.
 NAtoms=   23 NActive=   23 NUniq=   23 SFac= 1.00D+00 NAtFMM=   60 NAOKFM=F Big=F
 Integral buffers will be    131072 words long.
 Raffenetti 2 integral format.
 Two-electron integral symmetry is turned on.
 One-electron integrals computed using PRISM.
 PrsmSu:  requested number of processors reduced to:  13 ShMem   1 Linda.
 NBasis=   299 RedAO= T EigKep=  4.01D-04  NBF=   299
 NBsUse=   299 1.00D-06 EigRej= -1.00D+00 NBFU=   299
 Initial guess from the checkpoint file:  "CC1CCNCC1C.chk"
 B after Tr=    -0.000000   -0.000000    0.000000
         Rot=    0.996384    0.020680   -0.008179   -0.082006 Ang=   9.75 deg.
 ExpMin= 1.61D-01 ExpMax= 4.17D+03 ExpMxC= 6.27D+02 IAcc=2 IRadAn=         4 AccDes= 0.00D+00
 Harris functional with IExCor=  402 and IRadAn=       4 diagonalized for initial guess.
 HarFok:  IExCor=  402 AccDes= 0.00D+00 IRadAn=         4 IDoV= 1 UseB2=F ITyADJ=14
 ICtDFT=  3500011 ScaDFX=  1.000000  1.000000  1.000000  1.000000
 FoFCou: FMM=F IPFlag=           0 FMFlag=      100000 FMFlg1=           0
         NFxFlg=           0 DoJE=T BraDBF=F KetDBF=T FulRan=T
         wScrn=  0.000000 ICntrl=       500 IOpCl=  0 I1Cent=   200000004 NGrid=           0
         NMat0=    1 NMatS0=      1 NMatT0=    0 NMatD0=    1 NMtDS0=    0 NMtDT0=    0
 Petite list used in FoFCou.
 Requested convergence on RMS density matrix=1.00D-08 within 128 cycles.
 Requested convergence on MAX density matrix=1.00D-06.
 Requested convergence on             energy=1.00D-06.
 No special actions if energy rises.
 Integral accuracy reduced to 1.0D-05 until final iterations.
 Initial convergence to 1.0D-05 achieved.  Increase integral accuracy.
 SCF Done:  E(RB3LYP) =  -330.555987060     A.U. after   10 cycles
            NFock= 10  Conv=0.71D-08     -V/T= 2.0088
 PrsmSu:  requested number of processors reduced to:  13 ShMem   1 Linda.
 Calling FoFJK, ICntrl=      2127 FMM=F ISym2X=0 I1Cent= 0 IOpClX= 0 NMat=1 NMatS=1 NMatT=0.
 ***** Axes restored to original set *****
 -------------------------------------------------------------------
 Center     Atomic                   Forces (Hartrees/Bohr)
 Number     Number              X              Y              Z
 -------------------------------------------------------------------
      1        6           0.001381469   -0.000113177   -0.000365880
      2        6          -0.001687750   -0.000275026   -0.000032043
      3        6           0.001049486    0.000618786    0.001785272
      4        6           0.000751232   -0.000376551   -0.001266329
      5        7          -0.002664471    0.000625341    0.002693595
      6        6           0.000673329   -0.000462915   -0.001676549
      7        6           0.002156354    0.000910187    0.001426426
      8        6          -0.000362591   -0.000182280    0.000996222
      9        1           0.000347430    0.000078765    0.000060136
     10        1          -0.000452474   -0.000422114   -0.001612937
     11        1           0.000504712   -0.000013187    0.000006120
     12        1           0.002119591   -0.000758588   -0.000322072
     13        1          -0.001012256    0.000477113    0.000193615
     14        1           0.000313775    0.000849156    0.000097669
     15        1          -0.001052958    0.001354585   -0.000027129
     16        1          -0.000503522    0.000179421   -0.000436556
     17        1           0.001994321   -0.000278881   -0.001790035
     18        1          -0.000786662   -0.000883434    0.001262261
     19        1          -0.000201888   -0.000659405   -0.000528535
     20        1          -0.001793482   -0.000113557   -0.000209095
     21        1          -0.000235772   -0.000884352   -0.000226033
     22        1          -0.000180202    0.000000245   -0.000220279
     23        1          -0.000357671    0.000329867    0.000192156
 -------------------------------------------------------------------
 Cartesian Forces:  Max     0.002693595 RMS     0.000996085

 GradGradGradGradGradGradGradGradGradGradGradGradGradGradGradGradGradGrad
 Berny optimization.
 Using GEDIIS/GDIIS optimizer.
 FormGI is forming the generalized inverse of G from B-inverse, IUseBI=4.
 Internal  Forces:  Max     0.002611536 RMS     0.000655001
 Search for a local minimum.
 Step number   2 out of a maximum of  138
 All quantities printed in internal units (Hartrees-Bohrs-Radians)
 Mixed Optimization -- En-DIIS/RFO-DIIS
 Update second derivatives using D2CorX and points    1    2
 DE= -3.02D-03 DEPred=-3.93D-03 R= 7.68D-01
 TightC=F SS=  1.41D+00  RLast= 5.40D-01 DXNew= 5.0454D-01 1.6193D+00
 Trust test= 7.68D-01 RLast= 5.40D-01 DXMaxT set to 5.05D-01
 ITU=  1  0
 Use linear search instead of GDIIS.
     Eigenvalues ---    0.00255   0.00265   0.00550   0.00657   0.00955
     Eigenvalues ---    0.01918   0.02325   0.03351   0.03947   0.04186
     Eigenvalues ---    0.04495   0.04600   0.04746   0.04805   0.04889
     Eigenvalues ---    0.05252   0.05335   0.05468   0.05493   0.05563
     Eigenvalues ---    0.05873   0.06477   0.07157   0.08177   0.08417
     Eigenvalues ---    0.09058   0.09142   0.09537   0.11771   0.12962
     Eigenvalues ---    0.14325   0.15873   0.16000   0.16000   0.16000
     Eigenvalues ---    0.16000   0.16034   0.17053   0.17288   0.20976
     Eigenvalues ---    0.26996   0.27513   0.28254   0.28641   0.28936
     Eigenvalues ---    0.29363   0.33443   0.33927   0.33952   0.33966
     Eigenvalues ---    0.34071   0.34122   0.34144   0.34212   0.34226
     Eigenvalues ---    0.34242   0.34260   0.34314   0.34340   0.34446
     Eigenvalues ---    0.35024   0.35232   0.45124
 RFO step:  Lambda=-8.55429365D-04 EMin= 2.54586959D-03
 Quartic linear search produced a step of  0.03114.
 Iteration  1 RMS(Cart)=  0.02602228 RMS(Int)=  0.00039812
 Iteration  2 RMS(Cart)=  0.00048792 RMS(Int)=  0.00008180
 Iteration  3 RMS(Cart)=  0.00000016 RMS(Int)=  0.00008180
 Variable       Old X    -DE/DX   Delta X   Delta X   Delta X     New X
                                 (Linear)    (Quad)   (Total)
    R1        2.91242  -0.00207   0.00020  -0.00699  -0.00679   2.90563
    R2        2.07043  -0.00011   0.00004  -0.00028  -0.00024   2.07019
    R3        2.06356   0.00165  -0.00013   0.00468   0.00455   2.06811
    R4        2.07038  -0.00014   0.00009  -0.00026  -0.00017   2.07021
    R5        2.92155  -0.00261   0.00059  -0.00564  -0.00500   2.91655
    R6        2.93292  -0.00198   0.00029  -0.00278  -0.00245   2.93047
    R7        2.07359   0.00044  -0.00001   0.00128   0.00127   2.07486
    R8        2.89093   0.00133  -0.00002   0.00316   0.00312   2.89404
    R9        2.07122   0.00022  -0.00000   0.00066   0.00065   2.07188
   R10        2.06991   0.00024  -0.00013   0.00049   0.00036   2.07027
   R11        2.77221  -0.00097   0.00007  -0.00565  -0.00562   2.76659
   R12        2.08883   0.00091   0.00058   0.00366   0.00424   2.09308
   R13        2.07210  -0.00026   0.00007  -0.00064  -0.00057   2.07153
   R14        2.77366  -0.00121   0.00007  -0.00543  -0.00542   2.76824
   R15        1.91409   0.00128  -0.00018   0.00259   0.00242   1.91651
   R16        2.90394   0.00091  -0.00010   0.00425   0.00416   2.90810
   R17        2.08857   0.00054   0.00053   0.00249   0.00302   2.09160
   R18        2.07268  -0.00016   0.00002  -0.00045  -0.00043   2.07225
   R19        2.90898  -0.00117   0.00004  -0.00409  -0.00405   2.90493
   R20        2.07343   0.00065  -0.00004   0.00188   0.00184   2.07527
   R21        2.06283   0.00066  -0.00020   0.00162   0.00142   2.06425
   R22        2.07061  -0.00025   0.00008  -0.00061  -0.00053   2.07009
   R23        2.07014   0.00002   0.00002   0.00009   0.00011   2.07024
    A1        1.93165  -0.00022   0.00004  -0.00122  -0.00118   1.93047
    A2        1.97031  -0.00050   0.00005  -0.00285  -0.00281   1.96750
    A3        1.93623  -0.00052   0.00001  -0.00360  -0.00360   1.93264
    A4        1.87097   0.00045   0.00016   0.00369   0.00385   1.87481
    A5        1.87906   0.00033  -0.00029   0.00117   0.00087   1.87994
    A6        1.87165   0.00054   0.00002   0.00334   0.00335   1.87500
    A7        1.96204  -0.00073   0.00109  -0.00572  -0.00455   1.95749
    A8        1.96631  -0.00106   0.00054  -0.00907  -0.00850   1.95781
    A9        1.84356   0.00145  -0.00086   0.01838   0.01750   1.86105
   A10        1.91850   0.00125   0.00032   0.00944   0.00956   1.92805
   A11        1.88921  -0.00063  -0.00035  -0.00980  -0.01010   1.87912
   A12        1.87935  -0.00026  -0.00086  -0.00316  -0.00392   1.87543
   A13        1.96789  -0.00089   0.00075  -0.00414  -0.00362   1.96428
   A14        1.92895  -0.00035   0.00010  -0.00810  -0.00793   1.92102
   A15        1.91183  -0.00001  -0.00011  -0.00129  -0.00135   1.91049
   A16        1.91162   0.00039  -0.00031  -0.00035  -0.00063   1.91099
   A17        1.88539   0.00065  -0.00077   0.00544   0.00471   1.89010
   A18        1.85418   0.00030   0.00029   0.00959   0.00984   1.86402
   A19        1.92229   0.00053  -0.00136  -0.01181  -0.01355   1.90874
   A20        1.91863   0.00001  -0.00018  -0.00028  -0.00045   1.91818
   A21        1.90498   0.00003   0.00015   0.00799   0.00826   1.91324
   A22        1.97121  -0.00072   0.00169  -0.00479  -0.00308   1.96813
   A23        1.88729  -0.00017  -0.00028   0.00375   0.00362   1.89092
   A24        1.85719   0.00031   0.00001   0.00642   0.00637   1.86356
   A25        1.96344  -0.00090  -0.00002  -0.01280  -0.01330   1.95014
   A26        1.89630   0.00058  -0.00038   0.01272   0.01253   1.90883
   A27        1.89665   0.00030  -0.00032   0.00909   0.00897   1.90562
   A28        1.93101   0.00041  -0.00082  -0.00409  -0.00523   1.92578
   A29        1.96675  -0.00034   0.00152  -0.00495  -0.00346   1.96328
   A30        1.88772  -0.00038  -0.00034   0.00072   0.00050   1.88822
   A31        1.91987  -0.00048  -0.00032  -0.00848  -0.00879   1.91108
   A32        1.90075   0.00037  -0.00029   0.00974   0.00956   1.91031
   A33        1.85493   0.00046   0.00027   0.00835   0.00861   1.86354
   A34        1.93382  -0.00053   0.00035  -0.00190  -0.00171   1.93211
   A35        1.96506  -0.00058   0.00055  -0.00337  -0.00281   1.96225
   A36        1.88597   0.00001  -0.00040  -0.00744  -0.00780   1.87817
   A37        1.93383   0.00086   0.00028   0.00678   0.00713   1.94096
   A38        1.87772  -0.00028  -0.00064  -0.00702  -0.00772   1.87000
   A39        1.86330   0.00055  -0.00022   0.01286   0.01262   1.87593
   A40        1.95222  -0.00083  -0.00038  -0.00560  -0.00598   1.94624
   A41        1.93897   0.00003   0.00007  -0.00007  -0.00001   1.93896
   A42        1.93010  -0.00027   0.00005  -0.00153  -0.00149   1.92862
   A43        1.89075   0.00042   0.00035   0.00306   0.00341   1.89416
   A44        1.86866   0.00065   0.00009   0.00496   0.00504   1.87370
   A45        1.88017   0.00007  -0.00016  -0.00039  -0.00055   1.87962
    D1        1.00693  -0.00010  -0.00019   0.00653   0.00636   1.01330
    D2       -3.09693   0.00015   0.00144   0.00744   0.00886  -3.08807
    D3       -1.04981   0.00016   0.00016   0.01011   0.01028  -1.03953
    D4       -1.09022  -0.00018  -0.00046   0.00461   0.00418  -1.08605
    D5        1.08910   0.00007   0.00117   0.00553   0.00667   1.09577
    D6        3.13622   0.00008  -0.00011   0.00820   0.00809  -3.13887
    D7        3.09167  -0.00017  -0.00052   0.00486   0.00437   3.09604
    D8       -1.01219   0.00009   0.00111   0.00578   0.00686  -1.00533
    D9        1.03493   0.00010  -0.00017   0.00845   0.00828   1.04321
   D10        1.31741  -0.00085   0.00341   0.00156   0.00503   1.32244
   D11       -0.82859  -0.00046   0.00322   0.01101   0.01422  -0.81437
   D12       -2.86573  -0.00062   0.00287   0.00484   0.00769  -2.85805
   D13       -0.88793   0.00012   0.00171   0.01049   0.01226  -0.87567
   D14       -3.03393   0.00051   0.00152   0.01993   0.02145  -3.01248
   D15        1.21211   0.00036   0.00117   0.01377   0.01492   1.22702
   D16       -2.93625   0.00010   0.00278   0.01468   0.01754  -2.91871
   D17        1.20094   0.00050   0.00258   0.02413   0.02673   1.22767
   D18       -0.83621   0.00034   0.00223   0.01796   0.02020  -0.81601
   D19       -1.30919   0.00068  -0.00405  -0.01605  -0.02008  -1.32927
   D20        2.79733   0.00039  -0.00506  -0.02100  -0.02604   2.77128
   D21        0.74386   0.00004  -0.00486  -0.03009  -0.03494   0.70892
   D22        0.89373  -0.00010  -0.00201  -0.02308  -0.02507   0.86866
   D23       -1.28293  -0.00040  -0.00303  -0.02802  -0.03103  -1.31397
   D24        2.94678  -0.00074  -0.00283  -0.03712  -0.03993   2.90685
   D25        2.94818  -0.00032  -0.00276  -0.03144  -0.03420   2.91398
[...]
 5750,0.00466078,-0.00842220,-0.00016756,-0.00190098,0.00075513,0.00026
 236,0.00048029,0.00018116,-0.00053387,-0.00003468,0.00038842,0.0009556
 3,0.00015507,0.00007253,-0.00056948,-0.00008907,-0.00007788,0.00017198
 ,-0.00023365,-0.00001443,0.00000906,0.00017876,0.00196036,-0.00029174,
 -0.00040352,-0.00034368,0.00155550,0.00004128,-0.02080434,0.00203164,-
 0.00306553,-0.02970799,0.05650870,0.00053616,-0.00230293,-0.00010709,0
 .00913071,-0.00139739,-0.00048303,-0.02625983,0.00507157,-0.04960794,-
 0.03487244,0.00173970,-0.00721801,0.00061576,-0.00036356,0.00272468,-0
 .00010486,0.00011731,-0.00013267,-0.00033215,0.00012297,-0.00009200,-0
 .00016352,0.00036720,0.00044433,-0.00043281,-0.00007919,0.00019903,0.0
 0019772,-0.00008851,0.00006368,0.00072956,-0.00040785,0.00014853,0.000
 51199,0.00026423,0.00043171,0.01936542,-0.00243242,0.00234283,0.031295
 12,0.00027893,0.05605197,-0.00097641,0.00046774,-0.00042879,-0.0005275
 3,0.00026667,0.00034249,-0.00858495,0.00074433,-0.00229415,-0.26360957
 ,0.00264474,-0.03214296,-0.01861429,-0.01185761,0.00920065,0.00155894,
 0.00314388,0.00055152,0.00003515,-0.00022861,0.00013241,-0.00020893,0.
 00030354,-0.00006145,0.00005702,0.00000253,0.00004197,0.00066281,0.000
 19585,0.00118622,0.00041961,0.00013553,0.00040224,0.00023637,-0.000092
 30,-0.00011934,0.00040762,0.00024553,-0.00077489,0.00102242,-0.0002977
 1,-0.00152557,0.29844541,0.00016961,0.00013515,-0.00059385,-0.00064447
 ,-0.00006216,0.00058413,-0.00641709,0.00090528,-0.00161658,0.00224108,
 -0.05293332,-0.00225658,-0.02897173,-0.00839551,0.00477152,-0.00474288
 ,0.00487779,0.00022283,0.00023478,-0.00041747,0.00006811,-0.00004357,0
 .00010669,-0.00006596,0.00001299,-0.00001418,-0.00001155,0.00046007,-0
 .00062168,-0.00055832,-0.00000012,0.00001807,0.00015563,0.00015093,0.0
 0009800,0.00009210,0.00029216,0.00027666,0.00012771,-0.00061946,0.0007
 1829,-0.00096411,0.00659748,0.05400420,0.00016638,-0.00035400,-0.00015
 530,-0.00010367,0.00080571,0.00107263,-0.03313962,0.00091860,-0.004873
 33,-0.02932867,-0.00150151,-0.05395218,0.02624400,0.00982091,-0.000409
 27,0.00140109,-0.00391213,-0.00027409,-0.00007814,0.00008772,-0.000336
 77,-0.00003567,-0.00001058,0.00022460,0.00000489,0.00001297,-0.0000096
 6,0.00069052,-0.00068986,-0.00026817,0.00023119,0.00002299,0.00014186,
 0.00032076,0.00006197,0.00012218,0.00053133,0.00048732,0.00118615,-0.0
 0182394,-0.00208725,-0.00633390,0.02801170,-0.00252971,0.06075449,-0.0
 0024745,0.00000321,-0.00033576,-0.00013286,-0.00008594,-0.00158967,0.0
 0241463,-0.00855984,-0.00328854,-0.08653542,0.08993073,0.02593974,0.00
 537240,-0.01736411,-0.00411883,-0.00073333,-0.00123238,0.00186521,-0.0
 0001482,0.00007701,0.00006296,0.00004011,0.00000781,-0.00001881,0.0000
 4276,-0.00000137,0.00007889,0.00043170,-0.00018721,0.00017154,0.000206
 28,0.00002857,0.00019150,0.00013873,-0.00028748,-0.00017012,-0.0000044
 8,0.00027476,0.00049649,0.00079647,-0.00053376,0.00040743,-0.01281954,
 0.02798465,0.00819894,0.08958364,-0.00013865,0.00012564,0.00006068,-0.
 00071333,0.00137997,-0.00093396,0.00219954,-0.00456610,-0.00225599,0.0
 8330699,-0.24932733,-0.05549547,0.00569592,-0.02622590,-0.00406069,-0.
 00297534,-0.00045804,0.00468336,0.00014305,0.00052861,0.00042254,0.000
 10535,-0.00006213,-0.00011140,0.00003225,0.00000486,-0.00004978,0.0000
 0519,-0.00005089,0.00002278,0.00002310,-0.00001701,0.00002468,0.000164
 04,-0.00030489,-0.00006606,0.00003298,0.00045543,-0.00046488,-0.000495
 33,0.00029358,0.00012640,0.00123417,0.00061374,-0.00072327,-0.08958687
 ,0.27851713,-0.00068072,-0.00000439,0.00000297,-0.00273311,0.00106693,
 -0.00591009,0.01202853,-0.03006974,-0.00853376,0.02538620,-0.06117165,
 -0.06380515,-0.00653813,0.02436814,0.00504908,0.00202933,0.00258266,-0
 .00305663,0.00012700,0.00056685,-0.00054899,0.00003987,-0.00008533,0.0
 0012143,0.00003290,-0.00000030,-0.00001950,0.00014994,0.00010300,0.000
 19081,0.00020224,-0.00003808,0.00007000,0.00040395,-0.00198040,-0.0006
 1391,0.00049679,0.00060040,0.00086601,-0.00015302,0.00038369,0.0015323
 3,-0.00234562,0.00380326,0.00184509,-0.02742381,0.05906864,0.07146859,
 0.00010062,0.00002537,0.00010206,-0.00018181,-0.00000177,0.00002070,-0
 .00061081,-0.00125914,0.00022513,-0.00392320,0.00023268,0.02087091,-0.
 02327127,-0.02371741,-0.08476693,-0.00385591,0.00987424,0.01580147,-0.
 00080766,0.00100200,-0.00057738,0.00024154,-0.00013050,-0.00015506,-0.
 00001818,0.00003939,-0.00002103,-0.00006021,-0.00000280,-0.00001519,-0
 .00002737,-0.00004719,0.00000170,-0.00000864,0.00002117,-0.00006380,0.
 00073205,0.00008233,0.00009662,0.00018506,-0.00001880,0.00028115,0.000
 70509,0.00064742,0.00056164,0.00049588,0.00046566,-0.00082925,0.028416
 99,-0.00002714,0.00012177,-0.00007524,-0.00004016,-0.00076054,0.000496
 43,-0.00319385,-0.00407372,0.00278448,0.00419646,0.00690386,0.02896601
 ,-0.01165515,-0.07863154,-0.08278588,-0.00716537,-0.00998588,-0.037000
 11,0.00381580,-0.00675422,0.00066110,0.00061392,0.00017762,0.00013768,
 0.00010931,0.00003322,-0.00006703,0.00001509,-0.00002811,0.00001885,-0
 .00009438,0.00007880,0.00005620,-0.00003607,0.00022308,-0.00002793,0.0
 0022500,0.00037249,0.00190979,0.00002492,-0.00007980,-0.00027803,-0.00
 051882,0.00015611,-0.00018123,0.00074392,0.00043158,-0.00034302,0.0140
 6125,0.09086604,-0.00009449,-0.00007085,-0.00012778,-0.00000781,0.0004
 9569,0.00092180,0.00324845,0.00484748,-0.00120261,-0.00804410,-0.00617
 763,-0.02091831,-0.03848539,-0.08481714,-0.39460102,-0.00495704,0.0002
 5748,-0.00464092,0.00103016,-0.00161214,0.00153200,0.00020977,0.000047
 89,0.00019856,-0.00001258,-0.00000045,0.00004440,0.00005278,0.00001475
 ,0.00003510,0.00004867,-0.00001852,0.00001348,-0.00008338,-0.00002483,
 0.00014205,-0.00033688,-0.00059043,-0.00142764,0.00001617,0.00005658,0
 .00035339,0.00027857,-0.00094503,0.00113386,-0.00047372,0.00024088,0.0
 0086392,0.04782580,0.08717420,0.41690934,-0.00100857,-0.00056906,0.000
 07584,-0.00075930,0.00000992,0.00024869,0.00010422,0.00025384,0.000036
 37,0.00178435,-0.00217512,0.00171494,-0.01500560,0.01501367,0.00217622
 ,-0.26645702,-0.00323263,-0.02760947,-0.00893352,-0.00117507,-0.000776
 86,0.00104479,-0.00071034,-0.00225956,0.00036789,0.00002706,0.00047934
 ,0.00073751,0.00032350,0.00119961,0.00007115,0.00003238,0.00007740,0.0
 0019667,-0.00003518,-0.00011911,0.00002661,0.00007351,-0.00015053,0.00
 004966,-0.00018385,0.00017248,0.00098166,0.00194372,-0.00162652,0.0004
 5237,0.00011732,0.00002227,0.00065460,0.00057815,0.00008087,0.29922018
 ,0.00007025,0.00048191,0.00029053,0.00029767,-0.00035913,0.00021323,-0
 .00040655,-0.00042732,0.00018280,0.00531891,0.00501426,-0.00326772,0.0
 3841810,-0.01665538,0.00199325,-0.00148004,-0.04977010,0.00274341,-0.0
 0953232,0.00016565,-0.00048755,-0.00027177,-0.00004816,-0.00261371,0.0
 0005900,-0.00004926,-0.00009042,-0.00013629,-0.00001133,0.00032791,-0.
 00002537,-0.00000885,0.00001062,-0.00004642,0.00002870,-0.00003986,-0.
 00003998,0.00010653,0.00025270,-0.00009755,-0.00004739,-0.00018101,-0.
 00250666,0.00063262,-0.00001989,-0.00056475,0.00013422,-0.00014584,-0.
 00020824,0.00081997,0.00106750,-0.00881450,0.05825894,0.00008200,-0.00
 008240,-0.00071278,-0.00045463,0.00004795,0.00116114,-0.00000603,0.000
 05853,-0.00027213,-0.00099081,0.00087080,-0.00048776,0.00823545,-0.003
 40247,0.00398728,-0.02486010,0.00194767,-0.05504085,-0.03171418,-0.001
 50256,-0.00356087,0.00046049,-0.00101801,-0.00616359,0.00022323,0.0000
 6728,0.00018457,0.00091439,0.00048896,-0.00089472,0.00001681,0.0000014
 4,0.00000956,0.00014554,-0.00012279,0.00012952,-0.00000639,0.00013389,
 0.00005205,0.00008790,-0.00008128,-0.00000114,-0.00049374,-0.00023986,
 0.00015309,0.00006838,0.00000152,-0.00007583,0.00080246,0.00025142,0.0
 0038414,0.02803590,0.00262400,0.05694742,-0.00024523,-0.00021975,-0.00
 021625,-0.00048855,-0.00037427,-0.00174220,-0.00003244,0.00001434,0.00
 007842,-0.00035499,0.00171752,0.00072187,0.00561644,0.01087166,-0.0104
 9804,-0.09540439,-0.06910257,0.07401444,0.00257768,0.00511967,-0.00618
 673,0.00067004,0.00070103,-0.00085438,0.00015786,0.00004284,0.00018532
 ,0.00045779,0.00019579,0.00007120,0.00004863,0.00004904,0.00009013,0.0
 0027869,0.00027515,-0.00029153,0.00001237,-0.00005269,-0.00005943,0.00
 001395,-0.00000435,0.00000067,0.00049677,0.00050347,-0.00021898,0.0005
 2972,0.00041588,-0.00020986,0.00041588,-0.00088606,-0.00008590,-0.0141
 1751,-0.01909655,0.02102125,0.09911544,-0.00019913,0.00007303,-0.00004
 546,-0.00087886,-0.00016665,-0.00226694,-0.00010096,-0.00008341,-0.000
 61553,0.00348932,-0.00462609,-0.00390406,-0.01099544,-0.02747444,0.023
 25428,-0.06316563,-0.14381678,0.10077996,0.00372129,0.00692893,-0.0059
 3359,0.00023989,0.00035507,-0.00024389,0.00003375,-0.00000680,-0.00001
 852,0.00001541,-0.00006855,0.00012049,-0.00001389,0.00002598,0.0000215
 2,0.00020404,0.00058487,-0.00050855,0.00000967,0.00012190,0.00017213,0
 .00004332,0.00003331,0.00008309,-0.00010267,0.00011452,-0.00012190,-0.
 00064504,-0.00148776,0.00137663,-0.00081602,0.00071519,-0.00005606,-0.
 00114837,0.00115959,0.00040517,0.06978111,0.16696008,-0.00064898,0.000
 05077,0.00003810,-0.00276560,-0.00392296,-0.00415355,0.00018829,-0.000
 74547,0.00016240,0.00020202,-0.00197013,0.00073713,-0.00319963,-0.0056
 9439,0.00587644,0.07071087,0.10692479,-0.15892574,0.01231880,0.0195592
 1,-0.02186067,0.00130150,0.00121910,0.00126532,0.00019881,0.00005387,0
 .00005510,0.00013775,0.00001967,0.00017733,0.00004221,-0.00002484,-0.0
 0003686,0.00060867,0.00132781,-0.00145243,0.00004314,0.00011731,0.0000
 7751,-0.00006469,0.00011194,0.00000322,0.00010186,0.00003218,-0.000083
 75,0.00000855,-0.00037709,0.00028126,-0.00047896,0.00049786,0.00080975
 ,-0.00164995,-0.00244350,0.00288989,-0.07640031,-0.11317190,0.17275683
 ,0.00055486,-0.00156138,0.00016259,0.00307544,-0.00928305,-0.00082733,
 -0.00066352,-0.00174390,0.00156898,-0.00008557,0.00024445,0.00003423,0
 .00048209,-0.00040563,-0.00193543,0.00250941,-0.00748325,-0.00187774,-
 0.10009674,0.10229090,0.01999492,-0.02021511,0.02826227,0.00647884,0.0
 0006320,-0.00003687,-0.00017061,0.00001998,-0.00003140,-0.00010334,0.0
 0022336,-0.00009526,0.00022381,0.00001676,0.00037212,-0.00017908,0.000
 32073,-0.00061603,-0.00012654,0.00009278,-0.00016537,0.00007855,-0.000
 01217,0.00000563,-0.00000514,-0.00001125,0.00001344,0.00003890,0.00036
 070,-0.00044616,-0.00020749,0.00062774,-0.00026649,0.00044755,-0.00003
 718,0.00021680,0.00030737,0.11662591,0.00130444,0.00047224,-0.00136218
 ,0.00863241,-0.02252086,-0.00307818,-0.00226217,-0.00076691,0.00432287
 ,0.00041361,0.00076004,0.00035774,-0.00077134,0.00102981,-0.00266052,0
 .00529273,-0.00939022,-0.00096335,0.10024510,-0.23140968,-0.03864151,-
 0.00354012,0.00489332,0.00115662,0.00011606,0.00067209,0.00004542,-0.0
 0022163,-0.00006454,0.00001133,-0.00108815,0.00069060,0.00065199,0.000
 16641,0.00040722,0.00033001,0.00039362,-0.00145995,-0.00036994,0.00007
 492,0.00006760,0.00002295,-0.00016896,-0.00007417,-0.00009587,-0.00001
 125,0.00000424,-0.00006748,-0.00005621,-0.00068245,0.00005468,-0.00071
 142,0.00028788,-0.00000006,0.00005306,0.00044701,-0.00040954,-0.107319
 02,0.25435174,-0.00088596,0.00053082,0.00105288,-0.00843561,0.02097325
 ,0.00330357,0.00209509,0.00218412,-0.00312959,0.00022461,0.00063205,-0
 .00106631,-0.00157568,-0.00123444,-0.00700905,0.01516786,-0.02786252,-
 0.00463265,0.01878182,-0.03720796,-0.05623842,-0.00196967,0.00310188,0
 .00080181,-0.00029621,-0.00015907,0.00000922,0.00021136,-0.00013243,-0
 .00003913,0.00032920,-0.00023834,-0.00015514,-0.00038316,-0.00055935,0
 .00037218,-0.00033360,0.00138916,0.00047001,-0.00004438,-0.00017532,-0
 .00005233,-0.00008708,-0.00014817,0.00023186,-0.00008169,-0.00012127,0
 .00021988,0.00018230,-0.00225537,-0.00041888,-0.00039783,0.00024279,0.
 00133751,0.00053666,0.00066334,0.00076078,-0.02284576,0.04061959,0.063
 20208,0.00002184,-0.00010128,0.00013259,0.00102020,0.00097174,-0.00031
 516,-0.00086821,0.00004154,0.00000278,-0.00029323,-0.00059383,0.000211
 59,0.00090225,-0.00033867,0.00025367,0.00057253,0.00159541,0.00113044,
 -0.01791600,0.02840957,0.00790874,-0.11697238,0.11151879,0.03526819,-0
 .00008659,-0.00017510,0.00004829,0.00001369,0.00003879,-0.00004508,0.0
 0020400,-0.00017956,-0.00012410,-0.00001689,-0.00021638,0.00016805,0.0
 0034860,-0.00011172,0.00000412,0.00042490,-0.00081700,0.00033344,0.000
 23345,0.00013555,-0.00002688,-0.00000514,0.00001150,-0.00002377,0.0004
 7905,-0.00014253,0.00000027,0.00035770,-0.00025140,-0.00001070,0.00001
 957,-0.00010208,-0.00022522,-0.00650512,-0.00173099,-0.00078929,0.1298
 0886,0.00005654,0.00007509,-0.00007401,0.00046597,0.00035715,0.0003328
 5,-0.00013343,-0.00054685,0.00000175,-0.00029965,-0.00002945,-0.000087
 57,-0.00146110,-0.00068322,-0.00051615,0.00064571,-0.00020635,-0.00061
 722,-0.00191331,0.00562882,0.00236341,0.11347913,-0.22488871,-0.054848
 04,0.00004053,-0.00001502,-0.00001556,0.00002357,-0.00000525,-0.000011
 92,0.00000969,-0.00000323,0.00000383,0.00010115,-0.00006971,0.00002425
 ,-0.00002832,0.00012058,0.00003800,-0.00087023,-0.00066653,0.00047629,
 -0.00010467,-0.00008285,-0.00000003,-0.00000462,0.00000230,-0.00000100
 ,0.00017762,0.00012675,0.00005399,0.00018517,-0.00005637,0.00016660,0.
 00009720,-0.00009022,-0.00003361,-0.00158785,0.00109117,-0.00028961,-0
 .12336772,0.24485211,0.00004901,0.00007884,-0.00000015,0.00013641,-0.0
 0043515,-0.00006370,0.00059333,-0.00019400,0.00033054,-0.00025513,-0.0
 0045990,0.00065460,-0.00014458,-0.00014843,-0.00056899,-0.00032162,0.0
 0086277,0.00010030,-0.00145182,0.00293827,0.00057433,0.03667767,-0.055
 92690,-0.06534319,0.00000306,0.00000302,-0.00002018,-0.00004680,-0.000
 00539,-0.00001115,-0.00004566,0.00002974,-0.00001235,0.00009981,-0.000
 09553,-0.00001409,-0.00019462,-0.00002002,-0.00012090,-0.00011026,0.00
 067453,-0.00009944,0.00009797,0.00011447,-0.00026344,0.00001619,0.0000
 4765,-0.00003429,0.00012221,0.00009114,-0.00001714,0.00031878,-0.00016
 436,0.00004542,0.00000273,0.00004079,-0.00002836,-0.00101409,-0.000096
 63,0.00065199,-0.03948651,0.06070432,0.06583044,0.00017064,0.00029097,
 0.00013305,0.00123640,0.00069848,-0.00203056,0.00002810,-0.00007407,0.
 00010618,0.00006926,0.00025596,-0.00019392,0.00070617,0.00011688,0.000
 28893,-0.00714601,-0.00005180,0.00123007,-0.00773470,-0.00960445,-0.03
 116050,-0.05972566,-0.01468194,-0.05477362,0.00005467,0.00001348,0.000
 02429,0.00022734,0.00004048,-0.00000766,-0.00007419,0.00002039,-0.0000
 1368,0.00019441,-0.00029784,0.00118123,0.00003043,-0.00004154,0.000018
 78,0.00001821,-0.00003089,0.00003485,0.00000746,0.00004119,-0.00000870
 ,-0.00001142,-0.00006717,0.00008739,-0.00001402,-0.00013303,0.00002414
 ,-0.00071011,-0.00087943,-0.00206106,0.00003875,0.00019563,0.00024743,
 0.00123031,0.00063445,0.00027102,0.00375648,0.00255429,0.01628468,0.06
 634090,0.00005574,0.00006925,0.00022373,-0.00015915,0.00020064,-0.0013
 0969,0.00006004,-0.00017616,0.00013299,0.00014989,0.00039946,-0.000292
 90,-0.00074697,0.00004375,-0.00019591,-0.00075937,-0.00016888,0.000322
 76,-0.00061852,-0.00244919,-0.00383851,-0.01479219,-0.06400885,-0.0622
 2315,-0.00001493,-0.00002282,-0.00000366,0.00012159,-0.00001062,0.0000
 0011,0.00002266,-0.00002827,-0.00001644,-0.00029565,-0.00008433,0.0006
 0066,-0.00003865,-0.00002374,0.00002813,0.00000039,-0.00006123,-0.0000
 7760,-0.00006738,-0.00007674,0.00012519,-0.00000360,-0.00000879,0.0000
 4108,-0.00008252,0.00002163,0.00003896,0.00010072,0.00010235,-0.000350
 43,0.00009691,0.00011454,-0.00033151,-0.00011949,0.00024964,0.00041034
 ,-0.00708228,-0.00561250,-0.02531612,0.01796773,0.06482803,-0.00001296
 ,-0.00005861,0.00043915,0.00076453,0.00057899,0.00030764,0.00001461,-0
 .00009023,0.00009604,0.00010825,0.00025780,-0.00029487,-0.00029574,-0.
 00001988,0.00016787,-0.00079771,0.00065946,0.00100107,0.00025704,-0.00
 012207,-0.00290290,-0.05631420,-0.06286345,-0.27606897,-0.00007846,-0.
 00002076,0.00003813,0.00019957,0.00004267,0.00002279,-0.00002248,0.000
 01799,-0.00002331,0.00006492,-0.00023206,0.00078733,-0.00004305,-0.000
 02638,0.00003308,-0.00004257,-0.00003541,-0.00010373,-0.00006549,-0.00
 005538,0.00008529,0.,-0.00005923,0.00005406,0.00002595,-0.00001885,0.0
 0002577,-0.00008768,-0.00044637,-0.00025370,0.00014260,-0.00008458,0.0
 0048410,-0.00050146,0.00029874,0.00024891,-0.00153671,-0.00079674,-0.0
 0687674,0.06226336,0.06867278,0.30045316,0.00000072,-0.00164973,0.0012
 2733,-0.00633973,0.00051521,-0.00227641,-0.00043593,0.00046604,0.00015
 970,-0.00003657,-0.00008356,0.00026763,0.00014297,0.00019084,-0.000209
 36,0.00102957,-0.00025623,0.00171461,-0.01001424,-0.02570453,0.0205525
 6,-0.06448627,-0.05190524,0.04141872,-0.00073854,0.00001684,0.00018848
 ,-0.00007134,-0.00001538,-0.00007028,0.00003647,0.00007637,0.00001467,
 0.00002627,0.00028308,-0.00011687,0.00015784,-0.00019195,0.00001356,0.
 00024349,-0.00025414,0.00000017,0.00008359,0.00001861,0.00003351,0.000
 01102,0.00001030,-0.00010800,-0.00000838,-0.00004509,-0.00002686,0.000
 31454,0.00046040,0.00005628,0.00023070,0.00021786,-0.00098390,0.001423
 39,0.00055448,0.00032602,0.00450045,0.01193434,-0.01133074,0.00130659,
 0.00620504,-0.00404233,0.07262340,0.00018877,-0.00031045,0.00035068,-0
 .00088539,0.00135560,-0.00080468,0.00046723,0.00014259,0.00011158,0.00
 006731,0.00009347,0.00029123,0.00012865,0.00004062,-0.00081074,0.00011
 638,-0.00037308,0.00090899,-0.00043506,-0.00406731,0.00248507,-0.05317
 158,-0.19210891,0.11766136,-0.00018431,0.00001791,0.00000801,-0.000048
 92,-0.00001579,-0.00002816,-0.00002965,0.00003171,0.00000298,0.0001868
 8,0.00000277,0.00006673,-0.00014639,0.00002432,-0.00002333,-0.00027643
 ,0.00022942,-0.00009802,-0.00003659,0.00002096,-0.00011617,0.00001760,
 0.00001753,-0.00005404,-0.00028852,-0.00005187,-0.00003700,0.00009658,
 0.00024067,-0.00026538,-0.00019841,0.00018668,-0.00078956,-0.00024445,
 0.00094420,-0.00036349,-0.00751236,-0.01929773,0.01727688,0.00303224,0
 .00670283,-0.00559844,0.05915644,0.20617384,-0.00006641,0.00020996,0.0
 0044495,-0.00016768,-0.00033911,-0.00008847,0.00015217,-0.00015351,0.0
 0006668,0.00004533,0.00009476,-0.00002597,0.00011474,-0.00001897,-0.00
 022679,-0.00042541,-0.00055895,0.00091676,-0.00118797,-0.00293763,0.00
 038213,0.04274056,0.11755443,-0.14183956,-0.00001100,0.00003260,0.0000
 2257,0.00018398,0.00000374,-0.00000918,-0.00001982,-0.00002358,-0.0000
 2065,0.00001232,-0.00011772,0.00070453,-0.00003845,0.00005806,-0.00000
 926,-0.00006894,-0.00001391,-0.00006442,-0.00000852,0.00001315,0.00000
 875,-0.00000487,0.00001994,0.00003271,-0.00001250,-0.00001248,-0.00001
 328,0.00003879,-0.00004851,0.00018178,-0.00010166,0.00005357,0.0001662
 0,0.00045827,-0.00012670,0.00007880,-0.00287873,-0.00687384,0.00528650
 ,0.00805429,0.02335920,-0.01772015,-0.04680851,-0.13017450,0.15172535\
 \0.00001262,0.00000112,-0.00000783,0.00000824,0.00000727,0.00003872,-0
 .00000951,-0.00003248,-0.00001370,-0.00004863,-0.00004371,0.00004184,0
 .00006029,-0.00003721,-0.00007218,-0.00005364,0.00007873,0.00000351,0.
 00000029,0.00003171,-0.00002169,-0.00000574,-0.00000262,-0.00000215,-0
 .00000031,-0.00000007,-0.00000808,-0.00000937,0.00000023,0.00000189,-0
 .00000211,-0.00000624,-0.00000382,0.00000164,0.00000080,0.00000273,0.0
 0000926,0.00001068,0.00000682,-0.00000380,-0.00000059,-0.00000309,0.00
 002176,0.00001002,-0.00001041,-0.00000236,0.00002080,0.00000762,-0.000
 00078,0.00001414,0.00002491,0.00002543,-0.00001531,-0.00000438,-0.0000
 0566,-0.00001204,0.00001336,0.00000175,-0.00001669,0.00000268,-0.00000
 092,-0.00000025,-0.00000081,0.00000396,0.00000150,0.00000062,-0.000002
 40,-0.00000978,0.00000342\\\@


 WORK FAITHFULLY FOR EIGHT HOURS A DAY AND DON'T WORRY.
 IN TIME YOU MAY BECOME BOSS AND WORK TWELVE HOURS A DAY
 AND HAVE ALL THE WORRY.
 Job cpu time:       0 days  2 hours 18 minutes 29.4 seconds.
 Elapsed time:       0 days  0 hours 34 minutes 41.2 seconds.
 File lengths (MBytes):  RWF=    153 Int=      0 D2E=      0 Chk=      9 Scr=      1
 Normal termination of Gaussian 16 at Sun Jul  3 20:01:28 2022.
### All Done ###
