### Starting Gaussian ###
 Entering Gaussian System, Link 0=g16
 Initial command:
 /cluster/software/gaussian/gaussian-16-A.03/avx2/g16/l1.exe "/local/scratch/ks29c/Gau-6837.inp" -scrdir="/local/scratch/ks29c/"
 Entering Link 1 = /cluster/software/gaussian/gaussian-16-A.03/avx2/g16/l1.exe PID=      6838.
  
 Copyright (c) 1988,1990,1992,1993,1995,1998,2003,2009,2016,
            Gaussian, Inc.  All Rights Reserved.
  
 This is part of the Gaussian(R) 16 program.  It is based on
 the Gaussian(R) 09 system (copyright 2009, Gaussian, Inc.),
 the Gaussian(R) 03 system (copyright 2003, Gaussian, Inc.),
 the Gaussian(R) 98 system (copyright 1998, Gaussian, Inc.),
 the Gaussian(R) 94 system (copyright 1995, Gaussian, Inc.),
 the Gaussian 92(TM) system (copyright 1992, Gaussian, Inc.),
 the Gaussian 90(TM) system (copyright 1990, Gaussian, Inc.),
 the Gaussian 88(TM) system (copyright 1988, Gaussian, Inc.),
 the Gaussian 86(TM) system (copyright 1986, Carnegie Mellon
 University), and the Gaussian 82(TM) system (copyright 1983,
 Carnegie Mellon University). Gaussian is a federally registered
 trademark of Gaussian, Inc.
  
 This software contains proprietary and confidential information,
 including trade secrets, belonging to Gaussian, Inc.
  
 This software is provided under written license and may be
 used, copied, transmitted, or stored only in accord with that
 written license.
  
 The following legend is applicable only to US Government
 contracts under FAR:
  
                    RESTRICTED RIGHTS LEGEND
  
 Use, reproduction and disclosure by the US Government is
 subject to restrictions as set forth in subparagraphs (a)
 and (c) of the Commercial Computer Software - Restricted
 Rights clause in FAR 52.227-19.
  
 Gaussian, Inc.
 340 Quinnipiac St., Bldg. 40, Wallingford CT 06492
  
  
 ---------------------------------------------------------------
 Warning -- This program may not be used in any manner that
 competes with the business of Gaussian, Inc. or will provide
 assistance to any competitor of Gaussian, Inc.  The licensee
 of this program is prohibited from giving any competitor of
 Gaussian, Inc. access to this program.  By using this program,
 the user acknowledges that Gaussian, Inc. is engaged in the
 business of creating and licensing software in the field of
 computational chemistry and represents and warrants to the
 licensee that it is not a competitor of Gaussian, Inc. and that
 it will not use this program in any manner prohibited above.
 ---------------------------------------------------------------
  

 Cite this work as:
 Gaussian 16, Revision A.03,
 M. J. Frisch, G. W. Trucks, H. B. Schlegel, G. E. Scuseria, 
 M. A. Robb, J. R. Cheeseman, G. Scalmani, V. Barone, 
 G. A. Petersson, H. Nakatsuji, X. Li, M. Caricato, A. V. Marenich, 
 J. Bloino, B. G. Janesko, R. Gomperts, B. Mennucci, H. P. Hratchian, 
 J. V. Ortiz, A. F. Izmaylov, J. L. Sonnenberg, D. Williams-Young, 
 F. Ding, F. Lipparini, F. Egidi, J. Goings, B. Peng, A. Petrone, 
 T. Henderson, D. Ranasinghe, V. G. Zakrzewski, J. Gao, N. Rega, 
 G. Zheng, W. Liang, M. Hada, M. Ehara, K. Toyota, R. Fukuda, 
 J. Hasegawa, M. Ishida, T. Nakajima, Y. Honda, O. Kitao, H. Nakai, 
 T. Vreven, K. Throssell, J. A. Montgomery, Jr., J. E. Peralta, 
 F. Ogliaro, M. J. Bearpark, J. J. Heyd, E. N. Brothers, K. N. Kudin, 
 V. N. Staroverov, T. A. Keith, R. Kobayashi, J. Normand, 
 K. Raghavachari, A. P. Rendell, J. C. Burant, S. S. Iyengar, 
 J. Tomasi, M. Cossi, J. M. Millam, M. Klene, C. Adamo, R. Cammi, 
 J. W. Ochterski, R. L. Martin, K. Morokuma, O. Farkas, 
 J. B. Foresman, and D. J. Fox, Gaussian, Inc., Wallingford CT, 2016.
 
 ******************************************
 Gaussian 16:  ES64L-G16RevA.03 25-Dec-2016
                 4-Aug-2022 
 ******************************************
 %chk=CC1CNCCpOOpC1.chk
 %NProcShared=20
 Will use up to   20 processors via shared memory.
 -----------------------------
 # opt freq b3lyp/6-31g(2df,p)
 -----------------------------
 1/18=20,19=15,26=3,38=1/1,3;
 2/9=110,12=2,17=6,18=5,40=1/2;
 3/5=1,6=6,7=104,11=2,25=1,30=1,71=1,74=-5/1,2,3;
 4//1;
 5/5=2,38=5/2;
 6/7=2,8=2,9=2,10=2,28=1/1;
 7//1,2,3,16;
 1/18=20,19=15,26=3/3(2);
 2/9=110/2;
 99//99;
 2/9=110/2;
 3/5=1,6=6,7=104,11=2,25=1,30=1,71=1,74=-5/1,2,3;
 4/5=5,16=3,69=1/1;
 5/5=2,38=5/2;
 7//1,2,3,16;
 1/18=20,19=15,26=3/3(-5);
 2/9=110/2;
 6/7=2,8=2,9=2,10=2,19=2,28=1/1;
 99/9=1/99;
 -------------------
 Title Card Required
 -------------------
 Symbolic Z-matrix:
 Charge =  0 Multiplicity = 1
 C                     1.03858  -0.00968   0.02509 
 C                     2.56939  -0.03309  -0.06738 
 C                     3.09544  -1.4182   -0.47816 
 N                     2.71006  -1.78645  -1.84495 
 C                     3.17679  -0.77609  -2.80886 
 C                     2.69983   0.6558   -2.49595 
 O                     3.3121    1.56978  -3.41237 
 O                     2.63132   2.84463  -3.21249 
 C                     3.08077   1.01957  -1.0572 
 H                     0.68538  -0.73991   0.75936 
 H                     0.55483  -0.24719  -0.92748 
 H                     0.68618   0.98081   0.33023 
 H                     2.96685   0.20827   0.92662 
 H                     2.72146  -2.17963   0.21591 
 H                     4.18989  -1.44074  -0.39569 
 H                     1.6932   -1.84981  -1.89736 
 H                     2.83588  -1.06078  -3.81123 
 H                     4.27278  -0.80254  -2.85912 
 H                     1.61344   0.70757  -2.63675 
 H                     3.1697    3.35273  -3.8498 
 H                     2.70073   2.01313  -0.79259 
 H                     4.17479   1.09651  -0.9854 
 

 GradGradGradGradGradGradGradGradGradGradGradGradGradGradGradGradGradGrad
 Berny optimization.
 Initialization pass.
                           ----------------------------
                           !    Initial Parameters    !
                           ! (Angstroms and Degrees)  !
 --------------------------                            --------------------------
 ! Name  Definition              Value          Derivative Info.                !
 --------------------------------------------------------------------------------
 ! R1    R(1,2)                  1.5338         estimate D2E/DX2                !
 ! R2    R(1,10)                 1.0941         estimate D2E/DX2                !
 ! R3    R(1,11)                 1.0944         estimate D2E/DX2                !
 ! R4    R(1,12)                 1.0947         estimate D2E/DX2                !
 ! R5    R(2,3)                  1.5375         estimate D2E/DX2                !
 ! R6    R(2,9)                  1.5328         estimate D2E/DX2                !
 ! R7    R(2,13)                 1.0974         estimate D2E/DX2                !
 ! R8    R(3,4)                  1.4671         estimate D2E/DX2                !
 ! R9    R(3,14)                 1.0961         estimate D2E/DX2                !
 ! R10   R(3,15)                 1.0978         estimate D2E/DX2                !
 ! R11   R(4,5)                  1.4723         estimate D2E/DX2                !
 ! R12   R(4,16)                 1.0202         estimate D2E/DX2                !
 ! R13   R(5,6)                  1.5413         estimate D2E/DX2                !
 ! R14   R(5,17)                 1.0964         estimate D2E/DX2                !
 ! R15   R(5,18)                 1.0975         estimate D2E/DX2                !
 ! R16   R(6,7)                  1.4318         estimate D2E/DX2                !
 ! R17   R(6,9)                  1.5321         estimate D2E/DX2                !
 ! R18   R(6,19)                 1.0967         estimate D2E/DX2                !
 ! R19   R(7,8)                  1.459          estimate D2E/DX2                !
 ! R20   R(8,20)                 0.9768         estimate D2E/DX2                !
 ! R21   R(9,21)                 1.0962         estimate D2E/DX2                !
 ! R22   R(9,22)                 1.0991         estimate D2E/DX2                !
 ! A1    A(2,1,10)             110.6378         estimate D2E/DX2                !
 ! A2    A(2,1,11)             112.6663         estimate D2E/DX2                !
 ! A3    A(2,1,12)             110.604          estimate D2E/DX2                !
 ! A4    A(10,1,11)            107.2522         estimate D2E/DX2                !
 ! A5    A(10,1,12)            108.2334         estimate D2E/DX2                !
 ! A6    A(11,1,12)            107.2581         estimate D2E/DX2                !
 ! A7    A(1,2,3)              111.7979         estimate D2E/DX2                !
 ! A8    A(1,2,9)              111.1886         estimate D2E/DX2                !
 ! A9    A(1,2,13)             107.6691         estimate D2E/DX2                !
 ! A10   A(3,2,9)              109.391          estimate D2E/DX2                !
 ! A11   A(3,2,13)             108.4342         estimate D2E/DX2                !
 ! A12   A(9,2,13)             108.243          estimate D2E/DX2                !
 ! A13   A(2,3,4)              112.6539         estimate D2E/DX2                !
 ! A14   A(2,3,14)             109.8711         estimate D2E/DX2                !
 ! A15   A(2,3,15)             109.848          estimate D2E/DX2                !
 ! A16   A(4,3,14)             109.0232         estimate D2E/DX2                !
 ! A17   A(4,3,15)             109.0703         estimate D2E/DX2                !
 ! A18   A(14,3,15)            106.1605         estimate D2E/DX2                !
 ! A19   A(3,4,5)              110.7574         estimate D2E/DX2                !
 ! A20   A(3,4,16)             108.983          estimate D2E/DX2                !
 ! A21   A(5,4,16)             108.9628         estimate D2E/DX2                !
 ! A22   A(4,5,6)              113.9851         estimate D2E/DX2                !
 ! A23   A(4,5,17)             108.7713         estimate D2E/DX2                !
 ! A24   A(4,5,18)             109.2698         estimate D2E/DX2                !
 ! A25   A(6,5,17)             109.3062         estimate D2E/DX2                !
 ! A26   A(6,5,18)             109.9207         estimate D2E/DX2                !
 ! A27   A(17,5,18)            105.2126         estimate D2E/DX2                !
 ! A28   A(5,6,7)              109.3145         estimate D2E/DX2                !
 ! A29   A(5,6,9)              109.528          estimate D2E/DX2                !
 ! A30   A(5,6,19)             108.9248         estimate D2E/DX2                !
 ! A31   A(7,6,9)              110.0691         estimate D2E/DX2                !
 ! A32   A(7,6,19)             108.1374         estimate D2E/DX2                !
 ! A33   A(9,6,19)             110.8332         estimate D2E/DX2                !
 ! A34   A(6,7,8)              105.6975         estimate D2E/DX2                !
 ! A35   A(7,8,20)              96.1971         estimate D2E/DX2                !
 ! A36   A(2,9,6)              111.125          estimate D2E/DX2                !
 ! A37   A(2,9,21)             110.544          estimate D2E/DX2                !
 ! A38   A(2,9,22)             109.7545         estimate D2E/DX2                !
 ! A39   A(6,9,21)             110.8351         estimate D2E/DX2                !
 ! A40   A(6,9,22)             108.9933         estimate D2E/DX2                !
 ! A41   A(21,9,22)            105.4193         estimate D2E/DX2                !
 ! D1    D(10,1,2,3)            59.395          estimate D2E/DX2                !
 ! D2    D(10,1,2,9)          -178.0209         estimate D2E/DX2                !
 ! D3    D(10,1,2,13)          -59.606          estimate D2E/DX2                !
 ! D4    D(11,1,2,3)           -60.6532         estimate D2E/DX2                !
 ! D5    D(11,1,2,9)            61.9309         estimate D2E/DX2                !
 ! D6    D(11,1,2,13)         -179.6542         estimate D2E/DX2                !
 ! D7    D(12,1,2,3)           179.3148         estimate D2E/DX2                !
 ! D8    D(12,1,2,9)           -58.1011         estimate D2E/DX2                !
 ! D9    D(12,1,2,13)           60.3138         estimate D2E/DX2                !
 ! D10   D(1,2,3,4)             66.2422         estimate D2E/DX2                !
 ! D11   D(1,2,3,14)           -55.5209         estimate D2E/DX2                !
 ! D12   D(1,2,3,15)          -171.9509         estimate D2E/DX2                !
 ! D13   D(9,2,3,4)            -57.3617         estimate D2E/DX2                !
 ! D14   D(9,2,3,14)          -179.1248         estimate D2E/DX2                !
 ! D15   D(9,2,3,15)            64.4452         estimate D2E/DX2                !
 ! D16   D(13,2,3,4)          -175.2109         estimate D2E/DX2                !
 ! D17   D(13,2,3,14)           63.0261         estimate D2E/DX2                !
 ! D18   D(13,2,3,15)          -53.404          estimate D2E/DX2                !
 ! D19   D(1,2,9,6)            -68.5411         estimate D2E/DX2                !
 ! D20   D(1,2,9,21)            54.963          estimate D2E/DX2                !
 ! D21   D(1,2,9,22)           170.8298         estimate D2E/DX2                !
 ! D22   D(3,2,9,6)             55.4214         estimate D2E/DX2                !
 ! D23   D(3,2,9,21)           178.9256         estimate D2E/DX2                !
 ! D24   D(3,2,9,22)           -65.2076         estimate D2E/DX2                !
 ! D25   D(13,2,9,6)           173.3902         estimate D2E/DX2                !
 ! D26   D(13,2,9,21)          -63.1056         estimate D2E/DX2                !
 ! D27   D(13,2,9,22)           52.7612         estimate D2E/DX2                !
 ! D28   D(2,3,4,5)             56.8935         estimate D2E/DX2                !
 ! D29   D(2,3,4,16)           -62.966          estimate D2E/DX2                !
 ! D30   D(14,3,4,5)           179.1356         estimate D2E/DX2                !
 ! D31   D(14,3,4,16)           59.2761         estimate D2E/DX2                !
 ! D32   D(15,3,4,5)           -65.3527         estimate D2E/DX2                !
 ! D33   D(15,3,4,16)          174.7878         estimate D2E/DX2                !
 ! D34   D(3,4,5,6)            -55.4022         estimate D2E/DX2                !
 ! D35   D(3,4,5,17)          -177.638          estimate D2E/DX2                !
 ! D36   D(3,4,5,18)            68.0057         estimate D2E/DX2                !
 ! D37   D(16,4,5,6)            64.4695         estimate D2E/DX2                !
 ! D38   D(16,4,5,17)          -57.7663         estimate D2E/DX2                !
 ! D39   D(16,4,5,18)         -172.1226         estimate D2E/DX2                !
 ! D40   D(4,5,6,7)            174.4434         estimate D2E/DX2                !
 ! D41   D(4,5,6,9)             53.7719         estimate D2E/DX2                !
 ! D42   D(4,5,6,19)           -67.5952         estimate D2E/DX2                !
 ! D43   D(17,5,6,7)           -63.6152         estimate D2E/DX2                !
 ! D44   D(17,5,6,9)           175.7133         estimate D2E/DX2                !
 ! D45   D(17,5,6,19)           54.3462         estimate D2E/DX2                !
 ! D46   D(18,5,6,7)            51.3891         estimate D2E/DX2                !
 ! D47   D(18,5,6,9)           -69.2824         estimate D2E/DX2                !
 ! D48   D(18,5,6,19)          169.3505         estimate D2E/DX2                !
 ! D49   D(5,6,7,8)            169.9065         estimate D2E/DX2                !
 ! D50   D(9,6,7,8)            -69.7526         estimate D2E/DX2                !
 ! D51   D(19,6,7,8)            51.453          estimate D2E/DX2                !
 ! D52   D(5,6,9,2)            -53.4021         estimate D2E/DX2                !
 ! D53   D(5,6,9,21)          -176.7397         estimate D2E/DX2                !
 ! D54   D(5,6,9,22)            67.675          estimate D2E/DX2                !
 ! D55   D(7,6,9,2)           -173.6141         estimate D2E/DX2                !
 ! D56   D(7,6,9,21)            63.0484         estimate D2E/DX2                !
 ! D57   D(7,6,9,22)           -52.5369         estimate D2E/DX2                !
 ! D58   D(19,6,9,2)            66.8068         estimate D2E/DX2                !
 ! D59   D(19,6,9,21)          -56.5308         estimate D2E/DX2                !
 ! D60   D(19,6,9,22)         -172.116          estimate D2E/DX2                !
 ! D61   D(6,7,8,20)           177.4129         estimate D2E/DX2                !
 --------------------------------------------------------------------------------
 Trust Radius=3.00D-01 FncErr=1.00D-07 GrdErr=1.00D-06 EigMax=2.50D+02 EigMin=1.00D-04
 Number of steps in this run=    132 maximum allowed number of steps=    132.
 GradGradGradGradGradGradGradGradGradGradGradGradGradGradGradGradGradGrad

                          Input orientation:                          
 ---------------------------------------------------------------------
 Center     Atomic      Atomic             Coordinates (Angstroms)
 Number     Number       Type             X           Y           Z
 ---------------------------------------------------------------------
      1          6           0        1.038580   -0.009680    0.025090
      2          6           0        2.569390   -0.033090   -0.067380
      3          6           0        3.095440   -1.418200   -0.478160
      4          7           0        2.710060   -1.786450   -1.844950
      5          6           0        3.176790   -0.776090   -2.808860
      6          6           0        2.699830    0.655800   -2.495950
      7          8           0        3.312100    1.569780   -3.412370
      8          8           0        2.631320    2.844630   -3.212490
      9          6           0        3.080770    1.019570   -1.057200
     10          1           0        0.685380   -0.739910    0.759360
     11          1           0        0.554830   -0.247190   -0.927480
     12          1           0        0.686180    0.980810    0.330230
     13          1           0        2.966850    0.208270    0.926620
     14          1           0        2.721460   -2.179630    0.215910
     15          1           0        4.189890   -1.440740   -0.395690
     16          1           0        1.693200   -1.849810   -1.897360
     17          1           0        2.835880   -1.060780   -3.811230
     18          1           0        4.272780   -0.802540   -2.859120
     19          1           0        1.613440    0.707570   -2.636750
     20          1           0        3.169700    3.352730   -3.849800
     21          1           0        2.700730    2.013130   -0.792590
     22          1           0        4.174790    1.096510   -0.985400
 ---------------------------------------------------------------------
                    Distance matrix (angstroms):
                    1          2          3          4          5
     1  C    0.000000
     2  C    1.533779   0.000000
     3  C    2.543199   1.537530   0.000000
     4  N    3.073728   2.500763   1.467052   0.000000
     5  C    3.631886   2.904599   2.418902   1.472341   0.000000
     6  C    3.091643   2.527753   2.920524   2.527546   1.541335
     7  O    4.413583   3.782825   4.193394   3.752804   2.426034
     8  O    4.600634   4.263429   5.085635   4.829417   3.683757
     9  C    2.530069   1.532758   2.505639   2.937980   2.510364
    10  H    1.094138   2.175451   2.792834   3.460781   4.352083
    11  H    1.094447   2.200923   2.833346   2.802872   3.270168
    12  H    1.094699   2.175446   3.494750   4.060200   4.375354
    13  H    2.139739   1.097390   2.152986   3.424390   3.868701
    14  H    2.752668   2.170487   1.096070   2.098062   3.365484
    15  H    3.486509   2.171471   1.097784   2.099944   2.700282
    16  H    2.740515   2.723418   2.041248   1.020179   2.045665
    17  H    4.364911   3.891475   3.362213   2.099687   1.096364
    18  H    4.405377   3.359673   2.726561   2.106825   1.097461
    19  H    2.816080   2.839732   3.372645   2.837192   2.162159
    20  H    5.555380   5.111834   5.842537   5.535509   4.258023
    21  H    2.742828   2.174901   3.468240   3.942633   3.474439
    22  H    3.475710   2.167041   2.783174   3.346000   2.797792
                    6          7          8          9         10
     6  C    0.000000
     7  O    1.431803   0.000000
     8  O    2.304148   1.458991   0.000000
     9  C    1.532138   2.429623   2.859742   0.000000
    10  H    4.074685   5.444048   5.693084   3.483325   0.000000
    11  H    2.806513   4.132626   4.369489   2.828760   1.762171
    12  H    3.485357   4.609707   4.450647   2.767765   1.773423
    13  H    3.462018   4.560673   4.918862   2.146329   2.476313
    14  H    3.923559   5.250842   6.083193   3.461906   2.552206
    15  H    3.320670   4.351334   5.359841   2.778645   3.755914
    16  H    2.765808   4.075499   4.964615   3.296143   3.050531
    17  H    2.166822   2.702910   3.956332   3.460131   5.061413
    18  H    2.175504   2.618567   4.015110   2.826285   5.095759
    19  H    1.096699   2.056803   2.436100   2.178389   3.806581
    20  H    3.054033   1.841340   0.976823   3.640077   6.645743
    21  H    2.178022   2.726459   2.559712   1.096180   3.748255
    22  H    2.156732   2.618855   3.224617   1.099070   4.311915
                   11         12         13         14         15
    11  H    0.000000
    12  H    1.762689   0.000000
    13  H    3.076194   2.480717   0.000000
    14  H    3.120248   3.760826   2.503476   0.000000
    15  H    3.862774   4.320515   2.442041   1.753938   0.000000
    16  H    2.192018   3.740141   3.719239   2.373186   2.942076
    17  H    3.765784   5.093230   4.906614   4.181241   3.693728
    18  H    4.226440   5.120155   4.130256   3.709283   2.546106
    19  H    2.225719   3.120487   3.844298   4.207291   4.034313
    20  H    5.323244   5.409855   5.722147   6.880256   5.995750
    21  H    3.119636   2.526820   2.506795   4.312394   3.782109
    22  H    3.861735   3.730237   2.429796   3.780001   2.604923
                   16         17         18         19         20
    16  H    0.000000
    17  H    2.364569   0.000000
    18  H    2.945503   1.742952   0.000000
    19  H    2.663316   2.449658   3.066263   0.000000
    20  H    5.749652   4.426284   4.411859   3.300047   0.000000
    21  H    4.142214   4.310380   3.830129   2.507511   3.370607
    22  H    3.958631   3.798933   2.669610   3.072254   3.782264
                   21         22
    21  H    0.000000
    22  H    1.746488   0.000000
 Stoichiometry    C6H13NO2
 Framework group  C1[X(C6H13NO2)]
 Deg. of freedom    60
 Full point group                 C1      NOp   1
 Largest Abelian subgroup         C1      NOp   1
 Largest concise Abelian subgroup C1      NOp   1
                         Standard orientation:                         
 ---------------------------------------------------------------------
 Center     Atomic      Atomic             Coordinates (Angstroms)
 Number     Number       Type             X           Y           Z
 ---------------------------------------------------------------------
      1          6           0        1.587443   -1.612697   -0.808353
      2          6           0        1.318884   -0.891313    0.518281
      3          6           0        1.996679    0.487946    0.565577
      4          7           0        1.428608    1.430276   -0.404758
      5          6           0       -0.020360    1.585564   -0.194603
      6          6           0       -0.804235    0.258897   -0.229329
      7          8           0       -2.172126    0.507979    0.112566
      8          8           0       -2.884025   -0.731603   -0.179484
      9          6           0       -0.184958   -0.728065    0.765581
     10          1           0        2.661698   -1.755507   -0.959083
     11          1           0        1.209021   -1.059352   -1.673466
     12          1           0        1.106733   -2.596172   -0.816265
     13          1           0        1.734346   -1.509935    1.323862
     14          1           0        3.070687    0.382035    0.374107
     15          1           0        1.906503    0.913192    1.573627
     16          1           0        1.590660    1.074358   -1.347004
     17          1           0       -0.417576    2.261452   -0.961029
     18          1           0       -0.195000    2.098197    0.759928
     19          1           0       -0.775162   -0.144844   -1.248592
     20          1           0       -3.757519   -0.428259    0.135435
     21          1           0       -0.690479   -1.699506    0.716979
     22          1           0       -0.355680   -0.360593    1.787233
 ---------------------------------------------------------------------
 Rotational constants (GHZ):           2.6060278           1.1706259           0.9382417
 Standard basis: 6-31G(2df,p) (6D, 7F)
 There are   344 symmetry adapted cartesian basis functions of A   symmetry.
 There are   317 symmetry adapted basis functions of A   symmetry.
   317 basis functions,   487 primitive gaussians,   344 cartesian basis functions
    36 alpha electrons       36 beta electrons
       nuclear repulsion energy       504.0026068232 Hartrees.
 NAtoms=   22 NActive=   22 NUniq=   22 SFac= 1.00D+00 NAtFMM=   60 NAOKFM=F Big=F
 Integral buffers will be    131072 words long.
 Raffenetti 2 integral format.
 Two-electron integral symmetry is turned on.
 One-electron integrals computed using PRISM.
 PrsmSu:  requested number of processors reduced to:  13 ShMem   1 Linda.
 NBasis=   317 RedAO= T EigKep=  3.87D-04  NBF=   317
 NBsUse=   317 1.00D-06 EigRej= -1.00D+00 NBFU=   317
 ExpMin= 1.61D-01 ExpMax= 5.48D+03 ExpMxC= 8.25D+02 IAcc=3 IRadAn=         5 AccDes= 0.00D+00
 Harris functional with IExCor=  402 and IRadAn=       5 diagonalized for initial guess.
 HarFok:  IExCor=  402 AccDes= 0.00D+00 IRadAn=         5 IDoV= 1 UseB2=F ITyADJ=14
 ICtDFT=  3500011 ScaDFX=  1.000000  1.000000  1.000000  1.000000
 FoFCou: FMM=F IPFlag=           0 FMFlag=      100000 FMFlg1=           0
         NFxFlg=           0 DoJE=T BraDBF=F KetDBF=T FulRan=T
         wScrn=  0.000000 ICntrl=       500 IOpCl=  0 I1Cent=   200000004 NGrid=           0
         NMat0=    1 NMatS0=      1 NMatT0=    0 NMatD0=    1 NMtDS0=    0 NMtDT0=    0
 Petite list used in FoFCou.
 Requested convergence on RMS density matrix=1.00D-08 within 128 cycles.
 Requested convergence on MAX density matrix=1.00D-06.
 Requested convergence on             energy=1.00D-06.
 No special actions if energy rises.
 Integral accuracy reduced to 1.0D-05 until final iterations.
 Initial convergence to 1.0D-05 achieved.  Increase integral accuracy.
 SCF Done:  E(RB3LYP) =  -441.591627607     A.U. after   13 cycles
            NFock= 13  Conv=0.69D-08     -V/T= 2.0074

 **********************************************************************

            Population analysis using the SCF density.

 **********************************************************************

 Orbital symmetries:
       Occupied  (A) (A) (A) (A) (A) (A) (A) (A) (A) (A) (A) (A)
                 (A) (A) (A) (A) (A) (A) (A) (A) (A) (A) (A) (A)
                 (A) (A) (A) (A) (A) (A) (A) (A) (A) (A) (A) (A)
       Virtual   (A) (A) (A) (A) (A) (A) (A) (A) (A) (A) (A) (A)
                 (A) (A) (A) (A) (A) (A) (A) (A) (A) (A) (A) (A)
                 (A) (A) (A) (A) (A) (A) (A) (A) (A) (A) (A) (A)
                 (A) (A) (A) (A) (A) (A) (A) (A) (A) (A) (A) (A)
                 (A) (A) (A) (A) (A) (A) (A) (A) (A) (A) (A) (A)
                 (A) (A) (A) (A) (A) (A) (A) (A) (A) (A) (A) (A)
                 (A) (A) (A) (A) (A) (A) (A) (A) (A) (A) (A) (A)
                 (A) (A) (A) (A) (A) (A) (A) (A) (A) (A) (A) (A)
                 (A) (A) (A) (A) (A) (A) (A) (A) (A) (A) (A) (A)
                 (A) (A) (A) (A) (A) (A) (A) (A) (A) (A) (A) (A)
                 (A) (A) (A) (A) (A) (A) (A) (A) (A) (A) (A) (A)
                 (A) (A) (A) (A) (A) (A) (A) (A) (A) (A) (A) (A)
                 (A) (A) (A) (A) (A) (A) (A) (A) (A) (A) (A) (A)
                 (A) (A) (A) (A) (A) (A) (A) (A) (A) (A) (A) (A)
                 (A) (A) (A) (A) (A) (A) (A) (A) (A) (A) (A) (A)
                 (A) (A) (A) (A) (A) (A) (A) (A) (A) (A) (A) (A)
                 (A) (A) (A) (A) (A) (A) (A) (A) (A) (A) (A) (A)
                 (A) (A) (A) (A) (A) (A) (A) (A) (A) (A) (A) (A)
                 (A) (A) (A) (A) (A) (A) (A) (A) (A) (A) (A) (A)
                 (A) (A) (A) (A) (A) (A) (A) (A) (A) (A) (A) (A)
                 (A) (A) (A) (A) (A) (A) (A) (A) (A) (A) (A) (A)
                 (A) (A) (A) (A) (A) (A) (A) (A) (A) (A) (A) (A)
                 (A) (A) (A) (A) (A) (A) (A) (A) (A) (A) (A) (A)
                 (A) (A) (A) (A) (A)
 The electronic state is 1-A.
 Alpha  occ. eigenvalues --  -19.18538 -19.18363 -14.31689 -10.22728 -10.20624
 Alpha  occ. eigenvalues --  -10.20025 -10.18289 -10.17451 -10.17054  -1.10360
 Alpha  occ. eigenvalues --   -0.91790  -0.89432  -0.79159  -0.73607  -0.68535
 Alpha  occ. eigenvalues --   -0.63615  -0.60099  -0.55050  -0.51427  -0.49419
 Alpha  occ. eigenvalues --   -0.47274  -0.46046  -0.43849  -0.42784  -0.41321
 Alpha  occ. eigenvalues --   -0.40427  -0.37811  -0.36620  -0.36057  -0.35401
 Alpha  occ. eigenvalues --   -0.34036  -0.33139  -0.31951  -0.30886  -0.23454
 Alpha  occ. eigenvalues --   -0.21842
 Alpha virt. eigenvalues --    0.02958   0.07024   0.08698   0.09468   0.12959
 Alpha virt. eigenvalues --    0.13924   0.14656   0.15051   0.16296   0.17526
 Alpha virt. eigenvalues --    0.17677   0.18317   0.18955   0.19821   0.21565
 Alpha virt. eigenvalues --    0.21953   0.23754   0.25889   0.26868   0.28027
 Alpha virt. eigenvalues --    0.29705   0.30773   0.43690   0.46508   0.47727
 Alpha virt. eigenvalues --    0.48909   0.50379   0.51056   0.51335   0.55170
 Alpha virt. eigenvalues --    0.56262   0.56887   0.57776   0.59463   0.60078
 Alpha virt. eigenvalues --    0.61745   0.62506   0.64277   0.65492   0.68925
 Alpha virt. eigenvalues --    0.70436   0.72164   0.73290   0.74102   0.74768
 Alpha virt. eigenvalues --    0.75460   0.76344   0.77089   0.77638   0.78847
 Alpha virt. eigenvalues --    0.79370   0.82092   0.82411   0.83431   0.84259
 Alpha virt. eigenvalues --    0.85877   0.87033   0.87875   0.88699   0.90516
 Alpha virt. eigenvalues --    0.92591   0.93793   0.96537   0.97400   1.00097
 Alpha virt. eigenvalues --    1.01312   1.01728   1.04917   1.06592   1.09329
 Alpha virt. eigenvalues --    1.11811   1.17533   1.20758   1.21883   1.23973
 Alpha virt. eigenvalues --    1.26228   1.29083   1.30443   1.33864   1.37710
 Alpha virt. eigenvalues --    1.38095   1.39800   1.42311   1.43845   1.44314
 Alpha virt. eigenvalues --    1.46845   1.48766   1.49451   1.50839   1.53797
 Alpha virt. eigenvalues --    1.57436   1.58174   1.59408   1.60480   1.61709
 Alpha virt. eigenvalues --    1.63187   1.65333   1.67961   1.70885   1.73359
 Alpha virt. eigenvalues --    1.76007   1.78578   1.80472   1.81716   1.84108
 Alpha virt. eigenvalues --    1.85716   1.89077   1.90786   1.92481   1.94000
 Alpha virt. eigenvalues --    1.97144   1.97834   1.99554   2.03894   2.08343
 Alpha virt. eigenvalues --    2.09551   2.19002   2.23925   2.26365   2.28225
 Alpha virt. eigenvalues --    2.29187   2.29763   2.35572   2.37982   2.39872
 Alpha virt. eigenvalues --    2.41866   2.42105   2.47085   2.51932   2.54466
 Alpha virt. eigenvalues --    2.54908   2.56906   2.61219   2.64466   2.68692
 Alpha virt. eigenvalues --    2.69851   2.74451   2.75908   2.78268   2.78399
 Alpha virt. eigenvalues --    2.80790   2.82890   2.86206   2.87724   2.88667
 Alpha virt. eigenvalues --    2.90160   2.92155   2.92802   2.94210   2.95865
 Alpha virt. eigenvalues --    2.97355   2.99534   3.00599   3.02408   3.03528
 Alpha virt. eigenvalues --    3.04905   3.08496   3.12489   3.16633   3.21867
 Alpha virt. eigenvalues --    3.23553   3.26200   3.29108   3.31856   3.33315
 Alpha virt. eigenvalues --    3.35532   3.39865   3.41039   3.43393   3.44030
 Alpha virt. eigenvalues --    3.46195   3.48222   3.52418   3.54412   3.59586
 Alpha virt. eigenvalues --    3.61899   3.62612   3.65485   3.68037   3.70845
 Alpha virt. eigenvalues --    3.72963   3.75949   3.79317   3.80216   3.86833
 Alpha virt. eigenvalues --    3.88655   3.92617   3.94644   3.99148   4.00791
 Alpha virt. eigenvalues --    4.03242   4.09445   4.10264   4.13431   4.15989
 Alpha virt. eigenvalues --    4.16272   4.17865   4.21181   4.23734   4.26386
 Alpha virt. eigenvalues --    4.30339   4.33472   4.34428   4.36074   4.39793
 Alpha virt. eigenvalues --    4.42365   4.43244   4.44974   4.45618   4.46545
 Alpha virt. eigenvalues --    4.48500   4.53089   4.56744   4.58879   4.60215
 Alpha virt. eigenvalues --    4.60875   4.62104   4.62526   4.64582   4.66755
 Alpha virt. eigenvalues --    4.68822   4.70854   4.71804   4.72720   4.74381
 Alpha virt. eigenvalues --    4.75960   4.77957   4.79772   4.80063   4.81141
 Alpha virt. eigenvalues --    4.82511   4.85675   4.86460   4.87493   4.89036
 Alpha virt. eigenvalues --    4.91538   4.92725   4.96474   4.97430   5.00135
 Alpha virt. eigenvalues --    5.04693   5.05862   5.08533   5.08789   5.12055
 Alpha virt. eigenvalues --    5.17592   5.24293   5.26713   5.33882   5.37490
 Alpha virt. eigenvalues --    5.40595   5.41427   5.44345   5.46604   5.47166
 Alpha virt. eigenvalues --    5.49389   5.52284   5.53525   5.59961   5.60868
 Alpha virt. eigenvalues --    5.68110   5.74713   5.79399   5.92788   6.13154
 Alpha virt. eigenvalues --    6.14829   6.16774   6.32806   6.55997   6.85833
 Alpha virt. eigenvalues --    7.15429  10.73079  11.37767  11.60635  11.87984
 Alpha virt. eigenvalues --   12.19024  12.49988  12.72694  13.03015  13.45762
 Alpha virt. eigenvalues --   15.16538
          Condensed to atoms (all electrons):
               1          2          3          4          5          6
     1  C    5.002493   0.403282  -0.036757  -0.005599  -0.001709  -0.006465
     2  C    0.403282   4.785510   0.378564  -0.061075  -0.006761  -0.008208
     3  C   -0.036757   0.378564   4.867156   0.421835  -0.072191  -0.012313
     4  N   -0.005599  -0.061075   0.421835   6.324248   0.404848  -0.051249
     5  C   -0.001709  -0.006761  -0.072191   0.404848   4.925773   0.377184
     6  C   -0.006465  -0.008208  -0.012313  -0.051249   0.377184   4.644981
     7  O    0.000086   0.001364   0.000127   0.001107  -0.016663   0.339837
     8  O    0.000019   0.000252  -0.000008  -0.000032   0.001387  -0.051491
     9  C   -0.040968   0.374439  -0.025068  -0.008906  -0.031469   0.378853
    10  H    0.369535  -0.026321  -0.002044   0.000044   0.000009   0.000139
    11  H    0.371790  -0.028934  -0.006434   0.004733  -0.000017   0.000804
    12  H    0.373834  -0.022814   0.003887   0.000244   0.000083  -0.000318
    13  H   -0.040541   0.345812  -0.033687   0.004505   0.000236   0.002747
    14  H   -0.005262  -0.042324   0.365124  -0.024814   0.004415   0.000509
    15  H    0.005320  -0.044119   0.364561  -0.027403  -0.004181  -0.002111
    16  H    0.003435  -0.008633  -0.049857   0.347634  -0.048341  -0.004624
    17  H   -0.000019   0.000172   0.004413  -0.019106   0.358438  -0.035699
    18  H    0.000095  -0.001823  -0.002322  -0.024250   0.355556  -0.037481
    19  H    0.000018   0.000659   0.000852  -0.000893  -0.039721   0.350557
    20  H   -0.000000  -0.000018   0.000001   0.000002  -0.000381   0.000707
    21  H   -0.005711  -0.028928   0.003857  -0.000058   0.004075  -0.025829
    22  H    0.005368  -0.024028  -0.002935   0.000071  -0.006273  -0.030169
               7          8          9         10         11         12
     1  C    0.000086   0.000019  -0.040968   0.369535   0.371790   0.373834
     2  C    0.001364   0.000252   0.374439  -0.026321  -0.028934  -0.022814
     3  C    0.000127  -0.000008  -0.025068  -0.002044  -0.006434   0.003887
     4  N    0.001107  -0.000032  -0.008906   0.000044   0.004733   0.000244
     5  C   -0.016663   0.001387  -0.031469   0.000009  -0.000017   0.000083
     6  C    0.339837  -0.051491   0.378853   0.000139   0.000804  -0.000318
     7  O    7.883757   0.110168  -0.049258  -0.000000   0.000027  -0.000005
     8  O    0.110168   7.968683   0.003693  -0.000000  -0.000010  -0.000011
     9  C   -0.049258   0.003693   5.006876   0.003958  -0.007058  -0.002513
    10  H   -0.000000  -0.000000   0.003958   0.607163  -0.033210  -0.029856
    11  H    0.000027  -0.000010  -0.007058  -0.033210   0.605982  -0.032378
    12  H   -0.000005  -0.000011  -0.002513  -0.029856  -0.032378   0.590929
    13  H   -0.000048   0.000001  -0.034777  -0.003360   0.006453  -0.003351
    14  H    0.000001  -0.000000   0.003972   0.004433   0.000060  -0.000040
    15  H    0.000013   0.000000  -0.003390  -0.000009   0.000074  -0.000177
    16  H    0.000025   0.000000   0.000203   0.000551   0.005620  -0.000200
    17  H    0.002361  -0.000043   0.005576  -0.000002   0.000069  -0.000002
    18  H    0.001631  -0.000117  -0.007317   0.000004   0.000017   0.000002
    19  H   -0.029785   0.005796  -0.065809  -0.000063   0.003147   0.000692
    20  H   -0.030948   0.290587   0.000576   0.000000   0.000001   0.000000
    21  H   -0.003906   0.008187   0.366299  -0.000051  -0.000411   0.003934
    22  H    0.002996  -0.000030   0.345972  -0.000185   0.000004  -0.000007
              13         14         15         16         17         18
     1  C   -0.040541  -0.005262   0.005320   0.003435  -0.000019   0.000095
     2  C    0.345812  -0.042324  -0.044119  -0.008633   0.000172  -0.001823
     3  C   -0.033687   0.365124   0.364561  -0.049857   0.004413  -0.002322
     4  N    0.004505  -0.024814  -0.027403   0.347634  -0.019106  -0.024250
     5  C    0.000236   0.004415  -0.004181  -0.048341   0.358438   0.355556
     6  C    0.002747   0.000509  -0.002111  -0.004624  -0.035699  -0.037481
     7  O   -0.000048   0.000001   0.000013   0.000025   0.002361   0.001631
     8  O    0.000001  -0.000000   0.000000   0.000000  -0.000043  -0.000117
     9  C   -0.034777   0.003972  -0.003390   0.000203   0.005576  -0.007317
    10  H   -0.003360   0.004433  -0.000009   0.000551  -0.000002   0.000004
    11  H    0.006453   0.000060   0.000074   0.005620   0.000069   0.000017
    12  H   -0.003351  -0.000040  -0.000177  -0.000200  -0.000002   0.000002
    13  H    0.701437  -0.000964  -0.001586   0.000013   0.000025  -0.000047
    14  H   -0.000964   0.639614  -0.035065  -0.002783  -0.000235   0.000113
    15  H   -0.001586  -0.035065   0.631167   0.006676   0.000088   0.005608
    16  H    0.000013  -0.002783   0.006676   0.526897  -0.003440   0.006155
    17  H    0.000025  -0.000235   0.000088  -0.003440   0.625138  -0.037116
    18  H   -0.000047   0.000113   0.005608   0.006155  -0.037116   0.615810
    19  H   -0.000197   0.000027   0.000038   0.001655  -0.006601   0.006456
    20  H    0.000000  -0.000000   0.000000   0.000000   0.000015   0.000028
    21  H   -0.003019  -0.000193  -0.000117   0.000001  -0.000180  -0.000118
    22  H   -0.004741  -0.000031   0.003615   0.000056  -0.000068   0.004738
              19         20         21         22
     1  C    0.000018  -0.000000  -0.005711   0.005368
     2  C    0.000659  -0.000018  -0.028928  -0.024028
     3  C    0.000852   0.000001   0.003857  -0.002935
     4  N   -0.000893   0.000002  -0.000058   0.000071
     5  C   -0.039721  -0.000381   0.004075  -0.006273
     6  C    0.350557   0.000707  -0.025829  -0.030169
     7  O   -0.029785  -0.030948  -0.003906   0.002996
     8  O    0.005796   0.290587   0.008187  -0.000030
     9  C   -0.065809   0.000576   0.366299   0.345972
    10  H   -0.000063   0.000000  -0.000051  -0.000185
    11  H    0.003147   0.000001  -0.000411   0.000004
    12  H    0.000692   0.000000   0.003934  -0.000007
    13  H   -0.000197   0.000000  -0.003019  -0.004741
    14  H    0.000027  -0.000000  -0.000193  -0.000031
    15  H    0.000038   0.000000  -0.000117   0.003615
    16  H    0.001655   0.000000   0.000001   0.000056
    17  H   -0.006601   0.000015  -0.000180  -0.000068
    18  H    0.006456   0.000028  -0.000118   0.004738
    19  H    0.691236   0.000250  -0.004675   0.006775
    20  H    0.000250   0.424072  -0.000404   0.000003
    21  H   -0.004675  -0.000404   0.619321  -0.038337
    22  H    0.006775   0.000003  -0.038337   0.645228
 Mulliken charges:
               1
     1  C   -0.392242
     2  C    0.013932
     3  C   -0.166762
     4  N   -0.285884
     5  C   -0.204295
     6  C    0.169637
     7  O   -0.212886
     8  O   -0.337031
     9  C   -0.213885
    10  H    0.109266
    11  H    0.109672
    12  H    0.118068
    13  H    0.065090
    14  H    0.093441
    15  H    0.100998
    16  H    0.218957
    17  H    0.106218
    18  H    0.114378
    19  H    0.079584
    20  H    0.315507
    21  H    0.106263
    22  H    0.091977
 Sum of Mulliken charges =  -0.00000
 Mulliken charges with hydrogens summed into heavy atoms:
               1
     1  C   -0.055237
     2  C    0.079021
     3  C    0.027677
     4  N   -0.066927
     5  C    0.016300
     6  C    0.249221
     7  O   -0.212886
     8  O   -0.021524
     9  C   -0.015645
 Electronic spatial extent (au):  <R**2>=           1320.2612
 Charge=              0.0000 electrons
 Dipole moment (field-independent basis, Debye):
    X=             -0.1404    Y=             -0.8019    Z=              0.0418  Tot=              0.8152
 Quadrupole moment (field-independent basis, Debye-Ang):
   XX=            -50.8027   YY=            -58.9886   ZZ=            -53.8086
   XY=             -2.3521   XZ=             -1.4308   YZ=             -0.4741
 Traceless Quadrupole moment (field-independent basis, Debye-Ang):
   XX=              3.7306   YY=             -4.4553   ZZ=              0.7247
   XY=             -2.3521   XZ=             -1.4308   YZ=             -0.4741
 Octapole moment (field-independent basis, Debye-Ang**2):
  XXX=            -58.2660  YYY=             -5.8673  ZZZ=             -2.4716  XYY=            -12.6738
  XXY=             -8.0674  XXZ=              5.2835  XZZ=             -3.5090  YZZ=              3.8583
  YYZ=              1.3094  XYZ=              1.3638
 Hexadecapole moment (field-independent basis, Debye-Ang**3):
 XXXX=           -758.6495 YYYY=           -488.6038 ZZZZ=           -190.4834 XXXY=             15.7329
 XXXZ=            -24.7386 YYYX=             -9.6630 YYYZ=              0.6882 ZZZX=             -2.6706
 ZZZY=             -4.5812 XXYY=           -265.6563 XXZZ=           -197.3983 YYZZ=           -110.7795
 XXYZ=             -3.4714 YYXZ=              3.5311 ZZXY=              5.2886
 N-N= 5.040026068232D+02 E-N=-2.038568086630D+03  KE= 4.383671207440D+02
 PrsmSu:  requested number of processors reduced to:  13 ShMem   1 Linda.
 Calling FoFJK, ICntrl=      2127 FMM=F ISym2X=0 I1Cent= 0 IOpClX= 0 NMat=1 NMatS=1 NMatT=0.
 ***** Axes restored to original set *****
 -------------------------------------------------------------------
 Center     Atomic                   Forces (Hartrees/Bohr)
 Number     Number              X              Y              Z
 -------------------------------------------------------------------
      1        6          -0.001458106   -0.000804613    0.003845169
      2        6          -0.000193446    0.001683577    0.003437875
      3        6          -0.005251041   -0.001192800    0.002576186
      4        7           0.004784087    0.006729739   -0.002320558
      5        6          -0.001690212   -0.002370188   -0.012945649
      6        6           0.006639634    0.007546047    0.006217396
      7        8          -0.002149841   -0.014727599    0.000109861
      8        8           0.007963109    0.005007738   -0.009279816
      9        6           0.000244128    0.004068549    0.003908514
     10        1          -0.001187504    0.000034236    0.001180756
     11        1          -0.000165345    0.000455867    0.000719607
     12        1          -0.000695574   -0.000494480    0.000064946
     13        1           0.000258097   -0.000409240    0.000720447
     14        1          -0.000888015   -0.001274850   -0.001162945
     15        1          -0.000015184    0.000284029   -0.002852321
     16        1           0.004379433   -0.001138354   -0.000397044
     17        1          -0.000959574   -0.000352976    0.000719687
     18        1           0.000218944    0.000729457    0.004049910
     19        1          -0.000204069    0.001021503   -0.000866471
     20        1          -0.007765033   -0.001288473    0.007403893
     21        1          -0.001503913   -0.001393612   -0.002244331
     22        1          -0.000360573   -0.002113559   -0.002885111
 -------------------------------------------------------------------
 Cartesian Forces:  Max     0.014727599 RMS     0.004049313

 GradGradGradGradGradGradGradGradGradGradGradGradGradGradGradGradGradGrad
 Berny optimization.
 FormGI is forming the generalized inverse of G from B-inverse, IUseBI=4.
 Internal  Forces:  Max     0.009781350 RMS     0.002616480
 Search for a local minimum.
 Step number   1 out of a maximum of  132
 All quantities printed in internal units (Hartrees-Bohrs-Radians)
 Mixed Optimization -- RFO/linear search
 Second derivative matrix not updated -- first step.
 ITU=  0
     Eigenvalues ---    0.00319   0.00514   0.00518   0.00567   0.00890
     Eigenvalues ---    0.01271   0.02089   0.02385   0.03578   0.04191
     Eigenvalues ---    0.04434   0.04536   0.04683   0.04736   0.04901
     Eigenvalues ---    0.05342   0.05525   0.05527   0.05788   0.06234
     Eigenvalues ---    0.06445   0.07465   0.08116   0.08545   0.09169
     Eigenvalues ---    0.09506   0.09679   0.11806   0.13953   0.14348
     Eigenvalues ---    0.16000   0.16000   0.16000   0.16000   0.16087
     Eigenvalues ---    0.17595   0.20807   0.25000   0.26938   0.28252
     Eigenvalues ---    0.28509   0.28585   0.29077   0.33785   0.33928
     Eigenvalues ---    0.33965   0.33972   0.34050   0.34087   0.34108
     Eigenvalues ---    0.34120   0.34275   0.34304   0.34339   0.34429
     Eigenvalues ---    0.35070   0.37091   0.40731   0.44309   0.52007
 RFO step:  Lambda=-6.49208094D-03 EMin= 3.19116269D-03
 Linear search not attempted -- first point.
 Iteration  1 RMS(Cart)=  0.07499474 RMS(Int)=  0.00147544
 Iteration  2 RMS(Cart)=  0.00209350 RMS(Int)=  0.00031248
 Iteration  3 RMS(Cart)=  0.00000247 RMS(Int)=  0.00031247
 Iteration  4 RMS(Cart)=  0.00000000 RMS(Int)=  0.00031247
 Variable       Old X    -DE/DX   Delta X   Delta X   Delta X     New X
                                 (Linear)    (Quad)   (Total)
    R1        2.89842   0.00384   0.00000   0.01292   0.01292   2.91134
    R2        2.06762   0.00115   0.00000   0.00330   0.00330   2.07092
    R3        2.06821  -0.00065   0.00000  -0.00186  -0.00186   2.06634
    R4        2.06868  -0.00021   0.00000  -0.00059  -0.00059   2.06809
    R5        2.90551   0.00309   0.00000   0.01304   0.01297   2.91848
    R6        2.89649   0.00537   0.00000   0.02360   0.02358   2.92008
    R7        2.07377   0.00066   0.00000   0.00189   0.00189   2.07566
    R8        2.77233   0.00061   0.00000   0.00306   0.00320   2.77552
    R9        2.07127   0.00045   0.00000   0.00130   0.00130   2.07257
   R10        2.07451  -0.00023   0.00000  -0.00068  -0.00068   2.07383
   R11        2.78232  -0.00410   0.00000  -0.01590  -0.01588   2.76644
   R12        1.92786  -0.00428   0.00000  -0.00951  -0.00951   1.91835
   R13        2.91270  -0.00146   0.00000  -0.00795  -0.00787   2.90483
   R14        2.07183  -0.00027   0.00000  -0.00078  -0.00078   2.07105
   R15        2.07390   0.00002   0.00000   0.00005   0.00005   2.07395
   R16        2.70572  -0.00673   0.00000  -0.01627  -0.01627   2.68945
   R17        2.89532   0.00306   0.00000   0.00866   0.00852   2.90384
   R18        2.07246   0.00036   0.00000   0.00104   0.00104   2.07350
   R19        2.75709   0.00290   0.00000   0.00769   0.00769   2.76478
   R20        1.84593  -0.00978   0.00000  -0.01858  -0.01858   1.82735
   R21        2.07148  -0.00128   0.00000  -0.00369  -0.00369   2.06779
   R22        2.07694  -0.00070   0.00000  -0.00202  -0.00202   2.07492
    A1        1.93099   0.00103   0.00000   0.00667   0.00665   1.93764
    A2        1.96640   0.00043   0.00000   0.00361   0.00359   1.96999
    A3        1.93040   0.00070   0.00000   0.00275   0.00275   1.93315
    A4        1.87190  -0.00045   0.00000   0.00003   0.00000   1.87190
    A5        1.88903  -0.00115   0.00000  -0.00893  -0.00893   1.88010
    A6        1.87201  -0.00071   0.00000  -0.00506  -0.00506   1.86694
    A7        1.95124   0.00177   0.00000   0.01273   0.01289   1.96413
    A8        1.94061   0.00454   0.00000   0.03644   0.03696   1.97757
    A9        1.87918  -0.00334   0.00000  -0.02533  -0.02539   1.85379
   A10        1.90923  -0.00617   0.00000  -0.01526  -0.01646   1.89277
   A11        1.89253   0.00173   0.00000  -0.00753  -0.00742   1.88511
   A12        1.88920   0.00152   0.00000  -0.00262  -0.00254   1.88665
   A13        1.96618   0.00344   0.00000   0.03809   0.03777   2.00395
   A14        1.91761  -0.00036   0.00000   0.01575   0.01564   1.93325
   A15        1.91721   0.00029   0.00000  -0.01623  -0.01608   1.90113
   A16        1.90281  -0.00016   0.00000  -0.00182  -0.00292   1.89990
   A17        1.90364  -0.00454   0.00000  -0.04607  -0.04567   1.85797
   A18        1.85285   0.00118   0.00000   0.00818   0.00809   1.86095
   A19        1.93308   0.00294   0.00000   0.02708   0.02705   1.96013
   A20        1.90211  -0.00162   0.00000   0.00672   0.00662   1.90874
   A21        1.90176   0.00047   0.00000   0.00279   0.00204   1.90380
   A22        1.98941  -0.00131   0.00000  -0.01819  -0.01937   1.97005
   A23        1.89842   0.00001   0.00000   0.01025   0.01065   1.90907
   A24        1.90712  -0.00026   0.00000  -0.01896  -0.01934   1.88778
   A25        1.90775   0.00241   0.00000   0.02009   0.02026   1.92802
   A26        1.91848  -0.00197   0.00000  -0.01589  -0.01614   1.90233
   A27        1.83631   0.00136   0.00000   0.02672   0.02677   1.86308
   A28        1.90790  -0.00910   0.00000  -0.06402  -0.06408   1.84382
   A29        1.91162   0.00182   0.00000   0.02052   0.02077   1.93239
   A30        1.90110   0.00200   0.00000   0.00542   0.00465   1.90575
   A31        1.92107   0.00688   0.00000   0.04026   0.04064   1.96170
   A32        1.88735   0.00003   0.00000  -0.00818  -0.00899   1.87836
   A33        1.93440  -0.00185   0.00000   0.00409   0.00393   1.93834
   A34        1.84477  -0.00025   0.00000  -0.00096  -0.00096   1.84381
   A35        1.67896   0.00848   0.00000   0.05095   0.05095   1.72991
   A36        1.93950   0.00160   0.00000   0.02466   0.02447   1.96397
   A37        1.92936   0.00043   0.00000   0.01126   0.01137   1.94072
   A38        1.91558   0.00021   0.00000  -0.00748  -0.00740   1.90818
   A39        1.93444  -0.00058   0.00000  -0.00640  -0.00674   1.92770
   A40        1.90229  -0.00333   0.00000  -0.04203  -0.04199   1.86030
   A41        1.83991   0.00159   0.00000   0.01835   0.01813   1.85805
    D1        1.03664   0.00182   0.00000   0.00136   0.00137   1.03801
    D2       -3.10705  -0.00161   0.00000   0.01706   0.01719  -3.08986
    D3       -1.04032   0.00078   0.00000   0.01919   0.01908  -1.02124
    D4       -1.05860   0.00139   0.00000  -0.00579  -0.00580  -1.06440
    D5        1.08090  -0.00204   0.00000   0.00991   0.01002   1.09092
    D6       -3.13556   0.00035   0.00000   0.01204   0.01191  -3.12364
    D7        3.12963   0.00151   0.00000  -0.00368  -0.00368   3.12595
    D8       -1.01406  -0.00192   0.00000   0.01202   0.01214  -1.00192
    D9        1.05267   0.00047   0.00000   0.01415   0.01403   1.06670
   D10        1.15614   0.00469   0.00000   0.12140   0.12149   1.27764
   D11       -0.96902   0.00281   0.00000   0.08645   0.08608  -0.88294
   D12       -3.00111   0.00142   0.00000   0.07681   0.07669  -2.92442
   D13       -1.00115   0.00208   0.00000   0.07696   0.07696  -0.92419
   D14       -3.12632   0.00019   0.00000   0.04200   0.04154  -3.08477
   D15        1.12478  -0.00119   0.00000   0.03237   0.03215   1.15694
   D16       -3.05801   0.00274   0.00000   0.09301   0.09315  -2.96486
   D17        1.10001   0.00085   0.00000   0.05806   0.05773   1.15774
   D18       -0.93208  -0.00053   0.00000   0.04842   0.04834  -0.88373
   D19       -1.19627  -0.00257   0.00000  -0.09588  -0.09602  -1.29229
   D20        0.95929  -0.00188   0.00000  -0.07869  -0.07851   0.88077
   D21        2.98154   0.00043   0.00000  -0.05426  -0.05416   2.92738
   D22        0.96729  -0.00155   0.00000  -0.06545  -0.06559   0.90170
   D23        3.12284  -0.00086   0.00000  -0.04826  -0.04808   3.07476
   D24       -1.13809   0.00145   0.00000  -0.02383  -0.02373  -1.16181
   D25        3.02623  -0.00206   0.00000  -0.08452  -0.08486   2.94138
   D26       -1.10140  -0.00138   0.00000  -0.06733  -0.06734  -1.16875
   D27        0.92086   0.00093   0.00000  -0.04290  -0.04299   0.87786
   D28        0.99298   0.00068   0.00000  -0.02946  -0.03024   0.96274
   D29       -1.09896  -0.00067   0.00000  -0.05380  -0.05441  -1.15337
   D30        3.12651   0.00241   0.00000   0.01487   0.01443   3.14094
   D31        1.03456   0.00106   0.00000  -0.00948  -0.00974   1.02483
   D32       -1.14062   0.00124   0.00000  -0.00158  -0.00169  -1.14231
   D33        3.05062  -0.00012   0.00000  -0.02593  -0.02586   3.02476
   D34       -0.96695   0.00323   0.00000   0.02156   0.02102  -0.94594
   D35       -3.10037   0.00101   0.00000   0.00047   0.00038  -3.09999
   D36        1.18692  -0.00047   0.00000  -0.02663  -0.02664   1.16029
   D37        1.12520   0.00333   0.00000   0.04825   0.04780   1.17300
   D38       -1.00821   0.00111   0.00000   0.02716   0.02716  -0.98105
   D39       -3.00411  -0.00037   0.00000   0.00006   0.00015  -3.00396
   D40        3.04461   0.00174   0.00000   0.01481   0.01486   3.05947
   D41        0.93850  -0.00219   0.00000  -0.00759  -0.00718   0.93131
   D42       -1.17976  -0.00230   0.00000  -0.02867  -0.02828  -1.20804
   D43       -1.11029   0.00264   0.00000   0.03044   0.03011  -1.08019
   D44        3.06678  -0.00129   0.00000   0.00805   0.00806   3.07484
   D45        0.94852  -0.00139   0.00000  -0.01304  -0.01303   0.93549
   D46        0.89691   0.00454   0.00000   0.06499   0.06466   0.96157
   D47       -1.20921   0.00061   0.00000   0.04260   0.04262  -1.16659
   D48        2.95572   0.00050   0.00000   0.02151   0.02152   2.97725
   D49        2.96543  -0.00152   0.00000  -0.03324  -0.03246   2.93297
   D50       -1.21741  -0.00073   0.00000  -0.02323  -0.02363  -1.24104
   D51        0.89802   0.00119   0.00000   0.00098   0.00060   0.89863
   D52       -0.93204  -0.00185   0.00000   0.00746   0.00800  -0.92404
   D53       -3.08469  -0.00313   0.00000  -0.01996  -0.01957  -3.10426
   D54        1.18115  -0.00277   0.00000  -0.01389  -0.01371   1.16744
   D55       -3.03014   0.00394   0.00000   0.04844   0.04864  -2.98150
   D56        1.10040   0.00267   0.00000   0.02102   0.02107   1.12147
   D57       -0.91694   0.00302   0.00000   0.02709   0.02692  -0.89002
   D58        1.16600   0.00064   0.00000   0.03005   0.03022   1.19622
   D59       -0.98665  -0.00064   0.00000   0.00264   0.00266  -0.98399
   D60       -3.00399  -0.00028   0.00000   0.00871   0.00851  -2.99548
   D61        3.09644  -0.00016   0.00000  -0.01354  -0.01354   3.08290
         Item               Value     Threshold  Converged?
 Maximum Force            0.009781     0.000450     NO 
 RMS     Force            0.002616     0.000300     NO 
 Maximum Displacement     0.304576     0.001800     NO 
 RMS     Displacement     0.075034     0.001200     NO 
 Predicted change in Energy=-3.682423D-03
 GradGradGradGradGradGradGradGradGradGradGradGradGradGradGradGradGradGrad

                          Input orientation:                          
 ---------------------------------------------------------------------
 Center     Atomic      Atomic             Coordinates (Angstroms)
 Number     Number       Type             X           Y           Z
 ---------------------------------------------------------------------
      1          6           0        1.009238   -0.010719    0.150240
      2          6           0        2.536647   -0.036507   -0.049403
      3          6           0        3.050683   -1.419486   -0.505778
      4          7           0        2.742064   -1.762498   -1.900162
      5          6           0        3.223069   -0.749428   -2.841137
      6          6           0        2.717185    0.663428   -2.508259
      7          8           0        3.358002    1.529492   -3.438186
      8          8           0        2.668875    2.814660   -3.319900
      9          6           0        3.040381    1.027183   -1.050689
     10          1           0        0.699011   -0.742651    0.904557
     11          1           0        0.456966   -0.235664   -0.766305
     12          1           0        0.678781    0.976350    0.488137
     13          1           0        2.978011    0.182835    0.932205
     14          1           0        2.666485   -2.212167    0.147617
     15          1           0        4.144167   -1.440436   -0.415236
     16          1           0        1.737767   -1.864653   -2.007266
     17          1           0        2.931209   -1.030987   -3.859300
     18          1           0        4.320237   -0.751468   -2.814695
     19          1           0        1.637471    0.713739   -2.697057
     20          1           0        3.204333    3.332917   -3.936154
     21          1           0        2.645212    2.018119   -0.807334
     22          1           0        4.133596    1.102632   -0.981466
 ---------------------------------------------------------------------
                    Distance matrix (angstroms):
                    1          2          3          4          5
     1  C    0.000000
     2  C    1.540617   0.000000
     3  C    2.565635   1.544391   0.000000
     4  N    3.205552   2.539006   1.468744   0.000000
     5  C    3.794085   2.961961   2.435692   1.463937   0.000000
     6  C    3.230971   2.562904   2.908553   2.501103   1.537169
     7  O    4.556945   3.822411   4.170124   3.685389   2.359693
     8  O    4.772739   4.340828   5.098338   4.792847   3.638553
     9  C    2.577793   1.545237   2.506636   2.931368   2.528918
    10  H    1.095883   2.187598   2.824449   3.616712   4.516762
    11  H    1.093463   2.208775   2.862984   2.972966   3.495741
    12  H    1.094386   2.183230   3.514800   4.178803   4.531642
    13  H    2.127205   1.098393   2.154184   3.444168   3.894519
    14  H    2.755512   2.188418   1.096758   2.097931   3.373729
    15  H    3.491652   2.165403   1.097426   2.067516   2.685314
    16  H    2.936436   2.795274   2.043621   1.015145   2.035975
    17  H    4.561944   3.957270   3.378063   2.099786   1.095953
    18  H    4.505803   3.367374   2.718292   2.085469   1.097488
    19  H    3.004433   2.895075   3.368904   2.826113   2.162345
    20  H    5.718126   5.187066   5.863141   5.506560   4.226695
    21  H    2.776606   2.192654   3.474546   3.936587   3.482756
    22  H    3.504558   2.171779   2.785689   3.315016   2.778050
                    6          7          8          9         10
     6  C    0.000000
     7  O    1.423193   0.000000
     8  O    2.299760   1.463060   0.000000
     9  C    1.536647   2.460353   2.912458   0.000000
    10  H    4.206827   5.576046   5.863520   3.526658   0.000000
    11  H    2.991882   4.320964   4.551688   2.889583   1.762783
    12  H    3.637499   4.785416   4.673437   2.819172   1.768835
    13  H    3.483646   4.588921   5.010236   2.156081   2.459904
    14  H    3.914753   5.228403   6.106773   3.474065   2.569706
    15  H    3.292911   4.310076   5.359048   2.776920   3.754711
    16  H    2.757072   4.024043   4.948327   3.312787   3.288862
    17  H    2.177650   2.629742   3.892142   3.483716   5.268793
    18  H    2.160002   2.552923   3.962259   2.813067   5.190972
    19  H    1.097250   2.043270   2.421899   2.185619   3.996674
    20  H    3.066329   1.877213   0.966993   3.697188   6.805834
    21  H    2.175664   2.769153   2.635911   1.094228   3.786834
    22  H    2.128430   2.611365   3.247263   1.097999   4.331111
                   11         12         13         14         15
    11  H    0.000000
    12  H    1.758353   0.000000
    13  H    3.068509   2.472513   0.000000
    14  H    3.102224   3.772739   2.539422   0.000000
    15  H    3.894891   4.320397   2.410503   1.759522   0.000000
    16  H    2.415376   3.926803   3.790897   2.372088   2.916381
    17  H    4.039929   5.291790   4.943083   4.185767   3.674301
    18  H    4.403046   5.210975   4.088246   3.693756   2.502615
    19  H    2.454131   3.336692   3.905182   4.208559   4.016304
    20  H    5.507335   5.613037   5.803030   6.907563   6.005418
    21  H    3.141598   2.574952   2.550494   4.336785   3.789750
    22  H    3.918538   3.756518   2.417342   3.796728   2.605364
                   16         17         18         19         20
    16  H    0.000000
    17  H    2.355702   0.000000
    18  H    2.925795   1.760320   0.000000
    19  H    2.670950   2.463460   3.059068   0.000000
    20  H    5.734646   4.373119   4.380081   3.294012   0.000000
    21  H    4.164038   4.323579   3.808651   2.507589   3.439597
    22  H    3.949309   3.778888   2.614049   3.053707   3.816789
                   21         22
    21  H    0.000000
    22  H    1.756054   0.000000
 Stoichiometry    C6H13NO2
 Framework group  C1[X(C6H13NO2)]
 Deg. of freedom    60
 Full point group                 C1      NOp   1
 Largest Abelian subgroup         C1      NOp   1
 Largest concise Abelian subgroup C1      NOp   1
                         Standard orientation:                         
 ---------------------------------------------------------------------
 Center     Atomic      Atomic             Coordinates (Angstroms)
 Number     Number       Type             X           Y           Z
 ---------------------------------------------------------------------
      1          6           0        1.782779   -1.621436   -0.758430
      2          6           0        1.394861   -0.839985    0.511356
      3          6           0        1.959486    0.597480    0.517370
      4          7           0        1.291078    1.526225   -0.403430
      5          6           0       -0.153963    1.588963   -0.177531
      6          6           0       -0.826283    0.207342   -0.222198
      7          8           0       -2.188626    0.432174    0.122694
      8          8           0       -2.887447   -0.812431   -0.198480
      9          6           0       -0.131338   -0.766812    0.741834
     10          1           0        2.871702   -1.694976   -0.857409
     11          1           0        1.404391   -1.159059   -1.674231
     12          1           0        1.381804   -2.639179   -0.725262
     13          1           0        1.841589   -1.383828    1.354645
     14          1           0        3.034294    0.594021    0.299072
     15          1           0        1.844790    1.020761    1.523363
     16          1           0        1.465033    1.235052   -1.360236
     17          1           0       -0.608540    2.260374   -0.914879
     18          1           0       -0.326849    2.038659    0.808554
     19          1           0       -0.802470   -0.172273   -1.251413
     20          1           0       -3.770652   -0.578321    0.118088
     21          1           0       -0.588972   -1.758743    0.678751
     22          1           0       -0.328334   -0.397316    1.756855
 ---------------------------------------------------------------------
 Rotational constants (GHZ):           2.5506591           1.1575490           0.9138731
 Standard basis: 6-31G(2df,p) (6D, 7F)
 There are   344 symmetry adapted cartesian basis functions of A   symmetry.
 There are   317 symmetry adapted basis functions of A   symmetry.
   317 basis functions,   487 primitive gaussians,   344 cartesian basis functions
    36 alpha electrons       36 beta electrons
       nuclear repulsion energy       501.3352128783 Hartrees.
 NAtoms=   22 NActive=   22 NUniq=   22 SFac= 1.00D+00 NAtFMM=   60 NAOKFM=F Big=F
 Integral buffers will be    131072 words long.
 Raffenetti 2 integral format.
 Two-electron integral symmetry is turned on.
 One-electron integrals computed using PRISM.
 PrsmSu:  requested number of processors reduced to:  13 ShMem   1 Linda.
 NBasis=   317 RedAO= T EigKep=  3.84D-04  NBF=   317
 NBsUse=   317 1.00D-06 EigRej= -1.00D+00 NBFU=   317
 Initial guess from the checkpoint file:  "CC1CNCCpOOpC1.chk"
 B after Tr=     0.000000    0.000000    0.000000
         Rot=    0.999661    0.003516    0.001211   -0.025782 Ang=   2.99 deg.
 ExpMin= 1.61D-01 ExpMax= 5.48D+03 ExpMxC= 8.25D+02 IAcc=2 IRadAn=         4 AccDes= 0.00D+00
 Harris functional with IExCor=  402 and IRadAn=       4 diagonalized for initial guess.
 HarFok:  IExCor=  402 AccDes= 0.00D+00 IRadAn=         4 IDoV= 1 UseB2=F ITyADJ=14
 ICtDFT=  3500011 ScaDFX=  1.000000  1.000000  1.000000  1.000000
 FoFCou: FMM=F IPFlag=           0 FMFlag=      100000 FMFlg1=           0
         NFxFlg=           0 DoJE=T BraDBF=F KetDBF=T FulRan=T
         wScrn=  0.000000 ICntrl=       500 IOpCl=  0 I1Cent=   200000004 NGrid=           0
         NMat0=    1 NMatS0=      1 NMatT0=    0 NMatD0=    1 NMtDS0=    0 NMtDT0=    0
 Petite list used in FoFCou.
 Requested convergence on RMS density matrix=1.00D-08 within 128 cycles.
 Requested convergence on MAX density matrix=1.00D-06.
 Requested convergence on             energy=1.00D-06.
 No special actions if energy rises.
 Integral accuracy reduced to 1.0D-05 until final iterations.
 Initial convergence to 1.0D-05 achieved.  Increase integral accuracy.
 SCF Done:  E(RB3LYP) =  -441.594539304     A.U. after   11 cycles
            NFock= 11  Conv=0.47D-08     -V/T= 2.0074
 PrsmSu:  requested number of processors reduced to:  13 ShMem   1 Linda.
 Calling FoFJK, ICntrl=      2127 FMM=F ISym2X=0 I1Cent= 0 IOpClX= 0 NMat=1 NMatS=1 NMatT=0.
 ***** Axes restored to original set *****
 -------------------------------------------------------------------
 Center     Atomic                   Forces (Hartrees/Bohr)
 Number     Number              X              Y              Z
 -------------------------------------------------------------------
      1        6           0.001314827    0.000311909   -0.000389268
      2        6          -0.001900168   -0.000215420   -0.000301321
      3        6           0.000825518   -0.000450171   -0.001098146
      4        7          -0.001002870    0.001830612    0.001608853
      5        6           0.000326139   -0.002315387   -0.000561435
      6        6           0.000790110    0.002370545   -0.000662627
      7        8          -0.000990617   -0.000622098    0.001705037
      8        8          -0.000092469    0.000222029   -0.000019164
      9        6           0.000841884    0.000523394   -0.000029456
     10        1           0.000716106    0.000163993    0.000009260
     11        1          -0.000092795   -0.000409999   -0.001438617
     12        1          -0.000051127    0.000248901    0.000089258
     13        1           0.001708690   -0.000242784   -0.000849539
     14        1          -0.000780116    0.000214839   -0.001229928
     15        1           0.000717890    0.000272328    0.001092300
     16        1          -0.000537715   -0.001022842   -0.000348641
     17        1          -0.000478036    0.000688731    0.001296102
     18        1           0.000484646    0.000726554    0.000491738
     19        1          -0.001305833   -0.000287169    0.000575963
     20        1           0.000429484   -0.001179494    0.000413216
     21        1          -0.001092042   -0.000513012   -0.001044359
     22        1           0.000168492   -0.000315460    0.000690774
 -------------------------------------------------------------------
 Cartesian Forces:  Max     0.002370545 RMS     0.000912157

 GradGradGradGradGradGradGradGradGradGradGradGradGradGradGradGradGradGrad
 Berny optimization.
 Using GEDIIS/GDIIS optimizer.
 FormGI is forming the generalized inverse of G from B-inverse, IUseBI=4.
 Internal  Forces:  Max     0.002628463 RMS     0.000722438
 Search for a local minimum.
 Step number   2 out of a maximum of  132
 All quantities printed in internal units (Hartrees-Bohrs-Radians)
 Mixed Optimization -- En-DIIS/RFO-DIIS
 Update second derivatives using D2CorX and points    1    2
 DE= -2.91D-03 DEPred=-3.68D-03 R= 7.91D-01
 TightC=F SS=  1.41D+00  RLast= 3.74D-01 DXNew= 5.0454D-01 1.1218D+00
 Trust test= 7.91D-01 RLast= 3.74D-01 DXMaxT set to 5.05D-01
 ITU=  1  0
 Use linear search instead of GDIIS.
     Eigenvalues ---    0.00319   0.00513   0.00524   0.00587   0.00879
     Eigenvalues ---    0.01278   0.02014   0.02402   0.03520   0.04147
     Eigenvalues ---    0.04376   0.04538   0.04541   0.04656   0.04858
     Eigenvalues ---    0.05293   0.05489   0.05510   0.05786   0.06012
     Eigenvalues ---    0.06675   0.07715   0.08291   0.08846   0.09221
     Eigenvalues ---    0.09490   0.09888   0.11915   0.13836   0.14413
     Eigenvalues ---    0.15908   0.16000   0.16000   0.16067   0.17213
     Eigenvalues ---    0.17862   0.21027   0.25017   0.27026   0.28324
     Eigenvalues ---    0.28561   0.28749   0.29561   0.33784   0.33938
     Eigenvalues ---    0.33964   0.33973   0.34051   0.34076   0.34109
     Eigenvalues ---    0.34149   0.34276   0.34312   0.34365   0.34420
     Eigenvalues ---    0.35262   0.37192   0.40234   0.44369   0.51591
 RFO step:  Lambda=-4.28671236D-04 EMin= 3.19081819D-03
 Quartic linear search produced a step of -0.08037.
 Iteration  1 RMS(Cart)=  0.01803206 RMS(Int)=  0.00045777
 Iteration  2 RMS(Cart)=  0.00044561 RMS(Int)=  0.00003203
 Iteration  3 RMS(Cart)=  0.00000022 RMS(Int)=  0.00003203
 Variable       Old X    -DE/DX   Delta X   Delta X   Delta X     New X
                                 (Linear)    (Quad)   (Total)
    R1        2.91134  -0.00209  -0.00104  -0.00501  -0.00605   2.90530
    R2        2.07092  -0.00031  -0.00026  -0.00041  -0.00068   2.07024
    R3        2.06634   0.00134   0.00015   0.00335   0.00350   2.06984
    R4        2.06809   0.00027   0.00005   0.00064   0.00069   2.06878
    R5        2.91848  -0.00071  -0.00104  -0.00031  -0.00134   2.91713
    R6        2.92008  -0.00172  -0.00190  -0.00181  -0.00369   2.91638
    R7        2.07566  -0.00012  -0.00015  -0.00010  -0.00025   2.07541
    R8        2.77552  -0.00179  -0.00026  -0.00437  -0.00464   2.77088
    R9        2.07257  -0.00062  -0.00010  -0.00149  -0.00160   2.07097
   R10        2.07383   0.00080   0.00005   0.00208   0.00214   2.07597
   R11        2.76644  -0.00091   0.00128  -0.00488  -0.00362   2.76282
   R12        1.91835   0.00067   0.00076   0.00023   0.00099   1.91934
   R13        2.90483   0.00028   0.00063  -0.00047   0.00014   2.90497
   R14        2.07105  -0.00125   0.00006  -0.00347  -0.00340   2.06765
   R15        2.07395   0.00050  -0.00000   0.00134   0.00134   2.07529
   R16        2.68945  -0.00263   0.00131  -0.00790  -0.00659   2.68285
   R17        2.90384  -0.00207  -0.00068  -0.00523  -0.00590   2.89795
   R18        2.07350   0.00117  -0.00008   0.00329   0.00320   2.07670
   R19        2.76478  -0.00097  -0.00062  -0.00145  -0.00207   2.76272
   R20        1.82735  -0.00066   0.00149  -0.00342  -0.00193   1.82542
   R21        2.06779  -0.00030   0.00030  -0.00126  -0.00097   2.06683
   R22        2.07492   0.00019   0.00016   0.00027   0.00043   2.07535
    A1        1.93764  -0.00077  -0.00053  -0.00405  -0.00459   1.93306
    A2        1.96999  -0.00080  -0.00029  -0.00417  -0.00447   1.96552
    A3        1.93315   0.00028  -0.00022   0.00245   0.00224   1.93539
    A4        1.87190   0.00075  -0.00000   0.00335   0.00334   1.87524
    A5        1.88010   0.00027   0.00072   0.00053   0.00125   1.88136
    A6        1.86694   0.00036   0.00041   0.00230   0.00271   1.86965
    A7        1.96413  -0.00061  -0.00104  -0.00335  -0.00440   1.95973
    A8        1.97757  -0.00104  -0.00297  -0.00376  -0.00677   1.97080
    A9        1.85379   0.00140   0.00204   0.01283   0.01488   1.86867
   A10        1.89277   0.00135   0.00132   0.00550   0.00693   1.89970
   A11        1.88511  -0.00060   0.00060  -0.00610  -0.00551   1.87960
   A12        1.88665  -0.00052   0.00020  -0.00550  -0.00528   1.88138
   A13        2.00395  -0.00068  -0.00304   0.00216  -0.00088   2.00308
   A14        1.93325   0.00074  -0.00126   0.00010  -0.00121   1.93204
   A15        1.90113  -0.00063   0.00129  -0.00168  -0.00042   1.90071
   A16        1.89990  -0.00088   0.00023  -0.01255  -0.01225   1.88765
   A17        1.85797   0.00141   0.00367   0.00806   0.01171   1.86967
   A18        1.86095   0.00012  -0.00065   0.00457   0.00396   1.86491
   A19        1.96013  -0.00029  -0.00217   0.00234   0.00015   1.96028
   A20        1.90874   0.00041  -0.00053   0.00809   0.00752   1.91626
   A21        1.90380   0.00005  -0.00016   0.00604   0.00591   1.90971
   A22        1.97005   0.00009   0.00156  -0.00210  -0.00045   1.96960
   A23        1.90907  -0.00011  -0.00086   0.00052  -0.00039   1.90869
   A24        1.88778   0.00049   0.00155   0.00075   0.00233   1.89011
   A25        1.92802  -0.00038  -0.00163  -0.00198  -0.00362   1.92440
   A26        1.90233  -0.00056   0.00130  -0.00658  -0.00527   1.89706
   A27        1.86308   0.00052  -0.00215   0.01014   0.00797   1.87105
   A28        1.84382   0.00002   0.00515  -0.01039  -0.00525   1.83857
   A29        1.93239   0.00017  -0.00167   0.00128  -0.00042   1.93197
   A30        1.90575  -0.00006  -0.00037   0.00272   0.00242   1.90817
   A31        1.96170  -0.00057  -0.00327   0.00030  -0.00301   1.95870
   A32        1.87836   0.00061   0.00072   0.00795   0.00875   1.88711
   A33        1.93834  -0.00015  -0.00032  -0.00195  -0.00225   1.93608
   A34        1.84381   0.00079   0.00008   0.00279   0.00287   1.84668
   A35        1.72991  -0.00203  -0.00409  -0.00537  -0.00947   1.72044
   A36        1.96397  -0.00107  -0.00197  -0.00264  -0.00461   1.95936
   A37        1.94072   0.00089  -0.00091   0.00021  -0.00083   1.93989
   A38        1.90818  -0.00039   0.00059   0.00022   0.00081   1.90899
   A39        1.92770  -0.00067   0.00054  -0.01271  -0.01218   1.91552
   A40        1.86030   0.00111   0.00338   0.00574   0.00913   1.86943
   A41        1.85805   0.00022  -0.00146   0.01034   0.00894   1.86699
    D1        1.03801  -0.00023  -0.00011   0.01405   0.01392   1.05193
    D2       -3.08986   0.00028  -0.00138   0.01584   0.01448  -3.07538
    D3       -1.02124  -0.00004  -0.00153   0.01529   0.01376  -1.00748
    D4       -1.06440  -0.00009   0.00047   0.01552   0.01596  -1.04843
    D5        1.09092   0.00042  -0.00081   0.01731   0.01652   1.10744
    D6       -3.12364   0.00010  -0.00096   0.01676   0.01580  -3.10784
    D7        3.12595  -0.00022   0.00030   0.01368   0.01396   3.13991
    D8       -1.00192   0.00030  -0.00098   0.01547   0.01451  -0.98740
    D9        1.06670  -0.00003  -0.00113   0.01492   0.01380   1.08050
   D10        1.27764  -0.00129  -0.00976   0.00993   0.00015   1.27778
   D11       -0.88294  -0.00019  -0.00692   0.02504   0.01814  -0.86480
   D12       -2.92442  -0.00039  -0.00616   0.02044   0.01428  -2.91014
   D13       -0.92419  -0.00053  -0.00619   0.01303   0.00685  -0.91735
   D14       -3.08477   0.00057  -0.00334   0.02814   0.02484  -3.05993
   D15        1.15694   0.00037  -0.00258   0.02354   0.02098   1.17792
   D16       -2.96486  -0.00031  -0.00749   0.01988   0.01238  -2.95248
   D17        1.15774   0.00079  -0.00464   0.03499   0.03037   1.18812
   D18       -0.88373   0.00060  -0.00389   0.03039   0.02651  -0.85722
   D19       -1.29229   0.00088   0.00772  -0.00473   0.00301  -1.28928
   D20        0.88077  -0.00013   0.00631  -0.02335  -0.01704   0.86373
   D21        2.92738   0.00042   0.00435  -0.01041  -0.00605   2.92133
   D22        0.90170   0.00038   0.00527  -0.00757  -0.00229   0.89941
   D23        3.07476  -0.00063   0.00386  -0.02618  -0.02234   3.05243
   D24       -1.16181  -0.00008   0.00191  -0.01324  -0.01135  -1.17316
   D25        2.94138   0.00011   0.00682  -0.01481  -0.00796   2.93341
   D26       -1.16875  -0.00090   0.00541  -0.03342  -0.02801  -1.19676
   D27        0.87786  -0.00035   0.00346  -0.02048  -0.01702   0.86084
   D28        0.96274  -0.00024   0.00243  -0.00973  -0.00723   0.95551
   D29       -1.15337  -0.00039   0.00437  -0.02453  -0.02012  -1.17349
   D30        3.14094  -0.00047  -0.00116  -0.01806  -0.01913   3.12180
   D31        1.02483  -0.00062   0.00078  -0.03286  -0.03202   0.99280
   D32       -1.14231  -0.00004   0.00014  -0.01467  -0.01455  -1.15686
   D33        3.02476  -0.00019   0.00208  -0.02947  -0.02744   2.99733
   D34       -0.94594  -0.00021  -0.00169  -0.00087  -0.00251  -0.94845
   D35       -3.09999   0.00030  -0.00003   0.00277   0.00275  -3.09724
   D36        1.16029  -0.00053   0.00214  -0.00996  -0.00782   1.15247
   D37        1.17300   0.00015  -0.00384   0.01506   0.01127   1.18427
   D38       -0.98105   0.00066  -0.00218   0.01871   0.01653  -0.96452
   D39       -3.00396  -0.00017  -0.00001   0.00598   0.00596  -2.99800
   D40        3.05947  -0.00009  -0.00119   0.00245   0.00126   3.06073
   D41        0.93131   0.00049   0.00058   0.00781   0.00835   0.93967
   D42       -1.20804   0.00060   0.00227   0.00759   0.00983  -1.19821
   D43       -1.08019  -0.00045  -0.00242   0.00015  -0.00224  -1.08243
   D44        3.07484   0.00012  -0.00065   0.00550   0.00486   3.07970
   D45        0.93549   0.00024   0.00105   0.00529   0.00633   0.94182
   D46        0.96157  -0.00037  -0.00520   0.00739   0.00222   0.96379
   D47       -1.16659   0.00021  -0.00343   0.01274   0.00932  -1.15727
   D48        2.97725   0.00032  -0.00173   0.01253   0.01079   2.98804
   D49        2.93297   0.00033   0.00261   0.01501   0.01754   2.95051
   D50       -1.24104   0.00023   0.00190   0.01002   0.01196  -1.22908
   D51        0.89863   0.00010  -0.00005   0.01327   0.01325   0.91188
   D52       -0.92404   0.00018  -0.00064  -0.00201  -0.00267  -0.92671
   D53       -3.10426   0.00033   0.00157   0.00942   0.01092  -3.09334
   D54        1.16744  -0.00020   0.00110   0.00045   0.00155   1.16899
   D55       -2.98150   0.00041  -0.00391   0.01003   0.00613  -2.97537
   D56        1.12147   0.00056  -0.00169   0.02146   0.01972   1.14119
   D57       -0.89002   0.00002  -0.00216   0.01249   0.01036  -0.87966
   D58        1.19622   0.00012  -0.00243   0.00100  -0.00142   1.19480
   D59       -0.98399   0.00027  -0.00021   0.01242   0.01217  -0.97182
   D60       -2.99548  -0.00026  -0.00068   0.00346   0.00280  -2.99268
   D61        3.08290  -0.00048   0.00109  -0.08129  -0.08020   3.00269
         Item               Value     Threshold  Converged?
 Maximum Force            0.002628     0.000450     NO 
 RMS     Force            0.000722     0.000300     NO 
 Maximum Displacement     0.104245     0.001800     NO 
 RMS     Displacement     0.018070     0.001200     NO 
 Predicted change in Energy=-2.459764D-04
 GradGradGradGradGradGradGradGradGradGradGradGradGradGradGradGradGradGrad

                          Input orientation:                          
 ---------------------------------------------------------------------
 Center     Atomic      Atomic             Coordinates (Angstroms)
 Number     Number       Type             X           Y           Z
[...]
 4,0.00564104,-0.01779872,-0.00578604,0.00221895,-0.00787239,-0.0014516
 9,-0.08170761,0.29016590,0.02048035,-0.06014427,-0.06295396,0.00089847
 ,-0.00328390,-0.00216626,0.00086952,0.00032631,0.00002612,0.00022892,-
 0.00001692,0.00035241,-0.00010547,-0.00022936,0.00035674,-0.00016577,0
 .00004092,-0.00021896,0.00004562,-0.00001308,0.00002257,-0.00004253,0.
 00007493,0.00009325,0.00005974,-0.00105662,0.00017713,-0.00804997,0.02
 265070,0.00660180,0.00864371,-0.02568218,-0.00707449,-0.02297762,0.066
 35317,0.06421218,-0.01946688,-0.00867546,-0.02908971,-0.09134596,-0.02
 434038,-0.09424599,0.00349927,0.00249289,0.00992518,0.00032911,0.00246
 845,0.00136734,0.00007954,0.00016647,-0.00039270,-0.00007966,-0.001712
 74,0.00068938,-0.00000347,-0.00002579,0.00080088,-0.00002096,-0.000038
 71,-0.00007015,0.00323036,0.00158000,0.01033582,0.00146265,-0.00035388
 ,0.00024546,-0.00680896,0.00021632,0.00135774,0.00128792,0.00052275,0.
 00003004,0.10624605,0.00055032,0.00032122,0.00059877,-0.02417629,-0.06
 150842,-0.05121890,-0.01294216,-0.00569699,-0.02720719,0.00251947,-0.0
 0633769,-0.00363404,-0.00053731,-0.00159445,0.00120459,-0.00172323,-0.
 00336030,0.00018201,-0.00037352,-0.00018219,0.00269616,-0.00004582,0.0
 0031669,-0.00016856,0.00874762,0.00476088,0.02351710,-0.00020681,0.000
 03296,-0.00035228,0.00024652,0.00078422,-0.00027488,-0.00017622,0.0002
 9391,0.00048049,0.02733259,0.06799857,0.00260372,0.00112756,0.00403544
 ,-0.09334081,-0.05143846,-0.23565667,-0.00432456,-0.00111499,-0.008472
 20,0.00135114,-0.00299471,-0.00050069,-0.00046082,0.00013467,0.0009652
 8,0.00217638,0.00421726,0.00142790,0.00015989,-0.00030209,-0.00234118,
 0.00007835,0.00011909,0.00017778,-0.00810432,-0.00387630,-0.02254674,-
 0.00052812,-0.00015019,0.00087080,0.00159508,0.00006983,0.00131758,-0.
 00058542,0.00029218,0.00027016,0.09854617,0.05466977,0.25832225,0.0010
 2554,0.00053385,-0.00091433,0.00318237,0.00944156,-0.00640292,-0.08589
 040,-0.06922042,0.05935667,0.00362481,0.00633912,-0.00763813,-0.000108
 55,-0.00010138,-0.00158348,0.00000731,-0.00010660,0.00013339,0.0000587
 7,-0.00000616,-0.00000212,0.00001826,0.00003776,-0.00001608,-0.0005880
 3,0.00185705,0.00040443,0.00008638,-0.00005101,0.00021080,-0.00007334,
 -0.00003469,-0.00005456,0.00015689,-0.00019100,-0.00001660,0.00011234,
 -0.00050857,0.00000828,0.08670864,-0.00148330,0.00134519,0.00104265,-0
 .01112688,-0.02141678,0.01804426,-0.06825620,-0.17628160,0.11121525,0.
 00488951,0.00835404,-0.00733479,-0.00032958,0.00014604,-0.00197763,-0.
 00012438,0.00000592,-0.00137740,-0.00004757,-0.00003899,0.00036851,-0.
 00007443,0.00007671,0.00024029,0.00334616,-0.00443305,-0.00316457,0.00
 104088,0.00022452,-0.00075436,0.00027866,-0.00000208,0.00003077,-0.000
 19161,0.00040823,-0.00029217,-0.00034018,0.00043636,-0.00048695,0.0724
 0047,0.19089514,-0.00025937,-0.00031913,0.00029776,-0.00225307,-0.0050
 7689,0.00604589,0.05352923,0.10528259,-0.13764890,0.01480407,0.0213442
 8,-0.02852770,-0.00406509,-0.00287601,-0.00449569,0.00034989,-0.000996
 22,-0.00071167,-0.00009505,0.00006934,0.00030670,0.00001702,0.00041477
 ,0.00009262,0.00097361,-0.00182575,0.00003613,-0.00023396,0.00012572,0
 .00017320,0.00008050,0.00008783,-0.00006079,-0.00015518,-0.00009287,0.
 00007287,-0.00031040,0.00085066,0.00027150,-0.06213175,-0.11635050,0.1
 6124514,0.00104964,0.00307384,0.00084979,-0.01290744,-0.00030365,0.000
 94239,-0.29413470,0.00380686,-0.01585821,-0.00867475,-0.00507266,-0.00
 700969,0.00031376,-0.00021423,0.00105597,-0.00006851,-0.00003269,-0.00
 021428,0.00004961,0.00004583,-0.00004755,0.00002735,0.00014824,-0.0000
 2106,0.00004366,-0.00079538,-0.00017570,0.00025560,-0.00006885,-0.0000
 8938,0.00025415,-0.00019210,-0.00013511,-0.00093320,0.00009504,-0.0000
 2394,0.00065620,0.00015091,0.00061906,-0.01065128,0.00021110,-0.000355
 75,0.32189216,0.00029886,-0.00579645,-0.00102946,0.03128768,-0.0021769
 1,0.00060671,0.00426346,-0.04893890,0.00299784,-0.01224376,-0.00105094
 ,-0.00377656,0.00076218,-0.00018947,0.00067033,0.00013892,-0.00029741,
 -0.00015713,-0.00009081,0.00001006,0.00013935,-0.00001334,0.00012619,-
 0.00002218,0.00082171,0.00151096,-0.00021873,-0.00006028,0.00016027,-0
 .00023988,0.00000792,0.00002497,0.00021058,0.00197871,0.00003323,-0.00
 037655,-0.00049530,0.00138413,0.00004100,-0.02193319,0.00050191,-0.002
 12085,-0.00354446,0.05353250,0.00059289,-0.00227355,0.00006810,0.00822
 154,-0.00009702,0.00062244,-0.01034531,0.00401732,-0.04831678,-0.03722
 112,-0.00628424,-0.01126871,-0.00240121,-0.00076859,0.00211997,0.00025
 733,0.00012909,-0.00043128,0.00000030,0.00006691,0.00009062,0.00001188
 ,0.00018161,0.00000477,-0.00041779,0.00018572,-0.00000949,-0.00041495,
 -0.00006760,0.00019238,0.00014749,-0.00005140,0.00004517,0.00074407,-0
 .00031484,0.00010222,0.00032237,0.00022136,0.00025188,0.01903795,-0.00
 080844,0.00243621,0.02301188,0.00558973,0.06021372,-0.00014649,-0.0000
 0652,0.00023338,0.00057089,0.00026924,0.00119377,-0.00902475,0.0039347
 8,0.00171301,-0.40755583,-0.08486254,-0.04001344,-0.01229745,0.0045812
 7,-0.00099060,0.00123209,0.00031050,-0.00105155,0.00016994,0.00024765,
 0.00003609,-0.00002281,0.00032464,-0.00003509,0.00008134,-0.00010580,-
 0.00000404,0.00001806,0.00002425,0.00011579,0.00000056,0.00057001,0.00
 063557,0.00015377,-0.00004767,-0.00001362,-0.00015392,0.00026168,0.000
 15833,0.00056736,0.00019395,-0.00034446,0.00108379,-0.00029206,-0.0028
 3438,0.42387512,-0.00041915,0.00033378,-0.00095572,-0.00174235,-0.0003
 6321,-0.00004057,-0.01008615,-0.00505181,-0.00612197,-0.04048077,-0.02
 377316,0.00685521,-0.02823388,-0.01097591,0.00141391,-0.00282658,0.000
 51533,-0.00018671,0.00052393,0.00040169,-0.00031595,0.00030503,-0.0000
 1774,0.00002119,-0.00006772,-0.00063459,-0.00020676,0.00002369,-0.0000
 0832,0.00035351,0.00136007,-0.00044555,-0.00012210,0.00003892,0.000081
 52,0.00044476,0.00043444,0.00004288,0.00010462,0.00059819,0.00037773,0
 .00052303,0.00139203,0.00112909,0.00028108,0.07707121,0.03946835,-0.00
 006794,-0.00012738,-0.00030693,-0.00060972,-0.00007452,0.00029809,-0.0
 3956126,-0.00595010,-0.00589874,-0.02935668,0.00433286,-0.05913313,0.0
 2888235,0.00414469,0.00178679,0.00039311,-0.00056656,-0.00000956,-0.00
 018312,0.00007825,-0.00002128,-0.00009686,0.00015277,-0.00003051,-0.00
 004319,-0.00011877,-0.00016509,0.00001882,-0.00000893,-0.00013855,0.00
 088784,-0.00051588,0.00020821,0.00028172,0.00019264,0.00026334,0.00035
 550,0.00008779,0.00014594,0.00048689,0.00072841,0.00102097,-0.00151482
 ,-0.00218786,-0.00655518,0.03832913,-0.00434102,0.07146458,0.00006112,
 -0.00005399,0.00003226,0.00005483,0.00001324,-0.00002686,-0.00071436,-
 0.00139067,0.00119011,0.00367164,0.00182687,0.01323258,-0.07573700,-0.
 02445982,-0.07613634,0.00335745,0.00636711,0.01256134,0.00009303,-0.00
 087999,-0.00014550,-0.00011603,-0.00006194,0.00008209,-0.00040574,0.00
 196987,-0.00039747,-0.00001670,0.00000269,-0.00000057,-0.00002868,-0.0
 0000152,-0.00001796,0.00001375,-0.00002072,-0.00001374,-0.00005028,0.0
 0001120,-0.00000863,0.00040476,0.00001132,0.00038785,0.00049370,0.0000
 4095,0.00024369,0.00059839,0.00079167,-0.00007264,0.07520642,-0.000024
 32,0.00018226,-0.00008829,-0.00005521,-0.00040421,0.00090391,-0.002569
 90,-0.00325201,0.00223602,0.00934013,0.00576375,0.02742314,-0.02535275
 ,-0.07176372,-0.07464094,-0.01035835,-0.00994589,-0.02861018,0.0001778
 1,0.00189964,-0.00053706,0.00035991,0.00007797,0.00080662,0.00292828,-
 0.00565749,0.00084483,0.00011928,0.00003255,-0.00005867,0.00002160,-0.
 00004102,0.00000324,-0.00009900,0.00003454,0.00004398,-0.00005112,0.00
 029999,-0.00004303,0.00009901,0.00036811,0.00145932,0.00006532,-0.0000
 4798,-0.00021557,0.00012482,0.00110291,-0.00069897,0.02532948,0.080074
 31,-0.00011026,-0.00008764,-0.00007164,-0.00031668,0.00030128,0.000070
 12,0.00338990,0.00364816,-0.00033445,-0.00750882,-0.00195068,-0.024239
 77,-0.07065791,-0.06995809,-0.25948596,-0.00252448,-0.00321228,-0.0067
 2145,-0.00023105,0.00079643,0.00079829,0.00011967,-0.00057279,0.000286
 21,0.00135195,-0.00099812,0.00098709,-0.00000205,0.00002173,0.00001754
 ,0.00002196,0.00003093,0.00001672,0.00004938,-0.00003650,0.00000374,0.
 00003456,-0.00010571,-0.00004345,-0.00018452,-0.00044474,-0.00127229,-
 0.00007982,0.00002278,0.00027940,0.00038055,-0.00043419,0.00036547,0.0
 7634382,0.07297006,0.28825303,-0.00014761,0.00000412,-0.00025466,-0.00
 002148,-0.00002152,0.00037446,0.00022885,0.00030802,-0.00116128,-0.011
 05001,-0.00772990,0.00293477,-0.29541092,-0.00243479,-0.00670840,-0.01
 569295,0.00191526,-0.00142462,0.00063786,-0.00124855,0.00030445,0.0004
 5367,0.00060468,-0.00015152,0.00035987,-0.00079893,-0.00060849,0.00005
 956,0.00002417,0.00004381,0.00011278,0.00004782,0.00010726,0.00001185,
 0.00000441,0.00002729,-0.00001035,0.00000716,0.00008631,0.00051169,-0.
 00000258,0.00008995,0.00035694,0.00016013,0.00101816,0.00071845,0.0002
 4159,0.00223131,-0.00839155,0.00019895,-0.00032670,0.32599033,-0.00003
 465,0.00011246,-0.00002096,0.00004997,-0.00022189,0.00027276,-0.000343
 95,0.00037243,-0.00169314,-0.02922121,-0.00612125,0.00243710,0.0008218
 1,-0.04717486,-0.00215279,0.03331406,-0.00183404,0.00086468,0.00015758
 ,0.00154230,-0.00070171,-0.00077463,0.00037065,0.00001003,0.00050157,0
 .00147232,0.00126026,-0.00003291,0.00001348,-0.00008976,0.00000707,-0.
 00014061,0.00005727,0.00003681,0.00005121,0.00007890,0.00001027,0.0001
 8913,-0.00003640,0.00019540,-0.00005558,-0.00024302,0.00064146,0.00028
 393,0.00026285,-0.00214460,-0.00157826,0.00466520,-0.00912348,0.000098
 90,-0.00029728,0.00581827,0.05833953,0.00003165,0.00005162,0.00006740,
 -0.00017192,-0.00010169,-0.00029803,0.00230402,-0.00034468,0.00163458,
 0.02550584,0.00640282,-0.00151302,-0.01115056,-0.00294194,-0.05115255,
 0.00755072,-0.00146556,0.00064011,-0.00037997,0.00081356,0.00016860,0.
 00013753,-0.00034807,-0.00021883,0.00094700,0.00046632,0.00045858,-0.0
 0001197,0.00001052,-0.00000524,-0.00011201,0.00000989,-0.00007353,-0.0
 0006154,-0.00001512,-0.00003362,-0.00000734,-0.00010943,-0.00007417,-0
 .00015876,0.00002541,0.00032544,-0.00080642,-0.00006605,0.00012042,0.0
 0267830,0.00241817,-0.00339097,-0.02856904,-0.00034990,0.00088393,0.00
 186234,-0.00345587,0.05195941,-0.00101990,-0.00063295,-0.00010809,-0.0
 0077063,-0.00048829,-0.00041716,0.00012175,0.00009996,-0.00015481,0.00
 157515,-0.00009013,-0.00044121,-0.01092658,0.00046942,-0.00112196,-0.2
 8480901,0.00984477,-0.04263710,-0.02024405,-0.00749086,0.01007209,0.00
 270937,0.00033617,-0.00032739,-0.00781353,0.00149292,-0.00230217,0.000
 30493,0.00011177,0.00038857,0.00060275,0.00024787,0.00122424,0.0000009
 0,0.00006531,0.00005605,0.00021820,0.00021143,-0.00018588,0.00001293,0
 .00008099,-0.00000424,0.00005252,-0.00011061,0.00012507,0.00022235,0.0
 0079824,-0.00040125,0.00074425,0.00011938,0.00041231,0.00039792,0.0013
 8742,0.00076609,0.31682669,-0.00004507,0.00032754,0.00040096,-0.000130
 01,-0.00016268,-0.00020655,0.00006994,-0.00025112,0.00007274,-0.000789
 22,0.00292477,-0.00110247,0.03173339,-0.00310477,0.00284559,0.01549342
 ,-0.04753785,-0.00177493,-0.02852431,-0.00904391,0.00965864,-0.0013287
 4,0.00401869,-0.00088421,-0.01022849,0.00179600,-0.00416723,0.00004965
 ,-0.00004278,-0.00001990,-0.00015312,0.00006125,0.00042561,-0.00000255
 ,-0.00007763,-0.00005139,0.00011443,0.00010420,-0.00012844,-0.00000351
 ,0.00004591,0.00007496,-0.00008077,-0.00000946,-0.00013282,-0.00055274
 ,-0.00061042,0.00022937,-0.00083427,0.00144103,0.00019285,0.00229640,-
 0.00546629,-0.00082657,-0.00634558,0.05486839,0.00011197,0.00004685,-0
 .00054112,-0.00036250,-0.00003227,0.00114724,0.00003457,-0.00014473,-0
 .00040856,-0.00059106,0.00033241,0.00006094,0.00718842,-0.00177521,0.0
 0093083,-0.04575383,0.00149257,-0.05652726,0.03372144,0.00764229,-0.00
 341269,-0.00136830,-0.00186062,0.00048256,-0.03100477,-0.00050016,-0.0
 0449462,0.00028547,0.00003902,0.00023701,0.00089632,0.00060075,-0.0006
 6585,0.00004827,-0.00005701,-0.00008309,0.00036454,-0.00006453,0.00009
 033,-0.00004738,0.00015832,0.00000944,0.00014258,-0.00009197,-0.000026
 52,-0.00017346,0.00019993,0.00015135,0.00043159,0.00050468,0.00054678,
 0.00085567,-0.00100066,0.00038199,0.03638614,-0.00338070,0.06716873,-0
 .00004329,-0.00005385,0.00000675,-0.00038882,0.00016674,0.00018236,0.0
 0022386,0.00000827,-0.00002242,-0.00026738,0.00066574,-0.00005913,0.00
 118277,0.00006893,-0.00085977,-0.00237452,0.00073087,0.00234182,0.0142
 8049,0.02981888,0.00891244,-0.32519365,-0.21261253,-0.14552331,0.00109
 475,-0.00091030,-0.00056983,0.00000337,0.00002799,-0.00001138,-0.00000
 996,0.00000576,0.00000786,-0.00001277,-0.00000683,0.00001889,0.0000247
 7,0.00001032,-0.00008109,-0.00002027,0.00006482,-0.00004353,-0.0000383
 4,-0.00000248,-0.00001470,-0.00003688,-0.00004504,-0.00001323,-0.00002
 417,-0.00004335,0.00002310,-0.00007185,-0.00012659,0.00000017,0.000481
 70,0.00037867,-0.00022660,0.31180291,-0.00003891,0.00015123,-0.0000767
 4,-0.00005472,-0.00009219,0.00038139,0.00007353,-0.00007369,-0.0002959
 1,0.00026289,-0.00049319,0.00022318,-0.00076562,-0.00019555,0.00125585
 ,0.00029150,-0.00639586,-0.00252523,-0.01911670,-0.03355863,-0.0099495
 9,-0.16271120,-0.15841879,-0.08370378,-0.00023118,0.00037729,-0.000196
 05,0.00007214,0.00003144,-0.00005276,-0.00000932,-0.00003402,0.0000100
 1,-0.00001407,-0.00001741,0.00001772,-0.00000657,0.00005428,-0.0000708
 0,0.00000423,0.00011590,0.00003319,0.00001001,-0.00001289,0.00003029,0
 .00003858,0.00000161,-0.00003729,-0.00003780,0.00021924,0.00003538,0.0
 0018335,-0.00008980,-0.00003317,0.00062705,0.00026070,-0.00035738,0.18
 145004,0.19803749,0.00005059,-0.00006185,0.00013778,0.00013133,-0.0002
 1020,-0.00050540,-0.00007370,0.00009373,0.00050593,-0.00000807,0.00037
 504,-0.00026708,-0.00004201,0.00014550,-0.00082232,0.00051715,0.003157
 43,0.00186218,0.00386381,-0.00197301,-0.00091068,-0.13997659,-0.096257
 24,-0.06349724,-0.00040295,0.00050094,0.00071097,-0.00008669,-0.000046
 35,0.00001999,-0.00005864,-0.00001816,-0.00003632,0.00005011,-0.000008
 44,-0.00004237,0.00001226,0.00000355,-0.00000989,0.00001197,-0.0001429
 0,-0.00006506,-0.00000376,0.00000112,-0.00002227,-0.00002075,0.0000376
 6,-0.00000701,0.00002151,-0.00013980,-0.00003990,-0.00000774,0.0000468
 4,0.00007597,-0.00015011,-0.00012077,-0.00033325,0.13585370,0.09456027
 ,0.06433007,0.00102522,-0.00090295,-0.00041914,0.00297883,-0.01023571,
 -0.00203620,-0.00058773,-0.00131805,0.00155711,-0.00003683,0.00023167,
 0.00009771,0.00019485,0.00037246,-0.00160608,0.00337716,-0.00950836,-0
 .00254543,-0.00025551,0.00017545,0.00105995,-0.00005373,0.00035314,-0.
 00108176,-0.09156617,0.09435133,0.02082366,0.00009367,0.00012275,-0.00
 013164,-0.00003052,-0.00007148,-0.00001293,0.00012488,0.00016560,0.000
 19861,-0.00003851,0.00050536,-0.00025956,0.00052448,-0.00049782,-0.000
 08145,0.00029807,-0.00037370,0.00002617,-0.00003071,0.00004227,0.00001
 701,0.00045452,-0.00031156,-0.00015661,0.00033767,-0.00046828,-0.00023
 418,0.00060527,-0.00024709,0.00074432,-0.00029137,-0.00027712,0.000711
 42,0.09558623,0.00109974,0.00068232,-0.00122849,0.00846444,-0.02097658
 ,-0.00407217,-0.00249947,-0.00055817,0.00495951,0.00019419,0.00049804,
 -0.00005017,-0.00129250,0.00133576,-0.00197591,0.00405529,-0.00947730,
 -0.00282639,0.00009155,-0.00057646,-0.00042950,-0.00046879,0.00027121,
 0.00245152,0.09260224,-0.25205565,-0.04753386,0.00012979,0.00052855,0.
 00011082,-0.00010208,0.00000064,0.00005442,-0.00109943,0.00046489,0.00
 046191,0.00017699,0.00068164,0.00024814,0.00040252,-0.00136626,-0.0004
 6649,0.00012886,0.00018522,-0.00001185,-0.00006324,-0.00000338,-0.0000
 4510,0.00026708,-0.00056722,0.00001095,0.00008323,0.00000344,0.0000775
 2,-0.00025365,0.00034947,-0.00002755,0.00023249,0.00027074,-0.00010394
 ,-0.10083327,0.27703879,-0.00097770,-0.00007681,0.00106621,-0.00904687
 ,0.02129281,0.00490065,0.00200298,0.00257289,-0.00429781,-0.00002132,0
 .00020913,0.00098491,-0.00201371,0.00070248,-0.00687112,0.01385164,-0.
 03085873,-0.00635461,-0.00011359,-0.00037587,0.00172444,-0.00035308,0.
 00165052,0.00102301,0.02025182,-0.04594518,-0.05595858,-0.00031392,-0.
 00017523,-0.00003359,0.00015609,-0.00008518,-0.00007776,0.00033129,-0.
 00029027,-0.00002669,-0.00048569,-0.00062369,0.00069412,-0.00036266,0.
 00150744,0.00057763,0.00011646,-0.00022699,-0.00008250,-0.00002236,-0.
 00001460,0.00010595,0.00052190,-0.00205923,-0.00039851,-0.00006097,0.0
 0016023,0.00003122,-0.00001148,0.00076357,0.00118814,0.00017219,0.0006
 5182,-0.00090754,-0.02289402,0.04961811,0.06273361,0.00114802,-0.00158
 368,0.00179112,-0.00983420,-0.00030823,0.00009368,-0.00017051,0.000790
 18,-0.00032215,0.00022801,-0.00065433,-0.00006127,0.00012566,0.0009077
 6,0.00044401,-0.01233082,-0.00155624,-0.00142319,0.00255198,0.00061166
 ,0.00069491,-0.00003700,0.00035606,-0.00016774,-0.29367054,-0.01886393
 ,-0.01238646,-0.00072974,-0.00017046,-0.00001237,0.00013728,0.00008226
 ,-0.00014160,0.00030535,-0.00000781,-0.00014794,0.00083253,0.00013536,
 0.00049648,0.00032933,-0.00004335,0.00010119,0.00058108,-0.00060052,-0
 .00011133,-0.00002327,0.00028034,0.00003703,0.00033062,-0.00001839,-0.
 00002830,0.00061931,-0.00067139,-0.00011995,0.00070701,-0.00087044,-0.
 00168339,-0.00032135,0.00024991,-0.00039285,-0.01270976,-0.00131599,-0
 .00072700,0.32193100,0.00016400,-0.00293865,0.00266531,-0.02241117,-0.
 00261038,-0.00087071,-0.00131979,0.00102341,-0.00060996,0.00035438,-0.
 00037645,-0.00005719,-0.00137575,0.00046189,0.00051400,-0.01115156,-0.
 00176685,-0.00034256,0.00112405,0.00066762,0.00069220,-0.00010432,-0.0
 0027122,0.00017017,-0.01763467,-0.05117752,-0.00320582,-0.00127815,0.0
 0025034,0.00028993,0.00011694,0.00000870,-0.00008713,-0.00015255,0.000
 27217,0.00017265,0.00052450,0.00097898,-0.00038176,0.00024738,0.000292
 63,0.00010206,0.00053528,-0.00036204,0.00005995,0.00012259,0.00000746,
 0.00006039,0.00023274,0.00008434,0.00006747,0.00033871,-0.00016718,-0.
 00021778,-0.00048064,0.00010896,-0.00172402,0.00017144,-0.00013793,0.0
 0016057,0.02872537,0.00327033,0.00160278,0.02325123,0.05238139,0.00056
 700,0.00388682,-0.00292226,0.02389979,0.00203132,-0.00050523,-0.000004
 33,-0.00091255,0.00042262,0.00008164,-0.00016332,-0.00004206,-0.000725
 83,0.00132238,0.00128989,-0.03453849,-0.00364393,-0.00557138,0.0012604
 0,-0.00022052,0.00403282,-0.00000936,0.00033271,-0.00006649,-0.0117007
 7,-0.00225089,-0.04558014,0.00156420,0.00032667,-0.00018452,0.00021212
 ,0.00015531,0.00006627,-0.00044793,0.00002406,0.00004491,0.00021473,-0
 .00075304,0.00080400,-0.00013708,-0.00022686,-0.00012942,-0.00040263,0
 .00023476,0.00016543,0.00002981,0.00008653,-0.00015374,0.00034000,0.00
 024582,0.00009908,0.00076861,-0.00042455,0.00001230,-0.00116772,-0.001
 86831,-0.00590241,-0.00009431,0.00009962,-0.00017657,0.00622304,0.0007
 7852,-0.00002120,0.01406711,0.00093945,0.05431809\\-0.00000501,-0.0000
 0382,0.00000176,0.00000039,0.00000548,-0.00000025,0.00000143,-0.000007
 58,-0.00000306,-0.00000036,0.00001181,0.00000060,-0.00000306,-0.000008
 16,0.00000344,0.00000428,-0.00000833,0.00000039,-0.00000124,0.00002362
 ,-0.00000663,-0.00000240,-0.00001372,-0.00000029,-0.00000029,-0.000002
 04,0.00000315,0.00000111,-0.00000163,-0.00000005,0.00000255,-0.0000008
 8,0.00000115,-0.00000018,-0.00000236,-0.00000058,-0.00000041,-0.000001
 30,0.00000032,0.00000161,0.00000054,0.00000134,0.00000199,0.00000136,0
 .00000270,0.00000159,-0.00000584,0.00000022,0.00000071,0.00000067,0.00
 000107,0.00000161,0.00000659,-0.00000084,-0.00000128,0.00000066,-0.000
 00060,0.00000224,0.00000245,-0.00000342,-0.00000090,0.00000018,0.00000
 007,-0.00000437,0.00000231,-0.00000049\\\@


 Everything starts as somebody's daydream.
                           -- Larry Niven
 Job cpu time:       0 days  2 hours 23 minutes 45.2 seconds.
 Elapsed time:       0 days  0 hours 35 minutes 57.4 seconds.
 File lengths (MBytes):  RWF=    170 Int=      0 D2E=      0 Chk=      9 Scr=      1
 Normal termination of Gaussian 16 at Thu Aug  4 14:28:27 2022.
### All Done ###
