### Starting Gaussian ###
 Entering Gaussian System, Link 0=g16
 Initial command:
 /cluster/software/gaussian/gaussian-16-A.03/avx2/g16/l1.exe "/local/scratch/ks29c/Gau-31469.inp" -scrdir="/local/scratch/ks29c/"
 Entering Link 1 = /cluster/software/gaussian/gaussian-16-A.03/avx2/g16/l1.exe PID=     31473.
  
 Copyright (c) 1988,1990,1992,1993,1995,1998,2003,2009,2016,
            Gaussian, Inc.  All Rights Reserved.
  
 This is part of the Gaussian(R) 16 program.  It is based on
 the Gaussian(R) 09 system (copyright 2009, Gaussian, Inc.),
 the Gaussian(R) 03 system (copyright 2003, Gaussian, Inc.),
 the Gaussian(R) 98 system (copyright 1998, Gaussian, Inc.),
 the Gaussian(R) 94 system (copyright 1995, Gaussian, Inc.),
 the Gaussian 92(TM) system (copyright 1992, Gaussian, Inc.),
 the Gaussian 90(TM) system (copyright 1990, Gaussian, Inc.),
 the Gaussian 88(TM) system (copyright 1988, Gaussian, Inc.),
 the Gaussian 86(TM) system (copyright 1986, Carnegie Mellon
 University), and the Gaussian 82(TM) system (copyright 1983,
 Carnegie Mellon University). Gaussian is a federally registered
 trademark of Gaussian, Inc.
  
 This software contains proprietary and confidential information,
 including trade secrets, belonging to Gaussian, Inc.
  
 This software is provided under written license and may be
 used, copied, transmitted, or stored only in accord with that
 written license.
  
 The following legend is applicable only to US Government
 contracts under FAR:
  
                    RESTRICTED RIGHTS LEGEND
  
 Use, reproduction and disclosure by the US Government is
 subject to restrictions as set forth in subparagraphs (a)
 and (c) of the Commercial Computer Software - Restricted
 Rights clause in FAR 52.227-19.
  
 Gaussian, Inc.
 340 Quinnipiac St., Bldg. 40, Wallingford CT 06492
  
  
 ---------------------------------------------------------------
 Warning -- This program may not be used in any manner that
 competes with the business of Gaussian, Inc. or will provide
 assistance to any competitor of Gaussian, Inc.  The licensee
 of this program is prohibited from giving any competitor of
 Gaussian, Inc. access to this program.  By using this program,
 the user acknowledges that Gaussian, Inc. is engaged in the
 business of creating and licensing software in the field of
 computational chemistry and represents and warrants to the
 licensee that it is not a competitor of Gaussian, Inc. and that
 it will not use this program in any manner prohibited above.
 ---------------------------------------------------------------
  

 Cite this work as:
 Gaussian 16, Revision A.03,
 M. J. Frisch, G. W. Trucks, H. B. Schlegel, G. E. Scuseria, 
 M. A. Robb, J. R. Cheeseman, G. Scalmani, V. Barone, 
 G. A. Petersson, H. Nakatsuji, X. Li, M. Caricato, A. V. Marenich, 
 J. Bloino, B. G. Janesko, R. Gomperts, B. Mennucci, H. P. Hratchian, 
 J. V. Ortiz, A. F. Izmaylov, J. L. Sonnenberg, D. Williams-Young, 
 F. Ding, F. Lipparini, F. Egidi, J. Goings, B. Peng, A. Petrone, 
 T. Henderson, D. Ranasinghe, V. G. Zakrzewski, J. Gao, N. Rega, 
 G. Zheng, W. Liang, M. Hada, M. Ehara, K. Toyota, R. Fukuda, 
 J. Hasegawa, M. Ishida, T. Nakajima, Y. Honda, O. Kitao, H. Nakai, 
 T. Vreven, K. Throssell, J. A. Montgomery, Jr., J. E. Peralta, 
 F. Ogliaro, M. J. Bearpark, J. J. Heyd, E. N. Brothers, K. N. Kudin, 
 V. N. Staroverov, T. A. Keith, R. Kobayashi, J. Normand, 
 K. Raghavachari, A. P. Rendell, J. C. Burant, S. S. Iyengar, 
 J. Tomasi, M. Cossi, J. M. Millam, M. Klene, C. Adamo, R. Cammi, 
 J. W. Ochterski, R. L. Martin, K. Morokuma, O. Farkas, 
 J. B. Foresman, and D. J. Fox, Gaussian, Inc., Wallingford CT, 2016.
 
 ******************************************
 Gaussian 16:  ES64L-G16RevA.03 25-Dec-2016
                 3-Jul-2022 
 ******************************************
 %chk=CC1C2dCC1CpdOpC2O.chk
 %NProcShared=20
 Will use up to   20 processors via shared memory.
 -----------------------------
 # opt freq b3lyp/6-31g(2df,p)
 -----------------------------
 1/18=20,19=15,26=3,38=1/1,3;
 2/9=110,12=2,17=6,18=5,40=1/2;
 3/5=1,6=6,7=104,11=2,25=1,30=1,71=1,74=-5/1,2,3;
 4//1;
 5/5=2,38=5/2;
 6/7=2,8=2,9=2,10=2,28=1/1;
 7//1,2,3,16;
 1/18=20,19=15,26=3/3(2);
 2/9=110/2;
 99//99;
 2/9=110/2;
 3/5=1,6=6,7=104,11=2,25=1,30=1,71=1,74=-5/1,2,3;
 4/5=5,16=3,69=1/1;
 5/5=2,38=5/2;
 7//1,2,3,16;
 1/18=20,19=15,26=3/3(-5);
 2/9=110/2;
 6/7=2,8=2,9=2,10=2,19=2,28=1/1;
 99/9=1/99;
 -------------------
 Title Card Required
 -------------------
 Symbolic Z-matrix:
 Charge =  0 Multiplicity = 1
 C                     0.90437  -0.28055  -0.39061 
 C                     2.1949   -1.03393  -0.52091 
 C                     3.57595  -0.90775  -1.1752 
 C                     3.67347  -2.24575  -0.66894 
 C                     2.55988  -2.4136   -1.70878 
 C                     3.17128  -1.83081  -3.05793 
 O                     3.10331  -2.24424  -4.23464 
 C                     3.778    -0.51056  -2.65059 
 O                     2.91741   0.55217  -2.97454 
 H                     0.99882   0.6291    0.23029 
 H                     0.24323  -0.92562   0.20736 
 H                     0.41921  -0.0206   -1.32327 
 H                     2.61772  -0.52919   0.38376 
 H                     3.33709  -2.75851   0.29062 
 H                     2.42324  -3.49975  -1.77437 
 H                     4.83197  -0.37818  -2.89316 
 H                     2.02655   0.17541  -3.10508 
 

 GradGradGradGradGradGradGradGradGradGradGradGradGradGradGradGradGradGrad
 Berny optimization.
 Initialization pass.
                           ----------------------------
                           !    Initial Parameters    !
                           ! (Angstroms and Degrees)  !
 --------------------------                            --------------------------
 ! Name  Definition              Value          Derivative Info.                !
 --------------------------------------------------------------------------------
 ! R1    R(1,2)                  1.5            estimate D2E/DX2                !
 ! R2    R(1,10)                 1.1054         estimate D2E/DX2                !
 ! R3    R(1,11)                 1.1004         estimate D2E/DX2                !
 ! R4    R(1,12)                 1.083          estimate D2E/DX2                !
 ! R5    R(2,3)                  1.5334         estimate D2E/DX2                !
 ! R6    R(2,13)                 1.1189         estimate D2E/DX2                !
 ! R7    R(3,4)                  1.4339         estimate D2E/DX2                !
 ! R8    R(3,8)                  1.5412         estimate D2E/DX2                !
 ! R9    R(4,5)                  1.5328         estimate D2E/DX2                !
 ! R10   R(4,14)                 1.1388         estimate D2E/DX2                !
 ! R11   R(5,6)                  1.5917         estimate D2E/DX2                !
 ! R12   R(5,15)                 1.0967         estimate D2E/DX2                !
 ! R13   R(6,7)                  1.2491         estimate D2E/DX2                !
 ! R14   R(6,8)                  1.509          estimate D2E/DX2                !
 ! R15   R(8,9)                  1.4053         estimate D2E/DX2                !
 ! R16   R(8,16)                 1.0896         estimate D2E/DX2                !
 ! R17   R(9,17)                 0.976          estimate D2E/DX2                !
 ! A1    A(2,1,10)             112.8669         estimate D2E/DX2                !
 ! A2    A(2,1,11)             105.6464         estimate D2E/DX2                !
 ! A3    A(2,1,12)             115.5423         estimate D2E/DX2                !
 ! A4    A(10,1,11)            103.2098         estimate D2E/DX2                !
 ! A5    A(10,1,12)            108.9347         estimate D2E/DX2                !
 ! A6    A(11,1,12)            109.8498         estimate D2E/DX2                !
 ! A7    A(1,2,3)              140.4082         estimate D2E/DX2                !
 ! A8    A(1,2,13)              91.6225         estimate D2E/DX2                !
 ! A9    A(3,2,13)              88.1394         estimate D2E/DX2                !
 ! A10   A(2,3,4)               80.4341         estimate D2E/DX2                !
 ! A11   A(2,3,8)              123.2125         estimate D2E/DX2                !
 ! A12   A(4,3,8)              124.7186         estimate D2E/DX2                !
 ! A13   A(3,4,5)               79.2372         estimate D2E/DX2                !
 ! A14   A(3,4,14)             134.2322         estimate D2E/DX2                !
 ! A15   A(5,4,14)             107.9216         estimate D2E/DX2                !
 ! A16   A(4,5,6)              104.8238         estimate D2E/DX2                !
 ! A17   A(4,5,15)             103.8597         estimate D2E/DX2                !
 ! A18   A(6,5,15)             111.0869         estimate D2E/DX2                !
 ! A19   A(5,6,7)              131.0257         estimate D2E/DX2                !
 ! A20   A(5,6,8)              104.2393         estimate D2E/DX2                !
 ! A21   A(7,6,8)              124.4555         estimate D2E/DX2                !
 ! A22   A(3,8,6)               88.8669         estimate D2E/DX2                !
 ! A23   A(3,8,9)              109.5891         estimate D2E/DX2                !
 ! A24   A(3,8,16)             111.7919         estimate D2E/DX2                !
 ! A25   A(6,8,9)              110.682          estimate D2E/DX2                !
 ! A26   A(6,8,16)             115.7931         estimate D2E/DX2                !
 ! A27   A(9,8,16)             116.6898         estimate D2E/DX2                !
 ! A28   A(8,9,17)             107.3293         estimate D2E/DX2                !
 ! D1    D(10,1,2,3)           -69.6252         estimate D2E/DX2                !
 ! D2    D(10,1,2,13)           19.417          estimate D2E/DX2                !
 ! D3    D(11,1,2,3)           178.309          estimate D2E/DX2                !
 ! D4    D(11,1,2,13)          -92.6488         estimate D2E/DX2                !
 ! D5    D(12,1,2,3)            56.6635         estimate D2E/DX2                !
 ! D6    D(12,1,2,13)          145.7057         estimate D2E/DX2                !
 ! D7    D(1,2,3,4)           -173.6247         estimate D2E/DX2                !
 ! D8    D(1,2,3,8)            -48.173          estimate D2E/DX2                !
 ! D9    D(13,2,3,4)            96.079          estimate D2E/DX2                !
 ! D10   D(13,2,3,8)          -138.4693         estimate D2E/DX2                !
 ! D11   D(2,3,4,5)             65.2939         estimate D2E/DX2                !
 ! D12   D(2,3,4,14)           -39.3073         estimate D2E/DX2                !
 ! D13   D(8,3,4,5)            -58.6937         estimate D2E/DX2                !
 ! D14   D(8,3,4,14)          -163.2949         estimate D2E/DX2                !
 ! D15   D(2,3,8,6)            -68.3874         estimate D2E/DX2                !
 ! D16   D(2,3,8,9)             43.1996         estimate D2E/DX2                !
 ! D17   D(2,3,8,16)           174.1743         estimate D2E/DX2                !
 ! D18   D(4,3,8,6)             33.8518         estimate D2E/DX2                !
 ! D19   D(4,3,8,9)            145.4388         estimate D2E/DX2                !
 ! D20   D(4,3,8,16)           -83.5866         estimate D2E/DX2                !
 ! D21   D(3,4,5,6)             53.3429         estimate D2E/DX2                !
 ! D22   D(3,4,5,15)           169.9987         estimate D2E/DX2                !
 ! D23   D(14,4,5,6)          -173.4378         estimate D2E/DX2                !
 ! D24   D(14,4,5,15)          -56.782          estimate D2E/DX2                !
 ! D25   D(4,5,6,7)            138.5837         estimate D2E/DX2                !
 ! D26   D(4,5,6,8)            -47.4234         estimate D2E/DX2                !
 ! D27   D(15,5,6,7)            27.0143         estimate D2E/DX2                !
 ! D28   D(15,5,6,8)          -158.9928         estimate D2E/DX2                !
 ! D29   D(5,6,8,3)             11.0147         estimate D2E/DX2                !
 ! D30   D(5,6,8,9)            -99.532          estimate D2E/DX2                !
 ! D31   D(5,6,8,16)           124.7704         estimate D2E/DX2                !
 ! D32   D(7,6,8,3)           -174.4797         estimate D2E/DX2                !
 ! D33   D(7,6,8,9)             74.9736         estimate D2E/DX2                !
 ! D34   D(7,6,8,16)           -60.724          estimate D2E/DX2                !
 ! D35   D(3,8,9,17)           -77.7404         estimate D2E/DX2                !
 ! D36   D(6,8,9,17)            18.6849         estimate D2E/DX2                !
 ! D37   D(16,8,9,17)          153.9479         estimate D2E/DX2                !
 --------------------------------------------------------------------------------
 Trust Radius=3.00D-01 FncErr=1.00D-07 GrdErr=1.00D-06 EigMax=2.50D+02 EigMin=1.00D-04
 Number of steps in this run=     92 maximum allowed number of steps=    102.
 GradGradGradGradGradGradGradGradGradGradGradGradGradGradGradGradGradGrad

                          Input orientation:                          
 ---------------------------------------------------------------------
 Center     Atomic      Atomic             Coordinates (Angstroms)
 Number     Number       Type             X           Y           Z
 ---------------------------------------------------------------------
      1          6           0        0.904370   -0.280550   -0.390610
      2          6           0        2.194900   -1.033930   -0.520910
      3          6           0        3.575950   -0.907750   -1.175200
      4          6           0        3.673470   -2.245750   -0.668940
      5          6           0        2.559880   -2.413600   -1.708780
      6          6           0        3.171280   -1.830810   -3.057930
      7          8           0        3.103310   -2.244240   -4.234640
      8          6           0        3.778000   -0.510560   -2.650590
      9          8           0        2.917410    0.552170   -2.974540
     10          1           0        0.998820    0.629100    0.230290
     11          1           0        0.243230   -0.925620    0.207360
     12          1           0        0.419210   -0.020600   -1.323270
     13          1           0        2.617720   -0.529190    0.383760
     14          1           0        3.337090   -2.758510    0.290620
     15          1           0        2.423240   -3.499750   -1.774370
     16          1           0        4.831970   -0.378180   -2.893160
     17          1           0        2.026550    0.175410   -3.105080
 ---------------------------------------------------------------------
                    Distance matrix (angstroms):
                    1          2          3          4          5
     1  C    0.000000
     2  C    1.500009   0.000000
     3  C    2.854173   1.533400   0.000000
     4  C    3.406962   1.917444   1.433894   0.000000
     5  C    3.004694   1.856808   1.893328   1.532816   0.000000
     6  C    3.828418   2.832809   2.135526   2.476216   1.591747
     7  O    4.844376   4.010218   3.371909   3.610997   2.589202
     8  C    3.663081   2.704747   1.541220   2.636048   2.447935
     9  O    3.379711   3.009657   2.408872   3.703481   3.244344
    10  H    1.105396   2.181875   3.313444   4.028291   3.931275
    11  H    1.100359   2.085935   3.608159   3.778517   3.354481
    12  H    1.082963   2.196291   3.282372   3.996204   3.233811
    13  H    1.896586   1.118913   1.868654   2.273623   2.816571
    14  H    3.538713   2.222016   2.372972   1.138784   2.172698
    15  H    3.819032   2.775530   2.899346   2.087479   1.096674
    16  H    4.658147   3.607176   2.193038   3.126835   3.272321
    17  H    2.972463   2.858108   2.701539   3.809086   2.989493
                    6          7          8          9         10
     6  C    0.000000
     7  O    1.249076   0.000000
     8  C    1.509005   2.443372   0.000000
     9  O    2.397915   3.072836   1.405330   0.000000
    10  H    4.645765   5.711441   4.161987   3.736019   0.000000
    11  H    4.478277   5.445198   4.564510   4.411302   1.728756
    12  H    3.722875   4.541480   3.644627   3.048895   1.780900
    13  H    3.721004   4.950436   3.248673   3.540810   1.996503
    14  H    3.478636   4.560384   3.728055   4.668833   4.116679
    15  H    2.234379   2.844596   3.396821   4.254723   4.805730
    16  H    2.212504   2.875763   1.089595   2.130191   5.046146
    17  H    2.310314   2.879240   1.935121   0.976023   3.519482
                   11         12         13         14         15
    11  H    0.000000
    12  H    1.786857   0.000000
    13  H    2.413810   2.829498   0.000000
    14  H    3.596997   4.314489   2.344363   0.000000
    15  H    3.912268   4.040311   3.676897   2.376708   0.000000
    16  H    5.565020   4.697326   3.957766   4.247010   4.098521
    17  H    3.919790   2.407656   3.608039   4.675059   3.928734
                   16         17
    16  H    0.000000
    17  H    2.867360   0.000000
 Stoichiometry    C7H8O2
 Framework group  C1[X(C7H8O2)]
 Deg. of freedom    45
 Full point group                 C1      NOp   1
 Largest Abelian subgroup         C1      NOp   1
 Largest concise Abelian subgroup C1      NOp   1
                         Standard orientation:                         
 ---------------------------------------------------------------------
 Center     Atomic      Atomic             Coordinates (Angstroms)
 Number     Number       Type             X           Y           Z
 ---------------------------------------------------------------------
      1          6           0       -2.346127    0.709978   -0.807786
      2          6           0       -1.507958   -0.228658    0.008586
      3          6           0       -0.362515   -0.207703    1.027819
      4          6           0       -0.473396   -1.622559    0.823024
      5          6           0       -0.012668   -1.167474   -0.566275
      6          6           0        1.306615   -0.317707   -0.299726
      7          8           0        2.394948   -0.279685   -0.911507
      8          6           0        0.929144    0.609388    0.829480
      9          8           0        0.608203    1.886008    0.337349
     10          1           0       -3.044374    1.307319   -0.193348
     11          1           0       -3.016994    0.069886   -1.400246
     12          1           0       -1.798159    1.374977   -1.463771
     13          1           0       -2.223868   -0.172281    0.866642
     14          1           0       -1.347636   -2.339135    0.685000
     15          1           0        0.219989   -2.104745   -1.085976
     16          1           0        1.571077    0.571103    1.709068
     17          1           0        0.416181    1.790700   -0.614841
 ---------------------------------------------------------------------
 Rotational constants (GHZ):           2.4931506           1.5620392           1.2853042
 Standard basis: 6-31G(2df,p) (6D, 7F)
 There are   319 symmetry adapted cartesian basis functions of A   symmetry.
 There are   292 symmetry adapted basis functions of A   symmetry.
   292 basis functions,   452 primitive gaussians,   319 cartesian basis functions
    33 alpha electrons       33 beta electrons
       nuclear repulsion energy       439.4217116752 Hartrees.
 NAtoms=   17 NActive=   17 NUniq=   17 SFac= 1.00D+00 NAtFMM=   60 NAOKFM=F Big=F
 Integral buffers will be    131072 words long.
 Raffenetti 2 integral format.
 Two-electron integral symmetry is turned on.
 One-electron integrals computed using PRISM.
 PrsmSu:  requested number of processors reduced to:  13 ShMem   1 Linda.
 NBasis=   292 RedAO= T EigKep=  3.43D-04  NBF=   292
 NBsUse=   292 1.00D-06 EigRej= -1.00D+00 NBFU=   292
 ExpMin= 1.61D-01 ExpMax= 5.48D+03 ExpMxC= 8.25D+02 IAcc=3 IRadAn=         5 AccDes= 0.00D+00
 Harris functional with IExCor=  402 and IRadAn=       5 diagonalized for initial guess.
 HarFok:  IExCor=  402 AccDes= 0.00D+00 IRadAn=         5 IDoV= 1 UseB2=F ITyADJ=14
 ICtDFT=  3500011 ScaDFX=  1.000000  1.000000  1.000000  1.000000
 FoFCou: FMM=F IPFlag=           0 FMFlag=      100000 FMFlg1=           0
         NFxFlg=           0 DoJE=T BraDBF=F KetDBF=T FulRan=T
         wScrn=  0.000000 ICntrl=       500 IOpCl=  0 I1Cent=   200000004 NGrid=           0
         NMat0=    1 NMatS0=      1 NMatT0=    0 NMatD0=    1 NMtDS0=    0 NMtDT0=    0
 Petite list used in FoFCou.
 Requested convergence on RMS density matrix=1.00D-08 within 128 cycles.
 Requested convergence on MAX density matrix=1.00D-06.
 Requested convergence on             energy=1.00D-06.
 No special actions if energy rises.
 Integral accuracy reduced to 1.0D-05 until final iterations.
 Initial convergence to 1.0D-05 achieved.  Increase integral accuracy.
 SCF Done:  E(RB3LYP) =  -421.598827951     A.U. after   21 cycles
            NFock= 21  Conv=0.44D-08     -V/T= 2.0074

 **********************************************************************

            Population analysis using the SCF density.

 **********************************************************************

 Orbital symmetries:
       Occupied  (A) (A) (A) (A) (A) (A) (A) (A) (A) (A) (A) (A)
                 (A) (A) (A) (A) (A) (A) (A) (A) (A) (A) (A) (A)
                 (A) (A) (A) (A) (A) (A) (A) (A) (A)
       Virtual   (A) (A) (A) (A) (A) (A) (A) (A) (A) (A) (A) (A)
                 (A) (A) (A) (A) (A) (A) (A) (A) (A) (A) (A) (A)
                 (A) (A) (A) (A) (A) (A) (A) (A) (A) (A) (A) (A)
                 (A) (A) (A) (A) (A) (A) (A) (A) (A) (A) (A) (A)
                 (A) (A) (A) (A) (A) (A) (A) (A) (A) (A) (A) (A)
                 (A) (A) (A) (A) (A) (A) (A) (A) (A) (A) (A) (A)
                 (A) (A) (A) (A) (A) (A) (A) (A) (A) (A) (A) (A)
                 (A) (A) (A) (A) (A) (A) (A) (A) (A) (A) (A) (A)
                 (A) (A) (A) (A) (A) (A) (A) (A) (A) (A) (A) (A)
                 (A) (A) (A) (A) (A) (A) (A) (A) (A) (A) (A) (A)
                 (A) (A) (A) (A) (A) (A) (A) (A) (A) (A) (A) (A)
                 (A) (A) (A) (A) (A) (A) (A) (A) (A) (A) (A) (A)
                 (A) (A) (A) (A) (A) (A) (A) (A) (A) (A) (A) (A)
                 (A) (A) (A) (A) (A) (A) (A) (A) (A) (A) (A) (A)
                 (A) (A) (A) (A) (A) (A) (A) (A) (A) (A) (A) (A)
                 (A) (A) (A) (A) (A) (A) (A) (A) (A) (A) (A) (A)
                 (A) (A) (A) (A) (A) (A) (A) (A) (A) (A) (A) (A)
                 (A) (A) (A) (A) (A) (A) (A) (A) (A) (A) (A) (A)
                 (A) (A) (A) (A) (A) (A) (A) (A) (A) (A) (A) (A)
                 (A) (A) (A) (A) (A) (A) (A) (A) (A) (A) (A) (A)
                 (A) (A) (A) (A) (A) (A) (A) (A) (A) (A) (A) (A)
                 (A) (A) (A) (A) (A) (A) (A)
 The electronic state is 1-A.
 Alpha  occ. eigenvalues --  -19.16783 -19.14235 -10.28700 -10.27167 -10.26504
 Alpha  occ. eigenvalues --  -10.26135 -10.22502 -10.21381 -10.20946  -1.05670
 Alpha  occ. eigenvalues --   -1.01990  -0.92903  -0.78462  -0.74145  -0.67948
 Alpha  occ. eigenvalues --   -0.60424  -0.58117  -0.54385  -0.50297  -0.48804
 Alpha  occ. eigenvalues --   -0.47506  -0.45079  -0.44183  -0.42025  -0.40338
 Alpha  occ. eigenvalues --   -0.40179  -0.38239  -0.36189  -0.32255  -0.30593
 Alpha  occ. eigenvalues --   -0.28658  -0.25255  -0.15437
 Alpha virt. eigenvalues --   -0.09935  -0.06694  -0.00702   0.05668   0.07775
 Alpha virt. eigenvalues --    0.09884   0.12275   0.12772   0.13805   0.14557
 Alpha virt. eigenvalues --    0.17099   0.17612   0.19200   0.21026   0.24022
 Alpha virt. eigenvalues --    0.25757   0.27058   0.28328   0.31077   0.32281
 Alpha virt. eigenvalues --    0.39030   0.42517   0.44574   0.46412   0.47195
 Alpha virt. eigenvalues --    0.48912   0.49814   0.51980   0.52769   0.53947
 Alpha virt. eigenvalues --    0.55084   0.55488   0.59791   0.59881   0.62270
 Alpha virt. eigenvalues --    0.63187   0.64037   0.64652   0.65309   0.68748
 Alpha virt. eigenvalues --    0.69296   0.70762   0.71882   0.73665   0.73773
 Alpha virt. eigenvalues --    0.74304   0.76010   0.78841   0.80291   0.81699
 Alpha virt. eigenvalues --    0.83995   0.85462   0.87004   0.87986   0.90994
 Alpha virt. eigenvalues --    0.93543   0.94144   0.94652   0.97294   0.98017
 Alpha virt. eigenvalues --    0.99020   1.00244   1.03062   1.07184   1.09345
 Alpha virt. eigenvalues --    1.09803   1.15086   1.16661   1.20654   1.21480
 Alpha virt. eigenvalues --    1.25488   1.26919   1.28546   1.30647   1.33002
 Alpha virt. eigenvalues --    1.37373   1.37701   1.39416   1.41660   1.42322
 Alpha virt. eigenvalues --    1.46282   1.47655   1.48585   1.49396   1.51470
 Alpha virt. eigenvalues --    1.54189   1.54842   1.55679   1.59331   1.61045
 Alpha virt. eigenvalues --    1.61967   1.67054   1.67619   1.72508   1.73778
 Alpha virt. eigenvalues --    1.75954   1.78392   1.80685   1.82253   1.84803
 Alpha virt. eigenvalues --    1.88399   1.90802   1.94373   1.97153   1.99375
 Alpha virt. eigenvalues --    2.00701   2.07677   2.11217   2.13115   2.17539
 Alpha virt. eigenvalues --    2.21343   2.27048   2.28556   2.32380   2.36986
 Alpha virt. eigenvalues --    2.39035   2.39925   2.44180   2.49145   2.50123
 Alpha virt. eigenvalues --    2.54768   2.58829   2.61922   2.64660   2.70412
 Alpha virt. eigenvalues --    2.71444   2.72535   2.76476   2.77631   2.79361
 Alpha virt. eigenvalues --    2.79635   2.85008   2.85693   2.89946   2.90721
 Alpha virt. eigenvalues --    2.91943   2.95585   2.96792   2.97064   3.00855
 Alpha virt. eigenvalues --    3.02905   3.06851   3.10213   3.11262   3.14738
 Alpha virt. eigenvalues --    3.18283   3.20144   3.21751   3.24507   3.27899
 Alpha virt. eigenvalues --    3.29391   3.29848   3.33364   3.35053   3.36986
 Alpha virt. eigenvalues --    3.40851   3.43603   3.48644   3.50272   3.51296
 Alpha virt. eigenvalues --    3.56131   3.58676   3.63246   3.66321   3.70120
 Alpha virt. eigenvalues --    3.71958   3.75715   3.77226   3.80042   3.81742
 Alpha virt. eigenvalues --    3.85604   3.90077   3.92523   3.95455   3.99740
 Alpha virt. eigenvalues --    4.00853   4.03483   4.07077   4.13013   4.14830
 Alpha virt. eigenvalues --    4.16411   4.19566   4.21918   4.25444   4.25896
 Alpha virt. eigenvalues --    4.30188   4.31271   4.34326   4.37321   4.41048
 Alpha virt. eigenvalues --    4.42006   4.45172   4.46864   4.48726   4.51433
 Alpha virt. eigenvalues --    4.52967   4.54618   4.57131   4.58415   4.60374
 Alpha virt. eigenvalues --    4.61305   4.63530   4.66375   4.68122   4.69008
 Alpha virt. eigenvalues --    4.69483   4.74033   4.75935   4.77725   4.79079
 Alpha virt. eigenvalues --    4.80684   4.83758   4.84582   4.88705   4.88964
 Alpha virt. eigenvalues --    4.93248   4.94822   4.96717   5.03124   5.06506
 Alpha virt. eigenvalues --    5.07831   5.09175   5.13127   5.13697   5.16246
 Alpha virt. eigenvalues --    5.21974   5.26696   5.29375   5.30576   5.38368
 Alpha virt. eigenvalues --    5.42040   5.42711   5.44651   5.47562   5.51302
 Alpha virt. eigenvalues --    5.53870   5.58503   5.62142   5.68187   5.71708
 Alpha virt. eigenvalues --    5.86470   5.93881   5.96091   6.11261   6.13917
 Alpha virt. eigenvalues --    6.26981   6.60192   6.79034   6.82812   7.29096
 Alpha virt. eigenvalues --   10.77867  11.33326  11.62708  11.63395  12.00499
 Alpha virt. eigenvalues --   12.18688  12.69458  13.12379  13.44586
          Condensed to atoms (all electrons):
               1          2          3          4          5          6
     1  C    5.153865   0.403001  -0.003835   0.008388  -0.047623  -0.003098
     2  C    0.403001   4.767985   0.226501  -0.009868   0.313948   0.005931
     3  C   -0.003835   0.226501   5.500589   0.402335  -0.221502  -0.091339
     4  C    0.008388  -0.009868   0.402335   5.468881   0.149866  -0.005502
     5  C   -0.047623   0.313948  -0.221502   0.149866   5.599258   0.384723
     6  C   -0.003098   0.005931  -0.091339  -0.005502   0.384723   4.417595
     7  O    0.000027  -0.000239   0.004964   0.000840  -0.052733   0.750203
     8  C   -0.000427  -0.010389   0.247501  -0.007871  -0.141485   0.260436
     9  O    0.003002  -0.003962  -0.049452   0.003384  -0.001377  -0.011991
    10  H    0.353549  -0.022754  -0.002033  -0.000593   0.003208   0.000095
    11  H    0.358289  -0.024025   0.002406  -0.001608   0.000923   0.000001
    12  H    0.350697  -0.024769  -0.007362   0.000174   0.003164   0.001495
    13  H   -0.121153   0.333807  -0.055095  -0.067837   0.035123   0.004421
    14  H    0.002163  -0.002057  -0.003843   0.344697  -0.066308  -0.000120
    15  H    0.002103  -0.023284   0.026601  -0.061785   0.293666  -0.029609
    16  H   -0.000012   0.003647  -0.057798   0.002623   0.007640  -0.025369
    17  H   -0.000530   0.003258  -0.001840  -0.000657   0.005510   0.006869
               7          8          9         10         11         12
     1  C    0.000027  -0.000427   0.003002   0.353549   0.358289   0.350697
     2  C   -0.000239  -0.010389  -0.003962  -0.022754  -0.024025  -0.024769
     3  C    0.004964   0.247501  -0.049452  -0.002033   0.002406  -0.007362
     4  C    0.000840  -0.007871   0.003384  -0.000593  -0.001608   0.000174
     5  C   -0.052733  -0.141485  -0.001377   0.003208   0.000923   0.003164
     6  C    0.750203   0.260436  -0.011991   0.000095   0.000001   0.001495
     7  O    7.704952  -0.070744  -0.000554  -0.000000  -0.000000  -0.000016
     8  C   -0.070744   5.038019   0.363770   0.000021   0.000083  -0.000116
     9  O   -0.000554   0.363770   7.825389  -0.000020   0.000066   0.001000
    10  H   -0.000000   0.000021  -0.000020   0.578827  -0.030021  -0.028655
    11  H   -0.000000   0.000083   0.000066  -0.030021   0.576339  -0.027721
    12  H   -0.000016  -0.000116   0.001000  -0.028655  -0.027721   0.601997
    13  H   -0.000015  -0.002068   0.000147   0.004983  -0.000786   0.011920
    14  H   -0.000026   0.001273  -0.000030  -0.000129  -0.000413  -0.000087
    15  H    0.000835   0.008446  -0.000001  -0.000034  -0.000020  -0.000393
    16  H   -0.001344   0.373106  -0.020355   0.000003   0.000003  -0.000013
    17  H    0.001472  -0.070652   0.310533   0.000017  -0.000020   0.003823
              13         14         15         16         17
     1  C   -0.121153   0.002163   0.002103  -0.000012  -0.000530
     2  C    0.333807  -0.002057  -0.023284   0.003647   0.003258
     3  C   -0.055095  -0.003843   0.026601  -0.057798  -0.001840
     4  C   -0.067837   0.344697  -0.061785   0.002623  -0.000657
     5  C    0.035123  -0.066308   0.293666   0.007640   0.005510
     6  C    0.004421  -0.000120  -0.029609  -0.025369   0.006869
     7  O   -0.000015  -0.000026   0.000835  -0.001344   0.001472
     8  C   -0.002068   0.001273   0.008446   0.373106  -0.070652
     9  O    0.000147  -0.000030  -0.000001  -0.020355   0.310533
    10  H    0.004983  -0.000129  -0.000034   0.000003   0.000017
    11  H   -0.000786  -0.000413  -0.000020   0.000003  -0.000020
    12  H    0.011920  -0.000087  -0.000393  -0.000013   0.003823
    13  H    0.764899  -0.019764  -0.002673  -0.000158   0.000425
    14  H   -0.019764   0.585821   0.007541  -0.000050  -0.000005
    15  H   -0.002673   0.007541   0.677775  -0.000232  -0.000248
    16  H   -0.000158  -0.000050  -0.000232   0.576593   0.004906
    17  H    0.000425  -0.000005  -0.000248   0.004906   0.431103
 Mulliken charges:
               1
     1  C   -0.458405
     2  C    0.063269
     3  C    0.083202
     4  C   -0.225466
     5  C   -0.266002
     6  C    0.335259
     7  O   -0.337623
     8  C    0.011097
     9  O   -0.419550
    10  H    0.143536
    11  H    0.146503
    12  H    0.114863
    13  H    0.113823
    14  H    0.151337
    15  H    0.101311
    16  H    0.136810
    17  H    0.306036
 Sum of Mulliken charges =  -0.00000
 Mulliken charges with hydrogens summed into heavy atoms:
               1
     1  C   -0.053504
     2  C    0.177093
     3  C    0.083202
     4  C   -0.074129
     5  C   -0.164692
     6  C    0.335259
     7  O   -0.337623
     8  C    0.147907
     9  O   -0.113513
 Electronic spatial extent (au):  <R**2>=           1046.3627
 Charge=             -0.0000 electrons
 Dipole moment (field-independent basis, Debye):
    X=             -3.6536    Y=              0.0520    Z=              0.4727  Tot=              3.6844
 Quadrupole moment (field-independent basis, Debye-Ang):
   XX=            -55.3687   YY=            -54.7920   ZZ=            -53.2553
   XY=              0.3093   XZ=              4.3819   YZ=             -1.8034
 Traceless Quadrupole moment (field-independent basis, Debye-Ang):
   XX=             -0.8967   YY=             -0.3200   ZZ=              1.2167
   XY=              0.3093   XZ=              4.3819   YZ=             -1.8034
 Octapole moment (field-independent basis, Debye-Ang**2):
  XXX=            -20.0949  YYY=              2.4978  ZZZ=             -2.0093  XYY=             -1.8086
  XXY=              6.0400  XXZ=              9.7302  XZZ=              3.8616  YZZ=              9.1773
  YYZ=            -10.3353  XYZ=             -0.8971
 Hexadecapole moment (field-independent basis, Debye-Ang**3):
 XXXX=           -732.3634 YYYY=           -410.1100 ZZZZ=           -237.5430 XXXY=              0.6315
 XXXZ=             23.9529 YYYX=              2.8258 YYYZ=             -1.4009 ZZZX=              3.1046
 ZZZY=              7.5089 XXYY=           -181.9418 XXZZ=           -159.3668 YYZZ=           -106.5427
 XXYZ=             -0.0614 YYXZ=             -6.0483 ZZXY=              5.2308
 N-N= 4.394217116752D+02 E-N=-1.861546472588D+03  KE= 4.184878952443D+02
 PrsmSu:  requested number of processors reduced to:  13 ShMem   1 Linda.
 Calling FoFJK, ICntrl=      2127 FMM=F ISym2X=0 I1Cent= 0 IOpClX= 0 NMat=1 NMatS=1 NMatT=0.
 ***** Axes restored to original set *****
 -------------------------------------------------------------------
 Center     Atomic                   Forces (Hartrees/Bohr)
 Number     Number              X              Y              Z
 -------------------------------------------------------------------
      1        6          -0.027554643   -0.003190042   -0.013211584
      2        6           0.062041187    0.026662714   -0.038656777
      3        6           0.004802826    0.038483890    0.066502944
      4        6           0.009299078    0.007422813    0.019946665
      5        6          -0.020763370   -0.054330341   -0.056367017
      6        6          -0.042452205   -0.013336817   -0.040929580
      7        8           0.003474759    0.005021039    0.058105644
      8        6          -0.014814504   -0.019252169    0.028639809
      9        8           0.002148747    0.003155844   -0.006426119
     10        1           0.008327512   -0.003581000   -0.006302113
     11        1          -0.003222156    0.001066702   -0.005239314
     12        1          -0.007393132    0.000374103   -0.005901459
     13        1           0.015453252   -0.030744386    0.028265777
     14        1           0.020047859    0.032703853   -0.009438415
     15        1          -0.017503213   -0.003835072   -0.011099036
     16        1          -0.003736311    0.007934444   -0.007716068
     17        1           0.011844314    0.005444426   -0.000173357
 -------------------------------------------------------------------
 Cartesian Forces:  Max     0.066502944 RMS     0.025477548

 GradGradGradGradGradGradGradGradGradGradGradGradGradGradGradGradGradGrad
 Berny optimization.
 FormGI is forming the generalized inverse of G from B-inverse, IUseBI=4.
 Internal  Forces:  Max     0.060966202 RMS     0.018563706
 Search for a local minimum.
 Step number   1 out of a maximum of   92
 All quantities printed in internal units (Hartrees-Bohrs-Radians)
 Mixed Optimization -- RFO/linear search
 Second derivative matrix not updated -- first step.
 ITU=  0
     Eigenvalues ---    0.00324   0.00478   0.00566   0.00766   0.01587
     Eigenvalues ---    0.01621   0.02036   0.03159   0.04342   0.04961
     Eigenvalues ---    0.05281   0.05459   0.06429   0.07711   0.07749
     Eigenvalues ---    0.08836   0.09712   0.10163   0.13365   0.13911
     Eigenvalues ---    0.16000   0.16000   0.16000   0.16000   0.19248
     Eigenvalues ---    0.21125   0.23749   0.24712   0.24988   0.26432
     Eigenvalues ---    0.28018   0.29112   0.29733   0.30158   0.31674
     Eigenvalues ---    0.32376   0.33092   0.33642   0.34053   0.34859
     Eigenvalues ---    0.35639   0.37688   0.44748   0.52165   0.83579
 RFO step:  Lambda=-1.05294959D-01 EMin= 3.24128096D-03
 Linear search not attempted -- first point.
 Maximum step size (   0.300) exceeded in Quadratic search.
    -- Step size scaled by   0.690
 Iteration  1 RMS(Cart)=  0.12746474 RMS(Int)=  0.00440846
 Iteration  2 RMS(Cart)=  0.00646783 RMS(Int)=  0.00122728
 Iteration  3 RMS(Cart)=  0.00002447 RMS(Int)=  0.00122716
 Iteration  4 RMS(Cart)=  0.00000007 RMS(Int)=  0.00122716
 Variable       Old X    -DE/DX   Delta X   Delta X   Delta X     New X
                                 (Linear)    (Quad)   (Total)
    R1        2.83461   0.02034   0.00000   0.03270   0.03270   2.86731
    R2        2.08890  -0.00578   0.00000  -0.00913  -0.00913   2.07976
    R3        2.07938  -0.00154   0.00000  -0.00240  -0.00240   2.07698
    R4        2.04650   0.00849   0.00000   0.01268   0.01268   2.05918
    R5        2.89771  -0.05966   0.00000  -0.10382  -0.10382   2.79388
    R6        2.11444   0.01482   0.00000   0.02423   0.02423   2.13867
    R7        2.70967  -0.00644   0.00000  -0.01268  -0.01359   2.69608
    R8        2.91248  -0.00712   0.00000  -0.01882  -0.01870   2.89378
    R9        2.89660   0.06097   0.00000   0.11045   0.11108   3.00768
   R10        2.15199  -0.02860   0.00000  -0.04901  -0.04901   2.10298
   R11        3.00797  -0.02843   0.00000  -0.04994  -0.05021   2.95775
   R12        2.07241   0.00664   0.00000   0.01028   0.01028   2.08269
   R13        2.36041  -0.05659   0.00000  -0.04149  -0.04149   2.31893
   R14        2.85161   0.03773   0.00000   0.06269   0.06303   2.91464
   R15        2.65569  -0.00055   0.00000  -0.00068  -0.00068   2.65501
   R16        2.05904  -0.00093   0.00000  -0.00142  -0.00142   2.05762
   R17        1.84442  -0.01289   0.00000  -0.01418  -0.01418   1.83023
    A1        1.96990  -0.01257   0.00000  -0.03300  -0.03294   1.93696
    A2        1.84388   0.00629   0.00000   0.01810   0.01816   1.86204
    A3        2.01659   0.00420   0.00000   0.00933   0.00926   2.02586
    A4        1.80135   0.00542   0.00000   0.01762   0.01784   1.81919
    A5        1.90127   0.00271   0.00000   0.00437   0.00432   1.90559
    A6        1.91724  -0.00584   0.00000  -0.01509  -0.01517   1.90207
    A7        2.45059  -0.01923   0.00000  -0.03769  -0.03719   2.41339
    A8        1.59911   0.02324   0.00000   0.09151   0.09392   1.69303
    A9        1.53832  -0.00330   0.00000   0.01649   0.01945   1.55777
   A10        1.40384   0.01891   0.00000   0.01534   0.00975   1.41359
   A11        2.15046  -0.03937   0.00000  -0.11802  -0.11926   2.03120
   A12        2.17675  -0.01250   0.00000  -0.03014  -0.03262   2.14413
   A13        1.38295   0.02718   0.00000   0.07772   0.07776   1.46071
   A14        2.34279  -0.01385   0.00000  -0.04872  -0.05037   2.29243
   A15        1.88359  -0.00797   0.00000   0.00209   0.00468   1.88827
   A16        1.82952  -0.01955   0.00000  -0.02810  -0.02999   1.79953
   A17        1.81269   0.02983   0.00000   0.09031   0.08988   1.90257
   A18        1.93883   0.00648   0.00000   0.02457   0.02443   1.96326
   A19        2.28683  -0.02206   0.00000  -0.04511  -0.04596   2.24087
   A20        1.81932   0.01429   0.00000   0.03776   0.03801   1.85733
   A21        2.17216   0.00870   0.00000   0.01278   0.01188   2.18404
   A22        1.55102   0.00818   0.00000   0.02990   0.03051   1.58153
   A23        1.91269   0.00811   0.00000   0.01800   0.01604   1.92873
   A24        1.95114  -0.00291   0.00000   0.00265   0.00355   1.95468
   A25        1.93177   0.00222   0.00000   0.00458   0.00467   1.93644
   A26        2.02097   0.00123   0.00000   0.00985   0.00859   2.02956
   A27        2.03662  -0.01125   0.00000  -0.04431  -0.04410   1.99252
   A28        1.87325   0.00144   0.00000   0.00373   0.00373   1.87698
    D1       -1.21519  -0.00777   0.00000  -0.05177  -0.05130  -1.26649
    D2        0.33889   0.01499   0.00000   0.08443   0.08374   0.42263
    D3        3.11208  -0.01181   0.00000  -0.06732  -0.06662   3.04546
    D4       -1.61703   0.01095   0.00000   0.06888   0.06842  -1.54860
    D5        0.98896  -0.01161   0.00000  -0.06723  -0.06666   0.92230
    D6        2.54304   0.01114   0.00000   0.06897   0.06838   2.61143
    D7       -3.03032   0.01659   0.00000   0.07146   0.07030  -2.96003
    D8       -0.84078   0.00403   0.00000   0.01449   0.01537  -0.82540
    D9        1.67689  -0.01639   0.00000  -0.09308  -0.09396   1.58293
   D10       -2.41674  -0.02895   0.00000  -0.15005  -0.14888  -2.56563
   D11        1.13959  -0.02457   0.00000  -0.08869  -0.09076   1.04883
   D12       -0.68604  -0.03864   0.00000  -0.16316  -0.16280  -0.84885
   D13       -1.02440   0.01408   0.00000   0.05511   0.05447  -0.96993
   D14       -2.85003   0.00001   0.00000  -0.01936  -0.01757  -2.86761
   D15       -1.19358   0.01221   0.00000   0.09190   0.08998  -1.10361
   D16        0.75398   0.01861   0.00000   0.11015   0.10927   0.86324
   D17        3.03991   0.00781   0.00000   0.06748   0.06597   3.10588
   D18        0.59083  -0.00380   0.00000  -0.01075  -0.01119   0.57964
   D19        2.53839   0.00261   0.00000   0.00751   0.00810   2.54648
   D20       -1.45886  -0.00820   0.00000  -0.03517  -0.03520  -1.49406
   D21        0.93101  -0.00964   0.00000  -0.05344  -0.05363   0.87738
   D22        2.96704   0.00209   0.00000   0.00033  -0.00039   2.96664
   D23       -3.02706  -0.01735   0.00000  -0.08399  -0.08277  -3.10983
   D24       -0.99103  -0.00562   0.00000  -0.03022  -0.02953  -1.02056
   D25        2.41874   0.01489   0.00000   0.03966   0.03880   2.45755
   D26       -0.82769   0.02608   0.00000   0.09996   0.09839  -0.72930
   D27        0.47149  -0.01231   0.00000  -0.06101  -0.06085   0.41064
   D28       -2.77495  -0.00112   0.00000  -0.00072  -0.00126  -2.77621
   D29        0.19224   0.00203   0.00000  -0.02164  -0.02495   0.16729
   D30       -1.73716  -0.01019   0.00000  -0.05339  -0.05535  -1.79251
   D31        2.17765   0.00322   0.00000  -0.00125  -0.00276   2.17489
   D32       -3.04524   0.00983   0.00000   0.02885   0.02757  -3.01767
   D33        1.30854  -0.00239   0.00000  -0.00290  -0.00283   1.30571
   D34       -1.05983   0.01103   0.00000   0.04925   0.04977  -1.01007
   D35       -1.35683  -0.00766   0.00000  -0.02628  -0.02648  -1.38331
   D36        0.32611   0.00597   0.00000   0.01724   0.01749   0.34360
   D37        2.68690  -0.00147   0.00000  -0.00890  -0.00895   2.67795
         Item               Value     Threshold  Converged?
 Maximum Force            0.060966     0.000450     NO 
 RMS     Force            0.018564     0.000300     NO 
 Maximum Displacement     0.451082     0.001800     NO 
 RMS     Displacement     0.129268     0.001200     NO 
 Predicted change in Energy=-6.061421D-02
 GradGradGradGradGradGradGradGradGradGradGradGradGradGradGradGradGradGrad

                          Input orientation:                          
 ---------------------------------------------------------------------
 Center     Atomic      Atomic             Coordinates (Angstroms)
 Number     Number       Type             X           Y           Z
 ---------------------------------------------------------------------
      1          6           0        0.959564   -0.291330   -0.541399
      2          6           0        2.278643   -1.041160   -0.546298
      3          6           0        3.637503   -0.879982   -1.106086
      4          6           0        3.742371   -2.227619   -0.649615
      5          6           0        2.538203   -2.478348   -1.659712
      6          6           0        3.045659   -1.821824   -2.986829
      7          8           0        2.906920   -2.224242   -4.137759
      8          6           0        3.722539   -0.495208   -2.585841
      9          8           0        2.884532    0.598933   -2.858865
     10          1           0        1.018184    0.604997    0.094525
     11          1           0        0.231208   -0.937345   -0.031342
     12          1           0        0.563525   -0.012517   -1.517516
     13          1           0        2.658957   -0.657861    0.448323
     14          1           0        3.481102   -2.695953    0.325495
     15          1           0        2.375260   -3.563565   -1.761737
     16          1           0        4.752103   -0.360806   -2.913742
     17          1           0        1.980129    0.261469   -2.937593
 ---------------------------------------------------------------------
                    Distance matrix (angstroms):
                    1          2          3          4          5
     1  C    0.000000
     2  C    1.517313   0.000000
     3  C    2.799418   1.478458   0.000000
     4  C    3.391893   1.887023   1.426706   0.000000
     5  C    2.919893   1.836457   2.017359   1.591598   0.000000
     6  C    3.560103   2.674685   2.185072   2.472377   1.565176
     7  O    4.523511   3.833146   3.395854   3.586802   2.518182
     8  C    3.443159   2.557857   1.531325   2.598194   2.488617
     9  O    3.141452   2.899133   2.413791   3.688641   3.320779
    10  H    1.100563   2.170080   3.241521   3.999831   3.859382
    11  H    1.099089   2.113752   3.572283   3.791482   3.216909
    12  H    1.089673   2.223285   3.220420   3.970515   3.162261
    13  H    2.000458   1.131737   1.850156   2.200771   2.787933
    14  H    3.590525   2.223572   2.317680   1.112851   2.208497
    15  H    3.768415   2.801635   3.037228   2.211462   1.102114
    16  H    4.473946   3.490798   2.186206   3.103356   3.310276
    17  H    2.662496   2.739387   2.721069   3.812598   3.074252
                    6          7          8          9         10
     6  C    0.000000
     7  O    1.227122   0.000000
     8  C    1.542358   2.462366   0.000000
     9  O    2.429486   3.099417   1.404970   0.000000
    10  H    4.415298   5.429931   3.963376   3.493681   0.000000
    11  H    4.175924   5.067366   4.348602   4.170751   1.736086
    12  H    3.404917   4.153179   3.369522   2.749575   1.785137
    13  H    3.647550   4.852545   3.219288   3.545125   2.100505
    14  H    3.453289   4.524692   3.657520   4.620857   4.124995
    15  H    2.232476   2.778836   3.450960   4.334679   4.760702
    16  H    2.247636   2.894013   1.088845   2.100460   4.891278
    17  H    2.340489   2.911718   1.931912   0.968517   3.199545
                   11         12         13         14         15
    11  H    0.000000
    12  H    1.781699   0.000000
    13  H    2.490413   2.944796   0.000000
    14  H    3.712391   4.371472   2.201097   0.000000
    15  H    3.806345   3.993992   3.661689   2.516381   0.000000
    16  H    5.392506   4.428875   3.971522   4.190586   4.151405
    17  H    3.597523   2.024464   3.573570   4.652635   4.021151
                   16         17
    16  H    0.000000
    17  H    2.841062   0.000000
 Stoichiometry    C7H8O2
 Framework group  C1[X(C7H8O2)]
 Deg. of freedom    45
 Full point group                 C1      NOp   1
 Largest Abelian subgroup         C1      NOp   1
 Largest concise Abelian subgroup C1      NOp   1
                         Standard orientation:                         
 ---------------------------------------------------------------------
 Center     Atomic      Atomic             Coordinates (Angstroms)
 Number     Number       Type             X           Y           Z
 ---------------------------------------------------------------------
      1          6           0       -2.105311    0.753971   -0.914043
      2          6           0       -1.413935   -0.245313   -0.005379
      3          6           0       -0.425905   -0.237184    1.094425
      4          6           0       -0.476437   -1.641877    0.849936
      5          6           0        0.016093   -1.228588   -0.606014
      6          6           0        1.242132   -0.299999   -0.315626
      7          8           0        2.308748   -0.235073   -0.918904
      8          6           0        0.836154    0.600299    0.869074
      9          8           0        0.498353    1.890391    0.426926
     10          1           0       -2.859569    1.333672   -0.360618
     11          1           0       -2.690998    0.169857   -1.637768
     12          1           0       -1.453911    1.439111   -1.455936
     13          1           0       -2.243076   -0.332572    0.759957
     14          1           0       -1.337317   -2.338577    0.740708
     15          1           0        0.298183   -2.137932   -1.161148
     16          1           0        1.496080    0.584478    1.735003
     17          1           0        0.297050    1.831551   -0.518610
 ---------------------------------------------------------------------
 Rotational constants (GHZ):           2.3557926           1.6876013           1.3844985
 Standard basis: 6-31G(2df,p) (6D, 7F)
 There are   319 symmetry adapted cartesian basis functions of A   symmetry.
 There are   292 symmetry adapted basis functions of A   symmetry.
   292 basis functions,   452 primitive gaussians,   319 cartesian basis functions
    33 alpha electrons       33 beta electrons
       nuclear repulsion energy       443.4403691655 Hartrees.
 NAtoms=   17 NActive=   17 NUniq=   17 SFac= 1.00D+00 NAtFMM=   60 NAOKFM=F Big=F
 Integral buffers will be    131072 words long.
 Raffenetti 2 integral format.
 Two-electron integral symmetry is turned on.
 One-electron integrals computed using PRISM.
 PrsmSu:  requested number of processors reduced to:  13 ShMem   1 Linda.
 NBasis=   292 RedAO= T EigKep=  3.34D-04  NBF=   292
 NBsUse=   292 1.00D-06 EigRej= -1.00D+00 NBFU=   292
 Initial guess from the checkpoint file:  "CC1C2dCC1CpdOpC2O.chk"
 B after Tr=    -0.000000   -0.000000    0.000000
         Rot=    0.999808   -0.008773    0.017310   -0.002575 Ang=  -2.24 deg.
 ExpMin= 1.61D-01 ExpMax= 5.48D+03 ExpMxC= 8.25D+02 IAcc=2 IRadAn=         4 AccDes= 0.00D+00
 Harris functional with IExCor=  402 and IRadAn=       4 diagonalized for initial guess.
 HarFok:  IExCor=  402 AccDes= 0.00D+00 IRadAn=         4 IDoV= 1 UseB2=F ITyADJ=14
 ICtDFT=  3500011 ScaDFX=  1.000000  1.000000  1.000000  1.000000
 FoFCou: FMM=F IPFlag=           0 FMFlag=      100000 FMFlg1=           0
         NFxFlg=           0 DoJE=T BraDBF=F KetDBF=T FulRan=T
         wScrn=  0.000000 ICntrl=       500 IOpCl=  0 I1Cent=   200000004 NGrid=           0
         NMat0=    1 NMatS0=      1 NMatT0=    0 NMatD0=    1 NMtDS0=    0 NMtDT0=    0
 Petite list used in FoFCou.
 Requested convergence on RMS density matrix=1.00D-08 within 128 cycles.
 Requested convergence on MAX density matrix=1.00D-06.
 Requested convergence on             energy=1.00D-06.
 No special actions if energy rises.
 Integral accuracy reduced to 1.0D-05 until final iterations.
 Initial convergence to 1.0D-05 achieved.  Increase integral accuracy.
 SCF Done:  E(RB3LYP) =  -421.659079231     A.U. after   16 cycles
            NFock= 16  Conv=0.82D-08     -V/T= 2.0074
 PrsmSu:  requested number of processors reduced to:  13 ShMem   1 Linda.
 Calling FoFJK, ICntrl=      2127 FMM=F ISym2X=0 I1Cent= 0 IOpClX= 0 NMat=1 NMatS=1 NMatT=0.
 ***** Axes restored to original set *****
 -------------------------------------------------------------------
 Center     Atomic                   Forces (Hartrees/Bohr)
 Number     Number              X              Y              Z
 -------------------------------------------------------------------
      1        6          -0.014957229   -0.003434631   -0.006634168
      2        6           0.035050474    0.016266271   -0.003909554
      3        6           0.022448223    0.059761040    0.037071118
      4        6          -0.028115897   -0.006568195   -0.014694933
      5        6           0.015228958   -0.037852260   -0.028219557
      6        6          -0.027387658   -0.005963145   -0.017474692
      7        8           0.004021325    0.000002376    0.029971157
      8        6          -0.013888615   -0.030606291    0.026424722
      9        8           0.003963388    0.005581992   -0.005364105
     10        1           0.006020775   -0.000664523   -0.005150332
     11        1          -0.001031394    0.000734843   -0.004704846
     12        1          -0.002348107   -0.001271341   -0.001545032
     13        1          -0.003070918   -0.030733647    0.011381538
     14        1           0.015997738    0.023593412   -0.000987502
     15        1          -0.015947348    0.003757245   -0.005164142
     16        1          -0.003338463    0.003417024   -0.008769952
     17        1           0.007354750    0.003979832   -0.002229719
 -------------------------------------------------------------------
 Cartesian Forces:  Max     0.059761040 RMS     0.018321980

 GradGradGradGradGradGradGradGradGradGradGradGradGradGradGradGradGradGrad
 Berny optimization.
 Using GEDIIS/GDIIS optimizer.
 FormGI is forming the generalized inverse of G from B-inverse, IUseBI=4.
 Internal  Forces:  Max     0.028565919 RMS     0.011287430
 Search for a local minimum.
 Step number   2 out of a maximum of   92
 All quantities printed in internal units (Hartrees-Bohrs-Radians)
 Mixed Optimization -- RFO/linear search
 Update second derivatives using D2CorX and points    1    2
 DE= -6.03D-02 DEPred=-6.06D-02 R= 9.94D-01
 TightC=F SS=  1.41D+00  RLast= 5.01D-01 DXNew= 5.0454D-01 1.5032D+00
 Trust test= 9.94D-01 RLast= 5.01D-01 DXMaxT set to 5.05D-01
 ITU=  1  0
 Use linear search instead of GDIIS.
     Eigenvalues ---    0.00322   0.00475   0.00592   0.00765   0.01482
     Eigenvalues ---    0.01620   0.02298   0.03186   0.04113   0.04389
     Eigenvalues ---    0.05550   0.05838   0.06506   0.07544   0.07713
     Eigenvalues ---    0.08450   0.09806   0.10486   0.13280   0.14267
     Eigenvalues ---    0.15963   0.16000   0.16000   0.16135   0.18634
     Eigenvalues ---    0.20893   0.22999   0.24475   0.24936   0.26972
     Eigenvalues ---    0.28419   0.29499   0.29964   0.31079   0.32278
     Eigenvalues ---    0.33084   0.33624   0.33859   0.34857   0.35503
     Eigenvalues ---    0.37740   0.39546   0.44873   0.52043   0.81801
 RFO step:  Lambda=-4.15216672D-02 EMin= 3.21979696D-03
 Quartic linear search produced a step of  1.13437.
 Iteration  1 RMS(Cart)=  0.15196993 RMS(Int)=  0.03051676
 Iteration  2 RMS(Cart)=  0.04867958 RMS(Int)=  0.00872708
 Iteration  3 RMS(Cart)=  0.00205967 RMS(Int)=  0.00858440
 Iteration  4 RMS(Cart)=  0.00001553 RMS(Int)=  0.00858440
 Iteration  5 RMS(Cart)=  0.00000030 RMS(Int)=  0.00858440
 Variable       Old X    -DE/DX   Delta X   Delta X   Delta X     New X
                                 (Linear)    (Quad)   (Total)
    R1        2.86731   0.00836   0.03709  -0.00248   0.03461   2.90192
    R2        2.07976  -0.00320  -0.01036  -0.00340  -0.01376   2.06600
    R3        2.07698  -0.00193  -0.00272  -0.00616  -0.00888   2.06809
    R4        2.05918   0.00191   0.01438  -0.00800   0.00638   2.06556
    R5        2.79388  -0.01999  -0.11778   0.03521  -0.08256   2.71132
    R6        2.13867  -0.00144   0.02749  -0.04059  -0.01310   2.12558
    R7        2.69608  -0.00129  -0.01541   0.01865   0.00583   2.70192
    R8        2.89378  -0.00620  -0.02121  -0.00000  -0.01805   2.87573
    R9        3.00768   0.01721   0.12601  -0.06290   0.06127   3.06895
   R10        2.10298  -0.01455  -0.05559  -0.01056  -0.06616   2.03683
   R11        2.95775  -0.02140  -0.05696  -0.07428  -0.13430   2.82345
   R12        2.08269  -0.00086   0.01166  -0.01797  -0.00631   2.07639
   R13        2.31893  -0.02857  -0.04706  -0.01337  -0.06044   2.25849
   R14        2.91464   0.02179   0.07150   0.02129   0.09219   3.00682
   R15        2.65501   0.00217  -0.00077   0.00901   0.00823   2.66324
   R16        2.05762  -0.00009  -0.00161   0.00146  -0.00015   2.05747
   R17        1.83023  -0.00808  -0.01609  -0.00910  -0.02519   1.80504
    A1        1.93696  -0.00692  -0.03736  -0.00653  -0.04407   1.89289
    A2        1.86204   0.00412   0.02060   0.01216   0.03305   1.89509
    A3        2.02586   0.00047   0.01051  -0.01833  -0.00825   2.01761
    A4        1.81919   0.00482   0.02024   0.02894   0.04983   1.86902
    A5        1.90559   0.00151   0.00490  -0.00238   0.00173   1.90732
    A6        1.90207  -0.00341  -0.01721  -0.00832  -0.02553   1.87654
    A7        2.41339  -0.01672  -0.04219  -0.04869  -0.08614   2.32725
    A8        1.69303   0.01031   0.10654  -0.00697   0.10979   1.80282
    A9        1.55777   0.00805   0.02206   0.10123   0.13315   1.69092
   A10        1.41359   0.00061   0.01106  -0.11173  -0.14105   1.27254
   A11        2.03120  -0.01652  -0.13529   0.00880  -0.14944   1.88176
   A12        2.14413  -0.01775  -0.03700  -0.13048  -0.17888   1.96525
   A13        1.46071   0.02405   0.08821   0.10576   0.20359   1.66431
   A14        2.29243  -0.01625  -0.05714  -0.10381  -0.17890   2.11353
   A15        1.88827  -0.00091   0.00531   0.04833   0.07317   1.96144
   A16        1.79953  -0.01191  -0.03402  -0.02245  -0.06603   1.73350
   A17        1.90257   0.01988   0.10196   0.08282   0.18427   2.08685
   A18        1.96326   0.00519   0.02771   0.03894   0.06148   2.02474
   A19        2.24087  -0.01384  -0.05213  -0.01493  -0.06912   2.17176
   A20        1.85733   0.00862   0.04312  -0.00590   0.03858   1.89592
   A21        2.18404   0.00548   0.01348   0.02005   0.03147   2.21551
   A22        1.58153   0.00804   0.03461   0.07052   0.10859   1.69013
   A23        1.92873   0.00451   0.01819   0.03098   0.04121   1.96994
   A24        1.95468   0.00007   0.00402   0.00511   0.01046   1.96514
   A25        1.93644   0.00400   0.00530   0.02758   0.02424   1.96068
   A26        2.02956  -0.00298   0.00975  -0.04831  -0.04301   1.98656
   A27        1.99252  -0.00938  -0.05002  -0.05514  -0.10429   1.88823
   A28        1.87698   0.00303   0.00423   0.02131   0.02555   1.90253
    D1       -1.26649  -0.00603  -0.05820  -0.02726  -0.08493  -1.35142
    D2        0.42263   0.01375   0.09500   0.10656   0.19987   0.62250
    D3        3.04546  -0.01056  -0.07557  -0.06475  -0.13893   2.90652
    D4       -1.54860   0.00922   0.07762   0.06908   0.14586  -1.40274
    D5        0.92230  -0.00960  -0.07562  -0.05126  -0.12547   0.79683
    D6        2.61143   0.01018   0.07757   0.08257   0.15933   2.77075
    D7       -2.96003   0.01523   0.07974   0.05039   0.11410  -2.84592
    D8       -0.82540  -0.00650   0.01744  -0.14943  -0.12029  -0.94569
    D9        1.58293  -0.00654  -0.10659  -0.04532  -0.16361   1.41933
   D10       -2.56563  -0.02826  -0.16889  -0.24514  -0.39800  -2.96363
   D11        1.04883  -0.00968  -0.10296  -0.00286  -0.10761   0.94122
   D12       -0.84885  -0.02695  -0.18468  -0.14328  -0.30803  -1.15687
   D13       -0.96993   0.01210   0.06179   0.07566   0.11980  -0.85012
   D14       -2.86761  -0.00517  -0.01993  -0.06476  -0.08061  -2.94822
   D15       -1.10361   0.01198   0.10207   0.12462   0.21806  -0.88555
   D16        0.86324   0.02035   0.12395   0.18854   0.30681   1.17005
   D17        3.10588   0.01150   0.07483   0.14382   0.20831  -2.96900
   D18        0.57964  -0.00903  -0.01269  -0.09136  -0.09630   0.48333
   D19        2.54648  -0.00066   0.00919  -0.02744  -0.00755   2.53893
   D20       -1.49406  -0.00951  -0.03993  -0.07216  -0.10605  -1.60012
   D21        0.87738  -0.00340  -0.06084   0.03695  -0.02865   0.84873
   D22        2.96664   0.00552  -0.00044   0.10852   0.10144   3.06809
   D23       -3.10983  -0.01259  -0.09389  -0.03032  -0.11080   3.06255
   D24       -1.02056  -0.00367  -0.03349   0.04125   0.01929  -1.00127
   D25        2.45755   0.00792   0.04402   0.02127   0.06493   2.52247
   D26       -0.72930   0.01457   0.11161   0.00306   0.11220  -0.61710
   D27        0.41064  -0.01106  -0.06902  -0.08198  -0.14892   0.26173
   D28       -2.77621  -0.00441  -0.00143  -0.10019  -0.10164  -2.87785
   D29        0.16729  -0.00158  -0.02830   0.01149  -0.02080   0.14649
   D30       -1.79251  -0.01051  -0.06279  -0.05623  -0.12385  -1.91636
   D31        2.17489   0.00220  -0.00313   0.04439   0.03841   2.21330
   D32       -3.01767   0.00415   0.03128  -0.00709   0.02465  -2.99302
   D33        1.30571  -0.00478  -0.00321  -0.07481  -0.07840   1.22731
   D34       -1.01007   0.00793   0.05645   0.02582   0.08386  -0.92621
   D35       -1.38331  -0.00712  -0.03004  -0.06723  -0.10024  -1.48355
   D36        0.34360   0.00595   0.01984   0.04031   0.06200   0.40560
   D37        2.67795  -0.00344  -0.01015  -0.05573  -0.06476   2.61320
         Item               Value     Threshold  Converged?
 Maximum Force            0.028566     0.000450     NO 
 RMS     Force            0.011287     0.000300     NO 
 Maximum Displacement     0.670838     0.001800     NO 
 RMS     Displacement     0.185875     0.001200     NO 
 Predicted change in Energy=-7.267971D-02
 GradGradGradGradGradGradGradGradGradGradGradGradGradGradGradGradGradGrad

                          Input orientation:                          
 ---------------------------------------------------------------------
 Center     Atomic      Atomic             Coordinates (Angstroms)
 Number     Number       Type             X           Y           Z
 ---------------------------------------------------------------------
      1          6           0        1.054151   -0.363526   -0.672976
      2          6           0        2.419696   -1.054812   -0.548191
      3          6           0        3.737673   -0.721676   -1.007013
      4          6           0        3.748385   -2.111505   -0.671506
      5          6           0        2.481856   -2.503665   -1.609348
      6          6           0        2.901280   -1.831340   -2.876005
      7          8           0        2.688857   -2.260245   -3.971122
      8          6           0        3.661685   -0.482967   -2.508025
      9          8           0        2.912802    0.662923   -2.843159
     10          1           0        1.016164    0.459864    0.045247
     11          1           0        0.274894   -1.076461   -0.386334
     12          1           0        0.804968    0.013777   -1.668118
     13          1           0        2.640862   -0.993724    0.552964
     14          1           0        3.621590   -2.439188    0.347461
     15          1           0        2.179460   -3.556133   -1.699768
     16          1           0        4.644605   -0.392956   -2.967564
     17          1           0        1.987472    0.429273   -2.882532
 ---------------------------------------------------------------------
                    Distance matrix (angstroms):
                    1          2          3          4          5
     1  C    0.000000
     2  C    1.535630   0.000000
     3  C    2.727846   1.434769   0.000000
     4  C    3.211593   1.702123   1.429792   0.000000
     5  C    2.737759   1.796967   2.261718   1.624018   0.000000
     6  C    3.227956   2.500727   2.328956   2.378213   1.494107
     7  O    4.140962   3.638951   3.500450   3.468744   2.383291
     8  C    3.190753   2.389664   1.521773   2.456106   2.506559
     9  O    3.036095   2.908719   2.443145   3.621013   3.425680
    10  H    1.093279   2.148561   3.147999   3.819779   3.697085
    11  H    1.094387   2.151010   3.535811   3.635627   2.898854
    12  H    1.093049   2.236842   3.094949   3.764806   3.025379
    13  H    2.101840   1.124806   1.926275   1.993833   2.642119
    14  H    3.455634   2.040402   2.190417   1.077843   2.265447
    15  H    3.537423   2.764136   3.307882   2.367657   1.098776
    16  H    4.261145   3.352855   2.185026   3.004747   3.313205
    17  H    2.526214   2.799727   2.811665   3.800659   3.235357
                    6          7          8          9         10
     6  C    0.000000
     7  O    1.195141   0.000000
     8  C    1.591143   2.499152   0.000000
     9  O    2.494507   3.141236   1.409328   0.000000
    10  H    4.163772   5.131093   3.795644   3.461410   0.000000
    11  H    3.696784   4.480989   4.040317   4.002500   1.759557
    12  H    3.042692   3.744869   3.018780   2.499015   1.783036
    13  H    3.539385   4.698268   3.266896   3.788414   2.238379
    14  H    3.358431   4.421783   3.461533   4.506166   3.909486
    15  H    2.208951   2.664180   3.506368   4.432332   4.530626
    16  H    2.261971   2.884241   1.088765   2.032117   4.792694
    17  H    2.438332   2.985042   1.943046   0.955185   3.084844
                   11         12         13         14         15
    11  H    0.000000
    12  H    1.764247   0.000000
    13  H    2.546946   3.052666   0.000000
    14  H    3.687256   4.244167   1.758813   0.000000
    15  H    3.391350   3.825505   3.442910   2.741979   0.000000
    16  H    5.120967   4.073918   4.095122   4.027781   4.205940
    17  H    3.381001   1.745209   3.775509   4.618578   4.161641
                   16         17
    16  H    0.000000
    17  H    2.782741   0.000000
 Stoichiometry    C7H8O2
 Framework group  C1[X(C7H8O2)]
 Deg. of freedom    45
 Full point group                 C1      NOp   1
 Largest Abelian subgroup         C1      NOp   1
 Largest concise Abelian subgroup C1      NOp   1
                         Standard orientation:                         
 ---------------------------------------------------------------------
 Center     Atomic      Atomic             Coordinates (Angstroms)
 Number     Number       Type             X           Y           Z
 ---------------------------------------------------------------------
      1          6           0       -1.740578    0.733734   -1.151761
      2          6           0       -1.340303   -0.188683    0.008880
      3          6           0       -0.600362    0.017754    1.220669
      4          6           0       -0.647442   -1.392892    0.992265
      5          6           0       -0.048565   -1.322424   -0.515653
      6          6           0        1.132336   -0.441753   -0.266155
      7          8           0        2.183758   -0.546930   -0.824558
      8          6           0        0.743731    0.626061    0.847619
      9          8           0        0.628570    1.929168    0.323351
     10          1           0       -2.583696    1.350299   -0.828870
     11          1           0       -2.094017    0.115396   -1.982676
     12          1           0       -0.947425    1.379895   -1.536653
     13          1           0       -2.324719   -0.437573    0.492790
     14          1           0       -1.578639   -1.933647    1.039188
     15          1           0        0.151956   -2.253552   -1.063466
     16          1           0        1.436139    0.657518    1.687257
     17          1           0        0.448879    1.872978   -0.613095
 ---------------------------------------------------------------------
 Rotational constants (GHZ):           2.2724601           1.8236838           1.5141961
 Standard basis: 6-31G(2df,p) (6D, 7F)
 There are   319 symmetry adapted cartesian basis functions of A   symmetry.
 There are   292 symmetry adapted basis functions of A   symmetry.
   292 basis functions,   452 primitive gaussians,   319 cartesian basis functions
    33 alpha electrons       33 beta electrons
       nuclear repulsion energy       450.4229148129 Hartrees.
 NAtoms=   17 NActive=   17 NUniq=   17 SFac= 1.00D+00 NAtFMM=   60 NAOKFM=F Big=F
 Integral buffers will be    131072 words long.
 Raffenetti 2 integral format.
 Two-electron integral symmetry is turned on.
 One-electron integrals computed using PRISM.
 PrsmSu:  requested number of processors reduced to:  13 ShMem   1 Linda.
 NBasis=   292 RedAO= T EigKep=  3.50D-04  NBF=   292
 NBsUse=   292 1.00D-06 EigRej= -1.00D+00 NBFU=   292
 Initial guess from the checkpoint file:  "CC1C2dCC1CpdOpC2O.chk"
 B after Tr=    -0.000000   -0.000000   -0.000000
         Rot=    0.996901    0.056665    0.034048    0.042638 Ang=   9.02 deg.
 ExpMin= 1.61D-01 ExpMax= 5.48D+03 ExpMxC= 8.25D+02 IAcc=2 IRadAn=         4 AccDes= 0.00D+00
 Harris functional with IExCor=  402 and IRadAn=       4 diagonalized for initial guess.
 HarFok:  IExCor=  402 AccDes= 0.00D+00 IRadAn=         4 IDoV= 1 UseB2=F ITyADJ=14
 ICtDFT=  3500011 ScaDFX=  1.000000  1.000000  1.000000  1.000000
 FoFCou: FMM=F IPFlag=           0 FMFlag=      100000 FMFlg1=           0
         NFxFlg=           0 DoJE=T BraDBF=F KetDBF=T FulRan=T
         wScrn=  0.000000 ICntrl=       500 IOpCl=  0 I1Cent=   200000004 NGrid=           0
         NMat0=    1 NMatS0=      1 NMatT0=    0 NMatD0=    1 NMtDS0=    0 NMtDT0=    0
 Petite list used in FoFCou.
 Requested convergence on RMS density matrix=1.00D-08 within 128 cycles.
 Requested convergence on MAX density matrix=1.00D-06.
 Requested convergence on             energy=1.00D-06.
 No special actions if energy rises.
 Integral accuracy reduced to 1.0D-05 until final iterations.
 Initial convergence to 1.0D-05 achieved.  Increase integral accuracy.
 SCF Done:  E(RB3LYP) =  -421.726874723     A.U. after   17 cycles
            NFock= 17  Conv=0.39D-08     -V/T= 2.0068
 PrsmSu:  requested number of processors reduced to:  13 ShMem   1 Linda.
 Calling FoFJK, ICntrl=      2127 FMM=F ISym2X=0 I1Cent= 0 IOpClX= 0 NMat=1 NMatS=1 NMatT=0.
 ***** Axes restored to original set *****
 -------------------------------------------------------------------
 Center     Atomic                   Forces (Hartrees/Bohr)
 Number     Number              X              Y              Z
 -------------------------------------------------------------------
      1        6          -0.007315630   -0.001639119   -0.005526294
      2        6          -0.009371165    0.023353012    0.047910168
      3        6           0.040733305    0.056852629   -0.012258593
      4        6          -0.070242940   -0.017405837   -0.034737619
      5        6           0.062210905   -0.024598799    0.018575500
      6        6          -0.003111948    0.020986971    0.008015692
      7        8          -0.002358518   -0.009419798   -0.025104404
      8        6          -0.011373451   -0.029490281    0.012781424
      9        8           0.008591602    0.006733754   -0.004004094
     10        1           0.003201493    0.002357880   -0.002919237
     11        1           0.000743107    0.000374327   -0.000388453
     12        1           0.000123110   -0.002124630    0.003454456
     13        1          -0.023433547   -0.018054802   -0.006308281
     14        1           0.022336398   -0.012044308    0.007602232
     15        1          -0.008931612    0.007345855    0.002024691
     16        1           0.000033764   -0.003329776   -0.005496026
     17        1          -0.001834874    0.000102922   -0.003621163
 -------------------------------------------------------------------
 Cartesian Forces:  Max     0.070242940 RMS     0.021562279

 GradGradGradGradGradGradGradGradGradGradGradGradGradGradGradGradGradGrad
 Berny optimization.
 Using GEDIIS/GDIIS optimizer.
 FormGI is forming the generalized inverse of G from B-inverse, IUseBI=4.
 Internal  Forces:  Max     0.043705202 RMS     0.011826479
 Search for a local minimum.
 Step number   3 out of a maximum of   92
 All quantities printed in internal units (Hartrees-Bohrs-Radians)
 Mixed Optimization -- RFO/linear search
 Update second derivatives using D2CorX and points    2    3
 DE= -6.78D-02 DEPred=-7.27D-02 R= 9.33D-01
 TightC=F SS=  1.41D+00  RLast= 1.06D+00 DXNew= 8.4853D-01 3.1721D+00
 Trust test= 9.33D-01 RLast= 1.06D+00 DXMaxT set to 8.49D-01
 ITU=  1  1  0
 Use linear search instead of GDIIS.
     Eigenvalues ---    0.00344   0.00485   0.00587   0.00761   0.01469
     Eigenvalues ---    0.01576   0.01701   0.02592   0.03143   0.06146
     Eigenvalues ---    0.06494   0.06766   0.06871   0.07100   0.07682
     Eigenvalues ---    0.08922   0.10186   0.11165   0.12049   0.14221
     Eigenvalues ---    0.15845   0.16000   0.16004   0.16117   0.16603
     Eigenvalues ---    0.21529   0.23156   0.24117   0.25004   0.27433
     Eigenvalues ---    0.28729   0.29489   0.29964   0.31586   0.32451
     Eigenvalues ---    0.33083   0.33638   0.34008   0.34857   0.35577
     Eigenvalues ---    0.37792   0.44678   0.51410   0.53793   0.87407
 RFO step:  Lambda=-5.42458221D-02 EMin= 3.43526794D-03
 Quartic linear search produced a step of  0.20404.
 Iteration  1 RMS(Cart)=  0.15681212 RMS(Int)=  0.01377951
 Iteration  2 RMS(Cart)=  0.01406965 RMS(Int)=  0.00542249
 Iteration  3 RMS(Cart)=  0.00015820 RMS(Int)=  0.00542130
 Iteration  4 RMS(Cart)=  0.00000091 RMS(Int)=  0.00542130
 Variable       Old X    -DE/DX   Delta X   Delta X   Delta X     New X
                                 (Linear)    (Quad)   (Total)
    R1        2.90192   0.00286   0.00706   0.02267   0.02974   2.93166
    R2        2.06600  -0.00025  -0.00281  -0.00566  -0.00847   2.05753
    R3        2.06809  -0.00088  -0.00181  -0.00422  -0.00603   2.06206
    R4        2.06556  -0.00391   0.00130  -0.00364  -0.00234   2.06323
    R5        2.71132   0.04371  -0.01685   0.06938   0.05253   2.76385
    R6        2.12558  -0.01176  -0.00267  -0.02320  -0.02587   2.09971
    R7        2.70192   0.03131   0.00119   0.06352   0.06939   2.77131
    R8        2.87573   0.00533  -0.00368   0.01101   0.00950   2.88523
    R9        3.06895  -0.03589   0.01250  -0.06033  -0.04606   3.02289
   R10        2.03683   0.00822  -0.01350  -0.00445  -0.01794   2.01889
   R11        2.82345   0.00735  -0.02740  -0.01478  -0.04656   2.77689
   R12        2.07639  -0.00474  -0.00129  -0.00871  -0.01000   2.06639
   R13        2.25849   0.02680  -0.01233   0.00313  -0.00920   2.24929
   R14        3.00682  -0.00281   0.01881   0.02972   0.04446   3.05128
   R15        2.66324   0.00378   0.00168   0.00809   0.00977   2.67302
   R16        2.05747   0.00208  -0.00003   0.00421   0.00418   2.06165
   R17        1.80504   0.00190  -0.00514  -0.00590  -0.01104   1.79400
    A1        1.89289  -0.00230  -0.00899  -0.02630  -0.03542   1.85747
    A2        1.89509   0.00056   0.00674   0.01334   0.02021   1.91530
    A3        2.01761   0.00029  -0.00168   0.00293   0.00102   2.01863
    A4        1.86902   0.00265   0.01017   0.02408   0.03454   1.90356
    A5        1.90732  -0.00051   0.00035  -0.00289  -0.00298   1.90434
    A6        1.87654  -0.00041  -0.00521  -0.00858  -0.01379   1.86275
    A7        2.32725  -0.01462  -0.01758  -0.05823  -0.07449   2.25277
    A8        1.80282  -0.00982   0.02240   0.00876   0.03303   1.83586
    A9        1.69092   0.02489   0.02717   0.14889   0.17804   1.86896
   A10        1.27254   0.01454  -0.02878   0.08779   0.04621   1.31875
   A11        1.88176  -0.00392  -0.03049  -0.04029  -0.07169   1.81007
   A12        1.96525  -0.02580  -0.03650  -0.13693  -0.16955   1.79570
   A13        1.66431   0.02082   0.04154   0.16335   0.20331   1.86762
   A14        2.11353   0.00015  -0.03650   0.02120  -0.04424   2.06928
   A15        1.96144   0.00591   0.01493   0.08308   0.08715   2.04859
   A16        1.73350   0.00125  -0.01347  -0.00248  -0.02159   1.71191
   A17        2.08685   0.00747   0.03760   0.09363   0.12843   2.21528
   A18        2.02474  -0.00204   0.01254   0.01671   0.02314   2.04788
   A19        2.17176   0.00086  -0.01410  -0.02348  -0.03855   2.13320
   A20        1.89592   0.00161   0.00787   0.02299   0.02270   1.91862
   A21        2.21551  -0.00248   0.00642   0.00022   0.00552   2.22104
   A22        1.69013   0.01181   0.02216   0.09007   0.11066   1.80079
   A23        1.96994  -0.00547   0.00841   0.01192   0.01373   1.98367
   A24        1.96514   0.00340   0.00213   0.00039   0.00550   1.97064
   A25        1.96068   0.00844   0.00495   0.02868   0.02683   1.98751
   A26        1.98656  -0.01392  -0.00877  -0.06390  -0.07401   1.91255
   A27        1.88823  -0.00320  -0.02128  -0.05354  -0.07533   1.81290
   A28        1.90253   0.00248   0.00521   0.01439   0.01961   1.92213
    D1       -1.35142  -0.00535  -0.01733  -0.06114  -0.07848  -1.42990
    D2        0.62250   0.01190   0.04078   0.13739   0.17760   0.80010
    D3        2.90652  -0.00754  -0.02835  -0.08265  -0.11060   2.79593
    D4       -1.40274   0.00970   0.02976   0.11588   0.14548  -1.25726
    D5        0.79683  -0.00763  -0.02560  -0.08361  -0.10876   0.68807
    D6        2.77075   0.00961   0.03251   0.11491   0.14732   2.91807
    D7       -2.84592   0.01207   0.02328   0.11834   0.13582  -2.71010
    D8       -0.94569  -0.01134  -0.02454   0.00078  -0.01849  -0.96419
    D9        1.41933   0.00784  -0.03338  -0.02507  -0.06372   1.35561
   D10       -2.96363  -0.01557  -0.08121  -0.14262  -0.21804   3.10152
   D11        0.94122   0.01315  -0.02196   0.10383   0.07761   1.01883
   D12       -1.15687  -0.01000  -0.06285  -0.13311  -0.19023  -1.34710
   D13       -0.85012   0.00656   0.02444   0.08661   0.10482  -0.74530
   D14       -2.94822  -0.01658  -0.01645  -0.15033  -0.16302  -3.11124
   D15       -0.88555  -0.01603   0.04449  -0.08063  -0.03939  -0.92494
   D16        1.17005  -0.00197   0.06260   0.00504   0.06586   1.23591
   D17       -2.96900  -0.00780   0.04250  -0.05668  -0.01900  -2.98800
   D18        0.48333  -0.00756  -0.01965  -0.03090  -0.04652   0.43681
   D19        2.53893   0.00650  -0.00154   0.05477   0.05873   2.59766
   D20       -1.60012   0.00067  -0.02164  -0.00695  -0.02613  -1.62625
   D21        0.84873  -0.00429  -0.00585  -0.09182  -0.11019   0.73854
   D22        3.06809  -0.00118   0.02070  -0.01240  -0.00149   3.06660
   D23        3.06255   0.01057  -0.02261   0.06371   0.05258   3.11513
   D24       -1.00127   0.01368   0.00394   0.14314   0.16128  -0.83999
   D25        2.52247   0.00015   0.01325   0.03376   0.04590   2.56837
   D26       -0.61710   0.01132   0.02289   0.16870   0.18749  -0.42961
   D27        0.26173  -0.00905  -0.03038  -0.09367  -0.12213   0.13960
   D28       -2.87785   0.00212  -0.02074   0.04127   0.01947  -2.85838
   D29        0.14649  -0.01399  -0.00424  -0.11619  -0.12027   0.02622
   D30       -1.91636  -0.01704  -0.02527  -0.18776  -0.21573  -2.13209
   D31        2.21330  -0.00859   0.00784  -0.08866  -0.08385   2.12945
   D32       -2.99302  -0.00247   0.00503   0.02310   0.03036  -2.96266
   D33        1.22731  -0.00552  -0.01600  -0.04847  -0.06511   1.16221
   D34       -0.92621   0.00293   0.01711   0.05062   0.06677  -0.85944
   D35       -1.48355  -0.00791  -0.02045  -0.07651  -0.09667  -1.58022
   D36        0.40560   0.00834   0.01265   0.05741   0.06982   0.47542
   D37        2.61320  -0.00608  -0.01321  -0.04527  -0.05853   2.55466
         Item               Value     Threshold  Converged?
 Maximum Force            0.043705     0.000450     NO 
 RMS     Force            0.011826     0.000300     NO 
 Maximum Displacement     0.428557     0.001800     NO 
 RMS     Displacement     0.153085     0.001200     NO 
 Predicted change in Energy=-4.775647D-02
 GradGradGradGradGradGradGradGradGradGradGradGradGradGradGradGradGradGrad

                          Input orientation:                          
 ---------------------------------------------------------------------
 Center     Atomic      Atomic             Coordinates (Angstroms)
 Number     Number       Type             X           Y           Z
 ---------------------------------------------------------------------
      1          6           0        1.055963   -0.212006   -0.679748
[...]
   yy         0.843249D+02      0.124957D+02      0.139033D+02
   zx        -0.224219D+02     -0.332258D+01     -0.369687D+01
   zy         0.134731D+02      0.199651D+01      0.222142D+01
   zz         0.101368D+03      0.150212D+02      0.167134D+02

 ----------------------------------------------------------------------
 1\1\GINC-LEWIS4-R630-HPC4-NODE303\Freq\RB3LYP\6-31G(2df,p)\C7H8O2\KS29
 C\03-Jul-2022\0\\#N Geom=AllCheck Guess=TCheck SCRF=Check GenChk RB3LY
 P/6-31G(2df,p) Freq\\Title Card Required\\0,1\C,1.2402518685,0.6083171
 416,-0.1028924443\C,1.917037987,-0.7236591316,-0.0386330727\C,2.609632
 5349,-1.3101466264,-1.0239135632\C,3.2578267727,-2.6130088231,-0.93767
 05849\C,3.7799225508,-3.0238653223,-2.1162434592\C,3.4740384633,-2.019
 8145957,-3.1438176564\O,3.5652563736,-2.0874994516,-4.3514011254\C,2.8
 975836633,-0.7866606108,-2.4176709675\O,1.793864381,-0.2491428052,-3.1
 063377312\H,1.654545657,1.2869793632,0.6541020869\H,0.1721945381,0.507
 5256385,0.1272296156\H,1.3344575645,1.0674230703,-1.0873628347\H,1.822
 6199462,-1.267760684,0.9011534737\H,3.2933924568,-3.1748354683,-0.0097
 881092\H,4.2809756784,-3.96085254,-2.3182691724\H,3.717470905,-0.04661
 39095,-2.3518594726\H,1.9653286589,-0.4287452451,-4.0426149826\\Versio
 n=ES64L-G16RevA.03\State=1-A\HF=-421.9998822\RMSD=3.909e-09\RMSF=3.788
 e-05\ZeroPoint=0.1352318\Thermal=0.1438211\Dipole=0.0757505,-0.0443921
 ,1.2499893\DipoleDeriv=0.0411746,0.0964799,0.0676852,0.0957995,-0.0585
 983,-0.0048315,0.0905686,-0.0456085,-0.0481151,0.0518434,-0.2419637,-0
 .189327,-0.264849,0.3095345,0.1174997,-0.1622666,0.0585325,0.2505923,-
 0.2033676,0.173928,0.1746871,0.1755348,-0.2474783,-0.2357939,-0.010843
 ,-0.0525255,-0.118828,0.1571735,-0.2074511,-0.2929652,-0.2500361,0.288
 3133,0.3200863,-0.1051069,0.019065,0.3730475,-0.1996492,0.0451694,0.05
 62411,-0.1084628,-0.0740162,0.3204375,0.1765225,-0.0780193,-0.7542502,
 0.1700054,-0.0918547,0.002599,0.0447413,0.4566543,-0.4017048,-0.245253
 1,0.1190968,1.6255554,-0.3872471,0.0773312,0.0602236,0.0280731,-0.4348
 192,0.0744665,0.2450935,-0.1808038,-1.3888095,0.5643993,-0.0055957,0.2
 453239,0.0836437,0.0621564,-0.2600579,0.2099604,-0.1466868,0.3176264,-
 0.587087,0.0900834,-0.2826753,0.1013986,-0.4740254,0.1640229,-0.181790
 3,0.0863247,-0.4863213,0.0297541,-0.0302665,-0.0465061,0.0347048,-0.07
 84808,-0.1339053,-0.0638598,-0.064905,-0.0018884,-0.1220718,0.0344364,
 0.071404,0.0163356,0.0014629,-0.0416043,0.0174362,0.0330954,0.0923068,
 0.0502787,-0.0012933,0.0285186,0.0085532,0.0241535,0.0348624,-0.008298
 5,0.0783502,0.0032938,0.0697365,0.0415443,0.0123971,0.0337651,-0.03493
 42,0.0888175,0.0240922,0.0735721,-0.0713133,0.0985795,0.0159111,0.0083
 816,0.0278389,0.0272697,0.0479329,-0.0118915,0.088694,-0.0225158,0.111
 318,0.0505398,-0.0121559,0.0800991,-0.0209986,-0.0027939,0.0177335,-0.
 0034737,0.0595259,-0.1144269,-0.0308189,-0.0277441,-0.0949792,-0.05615
 31,0.0169711,-0.0151209,0.0121406,-0.0214647,0.2695865,-0.0161797,0.12
 39124,-0.0121605,0.3099595,-0.1044052,0.0230237,0.0031513,0.1915581\Po
 lar=65.4727997,-24.9049684,83.3371358,-21.1307068,14.3426273,104.99551
 58\Quadrupole=-0.5554453,1.8311394,-1.275694,-0.368959,0.7911303,-2.06
 43583\PG=C01 [X(C7H8O2)]\NImag=0\\0.51323311,0.01842904,0.49287969,-0.
 01093369,-0.01946682,0.58036232,-0.10190930,0.05874289,-0.00290248,0.3
 4011780,0.05822270,-0.19200497,0.01791311,-0.19677128,0.52510706,0.000
 75912,0.01232795,-0.08656968,-0.21382175,0.00254690,0.67912462,-0.0031
 9266,0.01337246,0.01465770,-0.17535348,0.10430006,0.16564261,0.3645327
 9,0.02172570,-0.01412880,-0.02457832,0.10454583,-0.16380871,-0.1121986
 1,-0.20749491,0.49997333,0.00168441,-0.00417635,0.00462708,0.17052369,
 -0.11684621,-0.32542998,-0.22883707,0.07710347,0.65429482,0.01060192,0
 .00306152,0.00350082,-0.01397621,0.02543144,0.01001756,-0.09325670,0.0
 5875325,-0.00832787,0.26134397,0.00283359,0.00624305,0.00390887,0.0194
 4620,-0.02452820,-0.01659734,0.05834784,-0.19697822,0.03172453,-0.1553
 6631,0.49296974,0.00419127,0.00262061,-0.00107948,0.01889166,-0.031644
 67,-0.00437146,-0.00843952,0.03082441,-0.08911939,-0.13729461,-0.07900
 999,0.80011701,-0.00110216,0.00022105,0.00084859,0.00358203,0.00077034
 ,-0.00381603,-0.00949875,0.02295391,0.02079192,-0.11966673,0.06124878,
 0.13428721,0.28344806,0.00015378,-0.00041120,-0.00104203,0.00183932,-0
 .00340360,0.00234124,0.02213710,-0.01996805,-0.02837237,0.06907225,-0.
 14092172,-0.09614787,-0.26936181,0.60778328,0.00096572,-0.00131039,-0.
 00138337,-0.00747306,0.00748660,0.01160750,0.02322045,-0.03294853,-0.0
 0982562,0.12544027,-0.07289123,-0.37543298,-0.16048072,0.08357099,0.62
 134137,0.00046656,0.00063634,0.00068121,0.00121829,-0.00055041,-0.0023
 8202,-0.01311633,0.00464138,0.01822639,0.00602401,-0.01074715,0.006789
 39,-0.09094294,0.04006170,-0.01973870,0.26736592,0.00125878,-0.0005776
 6,-0.00160719,-0.00263577,-0.00446973,0.01043107,-0.00126816,0.0085652
 1,-0.01514623,-0.01239125,0.02347082,0.01459522,0.03754492,-0.17356877
 ,0.04684334,-0.09211393,0.41996881,-0.00080844,0.00074493,0.00158044,0
 .00218188,0.00016146,-0.00782362,0.00565096,-0.01077331,-0.03244094,0.
 01411896,0.00084294,-0.06464687,-0.01402807,0.04027024,-0.10427106,-0.
 05295560,0.00009175,0.99199153,0.00008649,0.00007538,-0.00008629,0.000
 30522,-0.00035929,0.00061577,0.00207863,0.00232355,0.00015588,0.001916
 06,0.00324627,-0.00210800,0.02222714,-0.00280877,-0.00517384,-0.078016
 52,0.01808732,0.04890201,0.04039966,-0.00030408,0.00014772,0.00055536,
 0.00044176,0.00230490,-0.00342182,0.00286727,-0.00707677,0.00091083,0.
 00486992,-0.00757528,0.00233784,-0.00321601,0.01982168,0.03296757,0.01
 644138,-0.09815409,-0.03720199,-0.02157220,0.07598117,0.00055011,-0.00
 011264,-0.00094792,-0.00203627,0.00347935,0.00205433,0.00586086,-0.011
 34271,0.00029388,-0.00987113,0.01576899,0.01009123,0.00116355,0.015980
 27,-0.06867253,0.05604002,-0.04777827,-0.71940741,-0.06177452,0.046398
 16,0.81868752,-0.00374402,-0.00407130,-0.00161741,-0.00085369,-0.00853
 380,0.01744798,-0.08380715,-0.00341544,0.02445986,0.00410880,0.0058179
 2,-0.01127832,0.00771926,0.01737859,0.00369875,-0.08537103,0.02315464,
 0.01094161,0.00757456,0.01023757,0.00605238,0.47402227,-0.00276827,0.0
 0016472,-0.00234478,-0.00037238,0.01330401,-0.01222312,-0.00324117,-0.
 09578066,0.02881010,0.00013273,-0.02158580,0.02889146,0.01511950,-0.02
 222781,-0.00210947,0.01297860,-0.12898430,-0.00886045,0.00831861,0.007
 39531,-0.02005591,0.01004769,0.49487003,-0.00267836,0.00029864,0.00156
 975,0.00718894,0.00578833,-0.02056608,0.03025190,0.03149384,-0.1606112
 6,-0.00644239,0.02116168,-0.00597124,-0.00391442,0.01466955,0.00193927
 ,0.00500812,-0.01666749,-0.07212739,0.01324302,-0.03516094,-0.04651658
 ,0.02477440,-0.04398934,0.50000709,0.00058064,0.00038737,-0.00003545,-
 0.00036900,0.00197004,0.00044277,0.00785499,0.00275434,-0.00497539,-0.
 00100868,-0.00021956,0.00122764,-0.00076692,0.00382538,0.00165658,-0.0
 2442781,0.01293318,-0.01591848,0.00546983,-0.00137267,-0.00039820,-0.1
 7867200,0.05921701,-0.02921417,0.27849777,0.00029498,-0.00047634,0.000
 91082,0.00103283,-0.00077733,-0.00154116,0.00638832,-0.00187021,0.0062
 7258,0.00160189,-0.00092148,-0.00024568,0.00039694,-0.00575103,-0.0015
 9828,0.03093639,-0.01309066,0.01529453,-0.00136492,0.00113547,0.002750
 78,0.06049273,-0.08049161,0.00811959,-0.12715162,0.11785193,-0.0002449
 4,-0.00259152,-0.00102689,-0.00054845,0.00105653,0.00175539,-0.0328456
 5,0.01527140,-0.01596154,0.00266189,-0.00201421,-0.00633831,-0.0020197
 3,-0.00221797,0.00283969,0.00476748,0.00351187,-0.00373813,0.00535126,
 -0.00569613,0.00618627,-0.07563421,0.03680582,-0.12525454,0.00933070,0
 .05102025,0.59749168,-0.07814391,-0.06051781,-0.06871837,0.00539067,0.
 01235577,0.01361360,-0.00101472,0.00153965,-0.00064157,-0.00156149,-0.
 00060817,-0.00016875,0.00000880,0.00012696,0.00005093,-0.00017165,0.00
 007656,-0.00015797,0.00001789,-0.00002662,0.00010862,0.00066023,0.0003
 4175,-0.00010825,0.00003535,-0.00006787,0.00016510,0.08724500,-0.06178
 925,-0.14007347,-0.10710998,-0.00833355,-0.02050287,-0.02215794,0.0004
 0905,-0.00256164,0.00228766,0.00194407,0.00132540,-0.00007667,0.000187
 65,-0.00016268,-0.00034108,0.00031657,-0.00052939,0.00082773,-0.000051
 53,0.00020848,-0.00055551,-0.00053279,-0.00068586,0.00058399,-0.000293
 97,0.00042537,0.00001485,0.06415441,0.15498764,-0.06996761,-0.10367438
 ,-0.16877390,0.00430367,-0.00150349,0.00065115,-0.00146757,0.00069903,
 0.00166979,0.00044837,-0.00083886,-0.00024266,-0.00011998,-0.00001642,
 0.00053380,-0.00022636,0.00059065,-0.00037773,0.00015225,-0.00026297,0
 .00015300,-0.00076850,0.00024604,-0.00081299,0.00056059,-0.00048542,-0
 .00045994,0.07575387,0.12006289,0.18022799,-0.28722135,-0.02700395,0.0
 5333365,-0.01428549,0.00211007,0.00486630,0.00000666,0.00069358,-0.002
 68575,0.00060037,0.00052003,0.00086369,-0.00009387,0.00007251,-0.00001
 820,0.00004222,0.00013100,-0.00037996,0.00000002,-0.00001766,0.0003419
 1,-0.00045644,-0.00010156,-0.00045148,0.00025275,-0.00003732,0.0001687
 6,-0.01342297,-0.00228766,0.00259347,0.31560369,-0.02500026,-0.0451875
 6,0.00893696,0.03295700,0.00105036,-0.00903157,0.00073930,-0.00347587,
 0.00217754,-0.00211780,-0.00086012,-0.00147428,0.00039541,-0.00002954,
 -0.00031367,-0.00000762,-0.00050626,0.00055137,-0.00002416,0.00014315,
 -0.00052268,0.00089760,0.00003121,0.00058545,-0.00027049,0.00020096,0.
 00010881,-0.01994651,-0.00245921,0.00443092,0.02591208,0.05205555,0.05
 253880,0.01018259,-0.05585865,0.00019202,-0.00314724,-0.00132533,-0.00
 039566,0.00068205,0.00078602,0.00044548,-0.00095523,-0.00025361,-0.000
 23165,-0.00011772,0.00049231,-0.00015943,0.00041314,-0.00027204,0.0000
 0943,-0.00014516,0.00020236,0.00005306,0.00045582,0.00020403,-0.000150
 06,-0.00035247,-0.00027673,-0.02271375,-0.00262615,0.00393518,-0.05850
 225,-0.00648023,0.05649911,-0.05124328,-0.01060561,0.02414978,0.001440
 72,0.00632032,-0.01576827,0.00028326,-0.00051045,-0.00061828,0.0000768
 4,-0.00023141,-0.00010837,-0.00006513,-0.00015505,0.00018763,-0.000313
 62,0.00033912,-0.00014825,0.00007507,-0.00015475,-0.00005338,-0.000442
 10,0.00062769,0.00057243,-0.00026371,-0.00014571,0.00002273,0.00045250
 ,0.00624452,-0.01187589,-0.00167348,-0.01277839,0.02891213,0.05198990,
 -0.00955284,-0.09443365,0.09955517,-0.00373305,-0.01375857,0.02945912,
 -0.00120587,0.00143868,0.00020555,-0.00033060,0.00032677,-0.00002746,0
 .00008769,0.00031607,-0.00037659,0.00022254,-0.00083667,0.00021501,-0.
 00024049,0.00042255,-0.00016035,0.00192304,-0.00094520,0.00042824,-0.0
 0040455,-0.00012250,0.00003803,0.00314587,0.00922138,-0.01838614,-0.00
 048486,-0.00200131,0.00243370,0.00772508,0.10383151,0.02294918,0.10531
 268,-0.27348174,-0.00059461,0.00024715,0.00081612,-0.00021327,-0.00072
 353,0.00070939,-0.00010948,0.00005776,0.00009731,0.00000105,0.00011645
 ,-0.00004539,-0.00020811,-0.00012753,-0.00004601,-0.00000532,0.0000763
 6,-0.00006735,0.00102686,-0.00021419,0.00092124,0.00012026,-0.00106323
 ,-0.00237045,0.00302102,0.00855066,-0.01690432,-0.00011355,0.00113352,
 -0.00455261,-0.02617798,-0.11260432,0.29416460,0.00333089,0.00782540,-
 0.01247535,-0.04666101,-0.00458110,0.02373246,0.00235334,-0.00845783,0
 .01713319,-0.00503441,-0.00378170,-0.00138767,0.00010820,0.00063390,-0
 .00056028,0.00051718,-0.00149792,0.00134197,-0.00062643,0.00051023,0.0
 0002866,0.00592094,0.00676108,0.00287404,-0.00001413,-0.00048476,0.001
 45912,0.00035702,0.00042281,0.00032357,0.00083283,-0.00123651,0.000051
 94,0.00002184,0.00343232,0.00054589,0.03777078,-0.00250692,-0.01133661
 ,0.02518411,-0.00652259,-0.11903390,0.11885692,0.00367366,0.00796258,-
 0.01276315,-0.00292641,-0.00029840,-0.00272841,0.00006502,0.00017325,0
 .00024037,0.00022419,0.00049484,-0.00027731,-0.00028155,-0.00030218,-0
 .00015256,0.00531244,0.00103190,0.00008352,-0.00042430,0.00008030,0.00
 074518,-0.00072848,0.00094942,-0.00058070,0.00050795,0.00086482,-0.000
 30585,0.00326212,-0.00434837,-0.00075204,-0.00012884,0.12342682,0.0008
 2987,-0.00020915,0.00104068,0.02491275,0.11490982,-0.25135918,0.003800
 24,0.01397302,-0.02196274,-0.00329802,0.00012756,0.00049159,0.00004993
 ,-0.00041780,0.00031950,-0.00020628,0.00236876,-0.00031147,0.00003385,
 -0.00104798,-0.00065738,0.00481444,-0.00215310,0.00134420,-0.00059277,
 -0.00004709,0.00035692,-0.00030320,0.00081592,0.00024325,-0.00007971,0
 .00014520,0.00029278,0.00037473,-0.00010863,0.00135780,-0.03177008,-0.
 12751659,0.26902237,-0.00020345,-0.00014779,0.00014858,-0.00031169,-0.
 00111064,-0.00107060,0.00401494,0.00562976,-0.01225594,-0.04933554,0.0
 1059634,-0.00563217,0.00886880,-0.00686097,0.01054633,0.00743135,0.006
 86846,0.00379865,-0.00149540,-0.00235514,0.00114596,0.00173926,0.00377
 869,0.00173138,-0.00086778,-0.00012200,0.00019422,0.00001518,0.0000048
 6,-0.00001037,-0.00003045,0.00003245,0.00004255,0.00005649,-0.00009141
 ,0.00002568,0.00011547,-0.00011871,0.00069742,0.03298421,0.00006196,-0
 .00008416,-0.00053313,-0.00185370,0.00107078,0.00096858,-0.00149210,-0
 .00723657,0.02283511,0.00926517,-0.13079898,0.12658585,0.00186955,0.01
 086056,-0.01103183,0.00657820,-0.00027743,-0.00004017,-0.00172223,0.00
 058946,-0.00082471,0.00386302,-0.00170290,-0.00098685,-0.00037098,-0.0
 0027953,0.00212408,0.00004757,-0.00009204,-0.00002143,0.00003622,-0.00
 004295,0.00001681,-0.00006462,0.00020467,-0.00001355,0.00057295,0.0002
 0861,-0.00099503,-0.01467812,0.12870202,-0.00010499,0.00001935,0.00015
 350,-0.00051046,-0.00061152,0.00097227,0.00144728,-0.00154493,0.001268
 80,-0.00454320,0.12421888,-0.26226624,-0.00278257,0.01702677,-0.013288
 49,0.00492703,-0.00154607,-0.00237688,-0.00129515,0.00091852,-0.001211
 21,0.00078322,-0.00006350,0.00152153,-0.00036826,0.00000017,0.00032021
 ,-0.00000690,0.00004622,-0.00002154,-0.00002548,0.00004869,-0.00000628
 ,0.00005893,-0.00004139,-0.00006276,-0.00029900,0.00053243,0.00016105,
 0.00340169,-0.13810533,0.27465637,-0.00145702,-0.00075922,-0.00055119,
 0.00022958,0.00060464,0.00017574,0.00771707,0.00366056,0.00245319,-0.0
 0131172,0.00843625,-0.00080567,-0.10223446,0.12517525,0.02767187,0.000
 25380,0.00120135,0.00385351,-0.00114806,-0.00086936,-0.00101295,0.0031
 9348,0.00160426,0.00081115,-0.00009643,-0.00049064,-0.00038275,0.00021
 249,-0.00032677,0.00004848,-0.00011119,0.00031534,0.00006648,0.0000653
 4,-0.00002817,0.00001679,0.00052646,0.00026744,0.00027606,-0.00332389,
 -0.00201595,-0.00092031,0.09801770,-0.00075640,-0.00031176,-0.00027719
 ,0.00032977,-0.00001372,-0.00003791,0.00324405,0.00225900,0.00145754,0
 .00035485,-0.00047357,0.00340194,0.12773040,-0.27268617,-0.04661353,0.
 00697709,-0.01085738,-0.01063217,-0.00160786,0.00179718,0.00145839,0.0
 0166596,0.00017130,0.00267052,0.00103600,-0.00158690,-0.00001145,0.000
 11714,-0.00015277,-0.00002452,-0.00004631,0.00015553,-0.00001225,0.000
 00846,0.00006329,0.00004691,0.00029901,0.00015044,0.00005285,-0.001641
 75,-0.00052912,-0.00085020,-0.13744847,0.28203972,-0.00019875,-0.00016
 341,-0.00049985,0.00051746,-0.00134849,0.00094315,0.00341109,0.0010154
 1,-0.00480830,0.01190746,-0.02484980,0.00246432,0.02727263,-0.04353923
 ,-0.06548327,-0.01010168,0.01825219,0.01154952,0.00142275,-0.00344137,
 -0.00001842,0.00033442,0.00267078,-0.00343495,-0.00116521,0.00124708,0
 .00010873,0.00010303,-0.00017061,0.00001151,0.00002730,-0.00002482,0.0
 0000954,0.00001648,-0.00004918,-0.00002477,0.00009606,0.00007966,0.000
 09299,-0.00139270,0.00020213,0.00068874,-0.03211622,0.04975782,0.05755
 414,-0.00014909,0.00011931,0.00009972,0.00119225,-0.00032635,-0.000231
 44,-0.00531465,-0.01019297,0.00265802,-0.00045810,0.00108860,0.0020077
 8,-0.00094038,-0.00061953,-0.00175151,0.00878250,0.00399050,0.00127537
 ,-0.00049454,-0.00040672,0.00065202,-0.15132639,-0.11047098,-0.0027638
 0,-0.03470064,-0.00703640,-0.01760353,-0.00005092,-0.00001165,0.000107
 99,0.00001289,0.00010926,-0.00015202,-0.00032308,-0.00006946,-0.000255
 78,0.00029407,0.00028510,0.00037944,0.00028314,-0.00040471,0.00005299,
 -0.00052416,-0.00023501,-0.00014306,0.18592057,-0.00040827,0.00002886,
 0.00021777,0.00069635,-0.00019729,-0.00012643,-0.00538397,-0.00472514,
 0.00146775,-0.00000793,-0.00061895,0.00025794,0.00290843,-0.00093119,0
 .00046422,-0.01969016,-0.01841701,-0.00025466,0.00271452,0.00179357,-0
 .00101983,-0.12106737,-0.16541657,-0.00887280,0.01481641,0.01594314,0.
 00266494,-0.00003173,0.00007118,-0.00008949,-0.00004461,0.00007821,0.0
 0004502,0.00014720,0.00008198,-0.00015402,-0.00004536,-0.00000403,0.00
 005309,0.00018344,-0.00002611,0.00005142,0.00073648,-0.00017616,0.0005
 4621,0.12425921,0.17239458,0.00059388,0.00028248,0.00009024,-0.0007863
 9,0.00131898,-0.00059804,0.02129064,0.02335348,-0.00262911,0.00133478,
 -0.00090096,-0.00277951,0.00242263,-0.00134247,0.00053062,-0.01248553,
 -0.01399631,-0.00073160,0.00223305,0.00110273,0.00045123,-0.00278845,-
 0.00646127,-0.04408595,-0.02290308,-0.00546583,-0.00309989,0.00000446,
 -0.00010554,0.00003400,0.00008155,-0.00027733,0.00016761,0.00032107,-0
 .00032501,0.00001982,-0.00135417,-0.00081789,-0.00060564,-0.00146349,-
 0.00025199,-0.00047295,0.00046687,-0.00014316,0.00056108,0.01421754,0.
 00484128,0.05298617,0.00006663,0.00023491,-0.00009982,0.00024330,0.000
 14749,-0.00022381,-0.00428723,0.00085009,0.00025533,0.00093761,-0.0006
 2749,-0.00103556,-0.00065096,-0.00067061,0.00175779,0.00025806,0.00432
 120,-0.00766816,0.00163039,-0.00507293,0.00320237,-0.00026598,-0.00197
 325,-0.04088250,-0.05150423,0.03575716,0.10515801,-0.00002946,-0.00005
 677,0.00014403,-0.00005619,0.00002331,-0.00000706,-0.00013755,-0.00039
 524,-0.00002866,0.00018696,0.00003988,0.00008134,0.00005935,0.00030778
 ,0.00018518,-0.00000899,-0.00002693,0.00000895,-0.00220345,0.00021734,
 -0.00118534,0.05576175,0.00010577,-0.00043787,-0.00022272,0.00019038,-
 0.00033824,0.00040413,0.00460706,-0.00258816,0.00205164,-0.00134679,0.
 00122494,0.00183977,0.00107826,0.00110693,-0.00203850,0.00309489,-0.00
 223036,0.00904012,-0.00473265,0.00136770,-0.00331077,-0.00317050,0.000
 85225,0.01979406,0.03356841,-0.03026956,-0.10083047,0.00002151,0.00003
 106,-0.00014568,0.00004049,-0.00001697,-0.00008683,-0.00002852,0.00053
 937,0.00011092,-0.00024369,-0.00001950,0.00004914,0.00003253,-0.000566
 29,-0.00009953,-0.00006300,0.00015109,-0.00018438,-0.00007822,0.000120
 94,-0.00081116,-0.03307594,0.03107269,-0.00012559,-0.00008455,0.000197
 47,-0.00003859,0.00019338,0.00011884,-0.00303499,-0.00030616,-0.000860
 91,0.00001113,0.00024640,-0.00075972,0.00055565,-0.00076165,-0.0012013
 5,0.00202408,-0.00022891,0.00344965,-0.00167615,0.00111099,-0.00062102
 ,-0.00230009,0.00059511,-0.02812614,0.06238252,-0.07481662,-0.45053247
 ,-0.00000187,-0.00004641,0.00013340,-0.00002024,0.00000612,-0.00004370
 ,0.00013453,-0.00025574,-0.00053089,0.00025965,0.00017231,0.00017327,0
 .00009282,0.00007148,-0.00003611,-0.00005106,-0.00024359,0.00028583,0.
 00145028,-0.00009241,0.00016192,-0.05966209,0.07444025,0.47819191\\-0.
 00003032,-0.00000229,-0.00003060,0.00005062,-0.00001543,0.00001590,-0.
 00002901,0.00007866,0.00014396,-0.00001560,-0.00001728,-0.00010812,0.0
 0005639,0.00000629,0.00001916,-0.00000201,-0.00009354,-0.00000171,0.00
 001615,0.00000921,0.00000113,-0.00008126,0.00000200,-0.00001699,0.0000
 7255,-0.00000952,-0.00002150,0.00001720,-0.00001244,0.00000460,-0.0000
 0328,0.00000878,-0.00000506,-0.00001150,0.00000112,0.00002637,-0.00000
 932,0.00000432,-0.00000249,-0.00000361,0.00001706,-0.00000876,-0.00001
 606,0.00001163,-0.00001084,0.00000255,-0.00000114,-0.00000953,-0.00001
 347,0.00001257,0.00000451\\\@


 A successful marriage requires falling in love
 many times, always with the same person.
                           -- Mignon McLaughlin
 Job cpu time:       0 days  1 hours 40 minutes 37.3 seconds.
 Elapsed time:       0 days  0 hours 25 minutes 16.6 seconds.
 File lengths (MBytes):  RWF=    117 Int=      0 D2E=      0 Chk=      8 Scr=      1
 Normal termination of Gaussian 16 at Sun Jul  3 11:35:41 2022.
### All Done ###
