### Starting Gaussian ###
 Entering Gaussian System, Link 0=g16
 Initial command:
 /cluster/software/gaussian/gaussian-16-A.03/avx2/g16/l1.exe "/local/scratch/ks29c/Gau-10529.inp" -scrdir="/local/scratch/ks29c/"
 Entering Link 1 = /cluster/software/gaussian/gaussian-16-A.03/avx2/g16/l1.exe PID=     10538.
  
 Copyright (c) 1988,1990,1992,1993,1995,1998,2003,2009,2016,
            Gaussian, Inc.  All Rights Reserved.
  
 This is part of the Gaussian(R) 16 program.  It is based on
 the Gaussian(R) 09 system (copyright 2009, Gaussian, Inc.),
 the Gaussian(R) 03 system (copyright 2003, Gaussian, Inc.),
 the Gaussian(R) 98 system (copyright 1998, Gaussian, Inc.),
 the Gaussian(R) 94 system (copyright 1995, Gaussian, Inc.),
 the Gaussian 92(TM) system (copyright 1992, Gaussian, Inc.),
 the Gaussian 90(TM) system (copyright 1990, Gaussian, Inc.),
 the Gaussian 88(TM) system (copyright 1988, Gaussian, Inc.),
 the Gaussian 86(TM) system (copyright 1986, Carnegie Mellon
 University), and the Gaussian 82(TM) system (copyright 1983,
 Carnegie Mellon University). Gaussian is a federally registered
 trademark of Gaussian, Inc.
  
 This software contains proprietary and confidential information,
 including trade secrets, belonging to Gaussian, Inc.
  
 This software is provided under written license and may be
 used, copied, transmitted, or stored only in accord with that
 written license.
  
 The following legend is applicable only to US Government
 contracts under FAR:
  
                    RESTRICTED RIGHTS LEGEND
  
 Use, reproduction and disclosure by the US Government is
 subject to restrictions as set forth in subparagraphs (a)
 and (c) of the Commercial Computer Software - Restricted
 Rights clause in FAR 52.227-19.
  
 Gaussian, Inc.
 340 Quinnipiac St., Bldg. 40, Wallingford CT 06492
  
  
 ---------------------------------------------------------------
 Warning -- This program may not be used in any manner that
 competes with the business of Gaussian, Inc. or will provide
 assistance to any competitor of Gaussian, Inc.  The licensee
 of this program is prohibited from giving any competitor of
 Gaussian, Inc. access to this program.  By using this program,
 the user acknowledges that Gaussian, Inc. is engaged in the
 business of creating and licensing software in the field of
 computational chemistry and represents and warrants to the
 licensee that it is not a competitor of Gaussian, Inc. and that
 it will not use this program in any manner prohibited above.
 ---------------------------------------------------------------
  

 Cite this work as:
 Gaussian 16, Revision A.03,
 M. J. Frisch, G. W. Trucks, H. B. Schlegel, G. E. Scuseria, 
 M. A. Robb, J. R. Cheeseman, G. Scalmani, V. Barone, 
 G. A. Petersson, H. Nakatsuji, X. Li, M. Caricato, A. V. Marenich, 
 J. Bloino, B. G. Janesko, R. Gomperts, B. Mennucci, H. P. Hratchian, 
 J. V. Ortiz, A. F. Izmaylov, J. L. Sonnenberg, D. Williams-Young, 
 F. Ding, F. Lipparini, F. Egidi, J. Goings, B. Peng, A. Petrone, 
 T. Henderson, D. Ranasinghe, V. G. Zakrzewski, J. Gao, N. Rega, 
 G. Zheng, W. Liang, M. Hada, M. Ehara, K. Toyota, R. Fukuda, 
 J. Hasegawa, M. Ishida, T. Nakajima, Y. Honda, O. Kitao, H. Nakai, 
 T. Vreven, K. Throssell, J. A. Montgomery, Jr., J. E. Peralta, 
 F. Ogliaro, M. J. Bearpark, J. J. Heyd, E. N. Brothers, K. N. Kudin, 
 V. N. Staroverov, T. A. Keith, R. Kobayashi, J. Normand, 
 K. Raghavachari, A. P. Rendell, J. C. Burant, S. S. Iyengar, 
 J. Tomasi, M. Cossi, J. M. Millam, M. Klene, C. Adamo, R. Cammi, 
 J. W. Ochterski, R. L. Martin, K. Morokuma, O. Farkas, 
 J. B. Foresman, and D. J. Fox, Gaussian, Inc., Wallingford CT, 2016.
 
 ******************************************
 Gaussian 16:  ES64L-G16RevA.03 25-Dec-2016
                 4-Aug-2022 
 ******************************************
 %chk=Cc1cc1dNCCdO.chk
 %NProcShared=20
 Will use up to   20 processors via shared memory.
 -----------------------------
 # opt freq b3lyp/6-31g(2df,p)
 -----------------------------
 1/18=20,19=15,26=3,38=1/1,3;
 2/9=110,12=2,17=6,18=5,40=1/2;
 3/5=1,6=6,7=104,11=2,25=1,30=1,71=1,74=-5/1,2,3;
 4//1;
 5/5=2,38=5/2;
 6/7=2,8=2,9=2,10=2,28=1/1;
 7//1,2,3,16;
 1/18=20,19=15,26=3/3(2);
 2/9=110/2;
 99//99;
 2/9=110/2;
 3/5=1,6=6,7=104,11=2,25=1,30=1,71=1,74=-5/1,2,3;
 4/5=5,16=3,69=1/1;
 5/5=2,38=5/2;
 7//1,2,3,16;
 1/18=20,19=15,26=3/3(-5);
 2/9=110/2;
 6/7=2,8=2,9=2,10=2,19=2,28=1/1;
 99/9=1/99;
 -------------------
 Title Card Required
 -------------------
 Symbolic Z-matrix:
 Charge =  0 Multiplicity = 1
 C                     0.89584  -0.06019   0.01939 
 C                     2.31629  -0.03962  -0.08464 
 C                     3.46821  -0.14674   0.45699 
 C                     3.43792   0.14677  -1.02713 
 N                     2.77876   0.36188  -2.11482 
 C                     3.47873   0.614    -3.38965 
 C                     2.49873   0.84334  -4.5493 
 O                     2.87341   1.07158  -5.70334 
 H                     0.58758  -0.26358   1.04782 
 H                     0.50666  -0.84257  -0.63481 
 H                     0.50666   0.9123   -0.28776 
 H                     3.80051  -0.34226   1.44563 
 H                     4.0831   -0.24847  -3.68291 
 H                     4.0831    1.52317  -3.33254 
 H                     1.41698   0.80182  -4.33935 
 

 GradGradGradGradGradGradGradGradGradGradGradGradGradGradGradGradGradGrad
 Berny optimization.
 Initialization pass.
                           ----------------------------
                           !    Initial Parameters    !
                           ! (Angstroms and Degrees)  !
 --------------------------                            --------------------------
 ! Name  Definition              Value          Derivative Info.                !
 --------------------------------------------------------------------------------
 ! R1    R(1,2)                  1.4244         estimate D2E/DX2                !
 ! R2    R(1,9)                  1.0927         estimate D2E/DX2                !
 ! R3    R(1,10)                 1.0916         estimate D2E/DX2                !
 ! R4    R(1,11)                 1.0916         estimate D2E/DX2                !
 ! R5    R(2,3)                  1.2774         estimate D2E/DX2                !
 ! R6    R(2,4)                  1.4768         estimate D2E/DX2                !
 ! R7    R(3,4)                  1.5132         estimate D2E/DX2                !
 ! R8    R(3,12)                 1.0612         estimate D2E/DX2                !
 ! R9    R(4,5)                  1.2899         estimate D2E/DX2                !
 ! R10   R(5,6)                  1.476          estimate D2E/DX2                !
 ! R11   R(6,7)                  1.5355         estimate D2E/DX2                !
 ! R12   R(6,13)                 1.0932         estimate D2E/DX2                !
 ! R13   R(6,14)                 1.0932         estimate D2E/DX2                !
 ! R14   R(7,8)                  1.2346         estimate D2E/DX2                !
 ! R15   R(7,15)                 1.1027         estimate D2E/DX2                !
 ! A1    A(2,1,9)              110.6551         estimate D2E/DX2                !
 ! A2    A(2,1,10)             108.7911         estimate D2E/DX2                !
 ! A3    A(2,1,11)             108.7915         estimate D2E/DX2                !
 ! A4    A(9,1,10)             109.2726         estimate D2E/DX2                !
 ! A5    A(9,1,11)             109.2731         estimate D2E/DX2                !
 ! A6    A(10,1,11)            110.0473         estimate D2E/DX2                !
 ! A7    A(1,2,3)              150.1218         estimate D2E/DX2                !
 ! A8    A(1,2,4)              143.6875         estimate D2E/DX2                !
 ! A9    A(2,3,12)             133.8577         estimate D2E/DX2                !
 ! A10   A(4,3,12)             162.898          estimate D2E/DX2                !
 ! A11   A(2,4,5)               99.8504         estimate D2E/DX2                !
 ! A12   A(3,4,5)              150.4154         estimate D2E/DX2                !
 ! A13   A(4,5,6)              120.9598         estimate D2E/DX2                !
 ! A14   A(5,6,7)              112.0319         estimate D2E/DX2                !
 ! A15   A(5,6,13)             111.0447         estimate D2E/DX2                !
 ! A16   A(5,6,14)             111.0449         estimate D2E/DX2                !
 ! A17   A(7,6,13)             105.5498         estimate D2E/DX2                !
 ! A18   A(7,6,14)             105.5498         estimate D2E/DX2                !
 ! A19   A(13,6,14)            111.3766         estimate D2E/DX2                !
 ! A20   A(6,7,8)              122.6738         estimate D2E/DX2                !
 ! A21   A(6,7,15)             118.4686         estimate D2E/DX2                !
 ! A22   A(8,7,15)             118.8576         estimate D2E/DX2                !
 ! D1    D(9,1,2,3)              0.0            estimate D2E/DX2                !
 ! D2    D(9,1,2,4)            179.9999         estimate D2E/DX2                !
 ! D3    D(10,1,2,3)          -120.0572         estimate D2E/DX2                !
 ! D4    D(10,1,2,4)            59.9428         estimate D2E/DX2                !
 ! D5    D(11,1,2,3)           120.0579         estimate D2E/DX2                !
 ! D6    D(11,1,2,4)           -59.9421         estimate D2E/DX2                !
 ! D7    D(1,2,3,12)            -0.0001         estimate D2E/DX2                !
 ! D8    D(1,2,4,5)              0.0            estimate D2E/DX2                !
 ! D9    D(2,3,4,12)           179.9998         estimate D2E/DX2                !
 ! D10   D(12,3,4,5)          -179.9999         estimate D2E/DX2                !
 ! D11   D(2,4,5,6)            179.9999         estimate D2E/DX2                !
 ! D12   D(3,4,5,6)            179.9999         estimate D2E/DX2                !
 ! D13   D(4,5,6,7)            179.9999         estimate D2E/DX2                !
 ! D14   D(4,5,6,13)            62.2532         estimate D2E/DX2                !
 ! D15   D(4,5,6,14)           -62.2533         estimate D2E/DX2                !
 ! D16   D(5,6,7,8)            179.9995         estimate D2E/DX2                !
 ! D17   D(5,6,7,15)             0.0001         estimate D2E/DX2                !
 ! D18   D(13,6,7,8)           -59.0225         estimate D2E/DX2                !
 ! D19   D(13,6,7,15)          120.978          estimate D2E/DX2                !
 ! D20   D(14,6,7,8)            59.0214         estimate D2E/DX2                !
 ! D21   D(14,6,7,15)         -120.978          estimate D2E/DX2                !
 --------------------------------------------------------------------------------
 Trust Radius=3.00D-01 FncErr=1.00D-07 GrdErr=1.00D-06 EigMax=2.50D+02 EigMin=1.00D-04
 Number of steps in this run=     68 maximum allowed number of steps=    100.
 GradGradGradGradGradGradGradGradGradGradGradGradGradGradGradGradGradGrad

                          Input orientation:                          
 ---------------------------------------------------------------------
 Center     Atomic      Atomic             Coordinates (Angstroms)
 Number     Number       Type             X           Y           Z
 ---------------------------------------------------------------------
      1          6           0        0.895840   -0.060190    0.019390
      2          6           0        2.316290   -0.039620   -0.084640
      3          6           0        3.468210   -0.146740    0.456990
      4          6           0        3.437920    0.146770   -1.027130
      5          7           0        2.778760    0.361880   -2.114820
      6          6           0        3.478730    0.614000   -3.389650
      7          6           0        2.498730    0.843340   -4.549300
      8          8           0        2.873410    1.071580   -5.703340
      9          1           0        0.587580   -0.263580    1.047820
     10          1           0        0.506660   -0.842570   -0.634810
     11          1           0        0.506660    0.912300   -0.287760
     12          1           0        3.800510   -0.342260    1.445630
     13          1           0        4.083100   -0.248470   -3.682910
     14          1           0        4.083100    1.523170   -3.332540
     15          1           0        1.416980    0.801820   -4.339350
 ---------------------------------------------------------------------
                    Distance matrix (angstroms):
                    1          2          3          4          5
     1  C    0.000000
     2  C    1.424403   0.000000
     3  C    2.610761   1.277403   0.000000
     4  C    2.756847   1.476849   1.513168   0.000000
     5  N    2.877218   2.120545   2.710764   1.289897   0.000000
     6  C    4.329828   3.563927   3.921157   2.408624   1.476047
     7  C    4.925297   4.554788   5.194525   3.711195   2.497381
     8  O    6.159653   5.754558   6.307754   4.800092   3.659250
     9  H    1.092731   2.078716   2.942917   3.549400   3.898046
    10  H    1.091585   2.054794   3.232180   3.118492   2.967081
    11  H    1.091576   2.054792   3.232181   3.118492   2.967077
    12  H    3.248204   2.153190   1.061160   2.546598   3.770489
    13  H    4.888875   4.014073   4.186551   2.761456   2.129022
    14  H    4.888874   4.014073   4.186553   2.761458   2.129023
    15  H    4.473619   4.429372   5.302093   3.934983   2.645095
                    6          7          8          9         10
     6  C    0.000000
     7  C    1.535508   0.000000
     8  O    2.434944   1.234620   0.000000
     9  H    5.368429   6.017102   7.251609   0.000000
    10  H    4.306267   4.704664   5.912315   1.781298   0.000000
    11  H    4.306263   4.704660   5.912308   1.781296   1.788858
    12  H    4.939424   6.248157   7.346171   3.238420   3.927848
    13  H    1.093215   2.110192   2.699633   5.882066   4.736538
    14  H    1.093213   2.110190   2.699625   5.882065   5.066103
    15  H    2.277722   1.102718   2.013561   5.553790   4.154072
                   11         12         13         14         15
    11  H    0.000000
    12  H    3.927850   0.000000
    13  H    5.066098   5.137176   0.000000
    14  H    4.736536   5.137178   1.805953   0.000000
    15  H    4.154067   6.360513   2.939765   2.939763   0.000000
 Stoichiometry    C6H7NO
 Framework group  C1[X(C6H7NO)]
 Deg. of freedom    39
 Full point group                 C1      NOp   1
 Largest Abelian subgroup         C1      NOp   1
 Largest concise Abelian subgroup C1      NOp   1
                         Standard orientation:                         
 ---------------------------------------------------------------------
 Center     Atomic      Atomic             Coordinates (Angstroms)
 Number     Number       Type             X           Y           Z
 ---------------------------------------------------------------------
      1          6           0        2.358223    1.480130   -0.000002
      2          6           0        2.078050    0.083553   -0.000001
      3          6           0        2.484103   -1.127594   -0.000001
      4          6           0        0.986486   -0.911218    0.000000
      5          7           0       -0.032652   -0.120527    0.000002
      6          6           0       -1.408485   -0.655126    0.000001
      7          6           0       -2.460905    0.462997    0.000004
      8          8           0       -3.674487    0.236048   -0.000004
      9          1           0        3.436555    1.656934   -0.000002
     10          1           0        1.919902    1.926689    0.894434
     11          1           0        1.919896    1.926693   -0.894423
     12          1           0        3.443295   -1.581479   -0.000003
     13          1           0       -1.602361   -1.240074    0.902978
     14          1           0       -1.602364   -1.240070   -0.902976
     15          1           0       -2.115295    1.510155    0.000005
 ---------------------------------------------------------------------
 Rotational constants (GHZ):           6.1929138           0.9010995           0.7946948
 Standard basis: 6-31G(2df,p) (6D, 7F)
 There are   283 symmetry adapted cartesian basis functions of A   symmetry.
 There are   259 symmetry adapted basis functions of A   symmetry.
   259 basis functions,   401 primitive gaussians,   283 cartesian basis functions
    29 alpha electrons       29 beta electrons
       nuclear repulsion energy       318.3950414936 Hartrees.
 NAtoms=   15 NActive=   15 NUniq=   15 SFac= 1.00D+00 NAtFMM=   60 NAOKFM=F Big=F
 Integral buffers will be    131072 words long.
 Raffenetti 2 integral format.
 Two-electron integral symmetry is turned on.
 One-electron integrals computed using PRISM.
 PrsmSu:  requested number of processors reduced to:  13 ShMem   1 Linda.
 NBasis=   259 RedAO= T EigKep=  2.85D-04  NBF=   259
 NBsUse=   259 1.00D-06 EigRej= -1.00D+00 NBFU=   259
 ExpMin= 1.61D-01 ExpMax= 5.48D+03 ExpMxC= 8.25D+02 IAcc=3 IRadAn=         5 AccDes= 0.00D+00
 Harris functional with IExCor=  402 and IRadAn=       5 diagonalized for initial guess.
 HarFok:  IExCor=  402 AccDes= 0.00D+00 IRadAn=         5 IDoV= 1 UseB2=F ITyADJ=14
 ICtDFT=  3500011 ScaDFX=  1.000000  1.000000  1.000000  1.000000
 FoFCou: FMM=F IPFlag=           0 FMFlag=      100000 FMFlg1=           0
         NFxFlg=           0 DoJE=T BraDBF=F KetDBF=T FulRan=T
         wScrn=  0.000000 ICntrl=       500 IOpCl=  0 I1Cent=   200000004 NGrid=           0
         NMat0=    1 NMatS0=      1 NMatT0=    0 NMatD0=    1 NMtDS0=    0 NMtDT0=    0
 Petite list used in FoFCou.
 Requested convergence on RMS density matrix=1.00D-08 within 128 cycles.
 Requested convergence on MAX density matrix=1.00D-06.
 Requested convergence on             energy=1.00D-06.
 No special actions if energy rises.
 Integral accuracy reduced to 1.0D-05 until final iterations.
 Initial convergence to 1.0D-05 achieved.  Increase integral accuracy.
 SCF Done:  E(RB3LYP) =  -362.631559293     A.U. after   14 cycles
            NFock= 14  Conv=0.69D-08     -V/T= 2.0071

 **********************************************************************

            Population analysis using the SCF density.

 **********************************************************************

 Orbital symmetries:
       Occupied  (A) (A) (A) (A) (A) (A) (A) (A) (A) (A) (A) (A)
                 (A) (A) (A) (A) (A) (A) (A) (A) (A) (A) (A) (A)
                 (A) (A) (A) (A) (A)
       Virtual   (A) (A) (A) (A) (A) (A) (A) (A) (A) (A) (A) (A)
                 (A) (A) (A) (A) (A) (A) (A) (A) (A) (A) (A) (A)
                 (A) (A) (A) (A) (A) (A) (A) (A) (A) (A) (A) (A)
                 (A) (A) (A) (A) (A) (A) (A) (A) (A) (A) (A) (A)
                 (A) (A) (A) (A) (A) (A) (A) (A) (A) (A) (A) (A)
                 (A) (A) (A) (A) (A) (A) (A) (A) (A) (A) (A) (A)
                 (A) (A) (A) (A) (A) (A) (A) (A) (A) (A) (A) (A)
                 (A) (A) (A) (A) (A) (A) (A) (A) (A) (A) (A) (A)
                 (A) (A) (A) (A) (A) (A) (A) (A) (A) (A) (A) (A)
                 (A) (A) (A) (A) (A) (A) (A) (A) (A) (A) (A) (A)
                 (A) (A) (A) (A) (A) (A) (A) (A) (A) (A) (A) (A)
                 (A) (A) (A) (A) (A) (A) (A) (A) (A) (A) (A) (A)
                 (A) (A) (A) (A) (A) (A) (A) (A) (A) (A) (A) (A)
                 (A) (A) (A) (A) (A) (A) (A) (A) (A) (A) (A) (A)
                 (A) (A) (A) (A) (A) (A) (A) (A) (A) (A) (A) (A)
                 (A) (A) (A) (A) (A) (A) (A) (A) (A) (A) (A) (A)
                 (A) (A) (A) (A) (A) (A) (A) (A) (A) (A) (A) (A)
                 (A) (A) (A) (A) (A) (A) (A) (A) (A) (A) (A) (A)
                 (A) (A) (A) (A) (A) (A) (A) (A) (A) (A) (A) (A)
                 (A) (A)
 The electronic state is 1-A.
 Alpha  occ. eigenvalues --  -19.12381 -14.31552 -10.25895 -10.25476 -10.24537
 Alpha  occ. eigenvalues --  -10.21376 -10.21189 -10.19823  -1.01499  -0.94796
 Alpha  occ. eigenvalues --   -0.85656  -0.76345  -0.71397  -0.58923  -0.56011
 Alpha  occ. eigenvalues --   -0.52025  -0.49245  -0.46420  -0.45078  -0.44628
 Alpha  occ. eigenvalues --   -0.42940  -0.40764  -0.39465  -0.37723  -0.34290
 Alpha  occ. eigenvalues --   -0.33690  -0.24429  -0.23659  -0.20224
 Alpha virt. eigenvalues --   -0.01672  -0.00122   0.00384   0.02727   0.10325
 Alpha virt. eigenvalues --    0.11961   0.12925   0.15472   0.15708   0.16294
 Alpha virt. eigenvalues --    0.19943   0.20281   0.21707   0.23962   0.28675
 Alpha virt. eigenvalues --    0.29743   0.33541   0.35023   0.40805   0.45379
 Alpha virt. eigenvalues --    0.46062   0.47518   0.49353   0.49924   0.50977
 Alpha virt. eigenvalues --    0.51588   0.53632   0.55767   0.58452   0.60381
 Alpha virt. eigenvalues --    0.60524   0.64267   0.64639   0.66855   0.69075
 Alpha virt. eigenvalues --    0.70342   0.70918   0.71280   0.71863   0.73639
 Alpha virt. eigenvalues --    0.75096   0.76530   0.77064   0.78875   0.80535
 Alpha virt. eigenvalues --    0.81604   0.82592   0.82817   0.83164   0.85265
 Alpha virt. eigenvalues --    0.93518   0.94460   0.96281   0.97082   0.97246
 Alpha virt. eigenvalues --    0.97625   1.01072   1.04297   1.04979   1.08882
 Alpha virt. eigenvalues --    1.11121   1.17343   1.19784   1.21349   1.22054
 Alpha virt. eigenvalues --    1.26848   1.27954   1.30447   1.33146   1.38365
 Alpha virt. eigenvalues --    1.38507   1.39402   1.40101   1.42271   1.43270
 Alpha virt. eigenvalues --    1.48469   1.50349   1.53536   1.57082   1.59947
 Alpha virt. eigenvalues --    1.61432   1.62869   1.63295   1.66352   1.70749
 Alpha virt. eigenvalues --    1.72763   1.77902   1.80850   1.85461   1.86132
 Alpha virt. eigenvalues --    1.88149   1.89723   1.91818   1.97730   2.06997
 Alpha virt. eigenvalues --    2.09196   2.13699   2.19078   2.19387   2.22829
 Alpha virt. eigenvalues --    2.30668   2.35126   2.37606   2.38138   2.42908
 Alpha virt. eigenvalues --    2.45812   2.51848   2.54459   2.55178   2.66354
 Alpha virt. eigenvalues --    2.67661   2.70746   2.74359   2.75334   2.75554
 Alpha virt. eigenvalues --    2.80792   2.84618   2.85684   2.86818   2.90831
 Alpha virt. eigenvalues --    2.91925   2.93137   2.96746   2.96852   2.98839
 Alpha virt. eigenvalues --    3.00969   3.03527   3.08226   3.09012   3.11360
 Alpha virt. eigenvalues --    3.15277   3.17615   3.22750   3.23696   3.26404
 Alpha virt. eigenvalues --    3.28640   3.31011   3.35129   3.35282   3.39667
 Alpha virt. eigenvalues --    3.44735   3.45709   3.49107   3.50189   3.51814
 Alpha virt. eigenvalues --    3.56015   3.57088   3.60510   3.63351   3.65410
 Alpha virt. eigenvalues --    3.67384   3.72801   3.73232   3.75612   3.78474
 Alpha virt. eigenvalues --    3.85052   3.93665   3.95527   3.98932   3.99904
 Alpha virt. eigenvalues --    4.03054   4.12366   4.15112   4.15312   4.17512
 Alpha virt. eigenvalues --    4.20847   4.22575   4.27458   4.28091   4.31798
 Alpha virt. eigenvalues --    4.33109   4.36140   4.38776   4.40779   4.42558
 Alpha virt. eigenvalues --    4.43175   4.48172   4.48346   4.51885   4.52353
 Alpha virt. eigenvalues --    4.55853   4.57432   4.62158   4.62650   4.63212
 Alpha virt. eigenvalues --    4.67215   4.67726   4.70094   4.73235   4.73906
 Alpha virt. eigenvalues --    4.77872   4.78005   4.81011   4.84133   4.87094
 Alpha virt. eigenvalues --    4.89027   4.98282   4.98538   5.04456   5.08151
 Alpha virt. eigenvalues --    5.08333   5.11378   5.12351   5.17596   5.24014
 Alpha virt. eigenvalues --    5.28337   5.29522   5.35483   5.43322   5.48531
 Alpha virt. eigenvalues --    5.50287   5.61573   5.72692   5.75428   5.88240
 Alpha virt. eigenvalues --    5.96133   5.97001   6.22283   6.27272   6.39708
 Alpha virt. eigenvalues --    6.76572   9.87709  10.51680  10.88370  11.19141
 Alpha virt. eigenvalues --   11.30963  11.74159  12.04068  12.88463  13.80795
          Condensed to atoms (all electrons):
               1          2          3          4          5          6
     1  C    5.128763   0.445291  -0.117420  -0.044768   0.014557  -0.000200
     2  C    0.445291   4.367858   0.635945   0.278117  -0.133279   0.015289
     3  C   -0.117420   0.635945   5.192072   0.359483  -0.023615  -0.000753
     4  C   -0.044768   0.278117   0.359483   4.873604   0.619029  -0.128526
     5  N    0.014557  -0.133279  -0.023615   0.619029   6.609707   0.243885
     6  C   -0.000200   0.015289  -0.000753  -0.128526   0.243885   5.318078
     7  C   -0.000022  -0.000106   0.000031   0.002147  -0.017432   0.299853
     8  O    0.000000   0.000001   0.000000  -0.000035   0.001371  -0.055351
     9  H    0.371123  -0.022259  -0.006497   0.003231   0.000144  -0.000001
    10  H    0.354922  -0.017828   0.002689  -0.001171   0.006341  -0.000312
    11  H    0.354923  -0.017828   0.002689  -0.001171   0.006341  -0.000312
    12  H   -0.002661  -0.032866   0.305732  -0.024442  -0.000267   0.000128
    13  H    0.000052  -0.000661   0.000035   0.003715  -0.021813   0.324825
    14  H    0.000052  -0.000661   0.000035   0.003715  -0.021813   0.324826
    15  H    0.000093  -0.000172  -0.000010   0.000892   0.024388  -0.124048
               7          8          9         10         11         12
     1  C   -0.000022   0.000000   0.371123   0.354922   0.354923  -0.002661
     2  C   -0.000106   0.000001  -0.022259  -0.017828  -0.017828  -0.032866
     3  C    0.000031   0.000000  -0.006497   0.002689   0.002689   0.305732
     4  C    0.002147  -0.000035   0.003231  -0.001171  -0.001171  -0.024442
     5  N   -0.017432   0.001371   0.000144   0.006341   0.006341  -0.000267
     6  C    0.299853  -0.055351  -0.000001  -0.000312  -0.000312   0.000128
     7  C    4.540208   0.719996  -0.000000  -0.000004  -0.000004  -0.000000
     8  O    0.719996   7.658672   0.000000   0.000000   0.000000   0.000000
     9  H   -0.000000   0.000000   0.579413  -0.032043  -0.032043   0.001891
    10  H   -0.000004   0.000000  -0.032043   0.545664  -0.020478  -0.000375
    11  H   -0.000004   0.000000  -0.032043  -0.020478   0.545662  -0.000375
    12  H   -0.000000   0.000000   0.001891  -0.000375  -0.000375   0.586276
    13  H   -0.018899  -0.000144   0.000000  -0.000004   0.000014  -0.000019
    14  H   -0.018899  -0.000144   0.000000   0.000014  -0.000004  -0.000019
    15  H    0.347611  -0.050331   0.000001   0.000074   0.000074  -0.000000
              13         14         15
     1  C    0.000052   0.000052   0.000093
     2  C   -0.000661  -0.000661  -0.000172
     3  C    0.000035   0.000035  -0.000010
     4  C    0.003715   0.003715   0.000892
     5  N   -0.021813  -0.021813   0.024388
     6  C    0.324825   0.324826  -0.124048
     7  C   -0.018899  -0.018899   0.347611
     8  O   -0.000144  -0.000144  -0.050331
     9  H    0.000000   0.000000   0.000001
    10  H   -0.000004   0.000014   0.000074
    11  H    0.000014  -0.000004   0.000074
    12  H   -0.000019  -0.000019  -0.000000
    13  H    0.603194  -0.022616   0.006079
    14  H   -0.022616   0.603193   0.006079
    15  H    0.006079   0.006079   0.701597
 Mulliken charges:
               1
     1  C   -0.504706
     2  C    0.483161
     3  C   -0.350415
     4  C    0.056182
     5  N   -0.307543
     6  C   -0.217379
     7  C    0.145522
     8  O   -0.274035
     9  H    0.137040
    10  H    0.162511
    11  H    0.162512
    12  H    0.166997
    13  H    0.126241
    14  H    0.126241
    15  H    0.087672
 Sum of Mulliken charges =  -0.00000
 Mulliken charges with hydrogens summed into heavy atoms:
               1
     1  C   -0.042643
     2  C    0.483161
     3  C   -0.183419
     4  C    0.056182
     5  N   -0.307543
     6  C    0.035103
     7  C    0.233194
     8  O   -0.274035
 Electronic spatial extent (au):  <R**2>=           1357.1057
 Charge=             -0.0000 electrons
 Dipole moment (field-independent basis, Debye):
    X=              5.5433    Y=              0.2881    Z=              0.0000  Tot=              5.5508
 Quadrupole moment (field-independent basis, Debye-Ang):
   XX=            -52.8995   YY=            -43.6665   ZZ=            -45.1984
   XY=              1.0917   XZ=             -0.0000   YZ=              0.0000
 Traceless Quadrupole moment (field-independent basis, Debye-Ang):
   XX=             -5.6447   YY=              3.5883   ZZ=              2.0564
   XY=              1.0917   XZ=             -0.0000   YZ=              0.0000
 Octapole moment (field-independent basis, Debye-Ang**2):
  XXX=             87.6409  YYY=              6.6496  ZZZ=             -0.0000  XYY=              0.2762
  XXY=             -3.6728  XXZ=              0.0001  XZZ=             -7.1947  YZZ=              1.9817
  YYZ=             -0.0000  XYZ=              0.0000
 Hexadecapole moment (field-independent basis, Debye-Ang**3):
 XXXX=          -1604.1733 YYYY=           -280.1563 ZZZZ=            -55.3476 XXXY=             -3.1125
 XXXZ=             -0.0005 YYYX=              0.3055 YYYZ=             -0.0000 ZZZX=              0.0001
 ZZZY=              0.0000 XXYY=           -260.2867 XXZZ=           -242.0251 YYZZ=            -52.7249
 XXYZ=              0.0001 YYXZ=              0.0000 ZZXY=              4.8496
 N-N= 3.183950414936D+02 E-N=-1.481457328917D+03  KE= 3.600718493866D+02
 PrsmSu:  requested number of processors reduced to:  13 ShMem   1 Linda.
 Calling FoFJK, ICntrl=      2127 FMM=F ISym2X=0 I1Cent= 0 IOpClX= 0 NMat=1 NMatS=1 NMatT=0.
 ***** Axes restored to original set *****
 -------------------------------------------------------------------
 Center     Atomic                   Forces (Hartrees/Bohr)
 Number     Number              X              Y              Z
 -------------------------------------------------------------------
      1        6          -0.015138259   -0.000500001    0.002504085
      2        6           0.016731609   -0.007470462    0.037774443
      3        6           0.002914259    0.003173473   -0.016046534
      4        6          -0.070704531   -0.008039420    0.040652010
      5        7           0.031101662    0.014067922   -0.071132858
      6        6          -0.008202528    0.000022361   -0.000121222
      7        6           0.018224715    0.007414620   -0.037484346
      8        8          -0.010237866   -0.008038674    0.040643663
      9        1          -0.002820842   -0.000035834    0.000182847
     10        1          -0.004774173    0.002181744   -0.004128032
     11        1          -0.004775937   -0.000441617   -0.004648964
     12        1           0.035193099   -0.001751511    0.008856041
     13        1           0.007617366    0.001608439   -0.001985758
     14        1           0.007617896   -0.000730526   -0.002448284
     15        1          -0.002746471   -0.001460514    0.007382910
 -------------------------------------------------------------------
 Cartesian Forces:  Max     0.071132858 RMS     0.021347517

 GradGradGradGradGradGradGradGradGradGradGradGradGradGradGradGradGradGrad
 Berny optimization.
 FormGI is forming the generalized inverse of G from B-inverse, IUseBI=4.
 Internal  Forces:  Max     0.100331279 RMS     0.021869576
 Search for a local minimum.
 Step number   1 out of a maximum of   68
 All quantities printed in internal units (Hartrees-Bohrs-Radians)
 Mixed Optimization -- RFO/linear search
 Second derivative matrix not updated -- first step.
 ITU=  0
     Eigenvalues ---    0.00296   0.00296   0.00686   0.00718   0.01427
     Eigenvalues ---    0.01766   0.02229   0.03148   0.06022   0.07561
     Eigenvalues ---    0.08017   0.08186   0.11134   0.13936   0.16000
     Eigenvalues ---    0.16000   0.16000   0.16000   0.16000   0.22000
     Eigenvalues ---    0.22264   0.25000   0.25000   0.25000   0.28921
     Eigenvalues ---    0.29566   0.33301   0.33383   0.34444   0.34444
     Eigenvalues ---    0.34499   0.34630   0.34631   0.35026   0.38370
     Eigenvalues ---    0.41804   0.68931   0.70079   0.89188
 RFO step:  Lambda=-7.89728141D-02 EMin= 2.96244156D-03
 Linear search not attempted -- first point.
 Maximum step size (   0.300) exceeded in Quadratic search.
    -- Step size scaled by   0.613
 Iteration  1 RMS(Cart)=  0.17766860 RMS(Int)=  0.00739726
 Iteration  2 RMS(Cart)=  0.01361756 RMS(Int)=  0.00006666
 Iteration  3 RMS(Cart)=  0.00008511 RMS(Int)=  0.00004755
 Iteration  4 RMS(Cart)=  0.00000001 RMS(Int)=  0.00004755
 Variable       Old X    -DE/DX   Delta X   Delta X   Delta X     New X
                                 (Linear)    (Quad)   (Total)
    R1        2.69173   0.02697   0.00000   0.03327   0.03327   2.72500
    R2        2.06496   0.00097   0.00000   0.00141   0.00141   2.06637
    R3        2.06280   0.00261   0.00000   0.00377   0.00377   2.06656
    R4        2.06278   0.00262   0.00000   0.00377   0.00377   2.06655
    R5        2.41394   0.01848   0.00000   0.01447   0.01454   2.42848
    R6        2.79084   0.02293   0.00000   0.03436   0.03439   2.82523
    R7        2.85947  -0.01605   0.00000  -0.02803  -0.02811   2.83136
    R8        2.00530   0.01959   0.00000   0.02596   0.02596   2.03127
    R9        2.43755   0.03492   0.00000   0.02745   0.02745   2.46500
   R10        2.78932   0.00045   0.00000   0.00064   0.00064   2.78996
   R11        2.90169  -0.01162   0.00000  -0.01934  -0.01934   2.88234
   R12        2.06588   0.00347   0.00000   0.00503   0.00503   2.07091
   R13        2.06587   0.00348   0.00000   0.00503   0.00503   2.07091
   R14        2.33309  -0.04258   0.00000  -0.02689  -0.02689   2.30620
   R15        2.08383   0.00415   0.00000   0.00617   0.00617   2.09000
    A1        1.93130   0.00380   0.00000   0.01170   0.01161   1.94290
    A2        1.89876   0.00341   0.00000   0.00779   0.00774   1.90650
    A3        1.89877   0.00341   0.00000   0.00778   0.00774   1.90651
    A4        1.90717  -0.00169   0.00000  -0.00238  -0.00246   1.90470
    A5        1.90718  -0.00169   0.00000  -0.00238  -0.00247   1.90471
    A6        1.92069  -0.00728   0.00000  -0.02270  -0.02270   1.89799
    A7        2.62012   0.02173   0.00000   0.03674   0.03661   2.65673
    A8        2.50782  -0.00367   0.00000  -0.01058  -0.01071   2.49711
    A9        2.33626   0.02487   0.00000   0.06821   0.06822   2.40448
   A10        2.84311  -0.03649   0.00000  -0.08919  -0.08918   2.75393
   A11        1.74272   0.09389   0.00000   0.17838   0.17850   1.92122
   A12        2.62524   0.10033   0.00000   0.18356   0.18345   2.80869
   A13        2.11115  -0.02062   0.00000  -0.03843  -0.03843   2.07272
   A14        1.95532  -0.01305   0.00000  -0.02468  -0.02459   1.93073
   A15        1.93810   0.00520   0.00000   0.01304   0.01309   1.95118
   A16        1.93810   0.00520   0.00000   0.01304   0.01308   1.95118
   A17        1.84219   0.00435   0.00000   0.00905   0.00912   1.85131
   A18        1.84219   0.00435   0.00000   0.00905   0.00912   1.85131
   A19        1.94389  -0.00655   0.00000  -0.02089  -0.02093   1.92296
   A20        2.14106   0.00037   0.00000   0.00077   0.00077   2.14183
   A21        2.06767  -0.00732   0.00000  -0.01869  -0.01869   2.04897
   A22        2.07446   0.00695   0.00000   0.01793   0.01793   2.09238
    D1       -0.00000   0.00000   0.00000   0.00000   0.00000   0.00000
    D2        3.14159   0.00000   0.00000   0.00000   0.00000   3.14159
    D3       -2.09539  -0.00240   0.00000  -0.00915  -0.00918  -2.10457
    D4        1.04620  -0.00240   0.00000  -0.00915  -0.00918   1.03702
    D5        2.09541   0.00240   0.00000   0.00914   0.00918   2.10459
    D6       -1.04619   0.00240   0.00000   0.00914   0.00918  -1.03701
    D7       -0.00000  -0.00000   0.00000  -0.00000  -0.00000  -0.00000
    D8       -0.00000   0.00000   0.00000   0.00000   0.00000   0.00000
    D9        3.14159   0.00000   0.00000   0.00000   0.00000   3.14159
   D10       -3.14159   0.00000   0.00000   0.00000   0.00000  -3.14159
   D11        3.14159   0.00000   0.00000   0.00000   0.00000   3.14159
   D12        3.14159   0.00000   0.00000   0.00000   0.00000   3.14159
   D13        3.14159   0.00000   0.00000   0.00000   0.00000   3.14159
   D14        1.08652  -0.00045   0.00000  -0.00401  -0.00395   1.08257
   D15       -1.08652   0.00045   0.00000   0.00401   0.00395  -1.08257
   D16        3.14158   0.00000   0.00000   0.00000   0.00000   3.14159
   D17        0.00000  -0.00000   0.00000  -0.00000  -0.00000  -0.00000
   D18       -1.03014   0.00171   0.00000   0.00768   0.00766  -1.02248
   D19        2.11147   0.00171   0.00000   0.00768   0.00766   2.11912
   D20        1.03012  -0.00171   0.00000  -0.00768  -0.00766   1.02246
   D21       -2.11146  -0.00171   0.00000  -0.00768  -0.00766  -2.11913
         Item               Value     Threshold  Converged?
 Maximum Force            0.100331     0.000450     NO 
 RMS     Force            0.021870     0.000300     NO 
 Maximum Displacement     0.424778     0.001800     NO 
 RMS     Displacement     0.182321     0.001200     NO 
 Predicted change in Energy=-3.715147D-02
 GradGradGradGradGradGradGradGradGradGradGradGradGradGradGradGradGradGrad

                          Input orientation:                          
 ---------------------------------------------------------------------
 Center     Atomic      Atomic             Coordinates (Angstroms)
 Number     Number       Type             X           Y           Z
 ---------------------------------------------------------------------
      1          6           0        0.809106   -0.097776    0.209436
      2          6           0        2.229690   -0.049733   -0.033503
      3          6           0        3.452640   -0.126332    0.353799
      4          6           0        3.252837    0.161755   -1.102898
      5          7           0        2.665975    0.387768   -2.245716
      6          6           0        3.502303    0.623812   -3.439262
      7          6           0        2.630222    0.866589   -4.666856
      8          8           0        3.095465    1.085483   -5.773647
      9          1           0        0.592385   -0.305712    1.260856
     10          1           0        0.363973   -0.881379   -0.410027
     11          1           0        0.363971    0.862626   -0.065127
     12          1           0        3.988057   -0.307160    1.268150
     13          1           0        4.126108   -0.245181   -3.677308
     14          1           0        4.126110    1.517996   -3.328611
     15          1           0        1.533639    0.838675   -4.525706
 ---------------------------------------------------------------------
                    Distance matrix (angstroms):
                    1          2          3          4          5
     1  C    0.000000
     2  C    1.442008   0.000000
     3  C    2.647626   1.285098   0.000000
     4  C    2.785928   1.495045   1.498292   0.000000
     5  N    3.116326   2.296876   2.764167   1.304424   0.000000
     6  C    4.592057   3.697620   3.866845   2.394645   1.476385
     7  C    5.293834   4.740045   5.183554   3.685951   2.468292
     8  O    6.513434   5.915026   6.256329   4.763815   3.621818
     9  H    1.093476   2.102775   3.005992   3.589410   4.132401
    10  H    1.093578   2.077091   3.270075   3.148608   3.206197
    11  H    1.093573   2.077091   3.270078   3.148608   3.206194
    12  H    3.357149   2.202822   1.074899   2.526321   3.818125
    13  H    5.111850   4.112410   4.088705   2.748779   2.140577
    14  H    5.111850   4.112411   4.088706   2.748781   2.140577
    15  H    4.880927   4.631807   5.331357   3.889663   2.585315
                    6          7          8          9         10
     6  C    0.000000
     7  C    1.525271   0.000000
     8  O    2.414127   1.220390   0.000000
     9  H    5.605599   6.376899   7.595069   0.000000
    10  H    4.614214   5.129509   6.332299   1.781969   0.000000
    11  H    4.614211   5.129505   6.332292   1.781970   1.777782
    12  H    4.823110   6.200459   7.233469   3.395681   4.034847
    13  H    1.095878   2.110192   2.688406   6.072589   5.023299
    14  H    1.095876   2.110191   2.688400   6.072589   5.331867
    15  H    2.258797   1.105983   2.014342   5.973264   4.611454
                   11         12         13         14         15
    11  H    0.000000
    12  H    4.034852   0.000000
    13  H    5.331863   4.947772   0.000000
    14  H    5.023298   4.947774   1.797327   0.000000
    15  H    4.611449   6.395770   2.935204   2.935203   0.000000
 Stoichiometry    C6H7NO
 Framework group  C1[X(C6H7NO)]
 Deg. of freedom    39
 Full point group                 C1      NOp   1
 Largest Abelian subgroup         C1      NOp   1
 Largest concise Abelian subgroup C1      NOp   1
                         Standard orientation:                         
 ---------------------------------------------------------------------
 Center     Atomic      Atomic             Coordinates (Angstroms)
 Number     Number       Type             X           Y           Z
 ---------------------------------------------------------------------
      1          6           0        2.677017    1.381348   -0.000002
      2          6           0        2.176785    0.028885   -0.000001
      3          6           0        2.344136   -1.245269   -0.000001
      4          6           0        0.919762   -0.780469    0.000000
      5          7           0       -0.119988    0.007212    0.000001
      6          6           0       -1.467731   -0.595533    0.000001
      7          6           0       -2.540945    0.488286    0.000003
      8          8           0       -3.734664    0.234542   -0.000004
      9          1           0        3.770319    1.400859   -0.000002
     10          1           0        2.309274    1.901481    0.888895
     11          1           0        2.309267    1.901487   -0.888887
     12          1           0        3.164122   -1.940275   -0.000002
     13          1           0       -1.644298   -1.197343    0.898665
     14          1           0       -1.644301   -1.197341   -0.898662
     15          1           0       -2.201305    1.540827    0.000005
 ---------------------------------------------------------------------
 Rotational constants (GHZ):           6.4633047           0.8506612           0.7589954
 Standard basis: 6-31G(2df,p) (6D, 7F)
 There are   283 symmetry adapted cartesian basis functions of A   symmetry.
 There are   259 symmetry adapted basis functions of A   symmetry.
   259 basis functions,   401 primitive gaussians,   283 cartesian basis functions
    29 alpha electrons       29 beta electrons
       nuclear repulsion energy       314.7739054969 Hartrees.
 NAtoms=   15 NActive=   15 NUniq=   15 SFac= 1.00D+00 NAtFMM=   60 NAOKFM=F Big=F
 Integral buffers will be    131072 words long.
 Raffenetti 2 integral format.
 Two-electron integral symmetry is turned on.
 One-electron integrals computed using PRISM.
 PrsmSu:  requested number of processors reduced to:  13 ShMem   1 Linda.
 NBasis=   259 RedAO= T EigKep=  2.38D-04  NBF=   259
 NBsUse=   259 1.00D-06 EigRej= -1.00D+00 NBFU=   259
 Initial guess from the checkpoint file:  "Cc1cc1dNCCdO.chk"
 B after Tr=    -0.000000    0.000000    0.000000
         Rot=    0.999833    0.000000    0.000000    0.018260 Ang=   2.09 deg.
 ExpMin= 1.61D-01 ExpMax= 5.48D+03 ExpMxC= 8.25D+02 IAcc=2 IRadAn=         4 AccDes= 0.00D+00
 Harris functional with IExCor=  402 and IRadAn=       4 diagonalized for initial guess.
 HarFok:  IExCor=  402 AccDes= 0.00D+00 IRadAn=         4 IDoV= 1 UseB2=F ITyADJ=14
 ICtDFT=  3500011 ScaDFX=  1.000000  1.000000  1.000000  1.000000
 FoFCou: FMM=F IPFlag=           0 FMFlag=      100000 FMFlg1=           0
         NFxFlg=           0 DoJE=T BraDBF=F KetDBF=T FulRan=T
         wScrn=  0.000000 ICntrl=       500 IOpCl=  0 I1Cent=   200000004 NGrid=           0
         NMat0=    1 NMatS0=      1 NMatT0=    0 NMatD0=    1 NMtDS0=    0 NMtDT0=    0
 Petite list used in FoFCou.
 Requested convergence on RMS density matrix=1.00D-08 within 128 cycles.
 Requested convergence on MAX density matrix=1.00D-06.
 Requested convergence on             energy=1.00D-06.
 No special actions if energy rises.
 Integral accuracy reduced to 1.0D-05 until final iterations.
 Initial convergence to 1.0D-05 achieved.  Increase integral accuracy.
 SCF Done:  E(RB3LYP) =  -362.671317467     A.U. after   13 cycles
            NFock= 13  Conv=0.75D-08     -V/T= 2.0076
 PrsmSu:  requested number of processors reduced to:  13 ShMem   1 Linda.
 Calling FoFJK, ICntrl=      2127 FMM=F ISym2X=0 I1Cent= 0 IOpClX= 0 NMat=1 NMatS=1 NMatT=0.
 ***** Axes restored to original set *****
 -------------------------------------------------------------------
 Center     Atomic                   Forces (Hartrees/Bohr)
 Number     Number              X              Y              Z
 -------------------------------------------------------------------
      1        6          -0.008060680   -0.001096186    0.005528799
      2        6           0.007526984    0.000320994   -0.001622475
      3        6           0.019648493    0.002102036   -0.010628800
      4        6          -0.084565320   -0.005580943    0.028220729
      5        7           0.047548978    0.003607215   -0.018239352
      6        6          -0.009774063   -0.000292755    0.001475603
      7        6           0.013109596    0.004525106   -0.022876479
      8        8          -0.007705460   -0.004106550    0.020762603
      9        1          -0.002601183   -0.000054918    0.000279293
     10        1          -0.002702337    0.001640462   -0.002115613
     11        1          -0.002703283   -0.000709293   -0.002581221
     12        1           0.022122647    0.000482474   -0.002439967
     13        1           0.005203888    0.001729357   -0.000381031
     14        1           0.005204172   -0.001453619   -0.001010435
     15        1          -0.002252431   -0.001113380    0.005628346
 -------------------------------------------------------------------
 Cartesian Forces:  Max     0.084565320 RMS     0.017124143

 GradGradGradGradGradGradGradGradGradGradGradGradGradGradGradGradGradGrad
 Berny optimization.
 Using GEDIIS/GDIIS optimizer.
 FormGI is forming the generalized inverse of G from B-inverse, IUseBI=4.
 Internal  Forces:  Max     0.075751793 RMS     0.014949995
 Search for a local minimum.
 Step number   2 out of a maximum of   68
 All quantities printed in internal units (Hartrees-Bohrs-Radians)
 Mixed Optimization -- RFO/linear search
 Update second derivatives using D2CorX and points    1    2
 DE= -3.98D-02 DEPred=-3.72D-02 R= 1.07D+00
 TightC=F SS=  1.41D+00  RLast= 3.01D-01 DXNew= 5.0454D-01 9.0298D-01
 Trust test= 1.07D+00 RLast= 3.01D-01 DXMaxT set to 5.05D-01
 ITU=  1  0
 Use linear search instead of GDIIS.
 Linear search step of   0.600 exceeds DXMaxT=   0.505 but not scaled.
 Quartic linear search produced a step of  2.00000.
 Iteration  1 RMS(Cart)=  0.20250361 RMS(Int)=  0.03599335
 Iteration  2 RMS(Cart)=  0.00047327 RMS(Int)=  0.03588357
 Iteration  3 RMS(Cart)=  0.00046869 RMS(Int)=  0.03577483
 Iteration  4 RMS(Cart)=  0.00046419 RMS(Int)=  0.03566713
 Iteration  5 RMS(Cart)=  0.00045975 RMS(Int)=  0.03556044
 Iteration  6 RMS(Cart)=  0.00045539 RMS(Int)=  0.03545475
 Iteration  7 RMS(Cart)=  0.00045109 RMS(Int)=  0.03535004
 Iteration  8 RMS(Cart)=  0.00044686 RMS(Int)=  0.03524631
 Iteration  9 RMS(Cart)=  0.00044269 RMS(Int)=  0.03514353
 Iteration 10 RMS(Cart)=  0.00043859 RMS(Int)=  0.03504169
 Iteration 11 RMS(Cart)=  0.00043455 RMS(Int)=  0.03494077
 Iteration 12 RMS(Cart)=  0.00043057 RMS(Int)=  0.03484077
 Iteration 13 RMS(Cart)=  0.00042665 RMS(Int)=  0.03474167
 Iteration 14 RMS(Cart)=  0.00042279 RMS(Int)=  0.03464345
 Iteration 15 RMS(Cart)=  0.00041899 RMS(Int)=  0.03454610
 Iteration 16 RMS(Cart)=  0.00041524 RMS(Int)=  0.03444961
 Iteration 17 RMS(Cart)=  0.00041155 RMS(Int)=  0.03435397
 Iteration 18 RMS(Cart)=  0.00040791 RMS(Int)=  0.03425917
 Iteration 19 RMS(Cart)=  0.00040433 RMS(Int)=  0.03416518
 Iteration 20 RMS(Cart)=  0.00040079 RMS(Int)=  0.03407201
 Iteration 21 RMS(Cart)=  0.00039731 RMS(Int)=  0.03397964
 Iteration 22 RMS(Cart)=  0.00039388 RMS(Int)=  0.03388805
 Iteration 23 RMS(Cart)=  0.00039049 RMS(Int)=  0.03379725
 Iteration 24 RMS(Cart)=  0.00038716 RMS(Int)=  0.03370721
 Iteration 25 RMS(Cart)=  0.00038387 RMS(Int)=  0.03361792
 Iteration 26 RMS(Cart)=  0.00038063 RMS(Int)=  0.03352938
 Iteration 27 RMS(Cart)=  0.00037743 RMS(Int)=  0.03344157
 Iteration 28 RMS(Cart)=  0.00037427 RMS(Int)=  0.03335449
 Iteration 29 RMS(Cart)=  0.00037116 RMS(Int)=  0.03326813
 Iteration 30 RMS(Cart)=  0.00036809 RMS(Int)=  0.03318246
 Iteration 31 RMS(Cart)=  0.00036507 RMS(Int)=  0.03309750
 Iteration 32 RMS(Cart)=  0.00036208 RMS(Int)=  0.03301322
 Iteration 33 RMS(Cart)=  0.00035914 RMS(Int)=  0.03292962
 Iteration 34 RMS(Cart)=  0.00035623 RMS(Int)=  0.03284669
 Iteration 35 RMS(Cart)=  0.00035336 RMS(Int)=  0.03276441
 Iteration 36 RMS(Cart)=  0.00035053 RMS(Int)=  0.03268279
 Iteration 37 RMS(Cart)=  0.00034774 RMS(Int)=  0.03260181
 Iteration 38 RMS(Cart)=  0.00034499 RMS(Int)=  0.03252147
 Iteration 39 RMS(Cart)=  0.00034227 RMS(Int)=  0.03244175
 Iteration 40 RMS(Cart)=  0.00033958 RMS(Int)=  0.03236264
 Iteration 41 RMS(Cart)=  0.00033693 RMS(Int)=  0.03228415
 Iteration 42 RMS(Cart)=  0.00033432 RMS(Int)=  0.03220626
 Iteration 43 RMS(Cart)=  0.00033173 RMS(Int)=  0.03212897
 Iteration 44 RMS(Cart)=  0.00032918 RMS(Int)=  0.03205226
 Iteration 45 RMS(Cart)=  0.00032667 RMS(Int)=  0.03197613
 Iteration 46 RMS(Cart)=  0.00032418 RMS(Int)=  0.03190058
 Iteration 47 RMS(Cart)=  0.00032173 RMS(Int)=  0.03182559
 Iteration 48 RMS(Cart)=  0.00031930 RMS(Int)=  0.03175116
 Iteration 49 RMS(Cart)=  0.00031691 RMS(Int)=  0.03167728
 Iteration 50 RMS(Cart)=  0.00031454 RMS(Int)=  0.03160394
 Iteration 51 RMS(Cart)=  0.00031221 RMS(Int)=  0.03153115
 Iteration 52 RMS(Cart)=  0.00030990 RMS(Int)=  0.03145888
 Iteration 53 RMS(Cart)=  0.00030762 RMS(Int)=  0.03138714
 Iteration 54 RMS(Cart)=  0.00030537 RMS(Int)=  0.03131592
 Iteration 55 RMS(Cart)=  0.00030315 RMS(Int)=  0.03124521
 Iteration 56 RMS(Cart)=  0.00030095 RMS(Int)=  0.03117501
 Iteration 57 RMS(Cart)=  0.00029878 RMS(Int)=  0.03110531
 Iteration 58 RMS(Cart)=  0.00029663 RMS(Int)=  0.03103611
 Iteration 59 RMS(Cart)=  0.00029451 RMS(Int)=  0.03096739
 Iteration 60 RMS(Cart)=  0.00029242 RMS(Int)=  0.03089916
 Iteration 61 RMS(Cart)=  0.00029035 RMS(Int)=  0.03083141
 Iteration 62 RMS(Cart)=  0.00028830 RMS(Int)=  0.03076413
 Iteration 63 RMS(Cart)=  0.00028628 RMS(Int)=  0.03069731
 Iteration 64 RMS(Cart)=  0.00028428 RMS(Int)=  0.03063096
 Iteration 65 RMS(Cart)=  0.00028230 RMS(Int)=  0.03056506
 Iteration 66 RMS(Cart)=  0.00028035 RMS(Int)=  0.03049962
 Iteration 67 RMS(Cart)=  0.00027842 RMS(Int)=  0.03043462
 Iteration 68 RMS(Cart)=  0.00027651 RMS(Int)=  0.03037006
 Iteration 69 RMS(Cart)=  0.00027462 RMS(Int)=  0.03030593
 Iteration 70 RMS(Cart)=  0.00027275 RMS(Int)=  0.03024224
 Iteration 71 RMS(Cart)=  0.00027091 RMS(Int)=  0.03017898
 Iteration 72 RMS(Cart)=  0.00026908 RMS(Int)=  0.03011613
 Iteration 73 RMS(Cart)=  0.00026728 RMS(Int)=  0.03005371
 Iteration 74 RMS(Cart)=  0.00026549 RMS(Int)=  0.02999169
 Iteration 75 RMS(Cart)=  0.00026373 RMS(Int)=  0.02993009
 Iteration 76 RMS(Cart)=  0.00026198 RMS(Int)=  0.02986889
 Iteration 77 RMS(Cart)=  0.00026025 RMS(Int)=  0.02980808
 Iteration 78 RMS(Cart)=  0.00025854 RMS(Int)=  0.02974768
 Iteration 79 RMS(Cart)=  0.00025685 RMS(Int)=  0.02968766
 Iteration 80 RMS(Cart)=  0.00025518 RMS(Int)=  0.02962803
 Iteration 81 RMS(Cart)=  0.00025353 RMS(Int)=  0.02956878
 Iteration 82 RMS(Cart)=  0.00025189 RMS(Int)=  0.02950991
 Iteration 83 RMS(Cart)=  0.00025027 RMS(Int)=  0.02945141
 Iteration 84 RMS(Cart)=  0.00024867 RMS(Int)=  0.02939329
 Iteration 85 RMS(Cart)=  0.00024709 RMS(Int)=  0.02933553
 Iteration 86 RMS(Cart)=  0.00024552 RMS(Int)=  0.02927814
 Iteration 87 RMS(Cart)=  0.00024397 RMS(Int)=  0.02922110
 Iteration 88 RMS(Cart)=  0.00024243 RMS(Int)=  0.02916442
 Iteration 89 RMS(Cart)=  0.00024091 RMS(Int)=  0.02910809
 Iteration 90 RMS(Cart)=  0.00023941 RMS(Int)=  0.02905211
 Iteration 91 RMS(Cart)=  0.00023792 RMS(Int)=  0.02899647
 Iteration 92 RMS(Cart)=  0.00023644 RMS(Int)=  0.02894118
 Iteration 93 RMS(Cart)=  0.00023499 RMS(Int)=  0.02888622
 Iteration 94 RMS(Cart)=  0.00023354 RMS(Int)=  0.02883159
 Iteration 95 RMS(Cart)=  0.00023211 RMS(Int)=  0.02877730
 Iteration 96 RMS(Cart)=  0.00023070 RMS(Int)=  0.02872334
 Iteration 97 RMS(Cart)=  0.00022930 RMS(Int)=  0.02866969
 Iteration 98 RMS(Cart)=  0.00022791 RMS(Int)=  0.02861637
 Iteration 99 RMS(Cart)=  0.00022654 RMS(Int)=  0.02856337
 Iteration100 RMS(Cart)=  0.00022518 RMS(Int)=  0.02851068
 New curvilinear step not converged.
 ITry= 1 IFail=1 DXMaxC= 6.04D-01 DCOld= 1.00D+10 DXMaxT= 5.05D-01 DXLimC= 3.00D+00 Rises=F
 Iteration  1 RMS(Cart)=  0.20250361 RMS(Int)=  0.03599335
 Iteration  2 RMS(Cart)=  0.00047327 RMS(Int)=  0.03588357
 Iteration  3 RMS(Cart)=  0.00046869 RMS(Int)=  0.03577483
 Iteration  4 RMS(Cart)=  0.00046419 RMS(Int)=  0.03566713
 Iteration  5 RMS(Cart)=  0.00045975 RMS(Int)=  0.03556044
 Iteration  6 RMS(Cart)=  0.00045539 RMS(Int)=  0.03545475
 Iteration  7 RMS(Cart)=  0.00045109 RMS(Int)=  0.03535004
 Iteration  8 RMS(Cart)=  0.00044686 RMS(Int)=  0.03524631
 Iteration  9 RMS(Cart)=  0.00044269 RMS(Int)=  0.03514353
 Iteration 10 RMS(Cart)=  0.00043859 RMS(Int)=  0.03504169
 Iteration 11 RMS(Cart)=  0.00043455 RMS(Int)=  0.03494077
 Iteration 12 RMS(Cart)=  0.00043057 RMS(Int)=  0.03484077
 Iteration 13 RMS(Cart)=  0.00042665 RMS(Int)=  0.03474167
 Iteration 14 RMS(Cart)=  0.00042279 RMS(Int)=  0.03464345
 Iteration 15 RMS(Cart)=  0.00041899 RMS(Int)=  0.03454610
 Iteration 16 RMS(Cart)=  0.00041524 RMS(Int)=  0.03444961
 Iteration 17 RMS(Cart)=  0.00041155 RMS(Int)=  0.03435397
 Iteration 18 RMS(Cart)=  0.00040791 RMS(Int)=  0.03425917
 Iteration 19 RMS(Cart)=  0.00040433 RMS(Int)=  0.03416518
 Iteration 20 RMS(Cart)=  0.00040079 RMS(Int)=  0.03407201
 Iteration 21 RMS(Cart)=  0.00039731 RMS(Int)=  0.03397964
 Iteration 22 RMS(Cart)=  0.00039388 RMS(Int)=  0.03388805
 Iteration 23 RMS(Cart)=  0.00039049 RMS(Int)=  0.03379725
 Iteration 24 RMS(Cart)=  0.00038716 RMS(Int)=  0.03370721
 Iteration 25 RMS(Cart)=  0.00038387 RMS(Int)=  0.03361792
 Iteration 26 RMS(Cart)=  0.00038063 RMS(Int)=  0.03352938
 Iteration 27 RMS(Cart)=  0.00037743 RMS(Int)=  0.03344157
 Iteration 28 RMS(Cart)=  0.00037427 RMS(Int)=  0.03335449
 Iteration 29 RMS(Cart)=  0.00037116 RMS(Int)=  0.03326813
 Iteration 30 RMS(Cart)=  0.00036809 RMS(Int)=  0.03318246
 Iteration 31 RMS(Cart)=  0.00036507 RMS(Int)=  0.03309750
 Iteration 32 RMS(Cart)=  0.00036208 RMS(Int)=  0.03301322
 Iteration 33 RMS(Cart)=  0.00035914 RMS(Int)=  0.03292962
 Iteration 34 RMS(Cart)=  0.00035623 RMS(Int)=  0.03284669
 Iteration 35 RMS(Cart)=  0.00035336 RMS(Int)=  0.03276441
 Iteration 36 RMS(Cart)=  0.00035053 RMS(Int)=  0.03268279
 Iteration 37 RMS(Cart)=  0.00034774 RMS(Int)=  0.03260181
 Iteration 38 RMS(Cart)=  0.00034499 RMS(Int)=  0.03252147
 Iteration 39 RMS(Cart)=  0.00034227 RMS(Int)=  0.03244175
 Iteration 40 RMS(Cart)=  0.00033958 RMS(Int)=  0.03236264
 Iteration 41 RMS(Cart)=  0.00033693 RMS(Int)=  0.03228415
 Iteration 42 RMS(Cart)=  0.00033432 RMS(Int)=  0.03220626
 Iteration 43 RMS(Cart)=  0.00033173 RMS(Int)=  0.03212897
 Iteration 44 RMS(Cart)=  0.00032918 RMS(Int)=  0.03205226
 Iteration 45 RMS(Cart)=  0.00032667 RMS(Int)=  0.03197613
 Iteration 46 RMS(Cart)=  0.00032418 RMS(Int)=  0.03190058
 Iteration 47 RMS(Cart)=  0.00032173 RMS(Int)=  0.03182559
 Iteration 48 RMS(Cart)=  0.00031930 RMS(Int)=  0.03175116
 Iteration 49 RMS(Cart)=  0.00031691 RMS(Int)=  0.03167728
 Iteration 50 RMS(Cart)=  0.00031454 RMS(Int)=  0.03160394
 Iteration 51 RMS(Cart)=  0.00031221 RMS(Int)=  0.03153115
 Iteration 52 RMS(Cart)=  0.00030990 RMS(Int)=  0.03145888
 Iteration 53 RMS(Cart)=  0.00030762 RMS(Int)=  0.03138714
 Iteration 54 RMS(Cart)=  0.00030537 RMS(Int)=  0.03131592
 Iteration 55 RMS(Cart)=  0.00030315 RMS(Int)=  0.03124521
 Iteration 56 RMS(Cart)=  0.00030095 RMS(Int)=  0.03117501
 Iteration 57 RMS(Cart)=  0.00029878 RMS(Int)=  0.03110531
 Iteration 58 RMS(Cart)=  0.00029663 RMS(Int)=  0.03103611
 Iteration 59 RMS(Cart)=  0.00029451 RMS(Int)=  0.03096739
 Iteration 60 RMS(Cart)=  0.00029242 RMS(Int)=  0.03089916
 Iteration 61 RMS(Cart)=  0.00029035 RMS(Int)=  0.03083141
 Iteration 62 RMS(Cart)=  0.00028830 RMS(Int)=  0.03076413
 Iteration 63 RMS(Cart)=  0.00028628 RMS(Int)=  0.03069731
 Iteration 64 RMS(Cart)=  0.00028428 RMS(Int)=  0.03063096
 Iteration 65 RMS(Cart)=  0.00028230 RMS(Int)=  0.03056506
 Iteration 66 RMS(Cart)=  0.00028035 RMS(Int)=  0.03049962
 Iteration 67 RMS(Cart)=  0.00027842 RMS(Int)=  0.03043462
 Iteration 68 RMS(Cart)=  0.00027651 RMS(Int)=  0.03037006
 Iteration 69 RMS(Cart)=  0.00027462 RMS(Int)=  0.03030593
 Iteration 70 RMS(Cart)=  0.00027275 RMS(Int)=  0.03024224
 Iteration 71 RMS(Cart)=  0.00027091 RMS(Int)=  0.03017898
 Iteration 72 RMS(Cart)=  0.00026908 RMS(Int)=  0.03011613
 Iteration 73 RMS(Cart)=  0.00026728 RMS(Int)=  0.03005371
 Iteration 74 RMS(Cart)=  0.00026549 RMS(Int)=  0.02999169
 Iteration 75 RMS(Cart)=  0.00026373 RMS(Int)=  0.02993009
 Iteration 76 RMS(Cart)=  0.00026198 RMS(Int)=  0.02986889
 Iteration 77 RMS(Cart)=  0.00026025 RMS(Int)=  0.02980808
 Iteration 78 RMS(Cart)=  0.00025854 RMS(Int)=  0.02974768
 Iteration 79 RMS(Cart)=  0.00025685 RMS(Int)=  0.02968766
 Iteration 80 RMS(Cart)=  0.00025518 RMS(Int)=  0.02962803
 Iteration 81 RMS(Cart)=  0.00025353 RMS(Int)=  0.02956878
 Iteration 82 RMS(Cart)=  0.00025189 RMS(Int)=  0.02950991
 Iteration 83 RMS(Cart)=  0.00025027 RMS(Int)=  0.02945141
 Iteration 84 RMS(Cart)=  0.00024867 RMS(Int)=  0.02939329
 Iteration 85 RMS(Cart)=  0.00024709 RMS(Int)=  0.02933553
 Iteration 86 RMS(Cart)=  0.00024552 RMS(Int)=  0.02927814
 Iteration 87 RMS(Cart)=  0.00024397 RMS(Int)=  0.02922110
 Iteration 88 RMS(Cart)=  0.00024243 RMS(Int)=  0.02916442
 Iteration 89 RMS(Cart)=  0.00024091 RMS(Int)=  0.02910809
 Iteration 90 RMS(Cart)=  0.00023941 RMS(Int)=  0.02905211
 Iteration 91 RMS(Cart)=  0.00023792 RMS(Int)=  0.02899647
 Iteration 92 RMS(Cart)=  0.00023644 RMS(Int)=  0.02894118
 Iteration 93 RMS(Cart)=  0.00023499 RMS(Int)=  0.02888622
 Iteration 94 RMS(Cart)=  0.00023354 RMS(Int)=  0.02883159
 Iteration 95 RMS(Cart)=  0.00023211 RMS(Int)=  0.02877730
 Iteration 96 RMS(Cart)=  0.00023070 RMS(Int)=  0.02872334
 Iteration 97 RMS(Cart)=  0.00022930 RMS(Int)=  0.02866969
 Iteration 98 RMS(Cart)=  0.00022791 RMS(Int)=  0.02861637
 Iteration 99 RMS(Cart)=  0.00022654 RMS(Int)=  0.02856337
 Iteration100 RMS(Cart)=  0.00022518 RMS(Int)=  0.02851068
 New curvilinear step not converged.
 ITry= 2 IFail=1 DXMaxC= 6.04D-01 DCOld= 1.00D+10 DXMaxT= 5.05D-01 DXLimC= 3.00D+00 Rises=F
 Iteration  1 RMS(Cart)=  0.20250361 RMS(Int)=  0.03599335
 Iteration  2 RMS(Cart)=  0.00047327 RMS(Int)=  0.03588357
 Iteration  3 RMS(Cart)=  0.00046869 RMS(Int)=  0.03577483
 Iteration  4 RMS(Cart)=  0.00046419 RMS(Int)=  0.03566713
 Iteration  5 RMS(Cart)=  0.00045975 RMS(Int)=  0.03556044
 Iteration  6 RMS(Cart)=  0.00045539 RMS(Int)=  0.03545475
 Iteration  7 RMS(Cart)=  0.00045109 RMS(Int)=  0.03535004
 Iteration  8 RMS(Cart)=  0.00044686 RMS(Int)=  0.03524631
 Iteration  9 RMS(Cart)=  0.00044269 RMS(Int)=  0.03514353
 Iteration 10 RMS(Cart)=  0.00043859 RMS(Int)=  0.03504169
 Iteration 11 RMS(Cart)=  0.00043455 RMS(Int)=  0.03494077
 Iteration 12 RMS(Cart)=  0.00043057 RMS(Int)=  0.03484077
 Iteration 13 RMS(Cart)=  0.00042665 RMS(Int)=  0.03474167
 Iteration 14 RMS(Cart)=  0.00042279 RMS(Int)=  0.03464345
 Iteration 15 RMS(Cart)=  0.00041899 RMS(Int)=  0.03454610
 Iteration 16 RMS(Cart)=  0.00041524 RMS(Int)=  0.03444961
 Iteration 17 RMS(Cart)=  0.00041155 RMS(Int)=  0.03435397
 Iteration 18 RMS(Cart)=  0.00040791 RMS(Int)=  0.03425917
 Iteration 19 RMS(Cart)=  0.00040433 RMS(Int)=  0.03416518
 Iteration 20 RMS(Cart)=  0.00040079 RMS(Int)=  0.03407201
 Iteration 21 RMS(Cart)=  0.00039731 RMS(Int)=  0.03397964
 Iteration 22 RMS(Cart)=  0.00039388 RMS(Int)=  0.03388805
 Iteration 23 RMS(Cart)=  0.00039049 RMS(Int)=  0.03379725
 Iteration 24 RMS(Cart)=  0.00038716 RMS(Int)=  0.03370721
 Iteration 25 RMS(Cart)=  0.00038387 RMS(Int)=  0.03361792
 Iteration 26 RMS(Cart)=  0.00038063 RMS(Int)=  0.03352938
 Iteration 27 RMS(Cart)=  0.00037743 RMS(Int)=  0.03344157
 Iteration 28 RMS(Cart)=  0.00037427 RMS(Int)=  0.03335449
 Iteration 29 RMS(Cart)=  0.00037116 RMS(Int)=  0.03326813
 Iteration 30 RMS(Cart)=  0.00036809 RMS(Int)=  0.03318246
 Iteration 31 RMS(Cart)=  0.00036507 RMS(Int)=  0.03309750
 Iteration 32 RMS(Cart)=  0.00036208 RMS(Int)=  0.03301322
 Iteration 33 RMS(Cart)=  0.00035914 RMS(Int)=  0.03292962
 Iteration 34 RMS(Cart)=  0.00035623 RMS(Int)=  0.03284669
 Iteration 35 RMS(Cart)=  0.00035336 RMS(Int)=  0.03276441
 Iteration 36 RMS(Cart)=  0.00035053 RMS(Int)=  0.03268279
 Iteration 37 RMS(Cart)=  0.00034774 RMS(Int)=  0.03260181
 Iteration 38 RMS(Cart)=  0.00034499 RMS(Int)=  0.03252147
 Iteration 39 RMS(Cart)=  0.00034227 RMS(Int)=  0.03244175
 Iteration 40 RMS(Cart)=  0.00033958 RMS(Int)=  0.03236264
 Iteration 41 RMS(Cart)=  0.00033693 RMS(Int)=  0.03228415
 Iteration 42 RMS(Cart)=  0.00033432 RMS(Int)=  0.03220626
 Iteration 43 RMS(Cart)=  0.00033173 RMS(Int)=  0.03212897
 Iteration 44 RMS(Cart)=  0.00032918 RMS(Int)=  0.03205226
 Iteration 45 RMS(Cart)=  0.00032667 RMS(Int)=  0.03197613
 Iteration 46 RMS(Cart)=  0.00032418 RMS(Int)=  0.03190058
 Iteration 47 RMS(Cart)=  0.00032173 RMS(Int)=  0.03182559
 Iteration 48 RMS(Cart)=  0.00031930 RMS(Int)=  0.03175116
 Iteration 49 RMS(Cart)=  0.00031691 RMS(Int)=  0.03167728
 Iteration 50 RMS(Cart)=  0.00031454 RMS(Int)=  0.03160394
 Iteration 51 RMS(Cart)=  0.00031221 RMS(Int)=  0.03153115
 Iteration 52 RMS(Cart)=  0.00030990 RMS(Int)=  0.03145888
 Iteration 53 RMS(Cart)=  0.00030762 RMS(Int)=  0.03138714
 Iteration 54 RMS(Cart)=  0.00030537 RMS(Int)=  0.03131592
 Iteration 55 RMS(Cart)=  0.00030315 RMS(Int)=  0.03124521
 Iteration 56 RMS(Cart)=  0.00030095 RMS(Int)=  0.03117501
 Iteration 57 RMS(Cart)=  0.00029878 RMS(Int)=  0.03110531
 Iteration 58 RMS(Cart)=  0.00029663 RMS(Int)=  0.03103611
 Iteration 59 RMS(Cart)=  0.00029451 RMS(Int)=  0.03096739
 Iteration 60 RMS(Cart)=  0.00029242 RMS(Int)=  0.03089916
 Iteration 61 RMS(Cart)=  0.00029035 RMS(Int)=  0.03083141
 Iteration 62 RMS(Cart)=  0.00028830 RMS(Int)=  0.03076413
 Iteration 63 RMS(Cart)=  0.00028628 RMS(Int)=  0.03069731
 Iteration 64 RMS(Cart)=  0.00028428 RMS(Int)=  0.03063096
 Iteration 65 RMS(Cart)=  0.00028230 RMS(Int)=  0.03056506
 Iteration 66 RMS(Cart)=  0.00028035 RMS(Int)=  0.03049962
 Iteration 67 RMS(Cart)=  0.00027842 RMS(Int)=  0.03043462
 Iteration 68 RMS(Cart)=  0.00027651 RMS(Int)=  0.03037006
 Iteration 69 RMS(Cart)=  0.00027462 RMS(Int)=  0.03030593
 Iteration 70 RMS(Cart)=  0.00027275 RMS(Int)=  0.03024224
 Iteration 71 RMS(Cart)=  0.00027091 RMS(Int)=  0.03017898
 Iteration 72 RMS(Cart)=  0.00026908 RMS(Int)=  0.03011613
 Iteration 73 RMS(Cart)=  0.00026728 RMS(Int)=  0.03005371
 Iteration 74 RMS(Cart)=  0.00026549 RMS(Int)=  0.02999169
 Iteration 75 RMS(Cart)=  0.00026373 RMS(Int)=  0.02993009
 Iteration 76 RMS(Cart)=  0.00026198 RMS(Int)=  0.02986889
 Iteration 77 RMS(Cart)=  0.00026025 RMS(Int)=  0.02980808
 Iteration 78 RMS(Cart)=  0.00025854 RMS(Int)=  0.02974768
 Iteration 79 RMS(Cart)=  0.00025685 RMS(Int)=  0.02968766
 Iteration 80 RMS(Cart)=  0.00025518 RMS(Int)=  0.02962803
 Iteration 81 RMS(Cart)=  0.00025353 RMS(Int)=  0.02956878
 Iteration 82 RMS(Cart)=  0.00025189 RMS(Int)=  0.02950991
 Iteration 83 RMS(Cart)=  0.00025027 RMS(Int)=  0.02945141
 Iteration 84 RMS(Cart)=  0.00024867 RMS(Int)=  0.02939329
 Iteration 85 RMS(Cart)=  0.00024709 RMS(Int)=  0.02933553
 Iteration 86 RMS(Cart)=  0.00024552 RMS(Int)=  0.02927814
 Iteration 87 RMS(Cart)=  0.00024397 RMS(Int)=  0.02922110
 Iteration 88 RMS(Cart)=  0.00024243 RMS(Int)=  0.02916442
 Iteration 89 RMS(Cart)=  0.00024091 RMS(Int)=  0.02910809
 Iteration 90 RMS(Cart)=  0.00023941 RMS(Int)=  0.02905211
 Iteration 91 RMS(Cart)=  0.00023792 RMS(Int)=  0.02899647
 Iteration 92 RMS(Cart)=  0.00023644 RMS(Int)=  0.02894118
 Iteration 93 RMS(Cart)=  0.00023499 RMS(Int)=  0.02888622
 Iteration 94 RMS(Cart)=  0.00023354 RMS(Int)=  0.02883159
 Iteration 95 RMS(Cart)=  0.00023211 RMS(Int)=  0.02877730
 Iteration 96 RMS(Cart)=  0.00023070 RMS(Int)=  0.02872334
 Iteration 97 RMS(Cart)=  0.00022930 RMS(Int)=  0.02866969
 Iteration 98 RMS(Cart)=  0.00022791 RMS(Int)=  0.02861637
 Iteration 99 RMS(Cart)=  0.00022654 RMS(Int)=  0.02856337
 Iteration100 RMS(Cart)=  0.00022518 RMS(Int)=  0.02851068
 New curvilinear step not converged.
 ITry= 3 IFail=1 DXMaxC= 6.04D-01 DCOld= 1.00D+10 DXMaxT= 5.05D-01 DXLimC= 3.00D+00 Rises=F
 Iteration  1 RMS(Cart)=  0.20250361 RMS(Int)=  0.03599335
 Iteration  2 RMS(Cart)=  0.00047327 RMS(Int)=  0.03588357
 Iteration  3 RMS(Cart)=  0.00046869 RMS(Int)=  0.03577483
 Iteration  4 RMS(Cart)=  0.00046419 RMS(Int)=  0.03566713
 Iteration  5 RMS(Cart)=  0.00045975 RMS(Int)=  0.03556044
 Iteration  6 RMS(Cart)=  0.00045539 RMS(Int)=  0.03545475
 Iteration  7 RMS(Cart)=  0.00045109 RMS(Int)=  0.03535004
 Iteration  8 RMS(Cart)=  0.00044686 RMS(Int)=  0.03524631
 Iteration  9 RMS(Cart)=  0.00044269 RMS(Int)=  0.03514353
 Iteration 10 RMS(Cart)=  0.00043859 RMS(Int)=  0.03504169
 Iteration 11 RMS(Cart)=  0.00043455 RMS(Int)=  0.03494077
 Iteration 12 RMS(Cart)=  0.00043057 RMS(Int)=  0.03484077
 Iteration 13 RMS(Cart)=  0.00042665 RMS(Int)=  0.03474167
 Iteration 14 RMS(Cart)=  0.00042279 RMS(Int)=  0.03464345
 Iteration 15 RMS(Cart)=  0.00041899 RMS(Int)=  0.03454610
 Iteration 16 RMS(Cart)=  0.00041524 RMS(Int)=  0.03444961
 Iteration 17 RMS(Cart)=  0.00041155 RMS(Int)=  0.03435397
 Iteration 18 RMS(Cart)=  0.00040791 RMS(Int)=  0.03425917
 Iteration 19 RMS(Cart)=  0.00040433 RMS(Int)=  0.03416518
 Iteration 20 RMS(Cart)=  0.00040079 RMS(Int)=  0.03407201
 Iteration 21 RMS(Cart)=  0.00039731 RMS(Int)=  0.03397964
 Iteration 22 RMS(Cart)=  0.00039388 RMS(Int)=  0.03388805
 Iteration 23 RMS(Cart)=  0.00039049 RMS(Int)=  0.03379725
 Iteration 24 RMS(Cart)=  0.00038716 RMS(Int)=  0.03370721
 Iteration 25 RMS(Cart)=  0.00038387 RMS(Int)=  0.03361792
 Iteration 26 RMS(Cart)=  0.00038063 RMS(Int)=  0.03352938
 Iteration 27 RMS(Cart)=  0.00037743 RMS(Int)=  0.03344157
 Iteration 28 RMS(Cart)=  0.00037427 RMS(Int)=  0.03335449
 Iteration 29 RMS(Cart)=  0.00037116 RMS(Int)=  0.03326813
 Iteration 30 RMS(Cart)=  0.00036809 RMS(Int)=  0.03318246
 Iteration 31 RMS(Cart)=  0.00036507 RMS(Int)=  0.03309750
 Iteration 32 RMS(Cart)=  0.00036208 RMS(Int)=  0.03301322
 Iteration 33 RMS(Cart)=  0.00035914 RMS(Int)=  0.03292962
 Iteration 34 RMS(Cart)=  0.00035623 RMS(Int)=  0.03284669
 Iteration 35 RMS(Cart)=  0.00035336 RMS(Int)=  0.03276441
 Iteration 36 RMS(Cart)=  0.00035053 RMS(Int)=  0.03268279
 Iteration 37 RMS(Cart)=  0.00034774 RMS(Int)=  0.03260181
 Iteration 38 RMS(Cart)=  0.00034499 RMS(Int)=  0.03252147
 Iteration 39 RMS(Cart)=  0.00034227 RMS(Int)=  0.03244175
 Iteration 40 RMS(Cart)=  0.00033958 RMS(Int)=  0.03236264
 Iteration 41 RMS(Cart)=  0.00033693 RMS(Int)=  0.03228415
 Iteration 42 RMS(Cart)=  0.00033432 RMS(Int)=  0.03220626
 Iteration 43 RMS(Cart)=  0.00033173 RMS(Int)=  0.03212897
 Iteration 44 RMS(Cart)=  0.00032918 RMS(Int)=  0.03205226
 Iteration 45 RMS(Cart)=  0.00032667 RMS(Int)=  0.03197613
 Iteration 46 RMS(Cart)=  0.00032418 RMS(Int)=  0.03190058
 Iteration 47 RMS(Cart)=  0.00032173 RMS(Int)=  0.03182559
 Iteration 48 RMS(Cart)=  0.00031930 RMS(Int)=  0.03175116
 Iteration 49 RMS(Cart)=  0.00031691 RMS(Int)=  0.03167728
 Iteration 50 RMS(Cart)=  0.00031454 RMS(Int)=  0.03160394
 Iteration 51 RMS(Cart)=  0.00031221 RMS(Int)=  0.03153115
 Iteration 52 RMS(Cart)=  0.00030990 RMS(Int)=  0.03145888
 Iteration 53 RMS(Cart)=  0.00030762 RMS(Int)=  0.03138714
 Iteration 54 RMS(Cart)=  0.00030537 RMS(Int)=  0.03131592
 Iteration 55 RMS(Cart)=  0.00030315 RMS(Int)=  0.03124521
 Iteration 56 RMS(Cart)=  0.00030095 RMS(Int)=  0.03117501
 Iteration 57 RMS(Cart)=  0.00029878 RMS(Int)=  0.03110531
 Iteration 58 RMS(Cart)=  0.00029663 RMS(Int)=  0.03103611
 Iteration 59 RMS(Cart)=  0.00029451 RMS(Int)=  0.03096739
 Iteration 60 RMS(Cart)=  0.00029242 RMS(Int)=  0.03089916
 Iteration 61 RMS(Cart)=  0.00029035 RMS(Int)=  0.03083141
 Iteration 62 RMS(Cart)=  0.00028830 RMS(Int)=  0.03076413
 Iteration 63 RMS(Cart)=  0.00028628 RMS(Int)=  0.03069731
 Iteration 64 RMS(Cart)=  0.00028428 RMS(Int)=  0.03063096
 Iteration 65 RMS(Cart)=  0.00028230 RMS(Int)=  0.03056506
 Iteration 66 RMS(Cart)=  0.00028035 RMS(Int)=  0.03049962
 Iteration 67 RMS(Cart)=  0.00027842 RMS(Int)=  0.03043462
 Iteration 68 RMS(Cart)=  0.00027651 RMS(Int)=  0.03037006
 Iteration 69 RMS(Cart)=  0.00027462 RMS(Int)=  0.03030593
 Iteration 70 RMS(Cart)=  0.00027275 RMS(Int)=  0.03024224
 Iteration 71 RMS(Cart)=  0.00027091 RMS(Int)=  0.03017898
 Iteration 72 RMS(Cart)=  0.00026908 RMS(Int)=  0.03011613
 Iteration 73 RMS(Cart)=  0.00026728 RMS(Int)=  0.03005371
 Iteration 74 RMS(Cart)=  0.00026549 RMS(Int)=  0.02999169
 Iteration 75 RMS(Cart)=  0.00026373 RMS(Int)=  0.02993009
 Iteration 76 RMS(Cart)=  0.00026198 RMS(Int)=  0.02986889
 Iteration 77 RMS(Cart)=  0.00026025 RMS(Int)=  0.02980808
 Iteration 78 RMS(Cart)=  0.00025854 RMS(Int)=  0.02974768
 Iteration 79 RMS(Cart)=  0.00025685 RMS(Int)=  0.02968766
 Iteration 80 RMS(Cart)=  0.00025518 RMS(Int)=  0.02962803
 Iteration 81 RMS(Cart)=  0.00025353 RMS(Int)=  0.02956878
 Iteration 82 RMS(Cart)=  0.00025189 RMS(Int)=  0.02950991
 Iteration 83 RMS(Cart)=  0.00025027 RMS(Int)=  0.02945141
 Iteration 84 RMS(Cart)=  0.00024867 RMS(Int)=  0.02939329
 Iteration 85 RMS(Cart)=  0.00024709 RMS(Int)=  0.02933553
 Iteration 86 RMS(Cart)=  0.00024552 RMS(Int)=  0.02927814
 Iteration 87 RMS(Cart)=  0.00024397 RMS(Int)=  0.02922110
 Iteration 88 RMS(Cart)=  0.00024243 RMS(Int)=  0.02916442
 Iteration 89 RMS(Cart)=  0.00024091 RMS(Int)=  0.02910809
 Iteration 90 RMS(Cart)=  0.00023941 RMS(Int)=  0.02905211
 Iteration 91 RMS(Cart)=  0.00023792 RMS(Int)=  0.02899647
 Iteration 92 RMS(Cart)=  0.00023644 RMS(Int)=  0.02894118
 Iteration 93 RMS(Cart)=  0.00023499 RMS(Int)=  0.02888622
 Iteration 94 RMS(Cart)=  0.00023354 RMS(Int)=  0.02883159
 Iteration 95 RMS(Cart)=  0.00023211 RMS(Int)=  0.02877730
 Iteration 96 RMS(Cart)=  0.00023070 RMS(Int)=  0.02872334
 Iteration 97 RMS(Cart)=  0.00022930 RMS(Int)=  0.02866969
 Iteration 98 RMS(Cart)=  0.00022791 RMS(Int)=  0.02861637
 Iteration 99 RMS(Cart)=  0.00022654 RMS(Int)=  0.02856337
 Iteration100 RMS(Cart)=  0.00022518 RMS(Int)=  0.02851068
 New curvilinear step not converged.
 ITry= 4 IFail=1 DXMaxC= 6.04D-01 DCOld= 1.00D+10 DXMaxT= 5.05D-01 DXLimC= 3.00D+00 Rises=F
 Iteration  1 RMS(Cart)=  0.20250361 RMS(Int)=  0.03599335
 Iteration  2 RMS(Cart)=  0.00047327 RMS(Int)=  0.03588357
 Iteration  3 RMS(Cart)=  0.00046869 RMS(Int)=  0.03577483
 Iteration  4 RMS(Cart)=  0.00046419 RMS(Int)=  0.03566713
 Iteration  5 RMS(Cart)=  0.00045975 RMS(Int)=  0.03556044
 Iteration  6 RMS(Cart)=  0.00045539 RMS(Int)=  0.03545475
 Iteration  7 RMS(Cart)=  0.00045109 RMS(Int)=  0.03535004
 Iteration  8 RMS(Cart)=  0.00044686 RMS(Int)=  0.03524631
 Iteration  9 RMS(Cart)=  0.00044269 RMS(Int)=  0.03514353
 Iteration 10 RMS(Cart)=  0.00043859 RMS(Int)=  0.03504169
 Iteration 11 RMS(Cart)=  0.00043455 RMS(Int)=  0.03494077
 Iteration 12 RMS(Cart)=  0.00043057 RMS(Int)=  0.03484077
 Iteration 13 RMS(Cart)=  0.00042665 RMS(Int)=  0.03474167
 Iteration 14 RMS(Cart)=  0.00042279 RMS(Int)=  0.03464345
 Iteration 15 RMS(Cart)=  0.00041899 RMS(Int)=  0.03454610
 Iteration 16 RMS(Cart)=  0.00041524 RMS(Int)=  0.03444961
 Iteration 17 RMS(Cart)=  0.00041155 RMS(Int)=  0.03435397
 Iteration 18 RMS(Cart)=  0.00040791 RMS(Int)=  0.03425917
 Iteration 19 RMS(Cart)=  0.00040433 RMS(Int)=  0.03416518
 Iteration 20 RMS(Cart)=  0.00040079 RMS(Int)=  0.03407201
 Iteration 21 RMS(Cart)=  0.00039731 RMS(Int)=  0.03397964
 Iteration 22 RMS(Cart)=  0.00039388 RMS(Int)=  0.03388805
 Iteration 23 RMS(Cart)=  0.00039049 RMS(Int)=  0.03379725
 Iteration 24 RMS(Cart)=  0.00038716 RMS(Int)=  0.03370721
 Iteration 25 RMS(Cart)=  0.00038387 RMS(Int)=  0.03361792
 Iteration 26 RMS(Cart)=  0.00038063 RMS(Int)=  0.03352938
 Iteration 27 RMS(Cart)=  0.00037743 RMS(Int)=  0.03344157
 Iteration 28 RMS(Cart)=  0.00037427 RMS(Int)=  0.03335449
 Iteration 29 RMS(Cart)=  0.00037116 RMS(Int)=  0.03326813
 Iteration 30 RMS(Cart)=  0.00036809 RMS(Int)=  0.03318246
 Iteration 31 RMS(Cart)=  0.00036507 RMS(Int)=  0.03309750
 Iteration 32 RMS(Cart)=  0.00036208 RMS(Int)=  0.03301322
 Iteration 33 RMS(Cart)=  0.00035914 RMS(Int)=  0.03292962
 Iteration 34 RMS(Cart)=  0.00035623 RMS(Int)=  0.03284669
 Iteration 35 RMS(Cart)=  0.00035336 RMS(Int)=  0.03276441
 Iteration 36 RMS(Cart)=  0.00035053 RMS(Int)=  0.03268279
 Iteration 37 RMS(Cart)=  0.00034774 RMS(Int)=  0.03260181
 Iteration 38 RMS(Cart)=  0.00034499 RMS(Int)=  0.03252147
 Iteration 39 RMS(Cart)=  0.00034227 RMS(Int)=  0.03244175
 Iteration 40 RMS(Cart)=  0.00033958 RMS(Int)=  0.03236264
 Iteration 41 RMS(Cart)=  0.00033693 RMS(Int)=  0.03228415
 Iteration 42 RMS(Cart)=  0.00033432 RMS(Int)=  0.03220626
 Iteration 43 RMS(Cart)=  0.00033173 RMS(Int)=  0.03212897
 Iteration 44 RMS(Cart)=  0.00032918 RMS(Int)=  0.03205226
 Iteration 45 RMS(Cart)=  0.00032667 RMS(Int)=  0.03197613
 Iteration 46 RMS(Cart)=  0.00032418 RMS(Int)=  0.03190058
 Iteration 47 RMS(Cart)=  0.00032173 RMS(Int)=  0.03182559
 Iteration 48 RMS(Cart)=  0.00031930 RMS(Int)=  0.03175116
 Iteration 49 RMS(Cart)=  0.00031691 RMS(Int)=  0.03167728
 Iteration 50 RMS(Cart)=  0.00031454 RMS(Int)=  0.03160394
 Iteration 51 RMS(Cart)=  0.00031221 RMS(Int)=  0.03153115
 Iteration 52 RMS(Cart)=  0.00030990 RMS(Int)=  0.03145888
 Iteration 53 RMS(Cart)=  0.00030762 RMS(Int)=  0.03138714
 Iteration 54 RMS(Cart)=  0.00030537 RMS(Int)=  0.03131592
 Iteration 55 RMS(Cart)=  0.00030315 RMS(Int)=  0.03124521
 Iteration 56 RMS(Cart)=  0.00030095 RMS(Int)=  0.03117501
 Iteration 57 RMS(Cart)=  0.00029878 RMS(Int)=  0.03110531
 Iteration 58 RMS(Cart)=  0.00029663 RMS(Int)=  0.03103611
 Iteration 59 RMS(Cart)=  0.00029451 RMS(Int)=  0.03096739
 Iteration 60 RMS(Cart)=  0.00029242 RMS(Int)=  0.03089916
 Iteration 61 RMS(Cart)=  0.00029035 RMS(Int)=  0.03083141
 Iteration 62 RMS(Cart)=  0.00028830 RMS(Int)=  0.03076413
 Iteration 63 RMS(Cart)=  0.00028628 RMS(Int)=  0.03069731
 Iteration 64 RMS(Cart)=  0.00028428 RMS(Int)=  0.03063096
 Iteration 65 RMS(Cart)=  0.00028230 RMS(Int)=  0.03056506
 Iteration 66 RMS(Cart)=  0.00028035 RMS(Int)=  0.03049962
 Iteration 67 RMS(Cart)=  0.00027842 RMS(Int)=  0.03043462
 Iteration 68 RMS(Cart)=  0.00027651 RMS(Int)=  0.03037006
 Iteration 69 RMS(Cart)=  0.00027462 RMS(Int)=  0.03030593
 Iteration 70 RMS(Cart)=  0.00027275 RMS(Int)=  0.03024224
 Iteration 71 RMS(Cart)=  0.00027091 RMS(Int)=  0.03017898
 Iteration 72 RMS(Cart)=  0.00026908 RMS(Int)=  0.03011613
 Iteration 73 RMS(Cart)=  0.00026728 RMS(Int)=  0.03005371
 Iteration 74 RMS(Cart)=  0.00026549 RMS(Int)=  0.02999169
 Iteration 75 RMS(Cart)=  0.00026373 RMS(Int)=  0.02993009
 Iteration 76 RMS(Cart)=  0.00026198 RMS(Int)=  0.02986889
 Iteration 77 RMS(Cart)=  0.00026025 RMS(Int)=  0.02980808
 Iteration 78 RMS(Cart)=  0.00025854 RMS(Int)=  0.02974768
 Iteration 79 RMS(Cart)=  0.00025685 RMS(Int)=  0.02968766
 Iteration 80 RMS(Cart)=  0.00025518 RMS(Int)=  0.02962803
 Iteration 81 RMS(Cart)=  0.00025353 RMS(Int)=  0.02956878
 Iteration 82 RMS(Cart)=  0.00025189 RMS(Int)=  0.02950991
 Iteration 83 RMS(Cart)=  0.00025027 RMS(Int)=  0.02945141
 Iteration 84 RMS(Cart)=  0.00024867 RMS(Int)=  0.02939329
 Iteration 85 RMS(Cart)=  0.00024709 RMS(Int)=  0.02933553
 Iteration 86 RMS(Cart)=  0.00024552 RMS(Int)=  0.02927814
 Iteration 87 RMS(Cart)=  0.00024397 RMS(Int)=  0.02922110
 Iteration 88 RMS(Cart)=  0.00024243 RMS(Int)=  0.02916442
 Iteration 89 RMS(Cart)=  0.00024091 RMS(Int)=  0.02910809
 Iteration 90 RMS(Cart)=  0.00023941 RMS(Int)=  0.02905211
 Iteration 91 RMS(Cart)=  0.00023792 RMS(Int)=  0.02899647
 Iteration 92 RMS(Cart)=  0.00023644 RMS(Int)=  0.02894118
 Iteration 93 RMS(Cart)=  0.00023499 RMS(Int)=  0.02888622
 Iteration 94 RMS(Cart)=  0.00023354 RMS(Int)=  0.02883159
 Iteration 95 RMS(Cart)=  0.00023211 RMS(Int)=  0.02877730
 Iteration 96 RMS(Cart)=  0.00023070 RMS(Int)=  0.02872334
 Iteration 97 RMS(Cart)=  0.00022930 RMS(Int)=  0.02866969
 Iteration 98 RMS(Cart)=  0.00022791 RMS(Int)=  0.02861637
 Iteration 99 RMS(Cart)=  0.00022654 RMS(Int)=  0.02856337
 Iteration100 RMS(Cart)=  0.00022518 RMS(Int)=  0.02851068
 New curvilinear step not converged.
 ITry= 5 IFail=1 DXMaxC= 6.04D-01 DCOld= 1.00D+10 DXMaxT= 5.05D-01 DXLimC= 3.00D+00 Rises=F
 Iteration  1 RMS(Cart)=  0.20250361 RMS(Int)=  0.03599335
 Iteration  2 RMS(Cart)=  0.00047327 RMS(Int)=  0.03588357
 Iteration  3 RMS(Cart)=  0.00046869 RMS(Int)=  0.03577483
 Iteration  4 RMS(Cart)=  0.00046419 RMS(Int)=  0.03566713
 Iteration  5 RMS(Cart)=  0.00045975 RMS(Int)=  0.03556044
 Iteration  6 RMS(Cart)=  0.00045539 RMS(Int)=  0.03545475
 Iteration  7 RMS(Cart)=  0.00045109 RMS(Int)=  0.03535004
 Iteration  8 RMS(Cart)=  0.00044686 RMS(Int)=  0.03524631
 Iteration  9 RMS(Cart)=  0.00044269 RMS(Int)=  0.03514353
 Iteration 10 RMS(Cart)=  0.00043859 RMS(Int)=  0.03504169
 Iteration 11 RMS(Cart)=  0.00043455 RMS(Int)=  0.03494077
 Iteration 12 RMS(Cart)=  0.00043057 RMS(Int)=  0.03484077
 Iteration 13 RMS(Cart)=  0.00042665 RMS(Int)=  0.03474167
 Iteration 14 RMS(Cart)=  0.00042279 RMS(Int)=  0.03464345
 Iteration 15 RMS(Cart)=  0.00041899 RMS(Int)=  0.03454610
 Iteration 16 RMS(Cart)=  0.00041524 RMS(Int)=  0.03444961
 Iteration 17 RMS(Cart)=  0.00041155 RMS(Int)=  0.03435397
 Iteration 18 RMS(Cart)=  0.00040791 RMS(Int)=  0.03425917
 Iteration 19 RMS(Cart)=  0.00040433 RMS(Int)=  0.03416518
 Iteration 20 RMS(Cart)=  0.00040079 RMS(Int)=  0.03407201
 Iteration 21 RMS(Cart)=  0.00039731 RMS(Int)=  0.03397964
 Iteration 22 RMS(Cart)=  0.00039388 RMS(Int)=  0.03388805
 Iteration 23 RMS(Cart)=  0.00039049 RMS(Int)=  0.03379725
 Iteration 24 RMS(Cart)=  0.00038716 RMS(Int)=  0.03370721
 Iteration 25 RMS(Cart)=  0.00038387 RMS(Int)=  0.03361792
 Iteration 26 RMS(Cart)=  0.00038063 RMS(Int)=  0.03352938
 Iteration 27 RMS(Cart)=  0.00037743 RMS(Int)=  0.03344157
 Iteration 28 RMS(Cart)=  0.00037427 RMS(Int)=  0.03335449
 Iteration 29 RMS(Cart)=  0.00037116 RMS(Int)=  0.03326813
 Iteration 30 RMS(Cart)=  0.00036809 RMS(Int)=  0.03318246
 Iteration 31 RMS(Cart)=  0.00036507 RMS(Int)=  0.03309750
 Iteration 32 RMS(Cart)=  0.00036208 RMS(Int)=  0.03301322
 Iteration 33 RMS(Cart)=  0.00035914 RMS(Int)=  0.03292962
 Iteration 34 RMS(Cart)=  0.00035623 RMS(Int)=  0.03284669
 Iteration 35 RMS(Cart)=  0.00035336 RMS(Int)=  0.03276441
 Iteration 36 RMS(Cart)=  0.00035053 RMS(Int)=  0.03268279
 Iteration 37 RMS(Cart)=  0.00034774 RMS(Int)=  0.03260181
 Iteration 38 RMS(Cart)=  0.00034499 RMS(Int)=  0.03252147
 Iteration 39 RMS(Cart)=  0.00034227 RMS(Int)=  0.03244175
 Iteration 40 RMS(Cart)=  0.00033958 RMS(Int)=  0.03236264
 Iteration 41 RMS(Cart)=  0.00033693 RMS(Int)=  0.03228415
 Iteration 42 RMS(Cart)=  0.00033432 RMS(Int)=  0.03220626
 Iteration 43 RMS(Cart)=  0.00033173 RMS(Int)=  0.03212897
 Iteration 44 RMS(Cart)=  0.00032918 RMS(Int)=  0.03205226
 Iteration 45 RMS(Cart)=  0.00032667 RMS(Int)=  0.03197613
 Iteration 46 RMS(Cart)=  0.00032418 RMS(Int)=  0.03190058
 Iteration 47 RMS(Cart)=  0.00032173 RMS(Int)=  0.03182559
 Iteration 48 RMS(Cart)=  0.00031930 RMS(Int)=  0.03175116
 Iteration 49 RMS(Cart)=  0.00031691 RMS(Int)=  0.03167728
 Iteration 50 RMS(Cart)=  0.00031454 RMS(Int)=  0.03160394
[...]
 ! D14   D(4,5,6,13)           116.6191         -DE/DX =    0.0                 !
 ! D15   D(4,5,6,14)            -3.8374         -DE/DX =    0.0                 !
 ! D16   D(5,6,7,8)            156.5156         -DE/DX =    0.0                 !
 ! D17   D(5,6,7,15)           -24.1022         -DE/DX =    0.0                 !
 ! D18   D(13,6,7,8)           -85.2098         -DE/DX =    0.0                 !
 ! D19   D(13,6,7,15)           94.1725         -DE/DX =    0.0                 !
 ! D20   D(14,6,7,8)            29.349          -DE/DX =    0.0                 !
 ! D21   D(14,6,7,15)         -151.2688         -DE/DX =    0.0                 !
 --------------------------------------------------------------------------------
 GradGradGradGradGradGradGradGradGradGradGradGradGradGradGradGradGradGrad


 ----------------------------------------------------------------------

 Electric dipole moment (input orientation):
 (Debye = 10**-18 statcoulomb cm , SI units = C m)
                  (au)            (Debye)         (10**-30 SI)
   Tot        0.212067D+01      0.539021D+01      0.179798D+02
   x         -0.412459D+00     -0.104837D+01     -0.349697D+01
   y         -0.531584D+00     -0.135115D+01     -0.450696D+01
   z          0.201110D+01      0.511172D+01      0.170509D+02

 Dipole polarizability, Alpha (input orientation).
 (esu units = cm**3 , SI units = C**2 m**2 J**-1)
 Alpha(0;0):
               (au)            (10**-24 esu)      (10**-40 SI)
   iso        0.729723D+02      0.108134D+02      0.120315D+02
   aniso      0.493781D+02      0.731709D+01      0.814136D+01
   xx         0.729694D+02      0.108129D+02      0.120310D+02
   yx         0.716682D+01      0.106201D+01      0.118165D+01
   yy         0.491564D+02      0.728422D+01      0.810479D+01
   zx        -0.122948D+02     -0.182191D+01     -0.202715D+01
   zy        -0.655307D+01     -0.971065D+00     -0.108046D+01
   zz         0.967910D+02      0.143429D+02      0.159587D+02

 ----------------------------------------------------------------------

 Dipole orientation:
     6          1.64298788         -0.04200626          1.11337058
     6          3.47546507         -0.09042287         -0.98908515
     6          5.81590256          0.37231655         -1.80623167
     6          4.02515191         -0.66459309         -3.56698822
     7          3.29322297         -1.49868889         -5.68161220
     6          5.12476317         -1.51010674         -7.72821937
     6          4.05234221         -0.17567523        -10.03783187
     8          5.31487141          0.76576633        -11.67945518
     1          2.48134648          0.69751921          2.84940179
     1          0.92448567         -1.95080210          1.46581602
     1          0.01070444          1.12199260          0.59887661
     1          7.67357276          1.05843494         -1.31442590
     1          5.48727439         -3.47488736         -8.32005694
     1          6.96876793         -0.66489151         -7.27134149
     1          1.95000665         -0.15929069        -10.09523897

 Electric dipole moment (dipole orientation):
 (Debye = 10**-18 statcoulomb cm , SI units = C m)
                  (au)            (Debye)         (10**-30 SI)
   Tot        0.212067D+01      0.539021D+01      0.179798D+02
   x          0.000000D+00      0.000000D+00      0.000000D+00
   y          0.000000D+00      0.000000D+00      0.000000D+00
   z          0.212067D+01      0.539021D+01      0.179798D+02

 Dipole polarizability, Alpha (dipole orientation).
 (esu units = cm**3 , SI units = C**2 m**2 J**-1)
 Alpha(0;0):
               (au)            (10**-24 esu)      (10**-40 SI)
   iso        0.729723D+02      0.108134D+02      0.120315D+02
   aniso      0.493781D+02      0.731709D+01      0.814136D+01
   xx         0.688780D+02      0.102067D+02      0.113564D+02
   yx         0.438899D+01      0.650381D+00      0.723647D+00
   yy         0.487922D+02      0.723025D+01      0.804474D+01
   zx        -0.797545D+01     -0.118184D+01     -0.131497D+01
   zy         0.542431D+01      0.803800D+00      0.894348D+00
   zz         0.101247D+03      0.150032D+02      0.166933D+02

 ----------------------------------------------------------------------
 1\1\GINC-LEWIS4-Z10PH-HPC3-NODE403\Freq\RB3LYP\6-31G(2df,p)\C6H7N1O1\K
 S29C\04-Aug-2022\0\\#N Geom=AllCheck Guess=TCheck SCRF=Check GenChk RB
 3LYP/6-31G(2df,p) Freq\\Title Card Required\\0,1\C,0.7385169976,-0.190
 9539561,0.7222579796\C,1.906424972,0.0388722944,-0.150651589\C,3.19885
 97384,0.3532475527,-0.2584617031\C,2.4645852075,0.0795076618,-1.463925
 6001\N,2.3134715048,-0.0574498922,-2.7110942471\C,3.4746552891,0.18392
 80517,-3.5511655887\C,3.1382129164,1.1878708193,-4.6435804836\O,3.9498
 359774,1.8710330891,-5.2125851573\H,0.9850751911,-0.053616734,1.777844
 2766\H,0.3546854148,-1.2057063368,0.5719808113\H,-0.0709401578,0.49500
 34415,0.4504698365\H,4.1031071483,0.6147807134,0.2705518605\H,3.749693
 616,-0.748552192,-4.0714847877\H,4.3732997995,0.5317505293,-3.01998275
 44\H,2.0529963849,1.2317149579,-4.8865928535\\Version=ES64L-G16RevA.03
 \State=1-A\HF=-362.7338297\RMSD=3.894e-09\RMSF=1.385e-05\ZeroPoint=0.1
 149494\Thermal=0.1238119\Dipole=-0.412459,-0.5315844,2.0111049\DipoleD
 eriv=-0.0501717,-0.0263418,0.0300259,-0.0252793,0.0683541,0.0090291,0.
 0624584,0.0191986,0.1018009,0.3068539,0.068423,-0.2384388,0.0678406,-0
 .0057648,-0.0847476,-0.2011738,-0.056004,-0.2913442,-0.1588975,-0.0113
 753,0.0028449,-0.00275,-0.1082087,-0.0387368,0.2008195,0.0313013,-0.61
 44768,0.0061523,-0.0090327,0.3759861,-0.028036,0.0958909,0.2663953,-0.
 1301723,0.0645857,2.1284165,-0.3611466,-0.0063791,-0.1956035,-0.011496
 9,-0.3886279,-0.0830577,0.1987683,0.0290901,-1.5243,0.3088283,0.174886
 4,-0.4297811,0.0658099,0.0541692,0.1784454,-0.167485,0.1478314,0.34001
 78,0.8139342,0.0972746,0.1228998,0.1982758,0.6539442,-0.6413167,-0.068
 7759,-0.494704,0.7823958,-0.6388617,-0.2256655,0.2356273,-0.2200153,-0
 .5992135,0.4299654,0.1575884,0.2663818,-0.7044677,0.0024678,-0.0221172
 ,-0.0148519,-0.0164079,0.0727472,-0.01841,0.0406947,-0.0020888,-0.1323
 975,0.0468062,-0.035068,0.0363506,-0.063672,-0.03197,0.0019992,0.05066
 02,-0.0260112,0.0301909,-0.0125487,0.0458089,0.0256249,0.0768232,0.035
 662,0.0177088,0.0202638,0.0494937,0.0232737,0.0613726,-0.0295983,-0.02
 51974,-0.031841,0.1656627,-0.0151368,-0.0860517,-0.0297014,0.0170928,0
 .0224832,-0.0011895,0.1353989,0.0556901,-0.0512274,-0.0859508,0.059254
 2,-0.0329808,-0.1012104,-0.1260665,-0.0533955,0.0597099,-0.07493,0.018
 8155,0.0222934,-0.0788502,0.0025666,-0.0781562,-0.2212056,0.03377,-0.1
 205955,0.0099888,0.0197665,0.0415197,-0.0579986,0.0310411,0.0231643\Po
 lar=72.969367,7.1668224,49.156375,-12.2948387,-6.5530733,96.7910141\Qu
 adrupole=1.0331595,-1.8428018,0.8096423,-2.0671087,1.2864267,3.2145499
 \PG=C01 [X(C6H7N1O1)]\NImag=0\\0.50369435,-0.00312298,0.52549422,0.032
 68829,0.01000421,0.54973609,-0.17630691,-0.01942972,0.08529346,0.80520
 787,-0.02050807,-0.07883490,0.01623057,0.15042342,0.17412231,0.0689567
 5,0.01219103,-0.14474479,-0.22220657,-0.02974418,0.48551730,-0.0061433
 1,-0.00625187,-0.00198857,-0.52960057,-0.11619809,0.05313208,0.8770041
 0,-0.00484524,0.01778070,-0.00152412,-0.11789350,-0.07736364,0.0147821
 1,0.20927537,0.14621890,0.02053377,0.00407739,0.00511839,0.02482965,0.
 00770763,-0.03162651,0.18845016,0.06997769,0.39986621,-0.00720577,-0.0
 0371974,0.00964488,-0.06805361,0.00033191,0.08192224,-0.08127585,-0.01
 717088,-0.09223548,0.26145494,-0.00440896,0.00940827,0.00180662,0.0009
 6657,-0.04320933,0.00357559,-0.01809250,-0.04644222,-0.03744557,0.0389
 7186,0.13071332,-0.00098597,-0.00100910,0.00061063,0.09687982,0.007629
 42,-0.27062030,-0.10608066,-0.04024229,-0.22876136,0.02921755,0.082635
 64,1.12773360,0.00283627,0.00168983,0.00058394,0.00777672,0.00247971,0
 .01264339,-0.00341713,-0.00708590,-0.01739556,-0.08298109,-0.01051463,
 -0.01731893,0.26557509,0.00175607,-0.00361834,0.00025662,0.00201718,-0
 .00015944,0.00133881,-0.00677352,0.01947265,-0.00725388,-0.01552567,-0
 .05652392,-0.04860833,0.04433771,0.09884101,-0.00005437,0.00013530,-0.
 00212340,-0.00552397,-0.00425404,-0.03019755,-0.00456565,-0.00491201,-
 0.02466626,-0.07977603,-0.06175911,-0.60159968,-0.04408004,0.04122893,
 0.81691590,0.00010554,-0.00018428,0.00035040,-0.00180831,-0.00427330,-
 0.00770690,0.00533063,0.00162750,-0.00785841,-0.00972476,-0.00098348,0
 .00762899,-0.15893016,-0.01577082,0.08152781,0.51424972,-0.00027881,0.
 00112820,0.00005933,-0.00393916,0.01158049,-0.00307931,0.00286036,-0.0
 0397451,-0.00175990,0.00025786,-0.00287375,-0.00086931,-0.01853535,-0.
 06606153,0.01435880,0.02132077,0.47208497,-0.00076880,-0.00047856,-0.0
 0075928,0.00244827,-0.00051224,0.00250429,0.00038260,0.00138196,0.0067
 8890,0.04172255,0.00595433,-0.05947736,0.03119675,0.00673116,-0.111347
 59,0.03778555,0.04463887,0.49300639,0.00031495,0.00009377,0.00009543,0
 .00032292,0.00250873,0.00137933,0.00021656,0.00030067,0.00118734,-0.00
 495947,-0.00444544,0.00017980,0.00090505,-0.02150271,0.03147272,-0.101
 56331,0.03087015,-0.04609410,0.78231488,-0.00028256,-0.00019009,-0.000
 26092,0.00027511,-0.00048759,-0.00108545,-0.00082743,0.00022752,-0.000
 97791,0.00446503,0.00082217,0.00256417,-0.00868116,-0.00323052,0.00486
 326,0.02236033,-0.10893065,0.03988020,0.21477281,0.49834138,0.00020765
 ,0.00006925,0.00009001,0.00038448,-0.00037367,0.00069743,0.00081043,-0
 .00000822,0.00132519,-0.00191757,0.00207513,-0.00487022,0.00864097,0.0
 1669663,-0.02354601,-0.03107200,0.03069437,-0.12149639,-0.12445550,-0.
 26112288,0.46092447,0.00004328,-0.00000436,0.00002763,0.00004185,-0.00
 016827,0.00026066,0.00010176,0.00014572,0.00072130,-0.00004813,0.00008
 504,-0.00228205,0.00257098,0.00229369,-0.00081516,0.01564565,-0.013975
 64,0.01014440,-0.42719532,-0.26789956,0.21449372,0.44367957,0.00025111
 ,0.00009177,0.00014465,0.00022026,0.00102014,0.00122354,0.00050976,0.0
 0023453,0.00168731,-0.00340405,-0.00241063,-0.00465493,0.00412900,-0.0
 0384508,0.00936829,-0.02585081,-0.01447921,0.02745765,-0.26719801,-0.3
 0256719,0.20131906,0.31196067,0.30769751,-0.00018142,-0.00008220,-0.00
 007047,-0.00021580,-0.00077576,-0.00101190,-0.00036542,-0.00004449,-0.
 00132935,0.00222428,0.00111346,0.00412443,-0.00125845,0.00309256,-0.00
 506361,0.02214413,0.03372965,-0.00920813,0.21505497,0.20157768,-0.2374
 0681,-0.24979690,-0.24295954,0.23221298,-0.06290747,-0.00848899,-0.063
 50533,0.00538619,0.00398986,0.03330811,0.00029071,-0.00005337,-0.00256
 417,0.00017050,-0.00042095,-0.00029371,-0.00070642,-0.00013753,0.00121
 236,0.00008344,-0.00000961,0.00023073,-0.00015896,0.00020761,-0.000141
 37,-0.00002003,-0.00014994,0.00011841,0.06667118,-0.00837297,-0.051733
 48,-0.03365190,0.00147056,-0.00004922,0.00678967,0.00027045,-0.0001684
 5,-0.00047949,-0.00045841,0.00150366,0.00008807,-0.00017945,0.00011044
 ,0.00018548,0.00001307,-0.00005189,0.00006654,-0.00001734,0.00004672,-
 0.00003180,-0.00001179,-0.00003266,0.00002553,0.00997415,0.05023523,-0
 .06189119,-0.03325265,-0.29514617,-0.00159828,-0.00197019,-0.02248643,
 0.00215416,0.00068605,0.00199011,-0.00136252,-0.00010334,0.00425099,0.
 00034006,-0.00003522,-0.00167652,-0.00021882,0.00002438,0.00002573,0.0
 0009982,-0.00027712,0.00021600,0.00008120,0.00021246,-0.00017837,0.064
 16737,0.03586382,0.32156129,-0.07124413,-0.08699271,-0.01321890,-0.016
 11169,-0.02774423,-0.00224949,-0.00029596,0.00200651,0.00153932,-0.000
 27305,0.00199823,-0.00026748,0.00028934,-0.00026948,0.00062412,0.00017
 203,0.00001081,-0.00007323,-0.00007665,0.00005911,-0.00005505,-0.00002
 592,-0.00007307,0.00006587,-0.00331768,-0.00652905,-0.00090715,0.08208
 274,-0.08563298,-0.27103362,-0.03604564,-0.00399656,-0.00311073,0.0016
 5994,0.00165707,0.00002052,0.00005685,-0.00044662,0.00059581,-0.000283
 10,0.00017249,0.00003204,0.00016000,0.00011261,-0.00002263,-0.00001472
 ,-0.00007623,0.00003996,-0.00005143,-0.00000102,-0.00003895,0.00004653
 ,0.00028643,-0.00211457,0.00003288,0.09495931,0.29526992,-0.01120419,-
 0.03492171,-0.05232875,0.00523976,0.02107910,0.00297878,0.00159245,-0.
 00157787,-0.00171102,0.00174835,-0.00085865,0.00250569,-0.00076647,0.0
 0002610,-0.00094058,-0.00013015,-0.00012756,0.00013390,0.00005733,-0.0
 0004426,0.00006136,0.00000007,0.00003518,-0.00004532,-0.00998525,-0.02
 900114,-0.00256855,0.01098918,0.03753236,0.05199475,-0.18471927,0.1252
 6357,-0.05025015,-0.02676857,0.01545749,-0.00429573,0.00117483,-0.0012
 2790,0.00168699,0.00054209,-0.00210740,-0.00012417,0.00020568,0.000429
 66,0.00059925,0.00019661,0.00006326,-0.00003716,-0.00008421,0.00013481
 ,-0.00011911,-0.00001065,-0.00009398,0.00007850,-0.00486065,0.00380840
 ,-0.00139459,0.00883115,-0.00713821,0.00262153,0.20564430,0.12421359,-
 0.14579676,0.04235890,-0.00637885,0.00466178,-0.00297769,-0.00091204,-
 0.00121004,0.00059281,0.00057356,0.00003679,0.00047361,-0.00018449,0.0
 0008656,0.00001302,-0.00002580,-0.00000945,-0.00000052,0.00003720,0.00
 000262,0.00001924,-0.00001057,-0.00000213,-0.00001212,-0.00513632,0.00
 287569,-0.00137066,0.02277093,-0.01946455,0.00773427,-0.13486648,0.158
 93203,-0.04778287,0.04235016,-0.06406701,0.01449409,-0.01580183,0.0058
 9344,0.00091936,0.00204717,-0.00201152,0.00099644,0.00184653,0.0022247
 4,-0.00060977,-0.00049406,-0.00088559,-0.00018432,0.00011286,0.0000831
 2,0.00012909,-0.00007641,0.00006726,-0.00003087,0.00004659,-0.00005197
 ,-0.02201812,0.02023439,-0.00603142,0.00320845,-0.00313837,0.00038006,
 0.05097793,-0.04689444,0.06477663,0.00126437,0.00113648,0.00028632,-0.
 00185262,-0.00509554,-0.01709900,-0.26436543,-0.06552974,-0.12327133,-
 0.00538836,-0.00291058,0.00541486,0.00339495,0.00010507,-0.00085963,-0
 .00038194,0.00067722,-0.00045780,0.00017598,-0.00007475,-0.00007338,-0
 .00005683,0.00005850,-0.00002882,-0.00057498,0.00004385,0.00042149,0.0
 0000314,0.00010849,-0.00016838,-0.00008907,-0.00007060,-0.00005745,0.2
 6792049,0.00121341,-0.00293909,0.00059182,-0.00393924,0.01248370,-0.00
 504899,-0.06596347,-0.05388799,-0.03698536,-0.00365625,0.00705314,0.00
 176422,0.00011074,0.00264844,-0.00079379,0.00062418,-0.00299456,0.0003
 4787,-0.00050188,0.00020389,-0.00001030,0.00003144,-0.00026770,0.00016
 514,-0.00003443,-0.00062691,0.00016380,-0.00022524,-0.00017283,0.00015
 294,0.00032615,-0.00010355,-0.00025803,0.07154726,0.03841854,0.0008268
 8,0.00072559,0.00364615,0.00147052,-0.00036272,0.00426405,-0.13316963,
 -0.03954125,-0.12406499,-0.00142882,0.00027888,0.01350982,-0.00389248,
 -0.00168392,-0.00616965,-0.00048135,0.00025732,0.00121630,0.00012902,-
 0.00030963,0.00024835,0.00016450,0.00038161,-0.00022633,-0.00060990,-0
 .00009778,0.00012951,0.00029532,0.00002475,-0.00042175,0.00023666,0.00
 007064,-0.00039089,0.13564903,0.04015213,0.10862885,0.00015303,0.00001
 099,-0.00005906,0.00147181,-0.00142267,0.00167791,-0.00033052,-0.00011
 005,0.00171013,-0.00364569,0.00196764,-0.00417903,-0.01176985,0.018619
 86,0.02183930,-0.05436164,0.04693212,0.02280616,-0.00181388,0.01007186
 ,0.00259480,0.00006827,-0.00092465,0.00011422,-0.00005536,-0.00000964,
 0.00005884,-0.00003067,-0.00002357,0.00005400,-0.00009182,0.00000812,0
 .00002704,-0.00012079,0.00044296,0.00005452,0.06461111,0.00002413,0.00
 000801,0.00000150,0.00016676,-0.00083129,0.00009283,0.00007791,-0.0001
 7530,-0.00002886,-0.00041386,0.00114609,0.00230871,-0.00082266,0.01148
 040,0.00139175,0.04747158,-0.22754009,-0.10011570,0.00340121,-0.024162
 57,-0.00986838,0.00020707,0.00211740,0.00352624,0.00000660,0.00000388,
 -0.00001892,0.00001862,0.00000985,-0.00001020,-0.00000854,-0.00000308,
 -0.00001541,-0.00003053,0.00016883,-0.00005984,-0.05289058,0.24439875,
 -0.00018110,0.00014671,-0.00006993,-0.00067780,0.00155387,-0.00129542,
 0.00030016,-0.00056880,-0.00058335,0.00393201,-0.00105870,0.00312972,0
 .01341529,-0.01528561,-0.01753587,0.01751574,-0.08886669,-0.08809990,-
 0.00382235,0.02024375,0.01182510,0.00092498,-0.00105078,-0.00280923,0.
 00007662,0.00000697,-0.00008348,0.00005114,0.00001910,-0.00005154,0.00
 003590,-0.00000319,-0.00000455,0.00006832,-0.00041590,-0.00000254,-0.0
 3407934,0.10416700,0.10517829,0.00016646,0.00003822,0.00006853,0.00039
 156,0.00033630,0.00050314,0.00144230,0.00048204,0.00275958,0.00046000,
 -0.00032802,-0.00846358,-0.02778210,-0.00891196,-0.00105867,-0.1996230
 6,-0.06330889,-0.09859110,-0.00912931,-0.00225351,-0.00653108,0.002002
 24,-0.00009545,0.00231947,-0.00003949,-0.00000666,0.00008311,-0.000012
 33,0.00000478,-0.00002858,-0.00001022,-0.00001099,-0.00003091,0.000073
 58,0.00000670,0.00072991,0.00607681,0.00204033,0.00289047,0.22657055,-
 0.00000017,0.00019069,0.00001065,0.00020195,0.00009375,0.00024155,0.00
 047015,-0.00046236,0.00115725,0.00062622,0.00022501,-0.00210082,-0.006
 86595,0.00048190,0.00119457,-0.06441053,-0.07016148,-0.04034577,0.0196
 1108,0.00538245,0.01466047,-0.00056536,0.00095366,-0.00351753,-0.00001
 851,0.00000515,0.00003141,0.00000896,-0.00000537,-0.00002595,-0.000027
 17,-0.00000939,0.00002430,-0.00000109,0.00005697,0.00024172,-0.0215342
 4,-0.00772785,-0.01613639,0.07098917,0.07428263,-0.00017658,0.00004765
 ,0.00012460,-0.00091330,-0.00048764,0.00002935,-0.00161314,-0.00071445
 ,-0.00072746,0.00494487,0.00245155,0.00801512,0.01924939,0.00699055,0.
 00550746,-0.09885020,-0.04058730,-0.11647836,-0.02002062,-0.01030820,-
 0.01096227,0.00306055,0.00047620,0.00270273,-0.00000033,0.00000024,-0.
 00000529,0.00000761,0.00000307,0.00001391,-0.00002071,-0.00000082,0.00
 002528,0.00020623,0.00013138,-0.00044107,-0.01110976,-0.00376272,-0.00
 702244,0.10611239,0.04237554,0.12053116,-0.00005138,-0.00003821,-0.000
 01687,-0.00009664,-0.00011724,-0.00022592,-0.00013213,0.00007877,-0.00
 009329,0.00092823,0.00022263,0.00067457,0.00203267,-0.00066756,-0.0005
 4203,-0.00939044,-0.00294511,-0.00069481,-0.23926923,0.02767229,-0.062
 76701,-0.03679669,-0.01933933,0.00972698,0.00003901,0.00000484,-0.0000
 3351,0.00000969,0.00001402,-0.00001967,0.00003979,-0.00000726,-0.00003
 808,-0.00000249,0.00001768,0.00002581,-0.00016083,0.00075197,-0.000450
 05,-0.00058699,0.00151551,-0.00087640,0.28343743,-0.00000557,0.0000444
 2,0.00001770,-0.00016478,0.00008396,0.00004055,-0.00010214,-0.00027030
 ,-0.00032597,-0.00043095,-0.00004441,0.00030404,-0.00004990,0.00028540
 ,-0.00118045,0.01796899,0.01230608,0.01500891,0.02214599,-0.06549810,0
 .00593252,-0.03208704,0.01152854,0.00411483,-0.00001501,-0.00000360,0.
 00001329,0.00000130,-0.00000484,0.00000739,-0.00001365,0.00000347,0.00
 001656,0.00003595,-0.00004088,-0.00007750,-0.00113816,0.00110698,-0.00
 275134,0.00101795,-0.00330574,0.00338496,-0.00716299,0.04380904,0.0000
 1319,-0.00000308,-0.00001605,0.00009564,0.00008167,0.00009826,0.000041
 67,0.00025850,0.00039303,0.00036725,-0.00051235,-0.00077581,-0.0007480
 8,-0.00300034,0.00332895,-0.02045048,0.01141448,0.00310839,-0.05539228
 ,0.00533372,-0.07717347,0.02304596,0.00631270,0.01836136,0.00000458,0.
 00000139,0.00000260,-0.00000971,-0.00000222,-0.00000094,0.00000486,-0.
 00000305,-0.00000755,-0.00003046,0.00004306,0.00007419,-0.00150974,0.0
 0239200,-0.00257485,-0.00076267,0.00218900,-0.00131269,0.05533026,-0.0
 2450550,0.05649459\\0.00000775,-0.00000267,0.00000309,-0.00000947,0.00
 001285,-0.00001654,0.00002846,0.00000173,-0.00001406,-0.00001352,-0.00
 000939,0.00004519,0.00000499,0.00000081,-0.00004000,0.00000822,0.00001
 423,0.00001749,-0.00001889,-0.00002995,0.00000515,0.00001654,0.0000181
 6,-0.00001023,0.00000014,0.00000052,-0.00000134,0.00000263,-0.00000087
 ,-0.00000002,0.,-0.00000053,-0.00000011,-0.00001475,-0.00000353,0.0000
 0564,-0.00000646,0.00000547,0.00000526,-0.00000595,-0.00000947,-0.0000
 0204,0.00000030,0.00000262,0.00000252\\\@


 IF IT'S NOT TRUE, IT'S WELL INVENTED -- DANTE
 Job cpu time:       0 days  1 hours  5 minutes 41.6 seconds.
 Elapsed time:       0 days  0 hours 16 minutes 26.2 seconds.
 File lengths (MBytes):  RWF=     86 Int=      0 D2E=      0 Chk=      7 Scr=      1
 Normal termination of Gaussian 16 at Thu Aug  4 15:14:23 2022.
### All Done ###
