### Starting Gaussian ###
 Entering Gaussian System, Link 0=g16
 Initial command:
 /cluster/software/gaussian/gaussian-16-A.03/avx2/g16/l1.exe "/local/scratch/ks29c/Gau-16468.inp" -scrdir="/local/scratch/ks29c/"
 Entering Link 1 = /cluster/software/gaussian/gaussian-16-A.03/avx2/g16/l1.exe PID=     16469.
  
 Copyright (c) 1988,1990,1992,1993,1995,1998,2003,2009,2016,
            Gaussian, Inc.  All Rights Reserved.
  
 This is part of the Gaussian(R) 16 program.  It is based on
 the Gaussian(R) 09 system (copyright 2009, Gaussian, Inc.),
 the Gaussian(R) 03 system (copyright 2003, Gaussian, Inc.),
 the Gaussian(R) 98 system (copyright 1998, Gaussian, Inc.),
 the Gaussian(R) 94 system (copyright 1995, Gaussian, Inc.),
 the Gaussian 92(TM) system (copyright 1992, Gaussian, Inc.),
 the Gaussian 90(TM) system (copyright 1990, Gaussian, Inc.),
 the Gaussian 88(TM) system (copyright 1988, Gaussian, Inc.),
 the Gaussian 86(TM) system (copyright 1986, Carnegie Mellon
 University), and the Gaussian 82(TM) system (copyright 1983,
 Carnegie Mellon University). Gaussian is a federally registered
 trademark of Gaussian, Inc.
  
 This software contains proprietary and confidential information,
 including trade secrets, belonging to Gaussian, Inc.
  
 This software is provided under written license and may be
 used, copied, transmitted, or stored only in accord with that
 written license.
  
 The following legend is applicable only to US Government
 contracts under FAR:
  
                    RESTRICTED RIGHTS LEGEND
  
 Use, reproduction and disclosure by the US Government is
 subject to restrictions as set forth in subparagraphs (a)
 and (c) of the Commercial Computer Software - Restricted
 Rights clause in FAR 52.227-19.
  
 Gaussian, Inc.
 340 Quinnipiac St., Bldg. 40, Wallingford CT 06492
  
  
 ---------------------------------------------------------------
 Warning -- This program may not be used in any manner that
 competes with the business of Gaussian, Inc. or will provide
 assistance to any competitor of Gaussian, Inc.  The licensee
 of this program is prohibited from giving any competitor of
 Gaussian, Inc. access to this program.  By using this program,
 the user acknowledges that Gaussian, Inc. is engaged in the
 business of creating and licensing software in the field of
 computational chemistry and represents and warrants to the
 licensee that it is not a competitor of Gaussian, Inc. and that
 it will not use this program in any manner prohibited above.
 ---------------------------------------------------------------
  

 Cite this work as:
 Gaussian 16, Revision A.03,
 M. J. Frisch, G. W. Trucks, H. B. Schlegel, G. E. Scuseria, 
 M. A. Robb, J. R. Cheeseman, G. Scalmani, V. Barone, 
 G. A. Petersson, H. Nakatsuji, X. Li, M. Caricato, A. V. Marenich, 
 J. Bloino, B. G. Janesko, R. Gomperts, B. Mennucci, H. P. Hratchian, 
 J. V. Ortiz, A. F. Izmaylov, J. L. Sonnenberg, D. Williams-Young, 
 F. Ding, F. Lipparini, F. Egidi, J. Goings, B. Peng, A. Petrone, 
 T. Henderson, D. Ranasinghe, V. G. Zakrzewski, J. Gao, N. Rega, 
 G. Zheng, W. Liang, M. Hada, M. Ehara, K. Toyota, R. Fukuda, 
 J. Hasegawa, M. Ishida, T. Nakajima, Y. Honda, O. Kitao, H. Nakai, 
 T. Vreven, K. Throssell, J. A. Montgomery, Jr., J. E. Peralta, 
 F. Ogliaro, M. J. Bearpark, J. J. Heyd, E. N. Brothers, K. N. Kudin, 
 V. N. Staroverov, T. A. Keith, R. Kobayashi, J. Normand, 
 K. Raghavachari, A. P. Rendell, J. C. Burant, S. S. Iyengar, 
 J. Tomasi, M. Cossi, J. M. Millam, M. Klene, C. Adamo, R. Cammi, 
 J. W. Ochterski, R. L. Martin, K. Morokuma, O. Farkas, 
 J. B. Foresman, and D. J. Fox, Gaussian, Inc., Wallingford CT, 2016.
 
 ******************************************
 Gaussian 16:  ES64L-G16RevA.03 25-Dec-2016
                 4-Aug-2022 
 ******************************************
 %chk=CC1C2CCONC12.chk
 %NProcShared=20
 Will use up to   20 processors via shared memory.
 -----------------------------
 # opt freq b3lyp/6-31g(2df,p)
 -----------------------------
 1/18=20,19=15,26=3,38=1/1,3;
 2/9=110,12=2,17=6,18=5,40=1/2;
 3/5=1,6=6,7=104,11=2,25=1,30=1,71=1,74=-5/1,2,3;
 4//1;
 5/5=2,38=5/2;
 6/7=2,8=2,9=2,10=2,28=1/1;
 7//1,2,3,16;
 1/18=20,19=15,26=3/3(2);
 2/9=110/2;
 99//99;
 2/9=110/2;
 3/5=1,6=6,7=104,11=2,25=1,30=1,71=1,74=-5/1,2,3;
 4/5=5,16=3,69=1/1;
 5/5=2,38=5/2;
 7//1,2,3,16;
 1/18=20,19=15,26=3/3(-5);
 2/9=110/2;
 6/7=2,8=2,9=2,10=2,19=2,28=1/1;
 99/9=1/99;
 -------------------
 Title Card Required
 -------------------
 Symbolic Z-matrix:
 Charge =  0 Multiplicity = 1
 C                     0.96696   0.11402   0.15927 
 C                     2.45648   0.13887   0.30718 
 C                     3.21571  -0.74655  -0.64421 
 C                     4.62403  -1.24353  -0.55663 
 C                     5.34357  -0.54197  -1.71811 
 O                     5.56392   0.85732  -1.43651 
 N                     4.53825   1.40365  -0.53129 
 C                     3.22629   0.78318  -0.80332 
 H                     0.54887  -0.73817   0.70088 
 H                     0.67223   0.00542  -0.89427 
 H                     0.52655   1.04334   0.52728 
 H                     2.79918   0.23644   1.32219 
 H                     2.58857  -1.42903  -1.1968 
 H                     4.6595   -2.33185  -0.67507 
 H                     5.0792   -0.98726   0.40723 
 H                     4.73479  -0.59022  -2.6334 
 H                     6.30463  -1.00938  -1.94482 
 H                     4.5537    2.3958   -0.77746 
 H                     2.64188   1.26796  -1.57545 
 

 GradGradGradGradGradGradGradGradGradGradGradGradGradGradGradGradGradGrad
 Berny optimization.
 Initialization pass.
                           ----------------------------
                           !    Initial Parameters    !
                           ! (Angstroms and Degrees)  !
 --------------------------                            --------------------------
 ! Name  Definition              Value          Derivative Info.                !
 --------------------------------------------------------------------------------
 ! R1    R(1,2)                  1.4971         estimate D2E/DX2                !
 ! R2    R(1,9)                  1.0929         estimate D2E/DX2                !
 ! R3    R(1,10)                 1.0994         estimate D2E/DX2                !
 ! R4    R(1,11)                 1.0923         estimate D2E/DX2                !
 ! R5    R(2,3)                  1.5052         estimate D2E/DX2                !
 ! R6    R(2,8)                  1.497          estimate D2E/DX2                !
 ! R7    R(2,12)                 1.0757         estimate D2E/DX2                !
 ! R8    R(3,4)                  1.496          estimate D2E/DX2                !
 ! R9    R(3,8)                  1.538          estimate D2E/DX2                !
 ! R10   R(3,13)                 1.0791         estimate D2E/DX2                !
 ! R11   R(4,5)                  1.5359         estimate D2E/DX2                !
 ! R12   R(4,14)                 1.0953         estimate D2E/DX2                !
 ! R13   R(4,15)                 1.0963         estimate D2E/DX2                !
 ! R14   R(5,6)                  1.4443         estimate D2E/DX2                !
 ! R15   R(5,16)                 1.1003         estimate D2E/DX2                !
 ! R16   R(5,17)                 1.0925         estimate D2E/DX2                !
 ! R17   R(6,7)                  1.4731         estimate D2E/DX2                !
 ! R18   R(7,8)                  1.4766         estimate D2E/DX2                !
 ! R19   R(7,18)                 1.0224         estimate D2E/DX2                !
 ! R20   R(8,19)                 1.0829         estimate D2E/DX2                !
 ! A1    A(2,1,9)              110.1583         estimate D2E/DX2                !
 ! A2    A(2,1,10)             111.2885         estimate D2E/DX2                !
 ! A3    A(2,1,11)             110.7181         estimate D2E/DX2                !
 ! A4    A(9,1,10)             107.1777         estimate D2E/DX2                !
 ! A5    A(9,1,11)             110.0122         estimate D2E/DX2                !
 ! A6    A(10,1,11)            107.3875         estimate D2E/DX2                !
 ! A7    A(1,2,3)              115.4461         estimate D2E/DX2                !
 ! A8    A(1,2,8)              116.4557         estimate D2E/DX2                !
 ! A9    A(1,2,12)             114.3116         estimate D2E/DX2                !
 ! A10   A(3,2,12)             119.2789         estimate D2E/DX2                !
 ! A11   A(8,2,12)             119.8075         estimate D2E/DX2                !
 ! A12   A(2,3,4)              129.2915         estimate D2E/DX2                !
 ! A13   A(2,3,13)             113.7391         estimate D2E/DX2                !
 ! A14   A(4,3,8)              109.2685         estimate D2E/DX2                !
 ! A15   A(4,3,13)             111.5297         estimate D2E/DX2                !
 ! A16   A(8,3,13)             125.4555         estimate D2E/DX2                !
 ! A17   A(3,4,5)              104.1824         estimate D2E/DX2                !
 ! A18   A(3,4,14)             110.7467         estimate D2E/DX2                !
 ! A19   A(3,4,15)             111.387          estimate D2E/DX2                !
 ! A20   A(5,4,14)             110.9108         estimate D2E/DX2                !
 ! A21   A(5,4,15)             111.3204         estimate D2E/DX2                !
 ! A22   A(14,4,15)            108.2937         estimate D2E/DX2                !
 ! A23   A(4,5,6)              111.5052         estimate D2E/DX2                !
 ! A24   A(4,5,16)             110.4769         estimate D2E/DX2                !
 ! A25   A(4,5,17)             111.9397         estimate D2E/DX2                !
 ! A26   A(6,5,16)             106.8036         estimate D2E/DX2                !
 ! A27   A(6,5,17)             108.7095         estimate D2E/DX2                !
 ! A28   A(16,5,17)            107.1778         estimate D2E/DX2                !
 ! A29   A(5,6,7)              111.8959         estimate D2E/DX2                !
 ! A30   A(6,7,8)              110.4631         estimate D2E/DX2                !
 ! A31   A(6,7,18)             101.6209         estimate D2E/DX2                !
 ! A32   A(8,7,18)             112.1398         estimate D2E/DX2                !
 ! A33   A(2,8,7)              120.0735         estimate D2E/DX2                !
 ! A34   A(2,8,19)             116.3647         estimate D2E/DX2                !
 ! A35   A(3,8,7)              113.8913         estimate D2E/DX2                !
 ! A36   A(3,8,19)             121.0171         estimate D2E/DX2                !
 ! A37   A(7,8,19)             115.0081         estimate D2E/DX2                !
 ! D1    D(9,1,2,3)             83.1875         estimate D2E/DX2                !
 ! D2    D(9,1,2,8)            152.6449         estimate D2E/DX2                !
 ! D3    D(9,1,2,12)           -60.8365         estimate D2E/DX2                !
 ! D4    D(10,1,2,3)           -35.543          estimate D2E/DX2                !
 ! D5    D(10,1,2,8)            33.9144         estimate D2E/DX2                !
 ! D6    D(10,1,2,12)         -179.5669         estimate D2E/DX2                !
 ! D7    D(11,1,2,3)          -154.9012         estimate D2E/DX2                !
 ! D8    D(11,1,2,8)           -85.4438         estimate D2E/DX2                !
 ! D9    D(11,1,2,12)           61.0748         estimate D2E/DX2                !
 ! D10   D(1,2,3,4)           -162.0482         estimate D2E/DX2                !
 ! D11   D(1,2,3,13)           -10.6629         estimate D2E/DX2                !
 ! D12   D(12,2,3,4)           -19.9101         estimate D2E/DX2                !
 ! D13   D(12,2,3,13)          131.4752         estimate D2E/DX2                !
 ! D14   D(1,2,8,7)            152.303          estimate D2E/DX2                !
 ! D15   D(1,2,8,19)             5.975          estimate D2E/DX2                !
 ! D16   D(12,2,8,7)             7.7112         estimate D2E/DX2                !
 ! D17   D(12,2,8,19)         -138.6168         estimate D2E/DX2                !
 ! D18   D(2,3,4,5)           -112.7734         estimate D2E/DX2                !
 ! D19   D(2,3,4,14)           127.9262         estimate D2E/DX2                !
 ! D20   D(2,3,4,15)             7.3404         estimate D2E/DX2                !
 ! D21   D(8,3,4,5)            -47.6428         estimate D2E/DX2                !
 ! D22   D(8,3,4,14)          -166.9433         estimate D2E/DX2                !
 ! D23   D(8,3,4,15)            72.4709         estimate D2E/DX2                !
 ! D24   D(13,3,4,5)            95.3439         estimate D2E/DX2                !
 ! D25   D(13,3,4,14)          -23.9566         estimate D2E/DX2                !
 ! D26   D(13,3,4,15)         -144.5424         estimate D2E/DX2                !
 ! D27   D(4,3,8,7)            -12.9086         estimate D2E/DX2                !
 ! D28   D(4,3,8,19)           130.7829         estimate D2E/DX2                !
 ! D29   D(13,3,8,7)          -149.4777         estimate D2E/DX2                !
 ! D30   D(13,3,8,19)           -5.7862         estimate D2E/DX2                !
 ! D31   D(3,4,5,6)             73.4703         estimate D2E/DX2                !
 ! D32   D(3,4,5,16)           -45.1377         estimate D2E/DX2                !
 ! D33   D(3,4,5,17)          -164.4972         estimate D2E/DX2                !
 ! D34   D(14,4,5,6)          -167.3408         estimate D2E/DX2                !
 ! D35   D(14,4,5,16)           74.0512         estimate D2E/DX2                !
 ! D36   D(14,4,5,17)          -45.3083         estimate D2E/DX2                !
 ! D37   D(15,4,5,6)           -46.6883         estimate D2E/DX2                !
 ! D38   D(15,4,5,16)         -165.2964         estimate D2E/DX2                !
 ! D39   D(15,4,5,17)           75.3441         estimate D2E/DX2                !
 ! D40   D(4,5,6,7)            -28.562          estimate D2E/DX2                !
 ! D41   D(16,5,6,7)            92.2194         estimate D2E/DX2                !
 ! D42   D(17,5,6,7)          -152.4403         estimate D2E/DX2                !
 ! D43   D(5,6,7,8)            -35.3555         estimate D2E/DX2                !
 ! D44   D(5,6,7,18)          -154.5258         estimate D2E/DX2                !
 ! D45   D(6,7,8,2)            126.2224         estimate D2E/DX2                !
 ! D46   D(6,7,8,3)             58.9282         estimate D2E/DX2                !
 ! D47   D(6,7,8,19)           -87.0185         estimate D2E/DX2                !
 ! D48   D(18,7,8,2)          -121.1997         estimate D2E/DX2                !
 ! D49   D(18,7,8,3)           171.5061         estimate D2E/DX2                !
 ! D50   D(18,7,8,19)           25.5594         estimate D2E/DX2                !
 --------------------------------------------------------------------------------
 Trust Radius=3.00D-01 FncErr=1.00D-07 GrdErr=1.00D-06 EigMax=2.50D+02 EigMin=1.00D-04
 Number of steps in this run=    114 maximum allowed number of steps=    114.
 GradGradGradGradGradGradGradGradGradGradGradGradGradGradGradGradGradGrad

                          Input orientation:                          
 ---------------------------------------------------------------------
 Center     Atomic      Atomic             Coordinates (Angstroms)
 Number     Number       Type             X           Y           Z
 ---------------------------------------------------------------------
      1          6           0        0.966960    0.114020    0.159270
      2          6           0        2.456480    0.138870    0.307180
      3          6           0        3.215710   -0.746550   -0.644210
      4          6           0        4.624030   -1.243530   -0.556630
      5          6           0        5.343570   -0.541970   -1.718110
      6          8           0        5.563920    0.857320   -1.436510
      7          7           0        4.538250    1.403650   -0.531290
      8          6           0        3.226290    0.783180   -0.803320
      9          1           0        0.548870   -0.738170    0.700880
     10          1           0        0.672230    0.005420   -0.894270
     11          1           0        0.526550    1.043340    0.527280
     12          1           0        2.799180    0.236440    1.322190
     13          1           0        2.588570   -1.429030   -1.196800
     14          1           0        4.659500   -2.331850   -0.675070
     15          1           0        5.079200   -0.987260    0.407230
     16          1           0        4.734790   -0.590220   -2.633400
     17          1           0        6.304630   -1.009380   -1.944820
     18          1           0        4.553700    2.395800   -0.777460
     19          1           0        2.641880    1.267960   -1.575450
 ---------------------------------------------------------------------
                    Distance matrix (angstroms):
                    1          2          3          4          5
     1  C    0.000000
     2  C    1.497052   0.000000
     3  C    2.538314   1.505172   0.000000
     4  C    3.966058   2.712097   1.496003   0.000000
     5  C    4.807244   3.591745   2.392259   1.535891   0.000000
     6  O    4.922504   3.634943   2.951987   2.463971   1.444252
     7  N    3.859292   2.576134   2.526900   2.648691   2.417130
     8  C    2.545374   1.496981   1.538019   2.474285   2.660026
     9  H    1.092872   2.136159   2.986867   4.294607   5.373933
    10  H    1.099366   2.155189   2.664072   4.158197   4.774910
    11  H    1.092258   2.142695   3.436230   4.816013   5.546050
    12  H    2.173568   1.075736   2.237520   3.008381   4.040206
    13  H    2.617164   2.176629   1.079092   2.141804   2.940861
    14  H    4.507023   3.452907   2.144448   1.095320   2.181640
    15  H    4.264366   2.856018   2.153152   1.096303   2.187520
    16  H    4.742521   3.790683   2.507772   2.179921   1.100317
    17  H    5.846362   4.604155   3.361859   2.192331   1.092477
    18  H    4.353009   3.266268   3.417943   3.646702   3.184213
    19  H    2.673235   2.203069   2.292322   3.357751   3.255046
                    6          7          8          9         10
     6  O    0.000000
     7  N    1.473058   0.000000
     8  C    2.423002   1.476558   0.000000
     9  H    5.680207   4.692631   3.427200   0.000000
    10  H    4.994836   4.127095   2.671405   1.764270   0.000000
    11  H    5.409822   4.164629   3.021055   1.790087   1.766155
    12  H    3.954707   2.796807   2.235876   2.529780   3.080581
    13  H    3.759995   3.502604   2.335677   2.870340   2.412785
    14  H    3.401260   3.740232   3.431319   4.618477   4.627008
    15  H    2.652698   2.624861   2.834284   4.546665   4.701138
    16  H    2.053138   2.903965   2.740619   5.353619   4.459120
    17  H    2.071618   3.307700   3.740651   6.340509   5.818712
    18  H    1.954946   1.022350   2.088834   5.295840   4.559975
    19  H    2.954022   2.169078   1.082927   3.686045   2.436706
                   11         12         13         14         15
    11  H    0.000000
    12  H    2.539255   0.000000
    13  H    3.651985   3.027120   0.000000
    14  H    5.469811   3.747793   2.318628   0.000000
    15  H    4.986419   2.744647   2.995215   1.776357   0.000000
    16  H    5.510690   4.480697   2.715452   2.621831   3.085724
    17  H    6.611441   4.951121   3.813757   2.463259   2.652227
    18  H    4.444033   3.485643   4.320522   4.729942   3.622808
    19  H    2.991078   3.079788   2.723963   4.223755   3.867501
                   16         17         18         19
    16  H    0.000000
    17  H    1.764720   0.000000
    18  H    3.520458   4.002966   0.000000
    19  H    2.992050   4.328793   2.358785   0.000000
 Stoichiometry    C6H11NO
 Framework group  C1[X(C6H11NO)]
 Deg. of freedom    51
 Full point group                 C1      NOp   1
 Largest Abelian subgroup         C1      NOp   1
 Largest concise Abelian subgroup C1      NOp   1
                         Standard orientation:                         
 ---------------------------------------------------------------------
 Center     Atomic      Atomic             Coordinates (Angstroms)
 Number     Number       Type             X           Y           Z
 ---------------------------------------------------------------------
      1          6           0        2.863862   -0.013441   -0.204118
      2          6           0        1.524497   -0.053250    0.463476
      3          6           0        0.474238    0.840161   -0.140108
      4          6           0       -0.812012    1.323719    0.451294
      5          6           0       -1.895950    0.633956   -0.390292
      6          8           0       -1.998185   -0.771317   -0.073083
      7          7           0       -0.716197   -1.322711    0.398478
      8          6           0        0.411574   -0.686983   -0.311596
      9          1           0        3.445156    0.833870    0.168076
     10          1           0        2.764198    0.113818   -1.291536
     11          1           0        3.408715   -0.944511   -0.033028
     12          1           0        1.565594   -0.169299    1.532145
     13          1           0        0.862026    1.536358   -0.867685
     14          1           0       -0.890028    2.413387    0.372140
     15          1           0       -0.893827    1.048822    1.509414
     16          1           0       -1.652775    0.701430   -1.461277
     17          1           0       -2.875953    1.096583   -0.252177
     18          1           0       -0.815734   -2.311063    0.156707
     19          1           0        0.684243   -1.154861   -1.249398
 ---------------------------------------------------------------------
 Rotational constants (GHZ):           4.3800982           1.5620582           1.2804732
 Standard basis: 6-31G(2df,p) (6D, 7F)
 There are   303 symmetry adapted cartesian basis functions of A   symmetry.
 There are   279 symmetry adapted basis functions of A   symmetry.
   279 basis functions,   429 primitive gaussians,   303 cartesian basis functions
    31 alpha electrons       31 beta electrons
       nuclear repulsion energy       398.5978843751 Hartrees.
 NAtoms=   19 NActive=   19 NUniq=   19 SFac= 1.00D+00 NAtFMM=   60 NAOKFM=F Big=F
 Integral buffers will be    131072 words long.
 Raffenetti 2 integral format.
 Two-electron integral symmetry is turned on.
 One-electron integrals computed using PRISM.
 PrsmSu:  requested number of processors reduced to:  13 ShMem   1 Linda.
 NBasis=   279 RedAO= T EigKep=  3.69D-04  NBF=   279
 NBsUse=   279 1.00D-06 EigRej= -1.00D+00 NBFU=   279
 ExpMin= 1.61D-01 ExpMax= 5.48D+03 ExpMxC= 8.25D+02 IAcc=3 IRadAn=         5 AccDes= 0.00D+00
 Harris functional with IExCor=  402 and IRadAn=       5 diagonalized for initial guess.
 HarFok:  IExCor=  402 AccDes= 0.00D+00 IRadAn=         5 IDoV= 1 UseB2=F ITyADJ=14
 ICtDFT=  3500011 ScaDFX=  1.000000  1.000000  1.000000  1.000000
 FoFCou: FMM=F IPFlag=           0 FMFlag=      100000 FMFlg1=           0
         NFxFlg=           0 DoJE=T BraDBF=F KetDBF=T FulRan=T
         wScrn=  0.000000 ICntrl=       500 IOpCl=  0 I1Cent=   200000004 NGrid=           0
         NMat0=    1 NMatS0=      1 NMatT0=    0 NMatD0=    1 NMtDS0=    0 NMtDT0=    0
 Petite list used in FoFCou.
 Requested convergence on RMS density matrix=1.00D-08 within 128 cycles.
 Requested convergence on MAX density matrix=1.00D-06.
 Requested convergence on             energy=1.00D-06.
 No special actions if energy rises.
 Integral accuracy reduced to 1.0D-05 until final iterations.
 Initial convergence to 1.0D-05 achieved.  Increase integral accuracy.
 SCF Done:  E(RB3LYP) =  -365.143449616     A.U. after   12 cycles
            NFock= 12  Conv=0.83D-08     -V/T= 2.0078

 **********************************************************************

            Population analysis using the SCF density.

 **********************************************************************

 Orbital symmetries:
       Occupied  (A) (A) (A) (A) (A) (A) (A) (A) (A) (A) (A) (A)
                 (A) (A) (A) (A) (A) (A) (A) (A) (A) (A) (A) (A)
                 (A) (A) (A) (A) (A) (A) (A)
       Virtual   (A) (A) (A) (A) (A) (A) (A) (A) (A) (A) (A) (A)
                 (A) (A) (A) (A) (A) (A) (A) (A) (A) (A) (A) (A)
                 (A) (A) (A) (A) (A) (A) (A) (A) (A) (A) (A) (A)
                 (A) (A) (A) (A) (A) (A) (A) (A) (A) (A) (A) (A)
                 (A) (A) (A) (A) (A) (A) (A) (A) (A) (A) (A) (A)
                 (A) (A) (A) (A) (A) (A) (A) (A) (A) (A) (A) (A)
                 (A) (A) (A) (A) (A) (A) (A) (A) (A) (A) (A) (A)
                 (A) (A) (A) (A) (A) (A) (A) (A) (A) (A) (A) (A)
                 (A) (A) (A) (A) (A) (A) (A) (A) (A) (A) (A) (A)
                 (A) (A) (A) (A) (A) (A) (A) (A) (A) (A) (A) (A)
                 (A) (A) (A) (A) (A) (A) (A) (A) (A) (A) (A) (A)
                 (A) (A) (A) (A) (A) (A) (A) (A) (A) (A) (A) (A)
                 (A) (A) (A) (A) (A) (A) (A) (A) (A) (A) (A) (A)
                 (A) (A) (A) (A) (A) (A) (A) (A) (A) (A) (A) (A)
                 (A) (A) (A) (A) (A) (A) (A) (A) (A) (A) (A) (A)
                 (A) (A) (A) (A) (A) (A) (A) (A) (A) (A) (A) (A)
                 (A) (A) (A) (A) (A) (A) (A) (A) (A) (A) (A) (A)
                 (A) (A) (A) (A) (A) (A) (A) (A) (A) (A) (A) (A)
                 (A) (A) (A) (A) (A) (A) (A) (A) (A) (A) (A) (A)
                 (A) (A) (A) (A) (A) (A) (A) (A) (A) (A) (A) (A)
                 (A) (A) (A) (A) (A) (A) (A) (A)
 The electronic state is 1-A.
 Alpha  occ. eigenvalues --  -19.14425 -14.35927 -10.22252 -10.21204 -10.19023
 Alpha  occ. eigenvalues --  -10.18844 -10.18248 -10.17929  -1.03231  -0.87918
 Alpha  occ. eigenvalues --   -0.81438  -0.75078  -0.68626  -0.63697  -0.56880
 Alpha  occ. eigenvalues --   -0.55093  -0.51160  -0.47938  -0.46579  -0.43460
 Alpha  occ. eigenvalues --   -0.41909  -0.41432  -0.40410  -0.37756  -0.37098
 Alpha  occ. eigenvalues --   -0.34706  -0.32848  -0.31621  -0.27109  -0.26671
 Alpha  occ. eigenvalues --   -0.19403
 Alpha virt. eigenvalues --    0.07472   0.07893   0.10953   0.12660   0.12833
 Alpha virt. eigenvalues --    0.13358   0.14437   0.14951   0.16860   0.17374
 Alpha virt. eigenvalues --    0.17940   0.18810   0.19175   0.19956   0.21560
 Alpha virt. eigenvalues --    0.24374   0.27250   0.28150   0.30509   0.32910
 Alpha virt. eigenvalues --    0.42037   0.44738   0.46215   0.47078   0.49167
 Alpha virt. eigenvalues --    0.50602   0.52544   0.53368   0.54583   0.55731
 Alpha virt. eigenvalues --    0.57116   0.58579   0.61004   0.61343   0.63959
 Alpha virt. eigenvalues --    0.65176   0.66068   0.69154   0.70763   0.72030
 Alpha virt. eigenvalues --    0.73439   0.74460   0.75694   0.75881   0.77790
 Alpha virt. eigenvalues --    0.78303   0.78893   0.80072   0.83126   0.84763
 Alpha virt. eigenvalues --    0.85422   0.87070   0.87190   0.91269   0.92718
 Alpha virt. eigenvalues --    0.96468   1.00566   1.01979   1.06253   1.08668
 Alpha virt. eigenvalues --    1.09575   1.11648   1.14003   1.16125   1.19415
 Alpha virt. eigenvalues --    1.22580   1.25209   1.28788   1.30712   1.32335
 Alpha virt. eigenvalues --    1.36079   1.36265   1.38831   1.39676   1.42368
 Alpha virt. eigenvalues --    1.45319   1.46306   1.49384   1.51127   1.53247
 Alpha virt. eigenvalues --    1.54931   1.56974   1.58046   1.59901   1.63271
 Alpha virt. eigenvalues --    1.66600   1.68118   1.69626   1.74243   1.75877
 Alpha virt. eigenvalues --    1.79125   1.80561   1.82349   1.83688   1.86892
 Alpha virt. eigenvalues --    1.90435   1.94549   1.96165   1.96551   2.00703
 Alpha virt. eigenvalues --    2.05844   2.09538   2.13168   2.13567   2.23344
 Alpha virt. eigenvalues --    2.24373   2.28409   2.30087   2.34170   2.37755
 Alpha virt. eigenvalues --    2.39075   2.43172   2.45388   2.49991   2.55044
 Alpha virt. eigenvalues --    2.56310   2.58023   2.62832   2.65939   2.68574
 Alpha virt. eigenvalues --    2.70541   2.73583   2.75946   2.77261   2.79464
 Alpha virt. eigenvalues --    2.81743   2.84082   2.87321   2.89339   2.90982
 Alpha virt. eigenvalues --    2.93623   2.94430   2.97543   2.98066   3.01047
 Alpha virt. eigenvalues --    3.03960   3.06334   3.09036   3.12624   3.15646
 Alpha virt. eigenvalues --    3.16689   3.20603   3.23756   3.24556   3.28142
 Alpha virt. eigenvalues --    3.29176   3.30561   3.30856   3.32495   3.35570
 Alpha virt. eigenvalues --    3.38882   3.40026   3.42715   3.48733   3.49010
 Alpha virt. eigenvalues --    3.54119   3.56328   3.60392   3.61196   3.64975
 Alpha virt. eigenvalues --    3.66542   3.68920   3.71461   3.71800   3.74005
 Alpha virt. eigenvalues --    3.77905   3.82304   3.83178   3.86909   3.94542
 Alpha virt. eigenvalues --    3.96176   4.02491   4.05175   4.07726   4.13749
 Alpha virt. eigenvalues --    4.20045   4.22068   4.23337   4.25832   4.28174
 Alpha virt. eigenvalues --    4.29466   4.33714   4.36319   4.38435   4.40819
 Alpha virt. eigenvalues --    4.42332   4.44617   4.47767   4.48474   4.50963
 Alpha virt. eigenvalues --    4.52720   4.57202   4.57741   4.58070   4.60670
 Alpha virt. eigenvalues --    4.61645   4.65498   4.67347   4.68193   4.70456
 Alpha virt. eigenvalues --    4.71665   4.72168   4.74109   4.75316   4.79654
 Alpha virt. eigenvalues --    4.81956   4.83844   4.84227   4.87526   4.88619
 Alpha virt. eigenvalues --    4.90154   4.91055   4.93379   4.96210   4.99326
 Alpha virt. eigenvalues --    5.03712   5.09709   5.11552   5.21315   5.24086
 Alpha virt. eigenvalues --    5.29531   5.34226   5.39304   5.41648   5.42797
 Alpha virt. eigenvalues --    5.44764   5.54115   5.57792   5.62206   5.66143
 Alpha virt. eigenvalues --    5.68766   5.74374   5.83789   5.94981   5.98206
 Alpha virt. eigenvalues --    6.17099   6.24659   6.35377   7.03062  10.71270
 Alpha virt. eigenvalues --   11.22888  11.39843  11.63570  11.73686  12.16581
 Alpha virt. eigenvalues --   12.35002  12.96669  13.67079
          Condensed to atoms (all electrons):
               1          2          3          4          5          6
     1  C    5.010726   0.372869  -0.014573   0.003513  -0.000106  -0.000048
     2  C    0.372869   4.785310   0.385152  -0.014783   0.002927   0.002727
     3  C   -0.014573   0.385152   4.718460   0.399557  -0.021595  -0.006600
     4  C    0.003513  -0.014783   0.399557   4.989155   0.357804  -0.042213
     5  C   -0.000106   0.002927  -0.021595   0.357804   4.735655   0.377085
     6  O   -0.000048   0.002727  -0.006600  -0.042213   0.377085   7.871439
     7  N    0.001673  -0.022335  -0.006810  -0.005056  -0.071693   0.218600
     8  C   -0.011156   0.319321   0.288561  -0.014944  -0.026832  -0.049022
     9  H    0.369924  -0.022321  -0.003905   0.000027  -0.000003   0.000001
    10  H    0.367046  -0.021259  -0.005377   0.000017  -0.000012  -0.000001
    11  H    0.371808  -0.025147   0.002615  -0.000103   0.000004   0.000000
    12  H   -0.051841   0.373883  -0.029892  -0.006535   0.000029  -0.000031
    13  H   -0.012339  -0.042225   0.384581  -0.055765  -0.000656   0.000191
    14  H   -0.000108   0.002033  -0.025117   0.353729  -0.027259   0.001979
    15  H    0.000031  -0.009013  -0.021259   0.354814  -0.022494  -0.002830
    16  H   -0.000040  -0.000335  -0.003595  -0.054729   0.366702  -0.038514
    17  H    0.000002  -0.000137   0.003316  -0.021148   0.359931  -0.021097
    18  H   -0.000277   0.003637   0.005371  -0.000819   0.005123  -0.024903
    19  H   -0.001370  -0.053167  -0.046945   0.005775   0.000595   0.003552
               7          8          9         10         11         12
     1  C    0.001673  -0.011156   0.369924   0.367046   0.371808  -0.051841
     2  C   -0.022335   0.319321  -0.022321  -0.021259  -0.025147   0.373883
     3  C   -0.006810   0.288561  -0.003905  -0.005377   0.002615  -0.029892
     4  C   -0.005056  -0.014944   0.000027   0.000017  -0.000103  -0.006535
     5  C   -0.071693  -0.026832  -0.000003  -0.000012   0.000004   0.000029
     6  O    0.218600  -0.049022   0.000001  -0.000001   0.000000  -0.000031
     7  N    6.478002   0.353610  -0.000040   0.000102  -0.000026   0.002390
     8  C    0.353610   4.865806   0.002914  -0.007059  -0.003386  -0.034371
     9  H   -0.000040   0.002914   0.598182  -0.032419  -0.031508  -0.001640
    10  H    0.000102  -0.007059  -0.032419   0.603704  -0.031947   0.006003
    11  H   -0.000026  -0.003386  -0.031508  -0.031947   0.599165  -0.001303
    12  H    0.002390  -0.034371  -0.001640   0.006003  -0.001303   0.645023
    13  H    0.001344  -0.029879   0.002653   0.003879  -0.000099   0.003976
    14  H    0.000274   0.005126  -0.000017   0.000011   0.000001   0.000214
    15  H    0.004502  -0.004060   0.000010   0.000015  -0.000003   0.003386
    16  H    0.002174   0.003285  -0.000001   0.000000  -0.000000   0.000007
    17  H    0.003373   0.000705   0.000000   0.000000  -0.000000   0.000009
    18  H    0.339207  -0.052824   0.000001   0.000009  -0.000019   0.000210
    19  H   -0.054058   0.389366  -0.000135   0.003036   0.002307   0.003436
              13         14         15         16         17         18
     1  C   -0.012339  -0.000108   0.000031  -0.000040   0.000002  -0.000277
     2  C   -0.042225   0.002033  -0.009013  -0.000335  -0.000137   0.003637
     3  C    0.384581  -0.025117  -0.021259  -0.003595   0.003316   0.005371
     4  C   -0.055765   0.353729   0.354814  -0.054729  -0.021148  -0.000819
     5  C   -0.000656  -0.027259  -0.022494   0.366702   0.359931   0.005123
     6  O    0.000191   0.001979  -0.002830  -0.038514  -0.021097  -0.024903
     7  N    0.001344   0.000274   0.004502   0.002174   0.003373   0.339207
     8  C   -0.029879   0.005126  -0.004060   0.003285   0.000705  -0.052824
     9  H    0.002653  -0.000017   0.000010  -0.000001   0.000000   0.000001
    10  H    0.003879   0.000011   0.000015   0.000000   0.000000   0.000009
    11  H   -0.000099   0.000001  -0.000003  -0.000000  -0.000000  -0.000019
    12  H    0.003976   0.000214   0.003386   0.000007   0.000009   0.000210
    13  H    0.665669  -0.010238   0.006435   0.003389  -0.000151  -0.000018
    14  H   -0.010238   0.641252  -0.035086   0.001023  -0.002012  -0.000014
    15  H    0.006435  -0.035086   0.596555   0.005724  -0.001419   0.000046
    16  H    0.003389   0.001023   0.005724   0.679611  -0.053235   0.000125
    17  H   -0.000151  -0.002012  -0.001419  -0.053235   0.627333  -0.000113
    18  H   -0.000018  -0.000014   0.000046   0.000125  -0.000113   0.487871
    19  H   -0.007073  -0.000050  -0.000192  -0.001766  -0.000002  -0.009613
              19
     1  C   -0.001370
     2  C   -0.053167
     3  C   -0.046945
     4  C    0.005775
     5  C    0.000595
     6  O    0.003552
     7  N   -0.054058
     8  C    0.389366
     9  H   -0.000135
    10  H    0.003036
    11  H    0.002307
    12  H    0.003436
    13  H   -0.007073
    14  H   -0.000050
    15  H   -0.000192
    16  H   -0.001766
    17  H   -0.000002
    18  H   -0.009613
    19  H    0.691730
 Mulliken charges:
               1
     1  C   -0.405736
     2  C   -0.037136
     3  C   -0.001943
     4  C   -0.248296
     5  C   -0.035204
     6  O   -0.290317
     7  N   -0.245233
     8  C    0.004841
     9  H    0.118277
    10  H    0.114251
    11  H    0.117641
    12  H    0.087044
    13  H    0.086328
    14  H    0.094255
    15  H    0.124837
    16  H    0.090175
    17  H    0.104643
    18  H    0.247000
    19  H    0.074572
 Sum of Mulliken charges =  -0.00000
 Mulliken charges with hydrogens summed into heavy atoms:
               1
     1  C   -0.055566
     2  C    0.049908
     3  C    0.084384
     4  C   -0.029203
     5  C    0.159613
     6  O   -0.290317
     7  N    0.001767
     8  C    0.079412
 Electronic spatial extent (au):  <R**2>=            991.8193
 Charge=             -0.0000 electrons
 Dipole moment (field-independent basis, Debye):
    X=              1.4601    Y=              0.7741    Z=             -0.8713  Tot=              1.8683
 Quadrupole moment (field-independent basis, Debye-Ang):
   XX=            -50.9189   YY=            -44.9770   ZZ=            -49.5552
   XY=             -2.8184   XZ=              0.7012   YZ=              0.7590
 Traceless Quadrupole moment (field-independent basis, Debye-Ang):
   XX=             -2.4352   YY=              3.5067   ZZ=             -1.0715
   XY=             -2.8184   XZ=              0.7012   YZ=              0.7590
 Octapole moment (field-independent basis, Debye-Ang**2):
  XXX=             -3.8249  YYY=            -14.8822  ZZZ=             -0.1580  XYY=             -5.3271
  XXY=              5.7877  XXZ=              0.0767  XZZ=             -1.2943  YZZ=             -0.1211
  YYZ=             -1.8767  XYZ=             -0.4129
 Hexadecapole moment (field-independent basis, Debye-Ang**3):
 XXXX=           -882.7956 YYYY=           -265.1284 ZZZZ=           -122.6360 XXXY=            -12.2783
 XXXZ=              6.8933 YYYX=             15.6748 YYYZ=             -1.3717 ZZZX=              1.4036
 ZZZY=              2.2007 XXYY=           -192.3089 XXZZ=           -166.6147 YYZZ=            -74.9371
 XXYZ=             -1.3518 YYXZ=             -0.3269 ZZXY=              1.0009
 N-N= 3.985978843751D+02 E-N=-1.647047567637D+03  KE= 3.623285716295D+02
 PrsmSu:  requested number of processors reduced to:  13 ShMem   1 Linda.
 Calling FoFJK, ICntrl=      2127 FMM=F ISym2X=0 I1Cent= 0 IOpClX= 0 NMat=1 NMatS=1 NMatT=0.
 ***** Axes restored to original set *****
 -------------------------------------------------------------------
 Center     Atomic                   Forces (Hartrees/Bohr)
 Number     Number              X              Y              Z
 -------------------------------------------------------------------
      1        6          -0.006855794   -0.000920677   -0.003821013
      2        6           0.011346052   -0.006116765    0.006187546
      3        6          -0.004760851    0.012134507    0.006398583
      4        6           0.005775631   -0.004130378    0.005508252
      5        6           0.001833163    0.011648228    0.004800979
      6        8           0.005394747   -0.008561699   -0.005022453
      7        7          -0.012750384   -0.022430428    0.006909480
      8        6           0.001951158    0.014802855   -0.010389388
      9        1          -0.003376678    0.000813399    0.001996073
     10        1           0.000792510    0.000405071    0.002204110
     11        1          -0.003057418   -0.000062584    0.002151198
     12        1           0.006593705    0.003898791    0.006028231
     13        1          -0.005286286    0.007937613   -0.014452543
     14        1           0.001906353    0.000801417   -0.000127306
     15        1           0.004287454   -0.000858438   -0.003800384
     16        1          -0.001498362   -0.006994287    0.001243008
     17        1           0.005437779    0.006733844    0.002545086
     18        1          -0.003598382   -0.008199650   -0.003217113
     19        1          -0.004134396   -0.000900818   -0.005142346
 -------------------------------------------------------------------
 Cartesian Forces:  Max     0.022430428 RMS     0.006792520

 GradGradGradGradGradGradGradGradGradGradGradGradGradGradGradGradGradGrad
 Berny optimization.
 FormGI is forming the generalized inverse of G from B-inverse, IUseBI=4.
 Internal  Forces:  Max     0.018129277 RMS     0.005607916
 Search for a local minimum.
 Step number   1 out of a maximum of  114
 All quantities printed in internal units (Hartrees-Bohrs-Radians)
 Mixed Optimization -- RFO/linear search
 Second derivative matrix not updated -- first step.
 ITU=  0
     Eigenvalues ---    0.00771   0.00805   0.01090   0.01444   0.02031
     Eigenvalues ---    0.02243   0.02379   0.03311   0.03932   0.04338
     Eigenvalues ---    0.04804   0.05321   0.05829   0.05902   0.05984
     Eigenvalues ---    0.07076   0.07618   0.07888   0.09174   0.09816
     Eigenvalues ---    0.10676   0.11664   0.12624   0.12753   0.13763
     Eigenvalues ---    0.15365   0.16000   0.16000   0.16000   0.19402
     Eigenvalues ---    0.20099   0.23166   0.24765   0.27611   0.30906
     Eigenvalues ---    0.31186   0.32689   0.33589   0.33647   0.33752
     Eigenvalues ---    0.34094   0.34205   0.34279   0.34483   0.34528
     Eigenvalues ---    0.34553   0.35643   0.36104   0.36514   0.37637
     Eigenvalues ---    0.43965
 RFO step:  Lambda=-1.90575572D-02 EMin= 7.71459636D-03
 Linear search not attempted -- first point.
 Iteration  1 RMS(Cart)=  0.08538675 RMS(Int)=  0.00325152
 Iteration  2 RMS(Cart)=  0.00463441 RMS(Int)=  0.00079927
 Iteration  3 RMS(Cart)=  0.00001001 RMS(Int)=  0.00079924
 Iteration  4 RMS(Cart)=  0.00000001 RMS(Int)=  0.00079924
 Variable       Old X    -DE/DX   Delta X   Delta X   Delta X     New X
                                 (Linear)    (Quad)   (Total)
    R1        2.82902   0.01218   0.00000   0.03521   0.03521   2.86422
    R2        2.06523   0.00165   0.00000   0.00453   0.00453   2.06975
    R3        2.07750  -0.00237   0.00000  -0.00663  -0.00663   2.07087
    R4        2.06407   0.00190   0.00000   0.00522   0.00522   2.06929
    R5        2.84436   0.00438   0.00000   0.01025   0.00815   2.85251
    R6        2.82888   0.00207   0.00000   0.01645   0.01960   2.84849
    R7        2.03285   0.00814   0.00000   0.02119   0.02119   2.05404
    R8        2.82704   0.01813   0.00000   0.05847   0.05728   2.88432
    R9        2.90643  -0.00887   0.00000  -0.04105  -0.04261   2.86382
   R10        2.03919   0.00545   0.00000   0.01435   0.01435   2.05353
   R11        2.90241  -0.00299   0.00000  -0.00609  -0.00656   2.89585
   R12        2.06986  -0.00072   0.00000  -0.00200  -0.00200   2.06786
   R13        2.07171  -0.00176   0.00000  -0.00489  -0.00489   2.06682
   R14        2.72924  -0.01706   0.00000  -0.03761  -0.03716   2.69208
   R15        2.07930   0.00010   0.00000   0.00029   0.00029   2.07959
   R16        2.06448   0.00137   0.00000   0.00377   0.00377   2.06825
   R17        2.78368   0.00216   0.00000   0.00340   0.00451   2.78818
   R18        2.79029  -0.01690   0.00000  -0.05393  -0.05320   2.73709
   R19        1.93196  -0.00724   0.00000  -0.01578  -0.01578   1.91618
   R20        2.04644   0.00549   0.00000   0.01463   0.01463   2.06107
    A1        1.92263   0.00326   0.00000   0.01724   0.01721   1.93983
    A2        1.94235  -0.00090   0.00000  -0.00217  -0.00220   1.94015
    A3        1.93240   0.00240   0.00000   0.01152   0.01151   1.94391
    A4        1.87060  -0.00059   0.00000   0.00044   0.00040   1.87100
    A5        1.92008  -0.00396   0.00000  -0.02750  -0.02752   1.89256
    A6        1.87427  -0.00049   0.00000  -0.00091  -0.00092   1.87335
    A7        2.01491   0.00474   0.00000   0.02378   0.02436   2.03927
    A8        2.03254  -0.00158   0.00000   0.00173   0.00285   2.03538
    A9        1.99511  -0.00161   0.00000   0.00468   0.00435   1.99947
   A10        2.08181  -0.00091   0.00000  -0.00697  -0.00772   2.07409
   A11        2.09104   0.00357   0.00000  -0.01090  -0.01149   2.07954
   A12        2.25656  -0.01356   0.00000  -0.06563  -0.06628   2.19028
   A13        1.98512   0.00530   0.00000   0.03885   0.04055   2.02567
   A14        1.90710  -0.00096   0.00000   0.02451   0.02566   1.93276
   A15        1.94656   0.00802   0.00000   0.03858   0.03839   1.98495
   A16        2.18961  -0.00734   0.00000  -0.09691  -0.09696   2.09265
   A17        1.81833   0.00506   0.00000   0.02648   0.02508   1.84341
   A18        1.93289   0.00307   0.00000   0.02880   0.02982   1.96271
   A19        1.94407  -0.00205   0.00000   0.00504   0.00529   1.94936
   A20        1.93576  -0.00345   0.00000  -0.02077  -0.02085   1.91491
   A21        1.94291  -0.00303   0.00000  -0.03000  -0.03014   1.91277
   A22        1.89008   0.00043   0.00000  -0.00854  -0.00959   1.88049
   A23        1.94613  -0.00184   0.00000   0.00459   0.00357   1.94970
   A24        1.92818  -0.00457   0.00000  -0.03998  -0.03914   1.88905
   A25        1.95372   0.00433   0.00000   0.03007   0.02993   1.98365
   A26        1.86407   0.00444   0.00000   0.03718   0.03722   1.90129
   A27        1.89734  -0.00345   0.00000  -0.04538  -0.04441   1.85293
   A28        1.87060   0.00121   0.00000   0.01404   0.01438   1.88499
   A29        1.95295  -0.00655   0.00000  -0.01229  -0.01194   1.94102
   A30        1.92795   0.01763   0.00000   0.06425   0.06433   1.99227
   A31        1.77362  -0.00477   0.00000  -0.02811  -0.02664   1.74698
   A32        1.95721  -0.01114   0.00000  -0.06622  -0.06571   1.89149
   A33        2.09568  -0.01556   0.00000  -0.07320  -0.07247   2.02321
   A34        2.03095   0.00834   0.00000   0.03926   0.03910   2.07004
   A35        1.98778  -0.01006   0.00000  -0.04542  -0.04616   1.94162
   A36        2.11215   0.00307   0.00000  -0.00739  -0.00716   2.10498
   A37        2.00727   0.00716   0.00000   0.04700   0.04717   2.05444
    D1        1.45190   0.00314   0.00000   0.02355   0.02382   1.47572
    D2        2.66416  -0.00150   0.00000   0.00640   0.00623   2.67039
    D3       -1.06180   0.00035   0.00000  -0.00446  -0.00454  -1.06634
    D4       -0.62034   0.00234   0.00000   0.01324   0.01350  -0.60684
    D5        0.59192  -0.00231   0.00000  -0.00390  -0.00409   0.58783
    D6       -3.13403  -0.00046   0.00000  -0.01477  -0.01487   3.13429
    D7       -2.70354   0.00195   0.00000   0.00820   0.00847  -2.69506
    D8       -1.49128  -0.00269   0.00000  -0.00894  -0.00912  -1.50040
    D9        1.06596  -0.00084   0.00000  -0.01981  -0.01990   1.04606
   D10       -2.82827   0.00275   0.00000   0.06961   0.06841  -2.75987
   D11       -0.18610   0.00525   0.00000   0.11436   0.11446  -0.07164
   D12       -0.34750   0.00558   0.00000   0.10429   0.10330  -0.24420
   D13        2.29467   0.00808   0.00000   0.14905   0.14935   2.44402
   D14        2.65819  -0.00093   0.00000  -0.00246  -0.00184   2.65634
   D15        0.10428  -0.00352   0.00000  -0.04268  -0.04225   0.06203
   D16        0.13459  -0.00094   0.00000   0.00328   0.00361   0.13820
   D17       -2.41932  -0.00353   0.00000  -0.03694  -0.03680  -2.45611
   D18       -1.96827  -0.00034   0.00000  -0.02498  -0.02292  -1.99118
   D19        2.23273  -0.00072   0.00000  -0.03017  -0.02888   2.20385
   D20        0.12811  -0.00198   0.00000  -0.04228  -0.04107   0.08705
   D21       -0.83152   0.00119   0.00000   0.00951   0.00932  -0.82220
   D22       -2.91371   0.00081   0.00000   0.00432   0.00336  -2.91035
   D23        1.26486  -0.00045   0.00000  -0.00779  -0.00883   1.25602
   D24        1.66406  -0.00234   0.00000  -0.06981  -0.06939   1.59468
   D25       -0.41812  -0.00273   0.00000  -0.07500  -0.07535  -0.49347
   D26       -2.52274  -0.00398   0.00000  -0.08711  -0.08754  -2.61028
   D27       -0.22530   0.00228   0.00000   0.02486   0.02643  -0.19887
   D28        2.28259   0.00480   0.00000   0.03158   0.03293   2.31553
   D29       -2.60888  -0.00123   0.00000   0.04472   0.04389  -2.56499
   D30       -0.10099   0.00130   0.00000   0.05144   0.05040  -0.05059
   D31        1.28230  -0.00360   0.00000  -0.07667  -0.07763   1.20467
   D32       -0.78780  -0.00499   0.00000  -0.10004  -0.10068  -0.88848
   D33       -2.87102  -0.00628   0.00000  -0.11056  -0.11132  -2.98234
   D34       -2.92065   0.00123   0.00000  -0.03773  -0.03847  -2.95912
   D35        1.29244  -0.00016   0.00000  -0.06109  -0.06152   1.23092
   D36       -0.79078  -0.00146   0.00000  -0.07161  -0.07216  -0.86294
   D37       -0.81486  -0.00261   0.00000  -0.08295  -0.08280  -0.89766
   D38       -2.88497  -0.00400   0.00000  -0.10631  -0.10585  -2.99082
   D39        1.31500  -0.00530   0.00000  -0.11684  -0.11649   1.19851
   D40       -0.49850   0.00016   0.00000   0.06555   0.06442  -0.43408
   D41        1.60953  -0.00368   0.00000   0.04302   0.04232   1.65185
   D42       -2.66058  -0.00168   0.00000   0.05620   0.05523  -2.60536
   D43       -0.61707  -0.00707   0.00000  -0.06792  -0.06875  -0.68582
   D44       -2.69698   0.00056   0.00000  -0.00466  -0.00491  -2.70190
   D45        2.20300  -0.00165   0.00000  -0.02268  -0.02169   2.18131
   D46        1.02849   0.00272   0.00000   0.00363   0.00341   1.03190
   D47       -1.51876   0.00141   0.00000   0.01527   0.01625  -1.50251
   D48       -2.11533  -0.00336   0.00000  -0.05672  -0.05676  -2.17209
   D49        2.99335   0.00101   0.00000  -0.03041  -0.03166   2.96169
   D50        0.44610  -0.00030   0.00000  -0.01877  -0.01882   0.42728
         Item               Value     Threshold  Converged?
 Maximum Force            0.018129     0.000450     NO 
 RMS     Force            0.005608     0.000300     NO 
 Maximum Displacement     0.329398     0.001800     NO 
 RMS     Displacement     0.084954     0.001200     NO 
 Predicted change in Energy=-1.175006D-02
 GradGradGradGradGradGradGradGradGradGradGradGradGradGradGradGradGradGrad

                          Input orientation:                          
 ---------------------------------------------------------------------
 Center     Atomic      Atomic             Coordinates (Angstroms)
 Number     Number       Type             X           Y           Z
 ---------------------------------------------------------------------
      1          6           0        0.947043    0.129568    0.230336
      2          6           0        2.461544    0.133019    0.290085
      3          6           0        3.185526   -0.721433   -0.721996
      4          6           0        4.611374   -1.247180   -0.579905
      5          6           0        5.419765   -0.549713   -1.679155
      6          8           0        5.570711    0.842803   -1.419219
      7          7           0        4.483047    1.346212   -0.558697
      8          6           0        3.181374    0.787624   -0.861197
      9          1           0        0.531672   -0.718072    0.785835
     10          1           0        0.592070    0.045067   -0.802986
     11          1           0        0.529144    1.053149    0.644380
     12          1           0        2.873977    0.222118    1.291795
     13          1           0        2.558804   -1.327033   -1.371110
     14          1           0        4.671651   -2.332092   -0.709315
     15          1           0        5.036265   -1.004037    0.398132
     16          1           0        4.886860   -0.679194   -2.633241
     17          1           0        6.431773   -0.948551   -1.800148
     18          1           0        4.481671    2.323894   -0.827650
     19          1           0        2.590038    1.271891   -1.639252
 ---------------------------------------------------------------------
                    Distance matrix (angstroms):
                    1          2          3          4          5
     1  C    0.000000
     2  C    1.515682   0.000000
     3  C    2.577197   1.509485   0.000000
     4  C    3.997405   2.698815   1.526317   0.000000
     5  C    4.910480   3.618716   2.436691   1.532419   0.000000
     6  O    4.960649   3.618347   2.936334   2.448021   1.424589
     7  N    3.821795   2.505743   2.446504   2.596653   2.393199
     8  C    2.572298   1.507354   1.515469   2.502889   2.732749
     9  H    1.095266   2.166687   3.052296   4.334648   5.477041
    10  H    1.095856   2.167365   2.705568   4.227821   4.942476
    11  H    1.095023   2.169409   3.474550   4.843036   5.646783
    12  H    2.201893   1.086951   2.245597   2.946293   3.987895
    13  H    2.698904   2.213770   1.086684   2.201233   2.980640
    14  H    4.562392   3.458345   2.191564   1.094264   2.162670
    15  H    4.246758   2.816693   2.181694   1.093713   2.160696
    16  H    4.937238   3.884286   2.559136   2.148183   1.100469
    17  H    5.947055   4.615364   3.428135   2.211793   1.094473
    18  H    4.292784   3.182794   3.311369   3.582007   3.140494
    19  H    2.738556   2.244077   2.273610   3.399079   3.365589
                    6          7          8          9         10
     6  O    0.000000
     7  N    1.475442   0.000000
     8  C    2.454254   1.448406   0.000000
     9  H    5.717562   4.656437   3.464212   0.000000
    10  H    5.079664   4.110031   2.694304   1.763628   0.000000
    11  H    5.451613   4.143264   3.061306   1.776863   1.764953
    12  H    3.873915   2.697595   2.247146   2.574169   3.102669
    13  H    3.712424   3.392487   2.262604   3.022004   2.464440
    14  H    3.375239   3.686215   3.460726   4.688280   4.722567
    15  H    2.645604   2.597161   2.869945   4.530281   4.721670
    16  H    2.063486   2.927296   2.863629   5.537080   4.724363
    17  H    2.023731   3.256482   3.802766   6.446055   6.006974
    18  H    1.931215   1.014001   2.012963   5.240171   4.508065
    19  H    3.019428   2.180965   1.090671   3.752049   2.489239
                   11         12         13         14         15
    11  H    0.000000
    12  H    2.570604   0.000000
    13  H    3.721154   3.096815   0.000000
    14  H    5.518398   3.709456   2.431510   0.000000
    15  H    4.960524   2.641510   3.061431   1.767233   0.000000
    16  H    5.721320   4.502217   2.726264   2.545561   3.052387
    17  H    6.695040   4.856798   3.914999   2.490408   2.604411
    18  H    4.405013   3.390308   4.161974   4.661363   3.589602
    19  H    3.083846   3.126289   2.612906   4.264574   3.913414
                   16         17         18         19
    16  H    0.000000
    17  H    1.775769   0.000000
    18  H    3.527445   3.931609   0.000000
    19  H    3.173348   4.440178   2.311641   0.000000
 Stoichiometry    C6H11NO
 Framework group  C1[X(C6H11NO)]
 Deg. of freedom    51
 Full point group                 C1      NOp   1
 Largest Abelian subgroup         C1      NOp   1
 Largest concise Abelian subgroup C1      NOp   1
                         Standard orientation:                         
 ---------------------------------------------------------------------
 Center     Atomic      Atomic             Coordinates (Angstroms)
 Number     Number       Type             X           Y           Z
 ---------------------------------------------------------------------
      1          6           0        2.903858    0.015692   -0.137094
      2          6           0        1.510211   -0.017849    0.457814
      3          6           0        0.455918    0.816431   -0.228474
      4          6           0       -0.836541    1.314198    0.412948
      5          6           0       -1.968623    0.594730   -0.328040
      6          8           0       -1.988336   -0.799117   -0.034348
      7          7           0       -0.655462   -1.275943    0.381599
      8          6           0        0.441464   -0.692966   -0.363230
      9          1           0        3.472114    0.874481    0.235968
     10          1           0        2.865988    0.101740   -1.228910
     11          1           0        3.460762   -0.897069    0.099128
     12          1           0        1.483240   -0.109817    1.540531
     13          1           0        0.797908    1.430991   -1.056870
     14          1           0       -0.961354    2.396968    0.315766
     15          1           0       -0.880390    1.067841    1.477651
     16          1           0       -1.812982    0.729747   -1.409048
     17          1           0       -2.965445    0.972508   -0.080044
     18          1           0       -0.729678   -2.254834    0.127702
     19          1           0        0.727042   -1.169442   -1.301834
 ---------------------------------------------------------------------
 Rotational constants (GHZ):           4.5283218           1.5352163           1.2701932
 Standard basis: 6-31G(2df,p) (6D, 7F)
 There are   303 symmetry adapted cartesian basis functions of A   symmetry.
 There are   279 symmetry adapted basis functions of A   symmetry.
   279 basis functions,   429 primitive gaussians,   303 cartesian basis functions
    31 alpha electrons       31 beta electrons
       nuclear repulsion energy       398.5586469509 Hartrees.
 NAtoms=   19 NActive=   19 NUniq=   19 SFac= 1.00D+00 NAtFMM=   60 NAOKFM=F Big=F
 Integral buffers will be    131072 words long.
 Raffenetti 2 integral format.
 Two-electron integral symmetry is turned on.
 One-electron integrals computed using PRISM.
 PrsmSu:  requested number of processors reduced to:  13 ShMem   1 Linda.
 NBasis=   279 RedAO= T EigKep=  3.49D-04  NBF=   279
 NBsUse=   279 1.00D-06 EigRej= -1.00D+00 NBFU=   279
 Initial guess from the checkpoint file:  "CC1C2CCONC12.chk"
 B after Tr=     0.000000    0.000000    0.000000
         Rot=    0.999933    0.007727   -0.000758   -0.008607 Ang=   1.33 deg.
 ExpMin= 1.61D-01 ExpMax= 5.48D+03 ExpMxC= 8.25D+02 IAcc=2 IRadAn=         4 AccDes= 0.00D+00
 Harris functional with IExCor=  402 and IRadAn=       4 diagonalized for initial guess.
 HarFok:  IExCor=  402 AccDes= 0.00D+00 IRadAn=         4 IDoV= 1 UseB2=F ITyADJ=14
 ICtDFT=  3500011 ScaDFX=  1.000000  1.000000  1.000000  1.000000
 FoFCou: FMM=F IPFlag=           0 FMFlag=      100000 FMFlg1=           0
         NFxFlg=           0 DoJE=T BraDBF=F KetDBF=T FulRan=T
         wScrn=  0.000000 ICntrl=       500 IOpCl=  0 I1Cent=   200000004 NGrid=           0
         NMat0=    1 NMatS0=      1 NMatT0=    0 NMatD0=    1 NMtDS0=    0 NMtDT0=    0
 Petite list used in FoFCou.
 Requested convergence on RMS density matrix=1.00D-08 within 128 cycles.
 Requested convergence on MAX density matrix=1.00D-06.
 Requested convergence on             energy=1.00D-06.
 No special actions if energy rises.
 Integral accuracy reduced to 1.0D-05 until final iterations.
 Initial convergence to 1.0D-05 achieved.  Increase integral accuracy.
 SCF Done:  E(RB3LYP) =  -365.154534983     A.U. after   11 cycles
            NFock= 11  Conv=0.68D-08     -V/T= 2.0078
 PrsmSu:  requested number of processors reduced to:  13 ShMem   1 Linda.
 Calling FoFJK, ICntrl=      2127 FMM=F ISym2X=0 I1Cent= 0 IOpClX= 0 NMat=1 NMatS=1 NMatT=0.
 ***** Axes restored to original set *****
 -------------------------------------------------------------------
 Center     Atomic                   Forces (Hartrees/Bohr)
 Number     Number              X              Y              Z
 -------------------------------------------------------------------
      1        6          -0.000312492   -0.001056544    0.000495469
      2        6          -0.004579262   -0.006046290   -0.000291819
      3        6           0.003655895   -0.003021249    0.004437505
      4        6          -0.000853126   -0.001033190    0.001941121
      5        6          -0.000418294    0.005327414    0.001197408
      6        8          -0.003410464   -0.002802529   -0.003624077
      7        7          -0.002879073    0.000873896    0.005175519
      8        6           0.005154667    0.004041299   -0.005786667
      9        1          -0.000507412    0.000533762    0.000736039
     10        1           0.000399426    0.000069428    0.000248370
     11        1          -0.000168444   -0.000146061    0.000919601
     12        1           0.004052974    0.002632920   -0.002839600
     13        1          -0.000796307    0.004573326   -0.002911959
     14        1          -0.002086246    0.000069451   -0.000230433
     15        1           0.000461748   -0.000700231   -0.000284562
     16        1           0.000535416   -0.003103922   -0.001892172
     17        1           0.000784503    0.000519777    0.002107581
     18        1           0.002272875    0.001072358    0.000546760
     19        1          -0.001306383   -0.001803614    0.000055918
 -------------------------------------------------------------------
 Cartesian Forces:  Max     0.006046290 RMS     0.002585094

 GradGradGradGradGradGradGradGradGradGradGradGradGradGradGradGradGradGrad
 Berny optimization.
 Using GEDIIS/GDIIS optimizer.
 FormGI is forming the generalized inverse of G from B-inverse, IUseBI=4.
 Internal  Forces:  Max     0.003767052 RMS     0.001246033
 Search for a local minimum.
 Step number   2 out of a maximum of  114
 All quantities printed in internal units (Hartrees-Bohrs-Radians)
 Mixed Optimization -- RFO/linear search
 Update second derivatives using D2CorX and points    1    2
 DE= -1.11D-02 DEPred=-1.18D-02 R= 9.43D-01
 TightC=F SS=  1.41D+00  RLast= 4.84D-01 DXNew= 5.0454D-01 1.4519D+00
 Trust test= 9.43D-01 RLast= 4.84D-01 DXMaxT set to 5.05D-01
 ITU=  1  0
 Use linear search instead of GDIIS.
     Eigenvalues ---    0.00760   0.00805   0.01081   0.01523   0.02061
     Eigenvalues ---    0.02203   0.02463   0.03328   0.03924   0.04241
     Eigenvalues ---    0.04547   0.05290   0.05728   0.05812   0.05943
     Eigenvalues ---    0.07295   0.07481   0.08018   0.09268   0.09882
     Eigenvalues ---    0.10871   0.11632   0.12764   0.13225   0.13952
     Eigenvalues ---    0.15923   0.15994   0.16000   0.16022   0.19478
     Eigenvalues ---    0.19837   0.23730   0.25470   0.27745   0.31149
     Eigenvalues ---    0.31584   0.32638   0.33644   0.33701   0.33753
     Eigenvalues ---    0.34091   0.34204   0.34433   0.34483   0.34523
     Eigenvalues ---    0.34549   0.35665   0.36140   0.36694   0.37071
     Eigenvalues ---    0.44076
 RFO step:  Lambda=-3.38328742D-03 EMin= 7.60481330D-03
 Quartic linear search produced a step of  0.18826.
 Iteration  1 RMS(Cart)=  0.05613733 RMS(Int)=  0.00201364
 Iteration  2 RMS(Cart)=  0.00233289 RMS(Int)=  0.00048587
 Iteration  3 RMS(Cart)=  0.00000140 RMS(Int)=  0.00048587
 Iteration  4 RMS(Cart)=  0.00000000 RMS(Int)=  0.00048587
 Variable       Old X    -DE/DX   Delta X   Delta X   Delta X     New X
                                 (Linear)    (Quad)   (Total)
    R1        2.86422   0.00050   0.00663  -0.00296   0.00367   2.86789
    R2        2.06975   0.00015   0.00085  -0.00009   0.00076   2.07051
    R3        2.07087  -0.00037  -0.00125  -0.00037  -0.00162   2.06925
    R4        2.06929   0.00029   0.00098   0.00026   0.00125   2.07054
    R5        2.85251  -0.00163   0.00153  -0.01348  -0.01242   2.84010
    R6        2.84849   0.00182   0.00369   0.00795   0.01309   2.86157
    R7        2.05404  -0.00086   0.00399  -0.00553  -0.00154   2.05250
    R8        2.88432  -0.00242   0.01078  -0.01470  -0.00408   2.88024
    R9        2.86382   0.00133  -0.00802   0.00792  -0.00131   2.86251
   R10        2.05353  -0.00035   0.00270  -0.00302  -0.00032   2.05322
   R11        2.89585  -0.00002  -0.00124   0.00400   0.00265   2.89850
   R12        2.06786  -0.00016  -0.00038  -0.00026  -0.00064   2.06722
   R13        2.06682  -0.00023  -0.00092  -0.00012  -0.00104   2.06577
   R14        2.69208  -0.00258  -0.00700   0.00217  -0.00455   2.68753
   R15        2.07959   0.00175   0.00005   0.00592   0.00597   2.08556
   R16        2.06825   0.00030   0.00071   0.00051   0.00122   2.06947
   R17        2.78818   0.00007   0.00085   0.00002   0.00118   2.78936
   R18        2.73709  -0.00094  -0.01002  -0.00095  -0.01102   2.72607
   R19        1.91618   0.00089  -0.00297   0.00439   0.00142   1.91761
   R20        2.06107  -0.00013   0.00275  -0.00237   0.00038   2.06145
    A1        1.93983   0.00062   0.00324   0.00126   0.00449   1.94432
    A2        1.94015  -0.00031  -0.00041   0.00040  -0.00003   1.94012
    A3        1.94391  -0.00014   0.00217  -0.00420  -0.00204   1.94187
    A4        1.87100   0.00018   0.00008   0.00426   0.00432   1.87532
    A5        1.89256  -0.00075  -0.00518  -0.00571  -0.01090   1.88166
    A6        1.87335   0.00039  -0.00017   0.00425   0.00408   1.87742
    A7        2.03927   0.00028   0.00459   0.01188   0.01665   2.05592
    A8        2.03538   0.00101   0.00054   0.02290   0.02385   2.05923
    A9        1.99947   0.00077   0.00082   0.01029   0.01090   2.01037
   A10        2.07409  -0.00080  -0.00145  -0.00870  -0.01070   2.06339
   A11        2.07954  -0.00205  -0.00216  -0.04526  -0.04759   2.03196
   A12        2.19028  -0.00206  -0.01248  -0.01688  -0.02945   2.16083
   A13        2.02567   0.00049   0.00763   0.00645   0.01463   2.04029
   A14        1.93276  -0.00020   0.00483   0.01576   0.02113   1.95388
   A15        1.98495   0.00157   0.00723   0.01203   0.01919   2.00414
   A16        2.09265  -0.00152  -0.01825  -0.03260  -0.05092   2.04173
   A17        1.84341  -0.00076   0.00472   0.00018   0.00334   1.84675
   A18        1.96271  -0.00041   0.00561  -0.01666  -0.01067   1.95204
   A19        1.94936   0.00009   0.00100  -0.00207  -0.00050   1.94886
   A20        1.91491   0.00074  -0.00393   0.00922   0.00607   1.92098
   A21        1.91277   0.00039  -0.00567   0.00666   0.00099   1.91375
   A22        1.88049  -0.00001  -0.00181   0.00336   0.00111   1.88160
   A23        1.94970   0.00032   0.00067   0.01937   0.01816   1.96786
   A24        1.88905  -0.00083  -0.00737  -0.00069  -0.00816   1.88089
   A25        1.98365  -0.00068   0.00563  -0.02039  -0.01412   1.96952
   A26        1.90129   0.00142   0.00701   0.01611   0.02369   1.92499
   A27        1.85293  -0.00031  -0.00836  -0.00631  -0.01397   1.83896
   A28        1.88499   0.00019   0.00271  -0.00743  -0.00490   1.88008
   A29        1.94102   0.00145  -0.00225   0.02128   0.01729   1.95831
   A30        1.99227  -0.00300   0.01211  -0.03459  -0.02297   1.96930
   A31        1.74698  -0.00007  -0.00501   0.00331  -0.00067   1.74632
   A32        1.89149   0.00234  -0.01237   0.03831   0.02623   1.91772
   A33        2.02321  -0.00247  -0.01364  -0.01355  -0.02685   1.99636
   A34        2.07004   0.00103   0.00736  -0.00255   0.00463   2.07467
   A35        1.94162   0.00057  -0.00869   0.00501  -0.00431   1.93731
   A36        2.10498  -0.00069  -0.00135  -0.00838  -0.00967   2.09532
   A37        2.05444   0.00138   0.00888   0.01504   0.02411   2.07855
    D1        1.47572   0.00004   0.00449   0.00507   0.00974   1.48546
    D2        2.67039   0.00108   0.00117   0.02212   0.02325   2.69364
    D3       -1.06634  -0.00007  -0.00086  -0.01282  -0.01380  -1.08014
    D4       -0.60684  -0.00039   0.00254  -0.00139   0.00132  -0.60552
    D5        0.58783   0.00064  -0.00077   0.01566   0.01484   0.60266
    D6        3.13429  -0.00051  -0.00280  -0.01928  -0.02222   3.11207
    D7       -2.69506  -0.00058   0.00160  -0.00423  -0.00245  -2.69752
    D8       -1.50040   0.00045  -0.00172   0.01282   0.01106  -1.48934
    D9        1.04606  -0.00070  -0.00375  -0.02212  -0.02599   1.02007
   D10       -2.75987   0.00261   0.01288   0.05659   0.06898  -2.69089
   D11       -0.07164   0.00307   0.02155   0.06439   0.08618   0.01453
   D12       -0.24420   0.00331   0.01945   0.08238   0.10125  -0.14295
   D13        2.44402   0.00377   0.02812   0.09018   0.11845   2.56247
   D14        2.65634  -0.00150  -0.00035  -0.01520  -0.01508   2.64126
   D15        0.06203  -0.00180  -0.00795  -0.01793  -0.02586   0.03618
   D16        0.13820  -0.00135   0.00068   0.00038   0.00137   0.13957
   D17       -2.45611  -0.00165  -0.00693  -0.00235  -0.00940  -2.46552
   D18       -1.99118  -0.00035  -0.00431  -0.00631  -0.00936  -2.00054
   D19        2.20385  -0.00054  -0.00544  -0.00836  -0.01290   2.19096
   D20        0.08705  -0.00029  -0.00773   0.00071  -0.00640   0.08065
   D21       -0.82220   0.00028   0.00175   0.00684   0.00885  -0.81335
   D22       -2.91035   0.00009   0.00063   0.00479   0.00531  -2.90504
   D23        1.25602   0.00034  -0.00166   0.01386   0.01181   1.26784
   D24        1.59468  -0.00059  -0.01306  -0.01291  -0.02555   1.56913
   D25       -0.49347  -0.00077  -0.01419  -0.01497  -0.02908  -0.52256
   D26       -2.61028  -0.00053  -0.01648  -0.00590  -0.02259  -2.63287
   D27       -0.19887  -0.00124   0.00498   0.00613   0.01141  -0.18746
   D28        2.31553   0.00122   0.00620   0.02975   0.03587   2.35139
   D29       -2.56499  -0.00182   0.00826   0.00444   0.01268  -2.55231
   D30       -0.05059   0.00065   0.00949   0.02806   0.03713  -0.01346
   D31        1.20467  -0.00003  -0.01461  -0.06695  -0.08158   1.12309
   D32       -0.88848  -0.00145  -0.01895  -0.09823  -0.11699  -1.00547
   D33       -2.98234  -0.00069  -0.02096  -0.07547  -0.09666  -3.07901
   D34       -2.95912  -0.00057  -0.00724  -0.08170  -0.08903  -3.04815
   D35        1.23092  -0.00199  -0.01158  -0.11298  -0.12444   1.10647
   D36       -0.86294  -0.00123  -0.01359  -0.09022  -0.10412  -0.96706
   D37       -0.89766   0.00009  -0.01559  -0.06815  -0.08345  -0.98111
   D38       -2.99082  -0.00133  -0.01993  -0.09943  -0.11886  -3.10968
   D39        1.19851  -0.00056  -0.02193  -0.07667  -0.09853   1.09998
   D40       -0.43408   0.00099   0.01213   0.08618   0.09861  -0.33547
   D41        1.65185   0.00109   0.00797   0.10783   0.11616   1.76801
   D42       -2.60536   0.00185   0.01040   0.10376   0.11454  -2.49082
   D43       -0.68582  -0.00110  -0.01294  -0.06487  -0.07784  -0.76366
   D44       -2.70190  -0.00256  -0.00093  -0.09741  -0.09858  -2.80048
   D45        2.18131  -0.00078  -0.00408  -0.00166  -0.00615   2.17516
   D46        1.03190   0.00100   0.00064   0.00915   0.00923   1.04113
   D47       -1.50251  -0.00058   0.00306  -0.00456  -0.00172  -1.50423
   D48       -2.17209  -0.00102  -0.01069   0.00739  -0.00363  -2.17572
   D49        2.96169   0.00075  -0.00596   0.01820   0.01175   2.97344
   D50        0.42728  -0.00082  -0.00354   0.00449   0.00081   0.42808
         Item               Value     Threshold  Converged?
 Maximum Force            0.003767     0.000450     NO 
 RMS     Force            0.001246     0.000300     NO 
 Maximum Displacement     0.242468     0.001800     NO 
 RMS     Displacement     0.055890     0.001200     NO 
 Predicted change in Energy=-2.265666D-03
 GradGradGradGradGradGradGradGradGradGradGradGradGradGradGradGradGradGrad

                          Input orientation:                          
 ---------------------------------------------------------------------
 Center     Atomic      Atomic             Coordinates (Angstroms)
 Number     Number       Type             X           Y           Z
 ---------------------------------------------------------------------
      1          6           0        0.950208    0.115052    0.267487
      2          6           0        2.467744    0.130749    0.262887
      3          6           0        3.174131   -0.703721   -0.768341
      4          6           0        4.584347   -1.254566   -0.592521
      5          6           0        5.441677   -0.555093   -1.654746
      6          8           0        5.535886    0.848873   -1.448342
      7          7           0        4.460709    1.357534   -0.574251
      8          6           0        3.167859    0.805482   -0.897982
      9          1           0        0.560878   -0.730822    0.844900
     10          1           0        0.552708    0.029272   -0.749205
     11          1           0        0.544693    1.034259    0.704678
     12          1           0        2.931774    0.243047    1.238468
     13          1           0        2.549931   -1.260662   -1.461670
     14          1           0        4.618841   -2.338429   -0.736493
     15          1           0        4.981536   -1.036662    0.402345
     16          1           0        4.995291   -0.767828   -2.641399
     17          1           0        6.475516   -0.915880   -1.671839
     18          1           0        4.485943    2.342466   -0.817147
     19          1           0        2.564639    1.284970   -1.670137
 ---------------------------------------------------------------------
                    Distance matrix (angstroms):
                    1          2          3          4          5
     1  C    0.000000
     2  C    1.517624   0.000000
     3  C    2.586341   1.502916   0.000000
     4  C    3.977742   2.670361   1.524156   0.000000
     5  C    4.931265   3.604439   2.439174   1.533819   0.000000
     6  O    4.950859   3.585735   2.907032   2.462176   1.422181
     7  N    3.817840   2.485500   2.437565   2.615088   2.405808
     8  C    2.598651   1.514280   1.514774   2.518639   2.755741
     9  H    1.095667   2.171907   3.071217   4.304507   5.486466
    10  H    1.095000   2.168408   2.722040   4.234017   5.006347
    11  H    1.095683   2.170169   3.479124   4.820814   5.663337
    12  H    2.210382   1.086136   2.232126   2.885543   3.912458
    13  H    2.727945   2.217404   1.086515   2.212308   2.982835
    14  H    4.526192   3.423861   2.181851   1.093928   2.168072
    15  H    4.194787   2.775148   2.179007   1.093160   2.162235
    16  H    5.060019   3.953582   2.613251   2.145621   1.103630
    17  H    5.945825   4.571743   3.429353   2.203670   1.095117
    18  H    4.317317   3.182968   3.316999   3.605382   3.163993
    19  H    2.780195   2.253486   2.267070   3.419023   3.415175
                    6          7          8          9         10
     6  O    0.000000
     7  N    1.476068   0.000000
     8  C    2.431528   1.442575   0.000000
     9  H    5.701324   4.645848   3.492022   0.000000
    10  H    5.098294   4.131266   2.731969   1.766063   0.000000
    11  H    5.438922   4.132233   3.082509   1.770716   1.767439
    12  H    3.790431   2.620243   2.221821   2.593157   3.107490
    13  H    3.655988   3.360586   2.229021   3.091493   2.482023
    14  H    3.392137   3.702901   3.466354   4.642442   4.705275
    15  H    2.699553   2.637646   2.893747   4.453270   4.698596
    16  H    2.080709   3.012647   2.975620   5.640892   4.894110
    17  H    2.011768   3.229947   3.808220   6.430487   6.068297
    18  H    1.931737   1.014754   2.026375   5.254867   4.563532
    19  H    3.011259   2.191190   1.090874   3.795245   2.544163
                   11         12         13         14         15
    11  H    0.000000
    12  H    2.570818   0.000000
    13  H    3.739079   3.114112   0.000000
    14  H    5.481851   3.662060   2.442919   0.000000
    15  H    4.905680   2.557006   3.072041   1.767229   0.000000
    16  H    5.852485   4.509250   2.759426   2.497432   3.055623
    17  H    6.680235   4.729810   3.946298   2.519080   2.559063
    18  H    4.422760   3.323936   4.140783   4.683476   3.626469
    19  H    3.127745   3.111330   2.554196   4.268543   3.940374
                   16         17         18         19
    16  H    0.000000
    17  H    1.775677   0.000000
    18  H    3.641601   3.912252   0.000000
    19  H    3.326470   4.487616   2.353146   0.000000
 Stoichiometry    C6H11NO
 Framework group  C1[X(C6H11NO)]
 Deg. of freedom    51
 Full point group                 C1      NOp   1
 Largest Abelian subgroup         C1      NOp   1
 Largest concise Abelian subgroup C1      NOp   1
                         Standard orientation:                         
 ---------------------------------------------------------------------
 Center     Atomic      Atomic             Coordinates (Angstroms)
 Number     Number       Type             X           Y           Z
 ---------------------------------------------------------------------
      1          6           0        2.909541    0.030760   -0.103595
      2          6           0        1.492990   -0.010881    0.439390
      3          6           0        0.445596    0.798693   -0.272165
      4          6           0       -0.817368    1.327516    0.397400
      5          6           0       -1.985501    0.600531   -0.280509
      6          8           0       -1.970411   -0.802199   -0.046581
      7          7           0       -0.642354   -1.281673    0.383704
      8          6           0        0.435418   -0.711661   -0.387345
      9          1           0        3.463520    0.890178    0.290098
     10          1           0        2.912069    0.110821   -1.195662
     11          1           0        3.463977   -0.875959    0.162830
     12          1           0        1.414141   -0.119093    1.517242
     13          1           0        0.766498    1.357649   -1.146868
     14          1           0       -0.923471    2.408784    0.269808
     15          1           0       -0.824786    1.115098    1.469698
     16          1           0       -1.929139    0.808721   -1.362858
     17          1           0       -2.963129    0.943390    0.074417
     18          1           0       -0.733396   -2.269800    0.171472
     19          1           0        0.729425   -1.190231   -1.322512
 ---------------------------------------------------------------------
 Rotational constants (GHZ):           4.5039002           1.5417157           1.2708421
 Standard basis: 6-31G(2df,p) (6D, 7F)
 There are   303 symmetry adapted cartesian basis functions of A   symmetry.
 There are   279 symmetry adapted basis functions of A   symmetry.
   279 basis functions,   429 primitive gaussians,   303 cartesian basis functions
    31 alpha electrons       31 beta electrons
       nuclear repulsion energy       398.5695747098 Hartrees.
 NAtoms=   19 NActive=   19 NUniq=   19 SFac= 1.00D+00 NAtFMM=   60 NAOKFM=F Big=F
 Integral buffers will be    131072 words long.
 Raffenetti 2 integral format.
 Two-electron integral symmetry is turned on.
 One-electron integrals computed using PRISM.
 PrsmSu:  requested number of processors reduced to:  13 ShMem   1 Linda.
 NBasis=   279 RedAO= T EigKep=  3.50D-04  NBF=   279
 NBsUse=   279 1.00D-06 EigRej= -1.00D+00 NBFU=   279
 Initial guess from the checkpoint file:  "CC1C2CCONC12.chk"
 B after Tr=    -0.000000   -0.000000    0.000000
         Rot=    0.999997    0.001915   -0.001064   -0.000576 Ang=   0.26 deg.
 ExpMin= 1.61D-01 ExpMax= 5.48D+03 ExpMxC= 8.25D+02 IAcc=2 IRadAn=         4 AccDes= 0.00D+00
 Harris functional with IExCor=  402 and IRadAn=       4 diagonalized for initial guess.
 HarFok:  IExCor=  402 AccDes= 0.00D+00 IRadAn=         4 IDoV= 1 UseB2=F ITyADJ=14
 ICtDFT=  3500011 ScaDFX=  1.000000  1.000000  1.000000  1.000000
 FoFCou: FMM=F IPFlag=           0 FMFlag=      100000 FMFlg1=           0
         NFxFlg=           0 DoJE=T BraDBF=F KetDBF=T FulRan=T
         wScrn=  0.000000 ICntrl=       500 IOpCl=  0 I1Cent=   200000004 NGrid=           0
         NMat0=    1 NMatS0=      1 NMatT0=    0 NMatD0=    1 NMtDS0=    0 NMtDT0=    0
 Petite list used in FoFCou.
 Requested convergence on RMS density matrix=1.00D-08 within 128 cycles.
 Requested convergence on MAX density matrix=1.00D-06.
 Requested convergence on             energy=1.00D-06.
 No special actions if energy rises.
 Integral accuracy reduced to 1.0D-05 until final iterations.
 Initial convergence to 1.0D-05 achieved.  Increase integral accuracy.
 SCF Done:  E(RB3LYP) =  -365.157083060     A.U. after   10 cycles
            NFock= 10  Conv=0.63D-08     -V/T= 2.0078
 PrsmSu:  requested number of processors reduced to:  13 ShMem   1 Linda.
 Calling FoFJK, ICntrl=      2127 FMM=F ISym2X=0 I1Cent= 0 IOpClX= 0 NMat=1 NMatS=1 NMatT=0.
 ***** Axes restored to original set *****
 -------------------------------------------------------------------
 Center     Atomic                   Forces (Hartrees/Bohr)
 Number     Number              X              Y              Z
 -------------------------------------------------------------------
      1        6           0.001110203    0.000744517    0.001841496
      2        6          -0.009373302   -0.002383729   -0.002958965
      3        6           0.004846966   -0.002186381    0.003377259
      4        6          -0.000996425    0.002020323   -0.000502892
      5        6           0.001819076   -0.000138874    0.001423513
      6        8          -0.003390064    0.000649445   -0.004284777
      7        7          -0.000114414   -0.001714395    0.002506841
[...]
 0.00635340,-0.02091939,0.00266210,-0.07682446,0.04484283,0.04202120,0.
 54964097,-0.00033829,0.00137466,0.00063346,-0.00285587,-0.00155074,-0.
 00066083,-0.03015794,-0.00658169,0.01407981,-0.11551723,-0.02090031,0.
 03286171,0.51769106,-0.00024441,-0.00278605,0.00050501,0.00029539,0.00
 273618,0.00165455,0.00171305,0.01432498,-0.01287426,-0.01865394,-0.084
 56253,0.02009569,-0.03180775,0.43794879,0.00016399,0.00071026,-0.00016
 527,0.00053666,-0.00176135,-0.00081815,0.00179442,-0.00850048,0.005466
 89,0.02616156,0.01420514,-0.10176761,0.02485418,0.06592712,0.58725130,
 0.00018072,-0.00338971,0.00233615,-0.00867509,0.00716388,-0.00146651,0
 .00443162,0.00890145,-0.00283359,0.00914085,-0.01699471,0.00587209,-0.
 07924111,0.04799332,-0.00751195,0.18990401,0.00031696,0.00072810,-0.00
 041734,-0.00091639,-0.00322982,0.00106974,0.00371087,-0.00561139,0.004
 63947,-0.00532661,-0.03397963,0.00732212,0.03134154,-0.17540931,0.0620
 1971,-0.09877079,0.35450774,-0.00022137,0.00282488,-0.00076652,0.00501
 168,-0.00495580,0.00306529,-0.00233403,-0.00378673,0.00392112,-0.00555
 466,0.02010086,-0.00268191,0.00273955,0.03395264,-0.10288906,-0.085525
 87,-0.03081803,0.24386364,0.00039620,-0.00149275,-0.00126928,-0.016634
 40,-0.01684441,0.00416757,-0.00203869,-0.01572876,0.01310952,-0.002771
 87,-0.00175829,-0.00049839,-0.00699346,0.01725572,0.00519142,-0.059354
 20,0.01768616,0.06416192,0.34773399,0.00059145,0.00128288,-0.00220556,
 0.00221608,-0.00646024,0.00115018,-0.03538034,-0.02413189,-0.00373663,
 0.00099544,0.00058569,-0.00270585,0.02180764,-0.03315928,-0.03816307,0
 .00629500,-0.08726617,-0.02579875,0.06351205,0.65669008,0.00020737,0.0
 0351004,-0.00171470,0.02392304,0.00868807,0.00645751,-0.01066042,-0.00
 084698,-0.00548862,0.00256627,0.00506510,0.00078967,0.00169315,-0.0137
 6965,0.00784734,0.03724315,-0.02347427,-0.13414871,-0.03806810,-0.0259
 4766,0.23474584,-0.01203758,-0.02600734,0.01779241,-0.08101247,-0.0178
 2047,0.03037165,-0.05710328,-0.01264303,-0.02494414,0.00579582,0.02797
 458,-0.01040861,-0.00192008,-0.00251661,0.00287363,-0.04399162,0.00653
 680,0.01873651,-0.19226135,-0.05897811,-0.01122450,0.53241850,-0.00109
 911,-0.00160086,0.00002525,-0.04651180,-0.05210597,0.09373195,0.020174
 34,-0.18797525,-0.02822547,0.01163121,-0.01888370,0.00278828,-0.001232
 88,-0.00440054,0.00296589,-0.00406604,0.00879331,0.00662242,-0.0204633
 2,-0.09896988,0.00240926,0.00717388,0.47874823,0.00535992,-0.00293723,
 -0.00280998,0.03140385,0.06034032,-0.15415748,-0.01690559,0.03270076,-
 0.03433178,0.00373846,0.00066126,-0.00275462,-0.00095039,0.00298549,0.
 00066436,0.04791888,0.00307122,-0.01268455,-0.05871427,-0.02236422,-0.
 07131600,0.08810283,-0.16961328,0.44770815,-0.06899188,-0.06243525,0.0
 3980090,-0.01272954,-0.02760203,0.02052043,0.00240337,0.00036424,-0.00
 071524,0.00011661,-0.00001842,-0.00006539,0.00022338,-0.00071709,0.000
 13389,-0.00141287,0.00020562,0.00097319,-0.00020729,0.00080001,0.00137
 455,-0.00495414,-0.00064104,-0.00366643,0.07820792,-0.06278312,-0.2148
 4045,0.10707426,-0.00008484,0.00171434,-0.00135302,-0.00080805,0.00106
 694,0.00066795,-0.00000899,0.00002942,0.00023009,0.00005062,-0.0000469
 9,-0.00000874,-0.00008874,-0.00003346,0.00001101,0.00013700,0.00028777
 ,-0.00003713,0.00118910,0.00122555,-0.00148279,0.06975259,0.23120373,0
 .03980017,0.10667164,-0.11538867,0.00149264,0.00195417,-0.00215918,-0.
 00052302,0.00000842,0.00013053,0.00002510,0.00000079,0.00011136,-0.000
 04836,0.00019020,-0.00007467,0.00028869,-0.00013397,-0.00011818,-0.000
 00860,-0.00038532,-0.00027420,0.00092755,0.00059281,0.00132510,-0.0457
 1053,-0.11832502,0.12172512,-0.10002404,-0.00036471,-0.10344380,-0.017
 85914,-0.00031061,-0.03073185,0.00135686,-0.00045798,-0.00180103,-0.00
 000470,0.00043044,0.00004795,0.00010782,0.00006447,-0.00003941,0.00008
 818,-0.00009653,0.00012609,0.00008135,-0.00040252,0.00049166,0.0011538
 1,0.00038495,-0.00210425,0.00427092,0.00091968,0.00908679,0.11237517,-
 0.00046067,-0.04623299,-0.00122330,0.00016376,-0.00136844,0.00032756,0
 .00039085,0.00054902,0.00090125,0.00004587,-0.00012776,-0.00000616,-0.
 00003084,0.00011311,-0.00005019,0.00003589,-0.00009335,-0.00004120,0.0
 0011668,-0.00012139,0.00029230,-0.00061031,0.00055273,-0.00087917,0.01
 268998,0.00050885,0.02370517,0.00055175,0.04578361,-0.10614479,-0.0012
 0921,-0.25361205,0.00206910,-0.00021855,0.00346599,0.00026987,-0.00015
 284,0.00072190,0.00011342,0.00002668,0.00010310,0.00005193,-0.00001205
 ,0.00002105,-0.00014639,-0.00005499,0.00012483,0.00021638,0.00010970,0
 .00001600,0.00052358,0.00026610,0.00049453,-0.00697306,-0.00111136,-0.
 01449300,0.11574158,0.00129761,0.27503054,-0.06615806,0.05904127,0.035
 42439,-0.01177801,0.02842423,0.01965340,-0.00545008,0.00064802,-0.0025
 7774,-0.00035505,-0.00059133,0.00185817,-0.00028637,0.00065523,-0.0002
 3858,0.00001817,-0.00018206,-0.00019710,0.00016995,0.00003958,-0.00006
 535,0.00227125,-0.00049361,-0.00053335,0.00230432,-0.00749423,-0.00562
 676,0.00391069,-0.01292957,-0.00653920,0.07465625,0.05943034,-0.222446
 38,-0.10549941,0.00051639,0.00089903,0.00075573,-0.00097897,0.00134741
 ,0.00143504,-0.00003585,0.00028770,-0.00001836,-0.00006400,-0.00004440
 ,0.00005238,0.00013977,0.00003347,-0.00009695,0.00009129,0.00003318,-0
 .00007677,0.00065537,0.00090773,-0.00069419,0.00676421,-0.02114396,-0.
 01369106,-0.00083001,0.00033718,0.00095521,-0.06640838,0.23975754,0.03
 545488,-0.10516780,-0.11078983,0.00136801,-0.00211940,-0.00230634,0.00
 100319,-0.00068509,0.00127767,0.00010355,0.00040406,-0.00042466,0.0001
 1274,-0.00018960,0.00010327,0.00000762,0.00009508,0.00000309,0.0000735
 3,0.00002802,0.00000967,-0.00061722,-0.00001888,0.00013911,-0.00538678
 ,0.01443884,0.00877313,0.00848713,-0.02419431,-0.01370984,-0.04103040,
 0.11678952,0.11643128,-0.01409773,-0.00053481,-0.02616378,-0.12788300,
 -0.00445990,-0.12940577,0.00233011,0.00089455,0.00909855,0.00161436,0.
 00072231,0.00140380,0.00013107,-0.00000502,-0.00005748,-0.00024536,-0.
 00015263,-0.00049849,0.00076876,-0.00062204,0.00050078,0.00346251,0.00
 060226,0.00914099,0.00103899,-0.00047423,0.00028322,-0.00572414,0.0000
 5645,0.00118586,0.00109248,0.00043849,0.00025852,0.13903823,0.00029305
 ,0.00013157,0.00049393,-0.00463941,-0.03756282,-0.00792843,-0.01440978
 ,-0.00249225,-0.02189185,-0.00260912,0.00119412,0.00110832,-0.00019523
 ,0.00048042,0.00031066,-0.00007351,0.00009878,-0.00097014,0.00257465,0
 .00043426,-0.00245484,0.01460924,-0.00173430,0.02142161,0.00026792,0.0
 0003282,-0.00034137,0.00019790,0.00074636,0.00009118,-0.00030553,0.000
 10916,0.00034840,0.00355828,0.03850786,0.00417321,0.00005409,0.0065240
 6,-0.12546627,-0.00706777,-0.24543584,-0.00520335,0.00027952,-0.013939
 69,-0.00194154,0.00007670,0.00086617,-0.00009067,0.00016952,-0.0000063
 4,0.00021107,-0.00009108,0.00063811,-0.00201532,0.00046825,0.00186594,
 -0.00662159,-0.00169516,-0.01539073,-0.00073128,-0.00005965,0.00029747
 ,0.00198699,-0.00002328,0.00091032,-0.00069838,0.00009602,0.00034060,0
 .13212895,0.00871079,0.26538740,0.00141493,-0.00086786,0.00033750,0.00
 908513,0.00750966,0.01032948,-0.16101923,-0.08036784,-0.11628183,-0.01
 296281,-0.01052765,-0.01575640,-0.00115315,0.00123519,-0.00128521,0.00
 036446,-0.00038020,-0.00020302,0.00073957,-0.00132758,0.00020964,-0.00
 433356,0.00086720,-0.00240805,-0.00007184,-0.00028382,0.00021820,0.000
 10700,0.00017411,-0.00019767,0.00009404,-0.00008090,-0.00019899,-0.000
 58730,0.00231847,0.00122158,0.17023922,-0.00059000,0.00080370,-0.00135
 223,0.00015751,-0.00522257,-0.00055404,-0.07801718,-0.09879511,-0.0844
 1574,0.00989548,0.00618264,0.01012362,0.00059698,-0.00155652,0.0009599
 0,-0.00014541,0.00121362,0.00084997,0.00335572,-0.00421153,-0.00270427
 ,-0.01683918,-0.01272937,-0.01965544,0.00049789,0.00001044,0.00001144,
 0.00047401,-0.00026056,0.00012069,0.00014558,-0.00007118,0.00018709,-0
 .00013398,-0.00020307,0.00124360,0.08016296,0.11144090,-0.00204481,0.0
 0267827,0.00168170,-0.01781668,-0.01112378,-0.01679798,-0.11627596,-0.
 08760391,-0.15328209,0.00006246,-0.00045667,-0.00120203,0.00015012,0.0
 0050443,-0.00063800,-0.00017441,-0.00048168,-0.00009575,-0.00092109,0.
 00386859,0.00153864,0.01155061,0.00489913,0.00702716,0.00053242,0.0000
 9409,-0.00026098,0.00094580,-0.00011590,0.00051830,-0.00024830,0.00020
 662,0.00051189,0.00131300,-0.00437290,-0.00161916,0.12239319,0.0928545
 8,0.16147337,0.00020647,0.00057244,0.00001182,-0.00107529,0.00172440,-
 0.00060823,-0.00024554,0.02894452,0.00909563,-0.04591221,-0.00660712,-
 0.00293033,0.00044909,-0.01902520,-0.00663963,-0.00140917,-0.00347255,
 0.00134116,-0.00073235,-0.00038764,0.00029788,-0.00449558,0.00166653,0
 .00029440,-0.00002444,-0.00005948,0.00003358,-0.00005650,0.00003070,-0
 .00002937,-0.00020225,-0.00002699,0.00000818,-0.00026358,-0.00040443,0
 .00019062,0.00158081,-0.00057561,0.00016889,0.05216563,-0.00018693,-0.
 00023373,-0.00000273,0.00043144,-0.00068215,0.00057978,-0.00088648,-0.
 01033620,-0.00380213,-0.00418537,-0.28421595,-0.07535324,0.00053562,-0
 .01387831,-0.00536417,-0.00196238,-0.00147700,0.00119449,-0.00002596,0
 .00027698,0.00021132,0.00130756,-0.00012039,-0.00008450,0.00006534,0.0
 0005129,-0.00003943,0.00003726,-0.00002144,0.00002732,0.00010542,0.000
 00034,-0.00001823,0.00015561,0.00018584,-0.00001674,-0.00009388,0.0013
 6682,0.00031008,0.00504149,0.30815809,0.00000426,-0.00021960,0.0002582
 3,0.00058445,-0.00015812,-0.00120215,-0.00125148,0.00461542,0.00071872
 ,-0.00216651,-0.07796432,-0.07079269,0.00034159,0.01773902,0.00399899,
 0.00223184,0.00418637,-0.00221237,0.00040375,-0.00157342,-0.00031966,-
 0.00114611,0.00161806,0.00015028,-0.00000624,0.00001123,-0.00003194,0.
 00009239,-0.00000101,-0.00001051,0.00004386,0.00000172,-0.00002604,0.0
 0022467,0.00009461,0.00040169,0.00036301,0.00027115,0.00085799,0.00038
 016,0.08167063,0.07571252,0.00001549,-0.00010786,0.00026437,0.00139597
 ,-0.00296426,-0.00160475,-0.01471671,0.00170091,-0.02701711,-0.0593285
 8,-0.00012578,-0.06693749,0.00128143,-0.00084782,0.02445102,-0.0007405
 8,-0.00023866,0.00067913,0.00024619,-0.00020512,-0.00024165,-0.0014058
 9,-0.00028694,-0.00173788,-0.00007172,-0.00000431,0.00002222,0.0002239
 4,-0.00003109,0.00007420,-0.00000410,0.00001738,-0.00001395,0.00019905
 ,0.00092764,0.00119512,-0.00352496,0.00313484,-0.00104911,-0.00002621,
 -0.00019405,-0.00035423,0.07747067,-0.00001133,0.00001647,-0.00021067,
 0.00036223,0.00169436,0.00128606,0.00543234,-0.00037299,0.01226105,-0.
 00112150,-0.04817404,-0.00564094,0.00334053,-0.00023460,0.01763122,-0.
 00150962,-0.00018681,0.00056795,0.00027791,-0.00063350,-0.00004119,0.0
 0081533,-0.00037177,0.00033694,-0.00001713,-0.00002026,-0.00000390,-0.
 00010176,-0.00004452,-0.00004787,0.00001613,-0.00004165,0.00003268,0.0
 0004440,-0.00007554,-0.00068776,0.00120138,-0.00055943,0.00041745,-0.0
 0857082,-0.00010644,-0.03094263,0.00077106,0.04905398,0.00012836,-0.00
 017824,0.00038718,0.00181682,-0.00118856,0.00188765,-0.00216468,-0.000
 58819,-0.00243179,-0.06636239,-0.00357487,-0.29271024,-0.00267181,-0.0
 0117016,-0.01696820,0.00108530,0.00053204,-0.00016154,-0.00025490,-0.0
 0117947,0.00021962,0.00002710,-0.00043939,-0.00044141,-0.00008343,-0.0
 0000088,-0.00002503,0.00013175,-0.00009474,-0.00007083,-0.00003781,0.0
 0000270,0.00000488,-0.00045407,0.00115018,0.00044188,0.00011608,0.0009
 6627,0.00016691,-0.00243333,-0.00054215,-0.00910326,0.06870987,0.00428
 231,0.31679031,0.00005859,0.00006786,-0.00001428,-0.00033606,0.0002269
 6,-0.00033159,0.00056099,-0.00086168,0.00054437,-0.00305098,0.00776775
 ,0.02072546,-0.05745988,0.01541891,0.02977021,-0.00213247,0.00890957,0
 .01031532,0.00019300,0.00348687,0.00003838,0.00061586,0.00056257,0.000
 40690,-0.00001783,-0.00001259,0.00000769,-0.00002233,0.00000697,-0.000
 01382,-0.00004820,0.00002042,0.00001426,-0.00001070,-0.00011517,-0.000
 07513,-0.00023705,-0.00005342,0.00003780,0.00166908,0.00061993,-0.0006
 5881,-0.00245577,-0.00160727,0.00209426,0.05859874,-0.00001813,0.00030
 707,-0.00006754,-0.00013599,-0.00036382,0.00010097,0.00012761,-0.00045
 258,0.00107581,-0.00356351,0.00490146,0.01477085,0.01554924,-0.0896066
 8,-0.09343562,0.01544149,-0.02551654,-0.02921351,-0.00274519,-0.007384
 35,0.00219193,-0.00077159,0.00010723,0.00000136,0.00009643,0.00001049,
 -0.00002239,-0.00001293,-0.00001157,-0.00000183,-0.00006143,-0.0000009
 7,0.00001757,-0.00000655,-0.00010287,-0.00006076,-0.00000529,0.0002153
 7,-0.00008111,-0.00021716,0.00152985,0.00053975,-0.00230563,-0.0006643
 8,0.00202918,-0.02268622,0.11600448,-0.00003200,-0.00015169,0.00002348
 ,0.00014973,0.00024706,0.00021011,-0.00012451,0.00043166,-0.00086405,0
 .00111614,-0.00367271,-0.01232642,0.03441276,-0.10255301,-0.25574654,-
 0.00103152,0.00205996,0.00887546,-0.00085649,0.00252506,0.00220887,-0.
 00019713,-0.00058035,-0.00002039,-0.00001461,0.00001114,-0.00000400,0.
 00002720,-0.00000126,0.00001373,0.00006936,-0.00001905,-0.00001453,-0.
 00002954,0.00008589,0.00008620,0.00023653,-0.00010405,-0.00001375,0.00
 016979,0.00049243,0.00113164,0.00255076,0.00132169,-0.00034149,-0.0391
 6673,0.10680849,0.27054768,0.00011615,0.00024667,0.00017387,-0.0006357
 2,-0.00039605,-0.00054475,-0.00098791,-0.00233434,0.00205906,-0.019702
 68,-0.00371034,-0.01070218,-0.22238778,-0.01060050,-0.10615623,-0.0044
 0243,0.01344626,-0.00804313,0.00038721,-0.00080362,0.00033583,0.000844
 67,0.00009276,-0.00016190,-0.00005905,-0.00004267,0.00001120,0.0000236
 8,-0.00000728,-0.00001024,-0.00016369,0.00004509,0.00004366,-0.0000442
 8,0.00000582,0.00010342,-0.00041985,0.00015860,0.00006098,-0.00159143,
 -0.00096753,0.00093325,0.00126899,0.00066258,0.00014912,0.00480445,-0.
 00071768,0.00273677,0.24293577,-0.00001165,0.00043377,0.00003512,-0.00
 014581,-0.00074332,-0.00010343,-0.00144716,-0.00157611,0.00163100,-0.0
 1245082,0.00371251,-0.00548126,-0.01290569,-0.04840108,-0.01394507,0.0
 3560119,-0.01854808,0.02502642,-0.00223772,0.00314535,0.00217166,0.000
 40806,-0.00041724,-0.00095946,0.00009422,0.00000224,-0.00002140,0.0000
 1310,-0.00002037,0.00000884,-0.00011199,0.00000286,0.00003794,-0.00000
 585,0.00000860,0.00000622,-0.00043208,0.00026007,-0.00009815,0.0006775
 6,-0.00035485,-0.00008953,-0.00010397,0.00103464,0.00007478,-0.0120878
 7,0.00176298,-0.00711877,0.00492352,0.05935211,-0.00001512,-0.00035434
 ,-0.00004989,0.00034121,0.00042395,0.00016577,0.00224262,0.00199329,-0
 .00103176,0.01741161,0.00108989,0.00592644,-0.10920420,-0.01106526,-0.
 11934543,-0.00668968,0.01196463,-0.00191329,0.00017099,0.00002654,0.00
 089116,-0.00004222,0.00055943,-0.00005455,-0.00006682,-0.00000604,0.00
 002436,-0.00001162,0.00001975,-0.00000998,0.00009676,-0.00000979,-0.00
 004475,-0.00000029,0.00004883,-0.00001123,0.00057328,-0.00035127,0.000
 05531,0.00015860,0.00067406,0.00015670,0.00067638,-0.00043687,0.001795
 81,-0.02422474,-0.00282703,-0.01443151,0.11894079,-0.00145179,0.127843
 64,0.00012651,-0.00011274,-0.00003111,0.00016890,-0.00120073,-0.000380
 77,-0.00630848,-0.00184375,-0.00167940,-0.00046970,0.00039192,-0.00043
 961,-0.00167054,0.00141212,0.00559221,-0.00497382,0.02647552,-0.002153
 59,-0.04288082,-0.00865643,0.01466650,-0.00529484,-0.04009851,0.004581
 94,-0.00001847,0.00004894,-0.00002500,-0.00003141,-0.00005369,-0.00003
 986,-0.00005379,0.00002791,0.00005287,-0.00016874,0.00024974,0.0003835
 8,-0.00036129,-0.00134004,0.00103939,-0.00001480,0.00010545,0.00005019
 ,0.00008174,0.00000594,0.00012859,-0.00066622,0.00170356,-0.00002684,-
 0.00008533,0.00024364,-0.00021613,0.06108932,0.00011945,-0.00033507,-0
 .00001117,-0.00117336,-0.00133996,-0.00029881,-0.00120204,-0.00017680,
 0.00015160,-0.00043200,0.00082227,-0.00075192,0.00104983,-0.00045424,-
 0.00406138,0.00451790,-0.01436032,0.00499361,-0.03021480,-0.40777880,0
 .05604542,0.00442219,-0.00833152,0.00803370,-0.00008702,0.00002773,-0.
 00001587,-0.00007228,-0.00002071,-0.00001793,0.00002053,0.00003600,-0.
 00000352,-0.00023655,0.00026751,-0.00018953,-0.00012443,-0.00006162,0.
 00034256,0.00004967,0.00005255,-0.00008500,0.00000721,0.00021258,-0.00
 002105,0.00026192,-0.00088552,0.00029626,-0.00007362,0.00021712,-0.000
 08664,0.02196708,0.42995430,0.00006069,0.00022779,0.00014889,0.0007639
 3,0.00048288,-0.00111237,-0.00094512,-0.00121143,0.00074944,0.00016044
 ,0.00003850,-0.00058531,0.00193945,-0.00156077,-0.00690322,0.00874370,
 -0.04236062,-0.00459477,0.01860096,0.11838497,-0.04172194,-0.01070260,
 -0.00833666,-0.00096065,0.00006291,0.00000566,-0.00004366,0.00000056,-
 0.00003716,-0.00008553,0.00009615,-0.00006139,-0.00004525,0.00025445,0
 .00023193,0.00013814,0.00014748,-0.00012886,-0.00012290,-0.00002341,0.
 00028787,0.00018407,0.00003116,0.00008448,0.00032748,0.00057159,-0.001
 81756,0.00063724,0.00007502,0.00021370,0.00015127,-0.02144101,-0.06382
 421,0.05294723,0.00153049,0.00065887,0.00003877,0.00787712,-0.00577580
 ,0.01040169,-0.00206064,-0.00003454,-0.00235015,0.00022116,0.00043353,
 0.00004464,0.00009785,-0.00162508,0.00040531,0.00245071,0.00090711,0.0
 0064669,-0.02684178,0.00701927,-0.02328817,-0.13775206,0.07173754,-0.1
 0376608,-0.00000644,0.00004714,-0.00025479,0.00002284,-0.00013957,-0.0
 0015151,-0.00001758,0.00027843,0.00025922,-0.00065074,-0.00225053,0.00
 124898,0.00104589,-0.00088474,0.00027572,-0.00002172,0.00009747,-0.000
 07003,0.00009106,0.00000959,0.00007516,-0.00006323,0.00032898,0.000010
 35,0.00009924,-0.00002069,-0.00014141,0.00153177,0.00120032,0.00160367
 ,0.15244607,0.00042683,0.00105871,0.00129248,-0.00021992,-0.00520885,-
 0.00081273,0.01315025,-0.01156491,0.01973688,-0.00197803,-0.00222468,0
 .00232831,-0.00037751,-0.00106297,0.00050777,0.00091099,0.00033686,-0.
 00046314,-0.01349597,0.00738084,-0.01123234,0.07109453,-0.10269398,0.0
 8911763,-0.00008046,-0.00008650,-0.00015491,-0.00042425,-0.00026775,-0
 .00007670,-0.00051786,-0.00000305,0.00001762,0.00015919,-0.00002643,-0
 .00121299,0.00102256,0.00217741,-0.00184170,0.00063968,-0.00019529,0.0
 0028565,0.00085645,-0.00052612,-0.00005974,0.00007447,0.00015035,-0.00
 007877,0.00007231,0.00012879,-0.00021136,0.00067405,0.00215450,-0.0006
 1910,-0.07198730,0.11047305,-0.00210221,-0.00205092,0.00129959,-0.0158
 6539,0.01006772,-0.01471638,0.00956510,-0.00405902,0.00577630,-0.00056
 361,-0.00220796,0.00067819,-0.00024420,-0.00052891,-0.00003071,-0.0005
 5856,0.00087164,0.00177512,-0.00348960,-0.00250136,-0.00160641,-0.1050
 0174,0.09243062,-0.16258654,0.00002153,-0.00015964,0.00048644,0.000966
 05,0.00012403,0.00057144,0.00055089,-0.00012797,-0.00023334,0.00081663
 ,0.00386320,-0.00149497,0.00018519,0.00167759,0.00020136,0.00051360,-0
 .00022466,0.00012777,0.00030193,-0.00020998,0.00023208,-0.00004112,-0.
 00000857,0.00002829,-0.00000452,0.00006319,-0.00011809,-0.00006193,-0.
 00049611,0.00089184,0.11501195,-0.09652289,0.16871801\\0.00001041,0.00
 000068,0.00000223,-0.00001500,-0.00000099,0.00000840,0.00003532,-0.000
 02096,0.00000030,-0.00004517,0.00000827,-0.00000035,0.00001059,0.00001
 333,-0.00000306,0.00000197,-0.00001546,-0.00002476,-0.00002939,-0.0000
 0018,0.00001892,0.00002924,0.00002195,-0.00000343,-0.00000075,-0.00000
 063,-0.00000106,-0.00000243,-0.00000144,-0.00000117,-0.00000135,0.0000
 0049,-0.00000317,0.00000034,-0.00000121,-0.00000052,-0.00000561,0.0000
 0321,0.00000135,0.00000413,-0.00000159,0.00000329,0.00000549,0.0000004
 4,0.00000101,0.00000042,0.00001126,-0.00000127,0.00000157,-0.00000829,
 0.00000229,0.00000708,-0.00000319,-0.00000007,-0.00000684,-0.00000568,
 0.00000106\\\@


 When I told the people of Northern Ireland that I was
 an atheist, a woman in the audience stood up and said,
 "Yes, but is it the God of the Catholics or the God
 of the Protestants in whom you don't believe?"
                               -- Quentin Crisp
 Job cpu time:       0 days  1 hours 32 minutes  8.0 seconds.
 Elapsed time:       0 days  0 hours 23 minutes  2.4 seconds.
 File lengths (MBytes):  RWF=    118 Int=      0 D2E=      0 Chk=      8 Scr=      1
 Normal termination of Gaussian 16 at Thu Aug  4 05:37:28 2022.
### All Done ###
