### Starting Gaussian ###
 Entering Gaussian System, Link 0=g16
 Initial command:
 /cluster/software/gaussian/gaussian-16-A.03/avx2/g16/l1.exe "/local/scratch/ks29c/Gau-28561.inp" -scrdir="/local/scratch/ks29c/"
 Entering Link 1 = /cluster/software/gaussian/gaussian-16-A.03/avx2/g16/l1.exe PID=     28562.
  
 Copyright (c) 1988,1990,1992,1993,1995,1998,2003,2009,2016,
            Gaussian, Inc.  All Rights Reserved.
  
 This is part of the Gaussian(R) 16 program.  It is based on
 the Gaussian(R) 09 system (copyright 2009, Gaussian, Inc.),
 the Gaussian(R) 03 system (copyright 2003, Gaussian, Inc.),
 the Gaussian(R) 98 system (copyright 1998, Gaussian, Inc.),
 the Gaussian(R) 94 system (copyright 1995, Gaussian, Inc.),
 the Gaussian 92(TM) system (copyright 1992, Gaussian, Inc.),
 the Gaussian 90(TM) system (copyright 1990, Gaussian, Inc.),
 the Gaussian 88(TM) system (copyright 1988, Gaussian, Inc.),
 the Gaussian 86(TM) system (copyright 1986, Carnegie Mellon
 University), and the Gaussian 82(TM) system (copyright 1983,
 Carnegie Mellon University). Gaussian is a federally registered
 trademark of Gaussian, Inc.
  
 This software contains proprietary and confidential information,
 including trade secrets, belonging to Gaussian, Inc.
  
 This software is provided under written license and may be
 used, copied, transmitted, or stored only in accord with that
 written license.
  
 The following legend is applicable only to US Government
 contracts under FAR:
  
                    RESTRICTED RIGHTS LEGEND
  
 Use, reproduction and disclosure by the US Government is
 subject to restrictions as set forth in subparagraphs (a)
 and (c) of the Commercial Computer Software - Restricted
 Rights clause in FAR 52.227-19.
  
 Gaussian, Inc.
 340 Quinnipiac St., Bldg. 40, Wallingford CT 06492
  
  
 ---------------------------------------------------------------
 Warning -- This program may not be used in any manner that
 competes with the business of Gaussian, Inc. or will provide
 assistance to any competitor of Gaussian, Inc.  The licensee
 of this program is prohibited from giving any competitor of
 Gaussian, Inc. access to this program.  By using this program,
 the user acknowledges that Gaussian, Inc. is engaged in the
 business of creating and licensing software in the field of
 computational chemistry and represents and warrants to the
 licensee that it is not a competitor of Gaussian, Inc. and that
 it will not use this program in any manner prohibited above.
 ---------------------------------------------------------------
  

 Cite this work as:
 Gaussian 16, Revision A.03,
 M. J. Frisch, G. W. Trucks, H. B. Schlegel, G. E. Scuseria, 
 M. A. Robb, J. R. Cheeseman, G. Scalmani, V. Barone, 
 G. A. Petersson, H. Nakatsuji, X. Li, M. Caricato, A. V. Marenich, 
 J. Bloino, B. G. Janesko, R. Gomperts, B. Mennucci, H. P. Hratchian, 
 J. V. Ortiz, A. F. Izmaylov, J. L. Sonnenberg, D. Williams-Young, 
 F. Ding, F. Lipparini, F. Egidi, J. Goings, B. Peng, A. Petrone, 
 T. Henderson, D. Ranasinghe, V. G. Zakrzewski, J. Gao, N. Rega, 
 G. Zheng, W. Liang, M. Hada, M. Ehara, K. Toyota, R. Fukuda, 
 J. Hasegawa, M. Ishida, T. Nakajima, Y. Honda, O. Kitao, H. Nakai, 
 T. Vreven, K. Throssell, J. A. Montgomery, Jr., J. E. Peralta, 
 F. Ogliaro, M. J. Bearpark, J. J. Heyd, E. N. Brothers, K. N. Kudin, 
 V. N. Staroverov, T. A. Keith, R. Kobayashi, J. Normand, 
 K. Raghavachari, A. P. Rendell, J. C. Burant, S. S. Iyengar, 
 J. Tomasi, M. Cossi, J. M. Millam, M. Klene, C. Adamo, R. Cammi, 
 J. W. Ochterski, R. L. Martin, K. Morokuma, O. Farkas, 
 J. B. Foresman, and D. J. Fox, Gaussian, Inc., Wallingford CT, 2016.
 
 ******************************************
 Gaussian 16:  ES64L-G16RevA.03 25-Dec-2016
                 3-Jul-2022 
 ******************************************
 %chk=CC1dCpCdOpCdCC1dO.chk
 %NProcShared=20
 Will use up to   20 processors via shared memory.
 -----------------------------
 # opt freq b3lyp/6-31g(2df,p)
 -----------------------------
 1/18=20,19=15,26=3,38=1/1,3;
 2/9=110,12=2,17=6,18=5,40=1/2;
 3/5=1,6=6,7=104,11=2,25=1,30=1,71=1,74=-5/1,2,3;
 4//1;
 5/5=2,38=5/2;
 6/7=2,8=2,9=2,10=2,28=1/1;
 7//1,2,3,16;
 1/18=20,19=15,26=3/3(2);
 2/9=110/2;
 99//99;
 2/9=110/2;
 3/5=1,6=6,7=104,11=2,25=1,30=1,71=1,74=-5/1,2,3;
 4/5=5,16=3,69=1/1;
 5/5=2,38=5/2;
 7//1,2,3,16;
 1/18=20,19=15,26=3/3(-5);
 2/9=110/2;
 6/7=2,8=2,9=2,10=2,19=2,28=1/1;
 99/9=1/99;
 -------------------
 Title Card Required
 -------------------
 Symbolic Z-matrix:
 Charge =  0 Multiplicity = 1
 C                     0.90032  -0.11545  -0.00467 
 C                     2.37421  -0.0295   -0.00462 
 C                     3.23711   0.99551  -0.00348 
 C                     2.8382    2.42148  -0.00166 
 O                     1.67549   2.8069   -0.00125 
 C                     4.60018   0.52085  -0.00195 
 C                     4.63333  -0.81516  -0.00002 
 C                     3.22514  -1.23221  -0.00469 
 O                     2.83864  -2.38726  -0.00904 
 H                     0.41778   0.86254  -0.00311 
 H                     0.55485  -0.64905   0.88515 
 H                     0.55452  -0.64666  -0.89574 
 H                     3.66621   3.14604  -0.00016 
 H                     5.47617   1.1535   -0.0016 
 H                     5.46389  -1.49795   0.00287 
 

 GradGradGradGradGradGradGradGradGradGradGradGradGradGradGradGradGradGrad
 Berny optimization.
 Initialization pass.
                           ----------------------------
                           !    Initial Parameters    !
                           ! (Angstroms and Degrees)  !
 --------------------------                            --------------------------
 ! Name  Definition              Value          Derivative Info.                !
 --------------------------------------------------------------------------------
 ! R1    R(1,2)                  1.4764         estimate D2E/DX2                !
 ! R2    R(1,10)                 1.0906         estimate D2E/DX2                !
 ! R3    R(1,11)                 1.0936         estimate D2E/DX2                !
 ! R4    R(1,12)                 1.0935         estimate D2E/DX2                !
 ! R5    R(2,3)                  1.3399         estimate D2E/DX2                !
 ! R6    R(2,8)                  1.4733         estimate D2E/DX2                !
 ! R7    R(3,4)                  1.4807         estimate D2E/DX2                !
 ! R8    R(3,6)                  1.4434         estimate D2E/DX2                !
 ! R9    R(4,5)                  1.2249         estimate D2E/DX2                !
 ! R10   R(4,13)                 1.1003         estimate D2E/DX2                !
 ! R11   R(6,7)                  1.3364         estimate D2E/DX2                !
 ! R12   R(6,14)                 1.0806         estimate D2E/DX2                !
 ! R13   R(7,8)                  1.4687         estimate D2E/DX2                !
 ! R14   R(7,15)                 1.0752         estimate D2E/DX2                !
 ! R15   R(8,9)                  1.218          estimate D2E/DX2                !
 ! A1    A(2,1,10)             112.9243         estimate D2E/DX2                !
 ! A2    A(2,1,11)             110.106          estimate D2E/DX2                !
 ! A3    A(2,1,12)             110.1208         estimate D2E/DX2                !
 ! A4    A(10,1,11)            107.2558         estimate D2E/DX2                !
 ! A5    A(10,1,12)            107.2706         estimate D2E/DX2                !
 ! A6    A(11,1,12)            109.0333         estimate D2E/DX2                !
 ! A7    A(1,2,3)              133.4296         estimate D2E/DX2                !
 ! A8    A(1,2,8)              121.9424         estimate D2E/DX2                !
 ! A9    A(3,2,8)              104.628          estimate D2E/DX2                !
 ! A10   A(2,3,4)              124.2791         estimate D2E/DX2                !
 ! A11   A(2,3,6)              110.8927         estimate D2E/DX2                !
 ! A12   A(4,3,6)              124.8282         estimate D2E/DX2                !
 ! A13   A(3,4,5)              123.9683         estimate D2E/DX2                !
 ! A14   A(3,4,13)             115.5592         estimate D2E/DX2                !
 ! A15   A(5,4,13)             120.4725         estimate D2E/DX2                !
 ! A16   A(3,6,7)              110.621          estimate D2E/DX2                !
 ! A17   A(3,6,14)             124.9632         estimate D2E/DX2                !
 ! A18   A(7,6,14)             124.4158         estimate D2E/DX2                !
 ! A19   A(6,7,8)              105.0755         estimate D2E/DX2                !
 ! A20   A(6,7,15)             130.8445         estimate D2E/DX2                !
 ! A21   A(8,7,15)             124.08           estimate D2E/DX2                !
 ! A22   A(2,8,7)              108.7825         estimate D2E/DX2                !
 ! A23   A(2,8,9)              126.2188         estimate D2E/DX2                !
 ! A24   A(7,8,9)              124.9987         estimate D2E/DX2                !
 ! D1    D(10,1,2,3)            -0.0245         estimate D2E/DX2                !
 ! D2    D(10,1,2,8)           179.9146         estimate D2E/DX2                !
 ! D3    D(11,1,2,3)          -119.8786         estimate D2E/DX2                !
 ! D4    D(11,1,2,8)            60.0606         estimate D2E/DX2                !
 ! D5    D(12,1,2,3)           119.8587         estimate D2E/DX2                !
 ! D6    D(12,1,2,8)           -60.2021         estimate D2E/DX2                !
 ! D7    D(1,2,3,4)              0.0085         estimate D2E/DX2                !
 ! D8    D(1,2,3,6)            179.9101         estimate D2E/DX2                !
 ! D9    D(8,2,3,4)           -179.9381         estimate D2E/DX2                !
 ! D10   D(8,2,3,6)             -0.0365         estimate D2E/DX2                !
 ! D11   D(1,2,8,7)           -179.8106         estimate D2E/DX2                !
 ! D12   D(1,2,8,9)              0.2477         estimate D2E/DX2                !
 ! D13   D(3,2,8,7)              0.1437         estimate D2E/DX2                !
 ! D14   D(3,2,8,9)           -179.798          estimate D2E/DX2                !
 ! D15   D(2,3,4,5)             -0.0133         estimate D2E/DX2                !
 ! D16   D(2,3,4,13)           179.9581         estimate D2E/DX2                !
 ! D17   D(6,3,4,5)           -179.9013         estimate D2E/DX2                !
 ! D18   D(6,3,4,13)             0.0701         estimate D2E/DX2                !
 ! D19   D(2,3,6,7)             -0.0946         estimate D2E/DX2                !
 ! D20   D(2,3,6,14)           179.9512         estimate D2E/DX2                !
 ! D21   D(4,3,6,7)            179.8064         estimate D2E/DX2                !
 ! D22   D(4,3,6,14)            -0.1479         estimate D2E/DX2                !
 ! D23   D(3,6,7,8)              0.1772         estimate D2E/DX2                !
 ! D24   D(3,6,7,15)          -179.9017         estimate D2E/DX2                !
 ! D25   D(14,6,7,8)          -179.8682         estimate D2E/DX2                !
 ! D26   D(14,6,7,15)            0.0529         estimate D2E/DX2                !
 ! D27   D(6,7,8,2)             -0.1996         estimate D2E/DX2                !
 ! D28   D(6,7,8,9)            179.743          estimate D2E/DX2                !
 ! D29   D(15,7,8,2)           179.8725         estimate D2E/DX2                !
 ! D30   D(15,7,8,9)            -0.1849         estimate D2E/DX2                !
 --------------------------------------------------------------------------------
 Trust Radius=3.00D-01 FncErr=1.00D-07 GrdErr=1.00D-06 EigMax=2.50D+02 EigMin=1.00D-04
 Number of steps in this run=     79 maximum allowed number of steps=    100.
 GradGradGradGradGradGradGradGradGradGradGradGradGradGradGradGradGradGrad

                          Input orientation:                          
 ---------------------------------------------------------------------
 Center     Atomic      Atomic             Coordinates (Angstroms)
 Number     Number       Type             X           Y           Z
 ---------------------------------------------------------------------
      1          6           0        0.900320   -0.115450   -0.004670
      2          6           0        2.374210   -0.029500   -0.004620
      3          6           0        3.237110    0.995510   -0.003480
      4          6           0        2.838200    2.421480   -0.001660
      5          8           0        1.675490    2.806900   -0.001250
      6          6           0        4.600180    0.520850   -0.001950
      7          6           0        4.633330   -0.815160   -0.000020
      8          6           0        3.225140   -1.232210   -0.004690
      9          8           0        2.838640   -2.387260   -0.009040
     10          1           0        0.417780    0.862540   -0.003110
     11          1           0        0.554850   -0.649050    0.885150
     12          1           0        0.554520   -0.646660   -0.895740
     13          1           0        3.666210    3.146040   -0.000160
     14          1           0        5.476170    1.153500   -0.001600
     15          1           0        5.463890   -1.497950    0.002870
 ---------------------------------------------------------------------
                    Distance matrix (angstroms):
                    1          2          3          4          5
     1  C    0.000000
     2  C    1.476394   0.000000
     3  C    2.587435   1.339867   0.000000
     4  C    3.192397   2.494514   1.480717   0.000000
     5  O    3.023414   2.921196   2.391609   1.224926   0.000000
     6  C    3.754178   2.292997   1.443352   2.591711   3.712120
     7  C    3.798023   2.391842   2.286475   3.701126   4.676338
     8  C    2.579136   1.473293   2.227752   3.674123   4.326180
     9  O    2.986340   2.403070   3.406162   4.808746   5.322807
    10  H    1.090556   2.150199   2.822464   2.879015   2.315680
    11  H    1.093553   2.117924   3.269367   3.927884   3.739670
    12  H    1.093512   2.118078   3.269425   3.927856   3.739487
    13  H    4.276387   3.428314   2.192924   1.100268   2.019402
    14  H    4.748542   3.319888   2.244628   2.926886   4.144744
    15  H    4.768389   3.420895   3.343042   4.717648   5.734433
                    6          7          8          9         10
     6  C    0.000000
     7  C    1.336423   0.000000
     8  C    2.227995   1.468656   0.000000
     9  O    3.400026   2.385894   1.218007   0.000000
    10  H    4.196334   4.537130   3.502749   4.052382   0.000000
    11  H    4.303523   4.176735   2.874429   3.006102   1.758607
    12  H    4.304568   4.179402   2.875596   3.005516   1.758741
    13  H    2.786382   4.077552   4.400413   5.594851   3.970728
    14  H    1.080558   2.141496   3.280055   4.415156   5.066751
    15  H    2.195808   1.075193   2.254479   2.771814   5.570922
                   11         12         13         14         15
    11  H    0.000000
    12  H    1.780892   0.000000
    13  H    4.986687   4.986908   0.000000
    14  H    5.315534   5.316268   2.691872   0.000000
    15  H    5.059419   5.063014   4.979790   2.651482   0.000000
 Stoichiometry    C7H6O2
 Framework group  C1[X(C7H6O2)]
 Deg. of freedom    39
 Full point group                 C1      NOp   1
 Largest Abelian subgroup         C1      NOp   1
 Largest concise Abelian subgroup C1      NOp   1
                         Standard orientation:                         
 ---------------------------------------------------------------------
 Center     Atomic      Atomic             Coordinates (Angstroms)
 Number     Number       Type             X           Y           Z
 ---------------------------------------------------------------------
      1          6           0        0.268112    1.976818    0.001336
      2          6           0       -0.114822    0.550950   -0.000295
      3          6           0        0.586007   -0.591013   -0.001327
      4          6           0        2.065030   -0.661834   -0.000817
      5          8           0        2.797243    0.320157    0.000367
      6          6           0       -0.294041   -1.735032   -0.000676
      7          6           0       -1.572413   -1.345447    0.002846
      8          6           0       -1.524416    0.122423    0.000190
      9          8           0       -2.498801    0.853251   -0.002339
     10          1           0        1.348340    2.126548    0.002221
     11          1           0       -0.128690    2.471604    0.892175
     12          1           0       -0.127777    2.473655   -0.888716
     13          1           0        2.491716   -1.675998   -0.001086
     14          1           0        0.030297   -2.765764   -0.002034
     15          1           0       -2.482161   -1.918501    0.005679
 ---------------------------------------------------------------------
 Rotational constants (GHZ):           3.0819213           1.4200333           0.9781330
 Standard basis: 6-31G(2df,p) (6D, 7F)
 There are   309 symmetry adapted cartesian basis functions of A   symmetry.
 There are   282 symmetry adapted basis functions of A   symmetry.
   282 basis functions,   438 primitive gaussians,   309 cartesian basis functions
    32 alpha electrons       32 beta electrons
       nuclear repulsion energy       406.0560069185 Hartrees.
 NAtoms=   15 NActive=   15 NUniq=   15 SFac= 1.00D+00 NAtFMM=   60 NAOKFM=F Big=F
 Integral buffers will be    131072 words long.
 Raffenetti 2 integral format.
 Two-electron integral symmetry is turned on.
 One-electron integrals computed using PRISM.
 PrsmSu:  requested number of processors reduced to:  13 ShMem   1 Linda.
 NBasis=   282 RedAO= T EigKep=  2.40D-04  NBF=   282
 NBsUse=   282 1.00D-06 EigRej= -1.00D+00 NBFU=   282
 ExpMin= 1.61D-01 ExpMax= 5.48D+03 ExpMxC= 8.25D+02 IAcc=3 IRadAn=         5 AccDes= 0.00D+00
 Harris functional with IExCor=  402 and IRadAn=       5 diagonalized for initial guess.
 HarFok:  IExCor=  402 AccDes= 0.00D+00 IRadAn=         5 IDoV= 1 UseB2=F ITyADJ=14
 ICtDFT=  3500011 ScaDFX=  1.000000  1.000000  1.000000  1.000000
 FoFCou: FMM=F IPFlag=           0 FMFlag=      100000 FMFlg1=           0
         NFxFlg=           0 DoJE=T BraDBF=F KetDBF=T FulRan=T
         wScrn=  0.000000 ICntrl=       500 IOpCl=  0 I1Cent=   200000004 NGrid=           0
         NMat0=    1 NMatS0=      1 NMatT0=    0 NMatD0=    1 NMtDS0=    0 NMtDT0=    0
 Petite list used in FoFCou.
 Requested convergence on RMS density matrix=1.00D-08 within 128 cycles.
 Requested convergence on MAX density matrix=1.00D-06.
 Requested convergence on             energy=1.00D-06.
 No special actions if energy rises.
 Integral accuracy reduced to 1.0D-05 until final iterations.
 Initial convergence to 1.0D-05 achieved.  Increase integral accuracy.
 SCF Done:  E(RB3LYP) =  -420.770022289     A.U. after   15 cycles
            NFock= 15  Conv=0.60D-08     -V/T= 2.0066

 **********************************************************************

            Population analysis using the SCF density.

 **********************************************************************

 Orbital symmetries:
       Occupied  (A) (A) (A) (A) (A) (A) (A) (A) (A) (A) (A) (A)
                 (A) (A) (A) (A) (A) (A) (A) (A) (A) (A) (A) (A)
                 (A) (A) (A) (A) (A) (A) (A) (A)
       Virtual   (A) (A) (A) (A) (A) (A) (A) (A) (A) (A) (A) (A)
                 (A) (A) (A) (A) (A) (A) (A) (A) (A) (A) (A) (A)
                 (A) (A) (A) (A) (A) (A) (A) (A) (A) (A) (A) (A)
                 (A) (A) (A) (A) (A) (A) (A) (A) (A) (A) (A) (A)
                 (A) (A) (A) (A) (A) (A) (A) (A) (A) (A) (A) (A)
                 (A) (A) (A) (A) (A) (A) (A) (A) (A) (A) (A) (A)
                 (A) (A) (A) (A) (A) (A) (A) (A) (A) (A) (A) (A)
                 (A) (A) (A) (A) (A) (A) (A) (A) (A) (A) (A) (A)
                 (A) (A) (A) (A) (A) (A) (A) (A) (A) (A) (A) (A)
                 (A) (A) (A) (A) (A) (A) (A) (A) (A) (A) (A) (A)
                 (A) (A) (A) (A) (A) (A) (A) (A) (A) (A) (A) (A)
                 (A) (A) (A) (A) (A) (A) (A) (A) (A) (A) (A) (A)
                 (A) (A) (A) (A) (A) (A) (A) (A) (A) (A) (A) (A)
                 (A) (A) (A) (A) (A) (A) (A) (A) (A) (A) (A) (A)
                 (A) (A) (A) (A) (A) (A) (A) (A) (A) (A) (A) (A)
                 (A) (A) (A) (A) (A) (A) (A) (A) (A) (A) (A) (A)
                 (A) (A) (A) (A) (A) (A) (A) (A) (A) (A) (A) (A)
                 (A) (A) (A) (A) (A) (A) (A) (A) (A) (A) (A) (A)
                 (A) (A) (A) (A) (A) (A) (A) (A) (A) (A) (A) (A)
                 (A) (A) (A) (A) (A) (A) (A) (A) (A) (A) (A) (A)
                 (A) (A) (A) (A) (A) (A) (A) (A) (A) (A)
 The electronic state is 1-A.
 Alpha  occ. eigenvalues --  -19.15640 -19.14832 -10.28282 -10.27723 -10.22075
 Alpha  occ. eigenvalues --  -10.21969 -10.21500 -10.19645 -10.18974  -1.05689
 Alpha  occ. eigenvalues --   -1.04639  -0.89822  -0.78021  -0.73128  -0.68000
 Alpha  occ. eigenvalues --   -0.61853  -0.57040  -0.53006  -0.49994  -0.45999
 Alpha  occ. eigenvalues --   -0.45621  -0.44450  -0.42915  -0.42081  -0.40799
 Alpha  occ. eigenvalues --   -0.40667  -0.40060  -0.37847  -0.33626  -0.27355
 Alpha  occ. eigenvalues --   -0.25841  -0.24638
 Alpha virt. eigenvalues --   -0.12612  -0.03591   0.07230   0.09619   0.10492
 Alpha virt. eigenvalues --    0.11796   0.12851   0.15139   0.15978   0.18370
 Alpha virt. eigenvalues --    0.21236   0.22266   0.24864   0.25158   0.26950
 Alpha virt. eigenvalues --    0.33093   0.34867   0.39444   0.41713   0.44397
 Alpha virt. eigenvalues --    0.45102   0.45514   0.46633   0.49784   0.49853
 Alpha virt. eigenvalues --    0.50733   0.51733   0.53992   0.54201   0.58855
 Alpha virt. eigenvalues --    0.58940   0.60540   0.62613   0.64669   0.65582
 Alpha virt. eigenvalues --    0.67855   0.68749   0.69534   0.71030   0.71850
 Alpha virt. eigenvalues --    0.72169   0.75150   0.75961   0.76477   0.78196
 Alpha virt. eigenvalues --    0.78378   0.80103   0.82081   0.84065   0.85936
 Alpha virt. eigenvalues --    0.87563   0.93200   0.93298   0.94726   0.94799
 Alpha virt. eigenvalues --    0.95564   0.98689   0.99292   1.02519   1.02600
 Alpha virt. eigenvalues --    1.04905   1.05671   1.09497   1.14337   1.15385
 Alpha virt. eigenvalues --    1.18596   1.20738   1.21598   1.23630   1.27048
 Alpha virt. eigenvalues --    1.28061   1.30756   1.31662   1.34811   1.36237
 Alpha virt. eigenvalues --    1.36323   1.38970   1.41235   1.43298   1.45387
 Alpha virt. eigenvalues --    1.46258   1.49579   1.51908   1.53075   1.56947
 Alpha virt. eigenvalues --    1.60008   1.61972   1.62565   1.65165   1.66253
 Alpha virt. eigenvalues --    1.70016   1.73814   1.77197   1.78158   1.79865
 Alpha virt. eigenvalues --    1.87739   1.89262   1.90188   1.95004   1.95228
 Alpha virt. eigenvalues --    1.97022   1.98163   2.11782   2.16121   2.16379
 Alpha virt. eigenvalues --    2.19761   2.27164   2.28356   2.30477   2.31668
 Alpha virt. eigenvalues --    2.44373   2.45980   2.47853   2.49971   2.50006
 Alpha virt. eigenvalues --    2.57942   2.58397   2.73450   2.74663   2.76590
 Alpha virt. eigenvalues --    2.77303   2.81873   2.86270   2.87175   2.87637
 Alpha virt. eigenvalues --    2.91264   2.92479   2.93984   2.98280   2.98750
 Alpha virt. eigenvalues --    3.02072   3.02825   3.03817   3.05694   3.06861
 Alpha virt. eigenvalues --    3.10282   3.12471   3.13719   3.16038   3.22649
 Alpha virt. eigenvalues --    3.23013   3.23335   3.26088   3.30238   3.30529
 Alpha virt. eigenvalues --    3.31051   3.38092   3.39095   3.42455   3.43598
 Alpha virt. eigenvalues --    3.47814   3.50069   3.50965   3.53908   3.54761
 Alpha virt. eigenvalues --    3.58310   3.63093   3.66794   3.67088   3.72533
 Alpha virt. eigenvalues --    3.76946   3.77429   3.81483   3.84862   3.93704
 Alpha virt. eigenvalues --    3.94825   3.94999   4.00962   4.04177   4.06353
 Alpha virt. eigenvalues --    4.10810   4.11183   4.12949   4.14051   4.19368
 Alpha virt. eigenvalues --    4.20584   4.24284   4.25253   4.25841   4.28360
 Alpha virt. eigenvalues --    4.30146   4.33553   4.38176   4.38459   4.40818
 Alpha virt. eigenvalues --    4.43393   4.45446   4.48781   4.49170   4.51597
 Alpha virt. eigenvalues --    4.52399   4.55723   4.57315   4.59872   4.62232
 Alpha virt. eigenvalues --    4.62649   4.66179   4.69900   4.71620   4.76940
 Alpha virt. eigenvalues --    4.77011   4.79431   4.80845   4.83712   4.85158
 Alpha virt. eigenvalues --    4.91592   4.93200   4.96720   5.02655   5.05667
 Alpha virt. eigenvalues --    5.07378   5.07623   5.09349   5.10537   5.15384
 Alpha virt. eigenvalues --    5.19025   5.22256   5.25498   5.33086   5.33391
 Alpha virt. eigenvalues --    5.40904   5.48991   5.50385   5.55043   5.58444
 Alpha virt. eigenvalues --    5.67969   5.71511   5.73125   5.78629   5.81678
 Alpha virt. eigenvalues --    5.92079   5.95393   5.99293   6.08979   6.34050
 Alpha virt. eigenvalues --    6.38745   6.46567   6.56348   6.77392   6.82224
 Alpha virt. eigenvalues --    6.85908   9.81181  10.47803  10.75332  11.25106
 Alpha virt. eigenvalues --   11.61937  12.02698  12.36190  13.00194  13.20234
          Condensed to atoms (all electrons):
               1          2          3          4          5          6
     1  C    5.183759   0.348769  -0.051404  -0.015064  -0.010311   0.008814
     2  C    0.348769   5.266302   0.332023  -0.010095  -0.010181  -0.039296
     3  C   -0.051404   0.332023   5.265670   0.242380  -0.066061   0.370743
     4  C   -0.015064  -0.010095   0.242380   4.629517   0.746391  -0.054580
     5  O   -0.010311  -0.010181  -0.066061   0.746391   7.641964   0.004063
     6  C    0.008814  -0.039296   0.370743  -0.054580   0.004063   5.024858
     7  C    0.010452  -0.098157  -0.038170   0.001904  -0.000196   0.521090
     8  C   -0.046677   0.199417   0.039917   0.005795   0.000356  -0.006250
     9  O    0.001503  -0.082038   0.003860  -0.000090  -0.000000   0.003795
    10  H    0.358913  -0.005456  -0.016472   0.005099   0.021641  -0.000252
    11  H    0.362936  -0.021497  -0.000500   0.000333   0.000375  -0.000112
    12  H    0.362944  -0.021467  -0.000508   0.000334   0.000374  -0.000117
    13  H   -0.000057   0.009906  -0.122907   0.357578  -0.050446   0.000048
    14  H   -0.000069   0.008197  -0.041300  -0.004122   0.000007   0.357961
    15  H   -0.000084   0.007367   0.001844  -0.000048   0.000000  -0.035982
               7          8          9         10         11         12
     1  C    0.010452  -0.046677   0.001503   0.358913   0.362936   0.362944
     2  C   -0.098157   0.199417  -0.082038  -0.005456  -0.021497  -0.021467
     3  C   -0.038170   0.039917   0.003860  -0.016472  -0.000500  -0.000508
     4  C    0.001904   0.005795  -0.000090   0.005099   0.000333   0.000334
     5  O   -0.000196   0.000356  -0.000000   0.021641   0.000375   0.000374
     6  C    0.521090  -0.006250   0.003795  -0.000252  -0.000112  -0.000117
     7  C    5.214922   0.353629  -0.077011   0.000045   0.000252   0.000255
     8  C    0.353629   4.311255   0.805285   0.002314   0.000215   0.000222
     9  O   -0.077011   0.805285   7.638179   0.000155   0.001510   0.001533
    10  H    0.000045   0.002314   0.000155   0.513894  -0.026583  -0.026571
    11  H    0.000252   0.000215   0.001510  -0.026583   0.559815  -0.025475
    12  H    0.000255   0.000222   0.001533  -0.026571  -0.025475   0.559641
    13  H   -0.000158  -0.000077  -0.000000   0.000437   0.000013   0.000013
    14  H   -0.035808   0.001759  -0.000062  -0.000000   0.000004   0.000004
    15  H    0.367649  -0.028223  -0.000319   0.000002  -0.000002  -0.000002
              13         14         15
     1  C   -0.000057  -0.000069  -0.000084
     2  C    0.009906   0.008197   0.007367
     3  C   -0.122907  -0.041300   0.001844
     4  C    0.357578  -0.004122  -0.000048
     5  O   -0.050446   0.000007   0.000000
     6  C    0.000048   0.357961  -0.035982
     7  C   -0.000158  -0.035808   0.367649
     8  C   -0.000077   0.001759  -0.028223
     9  O   -0.000000  -0.000062  -0.000319
    10  H    0.000437  -0.000000   0.000002
    11  H    0.000013   0.000004  -0.000002
    12  H    0.000013   0.000004  -0.000002
    13  H    0.713016   0.004901  -0.000001
    14  H    0.004901   0.587547  -0.001939
    15  H   -0.000001  -0.001939   0.559406
 Mulliken charges:
               1
     1  C   -0.514425
     2  C    0.116206
     3  C    0.080885
     4  C    0.094669
     5  O   -0.277976
     6  C   -0.154783
     7  C   -0.220696
     8  C    0.361063
     9  O   -0.296299
    10  H    0.172832
    11  H    0.148716
    12  H    0.148820
    13  H    0.087735
    14  H    0.122921
    15  H    0.130333
 Sum of Mulliken charges =  -0.00000
 Mulliken charges with hydrogens summed into heavy atoms:
               1
     1  C   -0.044057
     2  C    0.116206
     3  C    0.080885
     4  C    0.182404
     5  O   -0.277976
     6  C   -0.031862
     7  C   -0.090364
     8  C    0.361063
     9  O   -0.296299
 Electronic spatial extent (au):  <R**2>=           1125.7986
 Charge=             -0.0000 electrons
 Dipole moment (field-independent basis, Debye):
    X=              0.0384    Y=             -2.3885    Z=              0.0037  Tot=              2.3888
 Quadrupole moment (field-independent basis, Debye-Ang):
   XX=            -62.8467   YY=            -45.2078   ZZ=            -50.0053
   XY=              0.4249   XZ=             -0.0216   YZ=              0.0061
 Traceless Quadrupole moment (field-independent basis, Debye-Ang):
   XX=            -10.1601   YY=              7.4788   ZZ=              2.6813
   XY=              0.4249   XZ=             -0.0216   YZ=              0.0061
 Octapole moment (field-independent basis, Debye-Ang**2):
  XXX=             -7.8564  YYY=             -0.6541  ZZZ=             -0.0083  XYY=              4.5630
  XXY=            -20.0506  XXZ=              0.0361  XZZ=              0.7002  YZZ=              5.2027
  YYZ=              0.0013  XYZ=              0.0056
 Hexadecapole moment (field-independent basis, Debye-Ang**3):
 XXXX=           -974.1723 YYYY=           -473.6010 ZZZZ=            -52.7985 XXXY=              8.3559
 XXXZ=             -0.1372 YYYX=              0.0632 YYYZ=             -0.0043 ZZZX=              0.0318
 ZZZY=              0.0067 XXYY=           -218.8499 XXZZ=           -146.9982 YYZZ=            -92.8029
 XXYZ=             -0.0131 YYXZ=             -0.0400 ZZXY=             -4.9685
 N-N= 4.060560069185D+02 E-N=-1.793782702897D+03  KE= 4.180028058679D+02
 PrsmSu:  requested number of processors reduced to:  13 ShMem   1 Linda.
 Calling FoFJK, ICntrl=      2127 FMM=F ISym2X=0 I1Cent= 0 IOpClX= 0 NMat=1 NMatS=1 NMatT=0.
 ***** Axes restored to original set *****
 -------------------------------------------------------------------
 Center     Atomic                   Forces (Hartrees/Bohr)
 Number     Number              X              Y              Z
 -------------------------------------------------------------------
      1        6          -0.007639072    0.008972809    0.000020427
      2        6          -0.014738617    0.004153904   -0.000032258
      3        6          -0.030090546    0.037727023   -0.000015908
      4        6          -0.020392918   -0.002369972   -0.000012267
      5        8           0.020057850   -0.002097796   -0.000017096
      6        6           0.037335110   -0.009731356    0.000157318
      7        6           0.007120835    0.007134134   -0.000060717
      8        6           0.002117140   -0.048417766    0.000041125
      9        8          -0.003908065    0.006908725    0.000035261
     10        1           0.004466514    0.000433503   -0.000022758
     11        1          -0.000660962   -0.005639447   -0.001363978
     12        1          -0.000668362   -0.005643937    0.001325171
     13        1           0.004866058    0.004102277   -0.000000884
     14        1          -0.000166850    0.005048093    0.000023379
     15        1           0.002301885   -0.000580193   -0.000076814
 -------------------------------------------------------------------
 Cartesian Forces:  Max     0.048417766 RMS     0.013074394

 GradGradGradGradGradGradGradGradGradGradGradGradGradGradGradGradGradGrad
 Berny optimization.
 FormGI is forming the generalized inverse of G from B-inverse, IUseBI=4.
 Internal  Forces:  Max     0.033653780 RMS     0.007850776
 Search for a local minimum.
 Step number   1 out of a maximum of   79
 All quantities printed in internal units (Hartrees-Bohrs-Radians)
 Mixed Optimization -- RFO/linear search
 Second derivative matrix not updated -- first step.
 ITU=  0
     Eigenvalues ---    0.01021   0.01021   0.01078   0.01149   0.01504
     Eigenvalues ---    0.01579   0.01895   0.01961   0.02228   0.02439
     Eigenvalues ---    0.07281   0.07526   0.16000   0.16000   0.16000
     Eigenvalues ---    0.16000   0.16000   0.16000   0.22000   0.22757
     Eigenvalues ---    0.24766   0.25000   0.25000   0.25000   0.33555
     Eigenvalues ---    0.33652   0.34405   0.34410   0.34488   0.34748
     Eigenvalues ---    0.34781   0.34986   0.35927   0.36581   0.38196
     Eigenvalues ---    0.52707   0.56954   0.93234   0.96272
 RFO step:  Lambda=-1.14390695D-02 EMin= 1.02102417D-02
 Linear search not attempted -- first point.
 Iteration  1 RMS(Cart)=  0.04395170 RMS(Int)=  0.00072415
 Iteration  2 RMS(Cart)=  0.00088212 RMS(Int)=  0.00004853
 Iteration  3 RMS(Cart)=  0.00000030 RMS(Int)=  0.00004853
 Variable       Old X    -DE/DX   Delta X   Delta X   Delta X     New X
                                 (Linear)    (Quad)   (Total)
    R1        2.78998   0.00460   0.00000   0.01274   0.01274   2.80272
    R2        2.06085  -0.00159   0.00000  -0.00442  -0.00442   2.05643
    R3        2.06652   0.00185   0.00000   0.00521   0.00521   2.07172
    R4        2.06644   0.00187   0.00000   0.00527   0.00527   2.07171
    R5        2.53198   0.02206   0.00000   0.03981   0.03984   2.57182
    R6        2.78412   0.02956   0.00000   0.08103   0.08113   2.86525
    R7        2.79815  -0.00157   0.00000  -0.00441  -0.00441   2.79374
    R8        2.72754   0.03365   0.00000   0.08530   0.08523   2.81277
    R9        2.31477  -0.01970   0.00000  -0.02087  -0.02087   2.29390
   R10        2.07921   0.00636   0.00000   0.01829   0.01829   2.09749
   R11        2.52547   0.00832   0.00000   0.01289   0.01281   2.53828
   R12        2.04196   0.00282   0.00000   0.00761   0.00761   2.04957
   R13        2.77536   0.01916   0.00000   0.04862   0.04864   2.82400
   R14        2.03182   0.00215   0.00000   0.00569   0.00569   2.03751
   R15        2.30170  -0.00531   0.00000  -0.00545  -0.00545   2.29625
    A1        1.97090  -0.00470   0.00000  -0.01934  -0.01930   1.95160
    A2        1.92171   0.00069   0.00000   0.00011   0.00006   1.92178
    A3        1.92197   0.00068   0.00000  -0.00001  -0.00006   1.92191
    A4        1.87197   0.00379   0.00000   0.02989   0.02993   1.90190
    A5        1.87223   0.00378   0.00000   0.02966   0.02970   1.90193
    A6        1.90299  -0.00421   0.00000  -0.04046  -0.04060   1.86239
    A7        2.32879  -0.00152   0.00000  -0.00780  -0.00786   2.32092
    A8        2.12830  -0.00341   0.00000  -0.01502  -0.01508   2.11322
    A9        1.82610   0.00492   0.00000   0.02282   0.02294   1.84904
   A10        2.16908   0.01485   0.00000   0.05387   0.05388   2.22296
   A11        1.93544  -0.00754   0.00000  -0.02293  -0.02296   1.91248
   A12        2.17866  -0.00732   0.00000  -0.03094  -0.03092   2.14774
   A13        2.16366   0.00675   0.00000   0.02915   0.02915   2.19281
   A14        2.01689  -0.00349   0.00000  -0.01528  -0.01528   2.00161
   A15        2.10264  -0.00325   0.00000  -0.01387  -0.01387   2.08877
   A16        1.93070   0.00102   0.00000   0.00321   0.00307   1.93377
   A17        2.18102  -0.00479   0.00000  -0.02656  -0.02649   2.15453
   A18        2.17147   0.00377   0.00000   0.02335   0.02342   2.19489
   A19        1.83391   0.00812   0.00000   0.02658   0.02652   1.86043
   A20        2.28367  -0.00509   0.00000  -0.01930  -0.01927   2.26440
   A21        2.16560  -0.00303   0.00000  -0.00728  -0.00725   2.15836
   A22        1.89861  -0.00653   0.00000  -0.02967  -0.02956   1.86905
   A23        2.20293  -0.00352   0.00000  -0.01113  -0.01118   2.19175
   A24        2.18164   0.01005   0.00000   0.04080   0.04074   2.22238
    D1       -0.00043   0.00001   0.00000   0.00014   0.00014  -0.00028
    D2        3.14010   0.00002   0.00000   0.00041   0.00041   3.14051
    D3       -2.09228  -0.00218   0.00000  -0.02513  -0.02505  -2.11733
    D4        1.04825  -0.00217   0.00000  -0.02486  -0.02479   1.02347
    D5        2.09193   0.00217   0.00000   0.02504   0.02497   2.11690
    D6       -1.05073   0.00218   0.00000   0.02531   0.02523  -1.02549
    D7        0.00015   0.00001   0.00000   0.00005   0.00004   0.00019
    D8        3.14002   0.00001   0.00000   0.00075   0.00076   3.14078
    D9       -3.14051   0.00000   0.00000  -0.00017  -0.00018  -3.14069
   D10       -0.00064   0.00001   0.00000   0.00053   0.00054  -0.00010
   D11       -3.13829  -0.00007   0.00000  -0.00248  -0.00246  -3.14074
   D12        0.00432  -0.00001   0.00000  -0.00045  -0.00048   0.00384
   D13        0.00251  -0.00007   0.00000  -0.00229  -0.00227   0.00024
   D14       -3.13807  -0.00001   0.00000  -0.00026  -0.00030  -3.13836
   D15       -0.00023  -0.00001   0.00000  -0.00032  -0.00031  -0.00055
   D16        3.14086   0.00001   0.00000   0.00084   0.00085  -3.14147
   D17       -3.13987  -0.00002   0.00000  -0.00114  -0.00115  -3.14102
   D18        0.00122   0.00001   0.00000   0.00003   0.00002   0.00124
   D19       -0.00165   0.00005   0.00000   0.00156   0.00155  -0.00010
   D20        3.14074  -0.00000   0.00000  -0.00027  -0.00026   3.14048
   D21        3.13821   0.00008   0.00000   0.00236   0.00233   3.14055
   D22       -0.00258   0.00003   0.00000   0.00053   0.00052  -0.00206
   D23        0.00309  -0.00007   0.00000  -0.00280  -0.00284   0.00025
   D24       -3.13988  -0.00005   0.00000  -0.00178  -0.00183   3.14148
   D25       -3.13929  -0.00002   0.00000  -0.00101  -0.00101  -3.14031
   D26        0.00092  -0.00000   0.00000   0.00000   0.00000   0.00092
   D27       -0.00348   0.00009   0.00000   0.00319   0.00318  -0.00030
   D28        3.13711   0.00002   0.00000   0.00115   0.00113   3.13823
   D29        3.13937   0.00007   0.00000   0.00228   0.00226  -3.14156
   D30       -0.00323   0.00001   0.00000   0.00024   0.00021  -0.00302
         Item               Value     Threshold  Converged?
 Maximum Force            0.033654     0.000450     NO 
 RMS     Force            0.007851     0.000300     NO 
 Maximum Displacement     0.201048     0.001800     NO 
 RMS     Displacement     0.043591     0.001200     NO 
 Predicted change in Energy=-5.929795D-03
 GradGradGradGradGradGradGradGradGradGradGradGradGradGradGradGradGradGrad

                          Input orientation:                          
 ---------------------------------------------------------------------
 Center     Atomic      Atomic             Coordinates (Angstroms)
 Number     Number       Type             X           Y           Z
 ---------------------------------------------------------------------
      1          6           0        0.870629   -0.139763   -0.004897
      2          6           0        2.350077   -0.035243   -0.003891
      3          6           0        3.205405    1.023340   -0.002473
      4          6           0        2.855373    2.459686   -0.001263
      5          8           0        1.729429    2.913290   -0.001900
      6          6           0        4.609684    0.529896   -0.000881
      7          6           0        4.643344   -0.812883   -0.001156
      8          6           0        3.222338   -1.275442   -0.003350
      9          8           0        2.820684   -2.422254   -0.007461
     10          1           0        0.395982    0.839482   -0.004085
     11          1           0        0.531797   -0.700778    0.873936
     12          1           0        0.532720   -0.698905   -0.885267
     13          1           0        3.725479    3.148812   -0.000311
     14          1           0        5.473658    1.185541   -0.000589
     15          1           0        5.489440   -1.481199   -0.000380
 ---------------------------------------------------------------------
                    Distance matrix (angstroms):
                    1          2          3          4          5
     1  C    0.000000
     2  C    1.483136   0.000000
     3  C    2.608447   1.360951   0.000000
     4  C    3.270529   2.545585   1.478382   0.000000
     5  O    3.171542   3.013147   2.398002   1.213881   0.000000
     6  C    3.798551   2.329209   1.488451   2.608006   3.738506
     7  C    3.832295   2.421530   2.332250   3.729149   4.730250
     8  C    2.611571   1.516223   2.298845   3.753112   4.446825
     9  O    3.002080   2.432962   3.467010   4.882067   5.445998
    10  H    1.088214   2.140942   2.815433   2.945111   2.465516
    11  H    1.096308   2.125949   3.299827   4.019144   3.906776
    12  H    1.096300   2.126043   3.299803   4.019065   3.906457
    13  H    4.354872   3.468421   2.188175   1.109945   2.009897
    14  H    4.790024   3.353667   2.274045   2.911848   4.123635
    15  H    4.809666   3.456356   3.389621   4.740135   5.783529
                    6          7          8          9         10
     6  C    0.000000
     7  C    1.343202   0.000000
     8  C    2.276836   1.494397   0.000000
     9  O    3.451920   2.431502   1.215122   0.000000
    10  H    4.225060   4.557456   3.530041   4.064248   0.000000
    11  H    4.348451   4.205137   2.887712   2.996556   1.778135
    12  H    4.348991   4.206171   2.888636   2.995873   1.778149
    13  H    2.764152   4.066633   4.452772   5.644066   4.051983
    14  H    1.084584   2.164053   3.335399   4.478226   5.089456
    15  H    2.195102   1.078204   2.276422   2.829822   5.597221
                   11         12         13         14         15
    11  H    0.000000
    12  H    1.759204   0.000000
    13  H    5.077721   5.077576   0.000000
    14  H    5.361435   5.361591   2.628795   0.000000
    15  H    5.094282   5.095496   4.954650   2.666787   0.000000
 Stoichiometry    C7H6O2
 Framework group  C1[X(C7H6O2)]
 Deg. of freedom    39
 Full point group                 C1      NOp   1
 Largest Abelian subgroup         C1      NOp   1
 Largest concise Abelian subgroup C1      NOp   1
                         Standard orientation:                         
 ---------------------------------------------------------------------
 Center     Atomic      Atomic             Coordinates (Angstroms)
 Number     Number       Type             X           Y           Z
 ---------------------------------------------------------------------
      1          6           0        0.167333    2.023258    0.000768
      2          6           0       -0.143019    0.572957    0.000066
      3          6           0        0.636467   -0.542655   -0.000490
      4          6           0        2.113526   -0.605181   -0.000321
      5          8           0        2.861909    0.350554   -0.000186
      6          6           0       -0.227468   -1.754721    0.000067
      7          6           0       -1.526799   -1.414241    0.001083
      8          6           0       -1.576636    0.079325    0.000888
      9          8           0       -2.566844    0.783599   -0.001653
     10          1           0        1.239862    2.207359    0.001127
     11          1           0       -0.276978    2.503374    0.880522
     12          1           0       -0.276578    2.504283   -0.878681
     13          1           0        2.533977   -1.632410   -0.000995
     14          1           0        0.162521   -2.766763   -0.001227
     15          1           0       -2.403753   -2.041517    0.001603
 ---------------------------------------------------------------------
 Rotational constants (GHZ):           3.0173383           1.3679125           0.9467125
 Standard basis: 6-31G(2df,p) (6D, 7F)
 There are   309 symmetry adapted cartesian basis functions of A   symmetry.
 There are   282 symmetry adapted basis functions of A   symmetry.
   282 basis functions,   438 primitive gaussians,   309 cartesian basis functions
    32 alpha electrons       32 beta electrons
       nuclear repulsion energy       401.0343934660 Hartrees.
 NAtoms=   15 NActive=   15 NUniq=   15 SFac= 1.00D+00 NAtFMM=   60 NAOKFM=F Big=F
 Integral buffers will be    131072 words long.
 Raffenetti 2 integral format.
 Two-electron integral symmetry is turned on.
 One-electron integrals computed using PRISM.
 PrsmSu:  requested number of processors reduced to:  13 ShMem   1 Linda.
 NBasis=   282 RedAO= T EigKep=  2.83D-04  NBF=   282
 NBsUse=   282 1.00D-06 EigRej= -1.00D+00 NBFU=   282
 Initial guess from the checkpoint file:  "CC1dCpCdOpCdCC1dO.chk"
 B after Tr=    -0.000000   -0.000000   -0.000000
         Rot=    0.999870    0.000008   -0.000001   -0.016148 Ang=   1.85 deg.
 ExpMin= 1.61D-01 ExpMax= 5.48D+03 ExpMxC= 8.25D+02 IAcc=2 IRadAn=         4 AccDes= 0.00D+00
 Harris functional with IExCor=  402 and IRadAn=       4 diagonalized for initial guess.
 HarFok:  IExCor=  402 AccDes= 0.00D+00 IRadAn=         4 IDoV= 1 UseB2=F ITyADJ=14
 ICtDFT=  3500011 ScaDFX=  1.000000  1.000000  1.000000  1.000000
 FoFCou: FMM=F IPFlag=           0 FMFlag=      100000 FMFlg1=           0
         NFxFlg=           0 DoJE=T BraDBF=F KetDBF=T FulRan=T
         wScrn=  0.000000 ICntrl=       500 IOpCl=  0 I1Cent=   200000004 NGrid=           0
         NMat0=    1 NMatS0=      1 NMatT0=    0 NMatD0=    1 NMtDS0=    0 NMtDT0=    0
 Petite list used in FoFCou.
 Requested convergence on RMS density matrix=1.00D-08 within 128 cycles.
 Requested convergence on MAX density matrix=1.00D-06.
 Requested convergence on             energy=1.00D-06.
 No special actions if energy rises.
 Integral accuracy reduced to 1.0D-05 until final iterations.
 EnCoef did     2 forward-backward iterations
 Initial convergence to 1.0D-05 achieved.  Increase integral accuracy.
 SCF Done:  E(RB3LYP) =  -420.776321932     A.U. after   13 cycles
            NFock= 13  Conv=0.82D-08     -V/T= 2.0074
 PrsmSu:  requested number of processors reduced to:  13 ShMem   1 Linda.
 Calling FoFJK, ICntrl=      2127 FMM=F ISym2X=0 I1Cent= 0 IOpClX= 0 NMat=1 NMatS=1 NMatT=0.
 ***** Axes restored to original set *****
 -------------------------------------------------------------------
 Center     Atomic                   Forces (Hartrees/Bohr)
 Number     Number              X              Y              Z
 -------------------------------------------------------------------
      1        6          -0.000803109    0.004084731   -0.000003775
      2        6           0.003219105    0.007659143    0.000132235
      3        6          -0.015156651    0.002402983    0.000067044
      4        6          -0.003202046   -0.001114374   -0.000124648
      5        8           0.002537825   -0.002993395    0.000027532
      6        6           0.008779775   -0.009200610   -0.000056318
      7        6          -0.001723327    0.007307389    0.000112245
      8        6           0.001891096   -0.017629454   -0.000341646
      9        8           0.001363258    0.010513042    0.000157096
     10        1           0.000844652    0.001135259   -0.000006743
     11        1           0.000135450   -0.001531206   -0.000651363
     12        1           0.000135854   -0.001534976    0.000641586
     13        1           0.002469223   -0.000370410    0.000037809
     14        1          -0.001389842    0.001140093    0.000024992
     15        1           0.000898737    0.000131787   -0.000016048
 -------------------------------------------------------------------
 Cartesian Forces:  Max     0.017629454 RMS     0.004741480

 GradGradGradGradGradGradGradGradGradGradGradGradGradGradGradGradGradGrad
 Berny optimization.
 Using GEDIIS/GDIIS optimizer.
 FormGI is forming the generalized inverse of G from B-inverse, IUseBI=4.
 Internal  Forces:  Max     0.010373129 RMS     0.002398693
 Search for a local minimum.
 Step number   2 out of a maximum of   79
 All quantities printed in internal units (Hartrees-Bohrs-Radians)
 Mixed Optimization -- RFO/linear search
 Update second derivatives using D2CorX and points    1    2
 DE= -6.30D-03 DEPred=-5.93D-03 R= 1.06D+00
 TightC=F SS=  1.41D+00  RLast= 1.92D-01 DXNew= 5.0454D-01 5.7694D-01
 Trust test= 1.06D+00 RLast= 1.92D-01 DXMaxT set to 5.05D-01
 ITU=  1  0
 Use linear search instead of GDIIS.
     Eigenvalues ---    0.01021   0.01021   0.01078   0.01150   0.01512
     Eigenvalues ---    0.01587   0.01918   0.01961   0.02223   0.02452
     Eigenvalues ---    0.07313   0.07510   0.15237   0.16000   0.16000
     Eigenvalues ---    0.16000   0.16000   0.16093   0.22186   0.22466
     Eigenvalues ---    0.23092   0.24865   0.25000   0.25778   0.31297
     Eigenvalues ---    0.33657   0.34377   0.34408   0.34519   0.34733
     Eigenvalues ---    0.34779   0.35075   0.35943   0.36497   0.36733
     Eigenvalues ---    0.53278   0.63581   0.91991   0.97559
 RFO step:  Lambda=-1.02940537D-03 EMin= 1.02102363D-02
 Quartic linear search produced a step of  0.16787.
 Iteration  1 RMS(Cart)=  0.01260172 RMS(Int)=  0.00008805
 Iteration  2 RMS(Cart)=  0.00010027 RMS(Int)=  0.00002647
 Iteration  3 RMS(Cart)=  0.00000001 RMS(Int)=  0.00002647
 Variable       Old X    -DE/DX   Delta X   Delta X   Delta X     New X
                                 (Linear)    (Quad)   (Total)
    R1        2.80272  -0.00046   0.00214  -0.00247  -0.00033   2.80239
    R2        2.05643   0.00065  -0.00074   0.00251   0.00177   2.05819
    R3        2.07172   0.00022   0.00087   0.00036   0.00124   2.07296
    R4        2.07171   0.00023   0.00088   0.00038   0.00127   2.07297
    R5        2.57182  -0.00845   0.00669  -0.02045  -0.01376   2.55806
    R6        2.86525   0.00602   0.01362   0.01432   0.02797   2.89322
    R7        2.79374  -0.00478  -0.00074  -0.01580  -0.01655   2.77719
    R8        2.81277   0.00678   0.01431   0.01334   0.02761   2.84038
    R9        2.29390  -0.00347  -0.00350  -0.00271  -0.00621   2.28769
   R10        2.09749   0.00171   0.00307   0.00458   0.00765   2.10514
   R11        2.53828  -0.00513   0.00215  -0.01133  -0.00920   2.52909
   R12        2.04957  -0.00042   0.00128  -0.00191  -0.00063   2.04893
   R13        2.82400   0.00113   0.00817   0.00067   0.00886   2.83286
   R14        2.03751   0.00062   0.00096   0.00157   0.00252   2.04003
   R15        2.29625  -0.01037  -0.00092  -0.01214  -0.01305   2.28320
    A1        1.95160  -0.00126  -0.00324  -0.00408  -0.00731   1.94429
    A2        1.92178  -0.00006   0.00001  -0.00236  -0.00239   1.91938
    A3        1.92191  -0.00007  -0.00001  -0.00246  -0.00251   1.91941
    A4        1.90190   0.00125   0.00502   0.01091   0.01594   1.91784
    A5        1.90193   0.00124   0.00499   0.01082   0.01582   1.91775
    A6        1.86239  -0.00105  -0.00682  -0.01296  -0.01986   1.84253
    A7        2.32092  -0.00377  -0.00132  -0.01692  -0.01826   2.30267
    A8        2.11322   0.00252  -0.00253   0.01285   0.01030   2.12352
    A9        1.84904   0.00125   0.00385   0.00407   0.00795   1.85700
   A10        2.22296   0.00094   0.00904   0.00137   0.01043   2.23339
   A11        1.91248  -0.00032  -0.00385  -0.00130  -0.00519   1.90730
   A12        2.14774  -0.00063  -0.00519  -0.00007  -0.00525   2.14250
   A13        2.19281  -0.00152   0.00489  -0.00999  -0.00510   2.18770
   A14        2.00161  -0.00115  -0.00257  -0.00882  -0.01139   1.99021
   A15        2.08877   0.00267  -0.00233   0.01882   0.01648   2.10526
   A16        1.93377   0.00043   0.00051   0.00100   0.00147   1.93524
   A17        2.15453  -0.00200  -0.00445  -0.01194  -0.01637   2.13816
   A18        2.19489   0.00158   0.00393   0.01094   0.01490   2.20978
   A19        1.86043   0.00068   0.00445   0.00243   0.00688   1.86731
   A20        2.26440  -0.00101  -0.00323  -0.00572  -0.00895   2.25544
   A21        2.15836   0.00033  -0.00122   0.00329   0.00207   2.16043
   A22        1.86905  -0.00203  -0.00496  -0.00621  -0.01112   1.85793
   A23        2.19175  -0.00150  -0.00188  -0.00678  -0.00869   2.18306
   A24        2.22238   0.00353   0.00684   0.01300   0.01981   2.24219
    D1       -0.00028  -0.00000   0.00002  -0.00047  -0.00045  -0.00073
    D2        3.14051   0.00002   0.00007   0.00109   0.00116  -3.14152
    D3       -2.11733  -0.00069  -0.00421  -0.00994  -0.01411  -2.13143
    D4        1.02347  -0.00068  -0.00416  -0.00838  -0.01250   1.01097
    D5        2.11690   0.00068   0.00419   0.00882   0.01297   2.12987
    D6       -1.02549   0.00069   0.00424   0.01038   0.01458  -1.01092
    D7        0.00019  -0.00001   0.00001  -0.00033  -0.00032  -0.00013
    D8        3.14078  -0.00000   0.00013  -0.00002   0.00012   3.14090
    D9       -3.14069  -0.00003  -0.00003  -0.00172  -0.00175   3.14074
   D10       -0.00010  -0.00002   0.00009  -0.00141  -0.00131  -0.00141
   D11       -3.14074   0.00003  -0.00041   0.00119   0.00075  -3.13999
   D12        0.00384  -0.00007  -0.00008  -0.00607  -0.00610  -0.00226
   D13        0.00024   0.00004  -0.00038   0.00236   0.00198   0.00222
   D14       -3.13836  -0.00006  -0.00005  -0.00489  -0.00487   3.13996
   D15       -0.00055   0.00003  -0.00005   0.00269   0.00264   0.00210
   D16       -3.14147  -0.00003   0.00014  -0.00336  -0.00321   3.13850
   D17       -3.14102   0.00002  -0.00019   0.00234   0.00215  -3.13887
   D18        0.00124  -0.00004   0.00000  -0.00371  -0.00371  -0.00247
   D19       -0.00010  -0.00000   0.00026  -0.00014   0.00011   0.00001
   D20        3.14048   0.00002  -0.00004   0.00123   0.00118  -3.14152
   D21        3.14055   0.00000   0.00039   0.00016   0.00054   3.14108
   D22       -0.00206   0.00003   0.00009   0.00152   0.00160  -0.00045
   D23        0.00025   0.00003  -0.00048   0.00164   0.00117   0.00142
   D24        3.14148   0.00001  -0.00031   0.00084   0.00056  -3.14115
   D25       -3.14031   0.00001  -0.00017   0.00026   0.00007  -3.14023
   D26        0.00092  -0.00001   0.00000  -0.00055  -0.00054   0.00038
   D27       -0.00030  -0.00004   0.00053  -0.00245  -0.00192  -0.00222
   D28        3.13823   0.00004   0.00019   0.00492   0.00518  -3.13978
   D29       -3.14156  -0.00003   0.00038  -0.00171  -0.00134   3.14029
   D30       -0.00302   0.00006   0.00003   0.00567   0.00575   0.00273
         Item               Value     Threshold  Converged?
 Maximum Force            0.010373     0.000450     NO 
 RMS     Force            0.002399     0.000300     NO 
 Maximum Displacement     0.042968     0.001800     NO 
 RMS     Displacement     0.012616     0.001200     NO 
 Predicted change in Energy=-6.001131D-04
 GradGradGradGradGradGradGradGradGradGradGradGradGradGradGradGradGradGrad

                          Input orientation:                          
 ---------------------------------------------------------------------
 Center     Atomic      Atomic             Coordinates (Angstroms)
 Number     Number       Type             X           Y           Z
 ---------------------------------------------------------------------
      1          6           0        0.868663   -0.126321   -0.004986
      2          6           0        2.348982   -0.037834   -0.004068
      3          6           0        3.191884    1.021377   -0.003035
      4          6           0        2.848214    2.450255   -0.002668
      5          8           0        1.724370    2.900268   -0.001187
      6          6           0        4.611062    0.526273   -0.001466
      7          6           0        4.649570   -0.811507   -0.001539
      8          6           0        3.229106   -1.290598   -0.005235
      9          8           0        2.819243   -2.427170   -0.004710
     10          1           0        0.411460    0.862219   -0.004013
     11          1           0        0.526835   -0.696346    0.867685
     12          1           0        0.527758   -0.694097   -0.879490
     13          1           0        3.731348    3.129249    0.001381
     14          1           0        5.462423    1.197675   -0.000387
     15          1           0        5.505122   -1.469864   -0.000253
 ---------------------------------------------------------------------
                    Distance matrix (angstroms):
                    1          2          3          4          5
     1  C    0.000000
     2  C    1.482961   0.000000
     3  C    2.591249   1.353667   0.000000
     4  C    3.249211   2.537680   1.469626   0.000000
     5  O    3.145233   3.003763   2.384079   1.210595   0.000000
     6  C    3.798874   2.331359   1.503063   2.609472   3.737492
     7  C    3.842493   2.427197   2.341862   3.726121   4.725894
     8  C    2.631964   1.531025   2.312276   3.760195   4.452820
     9  O    3.016400   2.435174   3.468623   4.877512   5.438783
    10  H    1.089149   2.136372   2.784976   2.908544   2.424332
    11  H    1.096964   2.124573   3.288041   4.005922   3.889044
    12  H    1.096970   2.124594   3.287643   4.005032   3.888799
    13  H    4.335175   3.455630   2.175813   1.113991   2.020000
    14  H    4.780755   3.349629   2.277374   2.898802   4.107538
    15  H    4.827202   3.465826   3.399612   4.735663   5.778594
                    6          7          8          9         10
     6  C    0.000000
     7  C    1.338335   0.000000
     8  C    2.282726   1.499086   0.000000
     9  O    3.454483   2.441408   1.208215   0.000000
    10  H    4.213018   4.556637   3.545948   4.076457   0.000000
    11  H    4.350993   4.214944   2.901274   3.001993   1.789496
    12  H    4.351276   4.215912   2.901279   3.003279   1.789442
    13  H    2.747615   4.046319   4.448296   5.630787   4.020088
    14  H    1.084249   2.167382   3.343536   4.486192   5.062091
    15  H    2.187215   1.079539   2.283070   2.851385   5.602144
                   11         12         13         14         15
    11  H    0.000000
    12  H    1.747176   0.000000
    13  H    5.065034   5.065264   0.000000
    14  H    5.357321   5.357476   2.593762   0.000000
    15  H    5.112239   5.113612   4.929312   2.667881   0.000000
 Stoichiometry    C7H6O2
 Framework group  C1[X(C7H6O2)]
 Deg. of freedom    39
 Full point group                 C1      NOp   1
 Largest Abelian subgroup         C1      NOp   1
 Largest concise Abelian subgroup C1      NOp   1
                         Standard orientation:                         
 ---------------------------------------------------------------------
 Center     Atomic      Atomic             Coordinates (Angstroms)
 Number     Number       Type             X           Y           Z
 ---------------------------------------------------------------------
      1          6           0        0.196864    2.017847    0.000127
      2          6           0       -0.138614    0.573330   -0.000285
      3          6           0        0.637666   -0.535634   -0.000754
      4          6           0        2.105316   -0.611826   -0.001149
      5          8           0        2.855914    0.337983    0.000960
      6          6           0       -0.240023   -1.755822   -0.000032
      7          6           0       -1.533676   -1.412894    0.000850
      8          6           0       -1.589721    0.085142   -0.001278
      9          8           0       -2.563136    0.800855    0.000436
     10          1           0        1.274536    2.175543    0.000760
     11          1           0       -0.252235    2.506561    0.873510
     12          1           0       -0.251153    2.506835   -0.873665
     13          1           0        2.505607   -1.651410    0.001644
     14          1           0        0.162010   -2.762781   -0.000176
     15          1           0       -2.407862   -2.046300    0.001892
 ---------------------------------------------------------------------
 Rotational constants (GHZ):           3.0176090           1.3693864           0.9473694
 Standard basis: 6-31G(2df,p) (6D, 7F)
 There are   309 symmetry adapted cartesian basis functions of A   symmetry.
 There are   282 symmetry adapted basis functions of A   symmetry.
   282 basis functions,   438 primitive gaussians,   309 cartesian basis functions
    32 alpha electrons       32 beta electrons
       nuclear repulsion energy       401.1431172622 Hartrees.
 NAtoms=   15 NActive=   15 NUniq=   15 SFac= 1.00D+00 NAtFMM=   60 NAOKFM=F Big=F
 Integral buffers will be    131072 words long.
 Raffenetti 2 integral format.
 Two-electron integral symmetry is turned on.
 One-electron integrals computed using PRISM.
 PrsmSu:  requested number of processors reduced to:  13 ShMem   1 Linda.
 NBasis=   282 RedAO= T EigKep=  2.88D-04  NBF=   282
 NBsUse=   282 1.00D-06 EigRej= -1.00D+00 NBFU=   282
 Initial guess from the checkpoint file:  "CC1dCpCdOpCdCC1dO.chk"
 B after Tr=    -0.000000    0.000000    0.000000
         Rot=    0.999996    0.000004    0.000003    0.002930 Ang=   0.34 deg.
 ExpMin= 1.61D-01 ExpMax= 5.48D+03 ExpMxC= 8.25D+02 IAcc=2 IRadAn=         4 AccDes= 0.00D+00
 Harris functional with IExCor=  402 and IRadAn=       4 diagonalized for initial guess.
 HarFok:  IExCor=  402 AccDes= 0.00D+00 IRadAn=         4 IDoV= 1 UseB2=F ITyADJ=14
 ICtDFT=  3500011 ScaDFX=  1.000000  1.000000  1.000000  1.000000
 FoFCou: FMM=F IPFlag=           0 FMFlag=      100000 FMFlg1=           0
         NFxFlg=           0 DoJE=T BraDBF=F KetDBF=T FulRan=T
         wScrn=  0.000000 ICntrl=       500 IOpCl=  0 I1Cent=   200000004 NGrid=           0
         NMat0=    1 NMatS0=      1 NMatT0=    0 NMatD0=    1 NMtDS0=    0 NMtDT0=    0
 Petite list used in FoFCou.
 Requested convergence on RMS density matrix=1.00D-08 within 128 cycles.
 Requested convergence on MAX density matrix=1.00D-06.
 Requested convergence on             energy=1.00D-06.
 No special actions if energy rises.
 Integral accuracy reduced to 1.0D-05 until final iterations.
 Initial convergence to 1.0D-05 achieved.  Increase integral accuracy.
 SCF Done:  E(RB3LYP) =  -420.776976161     A.U. after   12 cycles
            NFock= 12  Conv=0.59D-08     -V/T= 2.0073
 PrsmSu:  requested number of processors reduced to:  13 ShMem   1 Linda.
 Calling FoFJK, ICntrl=      2127 FMM=F ISym2X=0 I1Cent= 0 IOpClX= 0 NMat=1 NMatS=1 NMatT=0.
 ***** Axes restored to original set *****
 -------------------------------------------------------------------
 Center     Atomic                   Forces (Hartrees/Bohr)
 Number     Number              X              Y              Z
 -------------------------------------------------------------------
      1        6           0.000120520    0.000475940   -0.000013325
      2        6           0.001741334    0.001747953   -0.000255836
      3        6          -0.001944355   -0.002246839   -0.000156802
      4        6           0.001940369   -0.000597283    0.000638464
      5        8          -0.001477100    0.001399661   -0.000216972
      6        6           0.000529317   -0.001555967   -0.000027476
      7        6          -0.001440815    0.001217133   -0.000242130
      8        6           0.000473847   -0.002741672    0.000641271
      9        8           0.000841007    0.002299890   -0.000187008
     10        1           0.000083680   -0.000522933    0.000002176
     11        1          -0.000076174    0.000072241    0.000097245
     12        1          -0.000080545    0.000073211   -0.000095773
     13        1          -0.000380291    0.000163738   -0.000216487
     14        1          -0.000318282    0.000077041    0.000049443
     15        1          -0.000012511    0.000137887   -0.000016791
 -------------------------------------------------------------------
 Cartesian Forces:  Max     0.002741672 RMS     0.001001517

 GradGradGradGradGradGradGradGradGradGradGradGradGradGradGradGradGradGrad
 Berny optimization.
 Using GEDIIS/GDIIS optimizer.
 FormGI is forming the generalized inverse of G from B-inverse, IUseBI=4.
 Internal  Forces:  Max     0.002448878 RMS     0.000584064
 Search for a local minimum.
 Step number   3 out of a maximum of   79
 All quantities printed in internal units (Hartrees-Bohrs-Radians)
 Mixed Optimization -- En-DIIS/RFO-DIIS
 Update second derivatives using D2CorX and points    1    2    3
 DE= -6.54D-04 DEPred=-6.00D-04 R= 1.09D+00
 TightC=F SS=  1.41D+00  RLast= 8.15D-02 DXNew= 8.4853D-01 2.4445D-01
 Trust test= 1.09D+00 RLast= 8.15D-02 DXMaxT set to 5.05D-01
 ITU=  1  1  0
 Use linear search instead of GDIIS.
     Eigenvalues ---    0.01021   0.01024   0.01078   0.01154   0.01515
     Eigenvalues ---    0.01582   0.01925   0.01958   0.02217   0.02460
     Eigenvalues ---    0.07321   0.07454   0.14592   0.16000   0.16000
     Eigenvalues ---    0.16000   0.16032   0.16232   0.20592   0.22569
     Eigenvalues ---    0.22880   0.24861   0.25054   0.26160   0.31504
     Eigenvalues ---    0.33664   0.34372   0.34408   0.34518   0.34739
     Eigenvalues ---    0.35008   0.35779   0.35999   0.36575   0.36694
     Eigenvalues ---    0.53313   0.63018   0.93026   0.96044
 RFO step:  Lambda=-7.53943996D-05 EMin= 1.02098251D-02
 Quartic linear search produced a step of  0.04831.
 Iteration  1 RMS(Cart)=  0.00584875 RMS(Int)=  0.00008750
 Iteration  2 RMS(Cart)=  0.00007669 RMS(Int)=  0.00005287
 Iteration  3 RMS(Cart)=  0.00000001 RMS(Int)=  0.00005287
 Variable       Old X    -DE/DX   Delta X   Delta X   Delta X     New X
                                 (Linear)    (Quad)   (Total)
    R1        2.80239  -0.00005  -0.00002  -0.00003  -0.00004   2.80235
    R2        2.05819  -0.00051   0.00009  -0.00156  -0.00148   2.05672
    R3        2.07296   0.00006   0.00006   0.00026   0.00032   2.07328
    R4        2.07297   0.00006   0.00006   0.00026   0.00032   2.07329
    R5        2.55806  -0.00214  -0.00067  -0.00361  -0.00428   2.55378
    R6        2.89322   0.00050   0.00135   0.00268   0.00404   2.89725
    R7        2.77719   0.00092  -0.00080   0.00261   0.00181   2.77900
    R8        2.84038   0.00002   0.00133   0.00099   0.00232   2.84269
    R9        2.28769   0.00189  -0.00030   0.00186   0.00156   2.28925
   R10        2.10514  -0.00020   0.00037  -0.00038  -0.00001   2.10513
   R11        2.52909  -0.00150  -0.00044  -0.00268  -0.00312   2.52596
   R12        2.04893  -0.00020  -0.00003  -0.00051  -0.00054   2.04839
   R13        2.83286  -0.00124   0.00043  -0.00293  -0.00249   2.83037
   R14        2.04003  -0.00009   0.00012  -0.00019  -0.00007   2.03997
   R15        2.28320  -0.00245  -0.00063  -0.00281  -0.00344   2.27976
    A1        1.94429   0.00014  -0.00035   0.00049   0.00013   1.94443
    A2        1.91938   0.00005  -0.00012   0.00037   0.00025   1.91963
    A3        1.91941   0.00006  -0.00012   0.00044   0.00032   1.91973
    A4        1.91784  -0.00014   0.00077  -0.00066   0.00011   1.91795
    A5        1.91775  -0.00014   0.00076  -0.00064   0.00013   1.91787
    A6        1.84253   0.00003  -0.00096  -0.00003  -0.00100   1.84153
    A7        2.30267  -0.00023  -0.00088  -0.00124  -0.00212   2.30055
    A8        2.12352   0.00000   0.00050  -0.00012   0.00038   2.12390
    A9        1.85700   0.00023   0.00038   0.00136   0.00174   1.85874
   A10        2.23339   0.00100   0.00050   0.00498   0.00549   2.23888
   A11        1.90730  -0.00020  -0.00025  -0.00139  -0.00165   1.90564
   A12        2.14250  -0.00080  -0.00025  -0.00358  -0.00383   2.13866
   A13        2.18770   0.00089  -0.00025   0.00454   0.00405   2.19175
   A14        1.99021  -0.00006  -0.00055   0.00019  -0.00061   1.98961
   A15        2.10526  -0.00083   0.00080  -0.00455  -0.00400   2.10126
   A16        1.93524   0.00019   0.00007   0.00056   0.00063   1.93586
   A17        2.13816  -0.00036  -0.00079  -0.00240  -0.00318   2.13498
   A18        2.20978   0.00017   0.00072   0.00183   0.00256   2.21234
   A19        1.86731   0.00019   0.00033   0.00125   0.00158   1.86890
   A20        2.25544  -0.00020  -0.00043  -0.00141  -0.00184   2.25360
   A21        2.16043   0.00001   0.00010   0.00016   0.00026   2.16068
   A22        1.85793  -0.00040  -0.00054  -0.00176  -0.00232   1.85561
   A23        2.18306   0.00021  -0.00042   0.00057   0.00012   2.18318
   A24        2.24219   0.00019   0.00096   0.00124   0.00216   2.24435
    D1       -0.00073   0.00002  -0.00002   0.00140   0.00137   0.00064
    D2       -3.14152  -0.00002   0.00006  -0.00161  -0.00156   3.14011
    D3       -2.13143   0.00007  -0.00068   0.00165   0.00097  -2.13046
    D4        1.01097   0.00003  -0.00060  -0.00136  -0.00196   1.00900
    D5        2.12987  -0.00003   0.00063   0.00122   0.00185   2.13171
    D6       -1.01092  -0.00007   0.00070  -0.00179  -0.00109  -1.01200
    D7       -0.00013   0.00003  -0.00002   0.00070   0.00068   0.00055
    D8        3.14090   0.00004   0.00001   0.00250   0.00251  -3.13978
    D9        3.14074   0.00007  -0.00008   0.00337   0.00328  -3.13916
   D10       -0.00141   0.00008  -0.00006   0.00517   0.00511   0.00370
   D11       -3.13999  -0.00010   0.00004  -0.00594  -0.00590   3.13729
   D12       -0.00226   0.00009  -0.00029   0.00828   0.00798   0.00571
   D13        0.00222  -0.00013   0.00010  -0.00828  -0.00818  -0.00596
   D14        3.13996   0.00006  -0.00024   0.00595   0.00570  -3.13753
   D15        0.00210  -0.00020   0.00013  -0.01986  -0.01973  -0.01763
   D16        3.13850   0.00022  -0.00016   0.02214   0.02198  -3.12270
   D17       -3.13887  -0.00021   0.00010  -0.02188  -0.02177   3.12254
   D18       -0.00247   0.00020  -0.00018   0.02012   0.01994   0.01747
   D19        0.00001   0.00000   0.00001   0.00008   0.00008   0.00010
   D20       -3.14152  -0.00001   0.00006  -0.00174  -0.00169   3.13998
   D21        3.14108   0.00002   0.00003   0.00177   0.00179  -3.14032
   D22       -0.00045   0.00000   0.00008  -0.00005   0.00002  -0.00044
   D23        0.00142  -0.00009   0.00006  -0.00541  -0.00537  -0.00394
   D24       -3.14115  -0.00004   0.00003  -0.00224  -0.00222   3.13982
   D25       -3.14023  -0.00007   0.00000  -0.00350  -0.00350   3.13945
   D26        0.00038  -0.00002  -0.00003  -0.00033  -0.00036   0.00003
   D27       -0.00222   0.00013  -0.00009   0.00833   0.00824   0.00602
   D28       -3.13978  -0.00007   0.00025  -0.00653  -0.00629   3.13712
   D29        3.14029   0.00008  -0.00006   0.00537   0.00530  -3.13760
   D30        0.00273  -0.00012   0.00028  -0.00949  -0.00922  -0.00650
         Item               Value     Threshold  Converged?
 Maximum Force            0.002449     0.000450     NO 
 RMS     Force            0.000584     0.000300     NO 
 Maximum Displacement     0.019195     0.001800     NO 
 RMS     Displacement     0.005844     0.001200     NO 
 Predicted change in Energy=-3.927779D-05
 GradGradGradGradGradGradGradGradGradGradGradGradGradGradGradGradGradGrad

                          Input orientation:                          
 ---------------------------------------------------------------------
 Center     Atomic      Atomic             Coordinates (Angstroms)
 Number     Number       Type             X           Y           Z
 ---------------------------------------------------------------------
      1          6           0        0.868516   -0.127268   -0.004550
      2          6           0        2.348821   -0.038999   -0.001461
      3          6           0        3.188217    1.020095    0.003272
      4          6           0        2.849336    2.451095    0.007490
      5          8           0        1.728333    2.909990   -0.010027
      6          6           0        4.608716    0.525055    0.001943
      7          6           0        4.648453   -0.811025   -0.003613
      8          6           0        3.230461   -1.293309   -0.000713
      9          8           0        2.821633   -2.428297   -0.008134
     10          1           0        0.411651    0.860566   -0.003154
     11          1           0        0.525093   -0.698589    0.866857
     12          1           0        0.528396   -0.694507   -0.879918
     13          1           0        3.735109    3.126465   -0.008197
     14          1           0        5.457489    1.199262    0.003631
     15          1           0        5.505815   -1.466954   -0.007394
 ---------------------------------------------------------------------
                    Distance matrix (angstroms):
                    1          2          3          4          5
     1  C    0.000000
     2  C    1.482938   0.000000
     3  C    2.587956   1.351402   0.000000
     4  C    3.251422   2.539914   1.470585   0.000000
     5  O    3.156620   3.013572   2.388126   1.211420   0.000000
     6  C    3.796665   2.329226   1.504289   2.608655   3.739608
     7  C    3.841282   2.425765   2.342079   3.725369   4.730020
     8  C    2.634094   1.533161   2.313793   3.763760   4.463653
     9  O    3.018181   2.435640   3.467841   4.879496   5.449093
    10  H    1.088368   2.135848   2.781152   2.910704   2.435946
    11  H    1.097131   2.124858   3.285100   4.007633   3.903659
    12  H    1.097138   2.124929   3.285503   4.008624   3.897301
    13  H    4.336375   3.455720   2.176239   1.113986   2.018419
    14  H    4.776863   3.346212   2.276334   2.893020   4.102851
    15  H    4.826935   3.464924   3.399527   4.733731   5.781610
                    6          7          8          9         10
     6  C    0.000000
     7  C    1.336682   0.000000
     8  C    2.281675   1.497767   0.000000
     9  O    3.451964   2.439848   1.206397   0.000000
    10  H    4.210457   4.554635   3.547517   4.077335   0.000000
    11  H    4.349869   4.215739   2.902652   3.005261   1.789065
    12  H    4.349026   4.213829   2.903915   3.004159   1.789021
    13  H    2.744198   4.042034   4.448497   5.629371   4.022399
    14  H    1.083962   2.166990   3.342541   4.484089   5.057197
    15  H    2.184713   1.079503   2.281980   2.851142   5.600703
                   11         12         13         14         15
    11  H    0.000000
    12  H    1.746783   0.000000
    13  H    5.069611   5.063865   0.000000
    14  H    5.354954   5.353782   2.584733   0.000000
    15  H    5.114908   5.112012   4.922895   2.666676   0.000000
 Stoichiometry    C7H6O2
 Framework group  C1[X(C7H6O2)]
 Deg. of freedom    39
 Full point group                 C1      NOp   1
 Largest Abelian subgroup         C1      NOp   1
 Largest concise Abelian subgroup C1      NOp   1
                         Standard orientation:                         
 ---------------------------------------------------------------------
 Center     Atomic      Atomic             Coordinates (Angstroms)
 Number     Number       Type             X           Y           Z
 ---------------------------------------------------------------------
      1          6           0        0.192460    2.018989    0.001690
      2          6           0       -0.140952    0.574018    0.002168
      3          6           0        0.637950   -0.530333    0.004513
      4          6           0        2.106403   -0.609419    0.008020
      5          8           0        2.863217    0.336369   -0.007994
      6          6           0       -0.238133   -1.753179    0.001201
      7          6           0       -1.531041   -1.413935   -0.003219
      8          6           0       -1.593200    0.082531    0.002539
      9          8           0       -2.566515    0.795285   -0.003160
     10          1           0        1.269111    2.178253    0.002977
     11          1           0       -0.258274    2.508139    0.874197
     12          1           0       -0.255958    2.507127   -0.872584
     13          1           0        2.504097   -1.649845   -0.009789
     14          1           0        0.168903   -2.757816    0.000830
     15          1           0       -2.402415   -2.051126   -0.007875
 ---------------------------------------------------------------------
 Rotational constants (GHZ):           3.0224433           1.3657676           0.9461169
 Standard basis: 6-31G(2df,p) (6D, 7F)
 There are   309 symmetry adapted cartesian basis functions of A   symmetry.
 There are   282 symmetry adapted basis functions of A   symmetry.
   282 basis functions,   438 primitive gaussians,   309 cartesian basis functions
    32 alpha electrons       32 beta electrons
       nuclear repulsion energy       401.0782761397 Hartrees.
 NAtoms=   15 NActive=   15 NUniq=   15 SFac= 1.00D+00 NAtFMM=   60 NAOKFM=F Big=F
 Integral buffers will be    131072 words long.
 Raffenetti 2 integral format.
 Two-electron integral symmetry is turned on.
 One-electron integrals computed using PRISM.
 PrsmSu:  requested number of processors reduced to:  13 ShMem   1 Linda.
 NBasis=   282 RedAO= T EigKep=  2.88D-04  NBF=   282
 NBsUse=   282 1.00D-06 EigRej= -1.00D+00 NBFU=   282
 Initial guess from the checkpoint file:  "CC1dCpCdOpCdCC1dO.chk"
 B after Tr=     0.000000    0.000000   -0.000000
         Rot=    1.000000    0.000014    0.000007   -0.000617 Ang=   0.07 deg.
 Requested convergence on RMS density matrix=1.00D-08 within 128 cycles.
 Requested convergence on MAX density matrix=1.00D-06.
 Requested convergence on             energy=1.00D-06.
 No special actions if energy rises.
 SCF Done:  E(RB3LYP) =  -420.776945531     A.U. after   11 cycles
            NFock= 11  Conv=0.37D-08     -V/T= 2.0073
 PrsmSu:  requested number of processors reduced to:  13 ShMem   1 Linda.
 Calling FoFJK, ICntrl=      2127 FMM=F ISym2X=0 I1Cent= 0 IOpClX= 0 NMat=1 NMatS=1 NMatT=0.
 ***** Axes restored to original set *****
 -------------------------------------------------------------------
 Center     Atomic                   Forces (Hartrees/Bohr)
 Number     Number              X              Y              Z
 -------------------------------------------------------------------
      1        6           0.000230750   -0.000338558    0.000092606
      2        6           0.000124078    0.000285208    0.000640713
      3        6          -0.000143708   -0.000701176    0.001260388
      4        6           0.000895300    0.000060705   -0.004362613
      5        8          -0.000503219    0.000081075    0.001533466
      6        6          -0.000152046    0.000511391    0.000019123
      7        6          -0.000415060   -0.000315844    0.000646189
      8        6           0.000361587    0.000287491   -0.001743913
      9        8           0.000007878   -0.000167574    0.000501933
     10        1          -0.000154572    0.000023644   -0.000020072
     11        1          -0.000058809    0.000173427    0.000062009
     12        1          -0.000022028    0.000176763   -0.000066412
     13        1          -0.000174338   -0.000090305    0.001479085
     14        1           0.000014701   -0.000007002   -0.000080906
     15        1          -0.000010514    0.000020753    0.000038404
 -------------------------------------------------------------------
 Cartesian Forces:  Max     0.004362613 RMS     0.000844278

 GradGradGradGradGradGradGradGradGradGradGradGradGradGradGradGradGradGrad
 Berny optimization.
 Using GEDIIS/GDIIS optimizer.
 FormGI is forming the generalized inverse of G from B-inverse, IUseBI=4.
 Internal  Forces:  Max     0.001441053 RMS     0.000380452
 Search for a local minimum.
 Step number   4 out of a maximum of   79
 All quantities printed in internal units (Hartrees-Bohrs-Radians)
 Mixed Optimization -- En-DIIS/RFO-DIIS
 Swapping is turned off.
[...]
 ! D24   D(3,6,7,15)           179.9976         -DE/DX =    0.0                 !
 ! D25   D(14,6,7,8)          -180.0024         -DE/DX =    0.0                 !
 ! D26   D(14,6,7,15)            0.0008         -DE/DX =    0.0                 !
 ! D27   D(6,7,8,2)              0.0056         -DE/DX =    0.0                 !
 ! D28   D(6,7,8,9)            180.0004         -DE/DX =    0.0                 !
 ! D29   D(15,7,8,2)           180.0027         -DE/DX =    0.0                 !
 ! D30   D(15,7,8,9)            -0.0026         -DE/DX =    0.0                 !
 --------------------------------------------------------------------------------
 GradGradGradGradGradGradGradGradGradGradGradGradGradGradGradGradGradGrad


 ----------------------------------------------------------------------

 Electric dipole moment (input orientation):
 (Debye = 10**-18 statcoulomb cm , SI units = C m)
                  (au)            (Debye)         (10**-30 SI)
   Tot        0.872693D+00      0.221817D+01      0.739900D+01
   x          0.850349D+00      0.216137D+01      0.720956D+01
   y          0.196213D+00      0.498724D+00      0.166356D+01
   z          0.955386D-03      0.242835D-02      0.810010D-02

 Dipole polarizability, Alpha (input orientation).
 (esu units = cm**3 , SI units = C**2 m**2 J**-1)
 Alpha(0;0):
               (au)            (10**-24 esu)      (10**-40 SI)
   iso        0.762328D+02      0.112965D+02      0.125691D+02
   aniso      0.583622D+02      0.864839D+01      0.962263D+01
   xx         0.858026D+02      0.127146D+02      0.141469D+02
   yx         0.401137D+01      0.594423D+00      0.661385D+00
   yy         0.103861D+03      0.153906D+02      0.171244D+02
   zx         0.471267D-01      0.698346D-02      0.777015D-02
   zy         0.529438D-01      0.784547D-02      0.872926D-02
   zz         0.390349D+02      0.578438D+01      0.643599D+01

 ----------------------------------------------------------------------

 Dipole orientation:
     6          0.14671240         -0.58567729          1.54518190
     6          0.25196650         -1.04053742          4.30833300
     6         -0.10689306          0.51124960          6.30359676
     6         -0.73321356          3.21883925          6.28895840
     8         -1.03078150          4.50589843          4.41848010
     6          0.23401047         -0.96254184          8.70895485
     6          0.79240111         -3.37630863          8.21440828
     6          0.85670736         -3.65528803          5.39991682
     8          1.28878996         -5.52342214          4.16628801
     1         -0.30757644          1.37565982          1.12315163
     1         -1.25903622         -1.83514391          0.67299705
     1          1.95879512         -1.08964795          0.67316298
     1         -0.92880128          4.06430374          8.20589735
     1          0.03548997         -0.10408902         10.55815359
     1          1.14668846         -4.90759352          9.51471817

 Electric dipole moment (dipole orientation):
 (Debye = 10**-18 statcoulomb cm , SI units = C m)
                  (au)            (Debye)         (10**-30 SI)
   Tot        0.872693D+00      0.221817D+01      0.739900D+01
   x          0.000000D+00      0.000000D+00      0.000000D+00
   y          0.000000D+00      0.000000D+00      0.000000D+00
   z          0.872693D+00      0.221817D+01      0.739900D+01

 Dipole polarizability, Alpha (dipole orientation).
 (esu units = cm**3 , SI units = C**2 m**2 J**-1)
 Alpha(0;0):
               (au)            (10**-24 esu)      (10**-40 SI)
   iso        0.762328D+02      0.112965D+02      0.125691D+02
   aniso      0.583622D+02      0.864839D+01      0.962263D+01
   xx         0.421913D+02      0.625210D+01      0.695640D+01
   yx        -0.136464D+02     -0.202219D+01     -0.224999D+01
   yy         0.980340D+02      0.145271D+02      0.161636D+02
   zx        -0.170383D+01     -0.252482D+00     -0.280924D+00
   zy         0.736761D+01      0.109177D+01      0.121475D+01
   zz         0.884732D+02      0.131104D+02      0.145873D+02

 ----------------------------------------------------------------------
 1\1\GINC-LEWIS4-Z10PH-HPC3-NODE391\Freq\RB3LYP\6-31G(2df,p)\C7H6O2\KS2
 9C\03-Jul-2022\0\\#N Geom=AllCheck Guess=TCheck SCRF=Check GenChk RB3L
 YP/6-31G(2df,p) Freq\\Title Card Required\\0,1\C,0.8685690319,-0.12742
 40124,-0.0050710393\C,2.348876101,-0.0394052785,-0.0036238062\C,3.1881
 882122,1.0192499087,-0.0020587082\C,2.8499885138,2.450483627,-0.001262
 9466\O,1.7283454287,2.909087723,-0.0020441807\C,4.6084380033,0.5254416
 673,-0.001095581\C,4.648206904,-0.8108743347,-0.0021182995\C,3.2310387
 918,-1.2933593751,-0.0037144282\O,2.8230807417,-2.4288266298,-0.004955
 741\H,0.4114230619,0.8604578356,-0.0044278431\H,0.5251627278,-0.696203
 9314,0.8679265458\H,0.5267650411,-0.6942467562,-0.879975494\H,3.735167
 3502,3.1260162651,0.0001062313\H,5.457103901,1.1997803874,0.0002012475
 \H,5.5056861895,-1.4665970961,-0.0018559567\\Version=ES64L-G16RevA.03\
 State=1-A\HF=-420.7770072\RMSD=6.721e-09\RMSF=2.632e-05\ZeroPoint=0.11
 07654\Thermal=0.1193743\Dipole=0.8503489,0.1962131,0.0009554\DipoleDer
 iv=-0.1643219,-0.0723736,-0.0002845,-0.0934398,-0.071835,-0.0001949,-0
 .0004179,-0.0002729,0.0561757,0.2839593,0.5524746,0.0007301,0.1785869,
 0.0506657,0.0002057,0.000457,0.0006084,-0.0044028,-0.2553485,-0.482855
 4,-0.0005959,-0.2445998,-0.8355652,-0.0008705,-0.0004008,-0.0010875,-0
 .0114182,0.8444236,-0.1152646,0.0005301,0.0053805,1.5421888,0.0010405,
 0.0006283,0.0009027,0.210558,-0.7683499,0.4502034,-0.000096,0.159795,-
 0.8381531,-0.0002531,-0.000341,0.0000523,-0.30875,0.335458,0.0973961,0
 .0004465,-0.0162471,0.0590651,0.0000827,0.0003444,0.0001659,-0.0633108
 ,-0.2984681,-0.127072,-0.0002254,0.0521361,-0.2114405,0.0000248,-0.000
 045,-0.0001633,-0.170973,0.626433,0.0722292,0.0003939,0.1654973,1.1098
 441,0.0007784,0.000438,0.0006944,0.2487564,-0.4529209,-0.1429498,-0.00
 0251,-0.1337586,-0.9576034,-0.000603,-0.000232,-0.000629,-0.2947121,0.
 0399995,0.0201106,-0.0000136,0.0754034,0.0255749,-0.0000009,0.0000648,
 -0.0000356,0.0754124,0.0057618,-0.0329362,0.0139719,-0.0025064,0.07097
 03,0.0667473,0.0450936,0.064364,-0.0108449,0.0058322,-0.0328162,-0.014
 0045,-0.0022767,0.0712462,-0.0665856,-0.0450254,-0.0642222,-0.0112411,
 -0.1835203,-0.1988247,-0.0003672,-0.1146536,-0.1026773,-0.0002205,-0.0
 002896,-0.0002904,0.0344549,-0.0192993,-0.0408548,-0.0001546,-0.069375
 ,0.0301794,-0.000127,-0.0001725,-0.0000883,0.1128357,0.0003613,0.05353
 35,-0.0000799,0.0400578,0.0575401,-0.000024,-0.0001018,0.0000017,0.137
 4598\Polar=85.8026295,4.0113673,103.860919,0.0471267,0.0529438,39.0349
 372\Quadrupole=4.8152271,-6.7916695,1.9764424,3.7617308,0.0054526,-0.0
 027259\PG=C01 [X(C7H6O2)]\NImag=0\\0.49016994,-0.02846303,0.58542113,-
 0.00006067,0.00002622,0.51302106,-0.23140758,0.00276107,-0.00013568,0.
 70897010,-0.00777408,-0.08725677,-0.00001763,0.15631407,0.57203110,-0.
 00015621,-0.00000508,-0.07011061,0.00062601,0.00045239,0.15863091,-0.0
 1748557,-0.02832533,-0.00005262,-0.22801458,-0.17244603,-0.00028323,0.
 56209712,-0.00737789,-0.00238984,-0.00002827,-0.15199339,-0.31651930,-
 0.00032795,0.08232886,0.72936318,-0.00003220,-0.00004365,0.01287577,-0
 .00026920,-0.00035042,-0.06163211,0.00047103,0.00053523,0.12540183,-0.
 00019660,-0.00275625,-0.00000096,0.02439901,-0.01053450,0.00000686,-0.
 10842634,-0.02488086,-0.00004735,0.91506363,0.00371461,0.00571745,0.00
 001866,-0.01348989,-0.03464918,-0.00004769,0.02006289,-0.20553281,-0.0
 0008243,-0.11113744,0.58104463,0.00000793,0.00000560,-0.00611676,0.000
 00457,-0.00004001,0.00938290,-0.00001163,-0.00012549,-0.07933009,0.000
 63497,0.00018637,0.19002771,0.00038200,0.00262851,0.00000465,-0.013231
 25,-0.01018768,-0.00001841,-0.01169981,0.06027002,0.00001579,-0.652208
 37,0.19893611,-0.00043881,0.72425983,-0.00303163,-0.00228538,-0.000005
 65,0.00413127,0.00709995,0.00001104,0.05223177,-0.02717753,0.00001806,
 0.21282148,-0.18369663,0.00012174,-0.25828915,0.19329438,-0.00000329,-
 0.00000199,0.00291135,-0.00000800,-0.00000362,-0.00216649,0.00001133,0
 .00002581,0.01748350,-0.00042950,0.00010827,-0.06309045,0.00050437,-0.
 00013133,0.02421748,0.00421975,0.00141256,-0.00000083,-0.06381426,-0.0
 0581128,-0.00006719,-0.17260672,0.03278488,-0.00008542,-0.00506214,0.0
 0741177,0.00000155,0.00285626,-0.00266013,-0.00000230,0.56541795,-0.00
 228510,-0.00511512,-0.00001306,-0.00730190,0.00926880,-0.00000417,0.02
 269396,-0.10579894,-0.00001554,0.03338007,-0.00502059,0.00002890,-0.00
 012525,-0.00624354,-0.00000776,0.12734240,0.83285663,-0.00000644,-0.00
 001027,0.00916224,-0.00006741,-0.00000136,0.00398553,-0.00009179,-0.00
 000718,-0.05622183,0.00002157,0.00000352,-0.00098950,-0.00000081,-0.00
 000958,0.00364195,0.00049637,0.00066288,0.13239799,0.00088801,0.005303
 31,0.00000751,-0.03921401,0.01412416,-0.00004691,-0.02137693,0.0458048
 8,0.00001075,-0.00563595,-0.00839730,-0.00001067,-0.00171767,0.0043848
 8,0.00000166,-0.11058285,0.01303761,-0.00004370,0.59401880,0.00224123,
 -0.00256471,0.00000279,0.01215059,-0.00028142,-0.00000900,0.03713048,-
 0.01711384,0.00001529,0.00060088,0.00302915,0.00000366,0.00068836,-0.0
 0131892,-0.00000004,-0.00226129,-0.51112717,-0.00036531,-0.16828487,0.
 81526659,0.00000471,0.00000315,-0.00163142,-0.00005173,-0.00000575,0.0
 2565555,0.00000448,0.00002541,0.00522676,-0.00000358,-0.00000468,-0.00
 113411,-0.00000106,0.00000309,-0.00013273,-0.00005471,-0.00035036,-0.0
 5168275,0.00031387,0.00040567,0.09837845,-0.01770196,0.02260720,-0.000
 00402,-0.12719219,0.03297462,-0.00001243,0.01035014,-0.03273500,-0.000
 01915,-0.00635071,0.00651921,-0.00001260,0.00141791,-0.00125152,0.0000
 0104,0.02221921,-0.04372783,-0.00000880,-0.16854697,0.02245393,-0.0000
 6323,0.47618411,0.00745536,0.01042008,0.00001395,0.01651200,-0.0771869
 0,0.00002367,-0.00672692,-0.04477917,-0.00004386,-0.00307225,-0.007339
 50,-0.00001808,-0.00076949,0.00289396,0.00000225,-0.03988509,-0.042873
 29,-0.00006567,0.01114316,-0.08097635,0.00000735,0.20674690,0.91141136
 ,-0.00001341,0.00003188,0.00235258,-0.00002310,0.00003855,-0.08711259,
 -0.00000321,-0.00006927,0.00581618,-0.00002013,-0.00000776,0.01289878,
 0.00000256,0.00000145,-0.00094991,-0.00000792,-0.00007213,-0.00330551,
 -0.00007174,0.00001973,-0.07615409,0.00041192,0.00073267,0.19225142,0.
 00073992,-0.00163365,0.00000212,0.02221056,0.00835998,0.00000887,-0.00
 242981,0.01159038,0.00000532,0.00185059,-0.00168062,0.00000284,0.00008
 266,0.00016952,-0.00000004,-0.01537019,0.00341284,-0.00001446,-0.00889
 091,-0.05794517,-0.00007043,-0.17120612,-0.20803062,-0.00025856,0.1659
 4669,-0.00347428,0.00029606,-0.00000166,-0.00786936,-0.06358107,-0.000
 07058,0.01061405,-0.00333078,0.00000742,-0.00294397,0.00184357,0.00000
 130,0.00138149,-0.00112027,0.00000022,-0.00340747,0.00849853,0.0000005
 8,-0.03456559,-0.03082997,-0.00006976,-0.20454428,-0.67586457,-0.00065
 464,0.24539830,0.76614582,-0.00000089,-0.00000189,-0.00119167,-0.00000
 348,-0.00005482,0.01985547,0.00000591,0.00000791,0.00068671,0.00000199
 ,0.00000166,-0.00279792,0.00000065,-0.00000083,0.00032168,-0.00001926,
 0.00000792,0.00330805,-0.00005218,-0.00009045,0.02001034,-0.00025680,-
 0.00065944,-0.05945778,0.00031555,0.00078712,0.02309754,-0.09478855,0.
 10288181,0.00007106,-0.01602843,0.03422105,0.00002044,0.00192052,-0.00
 208773,0.00000048,-0.00430646,0.00182285,-0.00000179,0.00311890,0.0001
 2569,0.00000322,0.00003244,0.00040130,-0.00000015,-0.00100878,0.001536
 40,0.00000097,-0.00505314,-0.00407227,-0.00000936,0.00140183,0.0006087
 2,0.00000212,0.10629107,0.10868421,-0.27958217,-0.00014900,-0.00093515
 ,0.00494736,0.00000393,0.00007551,-0.00047593,0.00000332,-0.00161467,0
 .00199989,-0.00000004,0.00018610,-0.00397361,-0.00000131,0.00024502,-0
 .00007328,0.00000005,-0.00017498,0.00026050,0.00000090,-0.00218634,0.0
 0060766,-0.00000538,0.00037623,0.00029314,0.00000111,-0.11522606,0.299
 59183,0.00007821,-0.00015268,-0.04896762,-0.00001937,0.00003678,0.0000
 0337,0.00000412,0.00000101,-0.00140075,-0.00000385,0.00000118,0.000054
 47,0.00000268,-0.00000161,-0.00134795,-0.00000033,0.00000062,-0.000075
 27,-0.00000108,0.00000165,-0.00042757,-0.00000856,-0.00000468,0.002064
 38,0.00000131,0.00000071,-0.00021855,-0.00006906,0.00016681,0.04768693
 ,-0.06730310,-0.03868856,0.06558377,-0.01460633,-0.02037656,0.02700215
 ,-0.00221706,0.00059807,-0.00059439,-0.00066548,0.00169492,0.00102318,
 0.00108722,-0.00027084,-0.00006788,-0.00045501,-0.00015119,-0.00186147
 ,-0.00005305,0.00008606,0.00066948,-0.00086615,-0.00093048,-0.00087163
 ,0.00095759,0.00090812,-0.00032013,0.00417139,0.00522720,-0.01208506,0
 .07689071,-0.03514425,-0.11262345,0.10962049,-0.00699358,-0.00306875,0
 .00094444,0.00083670,0.00362578,-0.00059626,0.00147961,-0.00159457,0.0
 0003647,-0.00163893,-0.00039645,-0.00064258,-0.00092943,0.00003461,0.0
 0011208,-0.00032047,-0.00044175,-0.00043483,0.00113059,-0.00110881,0.0
 0014206,-0.00013697,0.00032416,0.00025397,-0.00981950,-0.01168307,0.02
 336202,0.04665918,0.11944860,0.06401986,0.10913200,-0.20598604,0.00096
 711,-0.00132092,0.00209122,-0.00113092,-0.00089309,-0.00093642,-0.0001
 7853,0.00007381,0.00020022,0.00009295,-0.00003373,-0.00017451,0.000112
 18,-0.00026932,-0.00042215,0.00011219,-0.00013530,-0.00010242,0.000711
 31,0.00159366,0.00070341,-0.00101831,-0.00056339,0.00011058,-0.0013140
 4,-0.00156244,0.00088105,-0.07027182,-0.11975580,0.22637371,-0.0670587
 8,-0.03834462,-0.06541480,-0.01455673,-0.02031771,-0.02707468,-0.00221
 696,0.00059448,0.00059339,-0.00066340,0.00169677,-0.00102314,0.0010866
 3,-0.00027165,0.00006995,-0.00045841,-0.00015316,0.00186180,-0.0000522
 0,0.00008669,-0.00066935,-0.00086782,-0.00092738,0.00086838,0.00095432
 ,0.00090596,0.00032201,0.00414697,0.00519942,0.01210213,0.00326177,0.0
 0513267,0.00787708,0.07662778,-0.03480079,-0.11212367,-0.10946852,-0.0
 0698650,-0.00307056,-0.00096934,0.00083153,0.00362028,0.00060819,0.001
 47703,-0.00159196,-0.00003675,-0.00163725,-0.00039635,0.00064039,-0.00
 092857,0.00003438,-0.00011213,-0.00032073,-0.00044235,0.00043361,0.001
 13075,-0.00110460,-0.00014508,-0.00013840,0.00032258,-0.00025323,-0.00
 977866,-0.01163936,-0.02341039,0.00512522,0.00755042,0.01373466,0.0462
 8038,0.11890682,-0.06383586,-0.10898748,-0.20670308,-0.00101710,0.0012
 7171,0.00204160,0.00113211,0.00090668,-0.00093112,0.00018169,-0.000076
 25,0.00019859,-0.00009568,0.00003233,-0.00017348,-0.00011560,0.0002703
 5,-0.00041914,-0.00011327,0.00013376,-0.00010294,-0.00071095,-0.001598
 21,0.00070032,0.00101840,0.00056502,0.00011411,0.00129740,0.00154381,0
 .00085642,-0.00781740,-0.01365686,-0.02299538,0.07009870,0.11959540,0.
 22715773,-0.00074090,0.00003712,0.00000022,0.00158627,0.00067929,0.000
 00101,0.00316221,0.00282148,-0.00001483,-0.15823640,-0.10318627,-0.000
 17239,-0.05587874,-0.00907772,-0.00008238,0.00081592,-0.00036366,0.000
 00165,0.00101400,-0.00030143,0.00000006,-0.00113518,0.00142417,0.00000
 334,0.00026536,-0.00048778,-0.00000083,0.00051950,0.00026208,-0.000000
 33,-0.00000970,-0.00009916,0.00001786,-0.00001012,-0.00009788,-0.00001
 832,0.20811760,0.00025614,0.00031246,0.00000102,0.00464766,-0.00567885
 ,-0.00000072,-0.02544517,-0.01817412,-0.00005482,-0.09501467,-0.156499
 46,-0.00016619,0.00887073,0.02430125,0.00001216,-0.00209786,0.00071952
 ,-0.00000054,0.00118860,-0.00006087,0.00000051,-0.00321053,0.00030263,
 0.00000025,0.00083586,-0.00147989,-0.00000099,-0.00019721,-0.00019136,
 -0.00000073,-0.00011437,-0.00004215,0.00000917,-0.00011453,-0.00004131
 ,-0.00000968,0.10894617,0.15677279,-0.00000079,0.00000234,-0.00063280,
 0.00000475,-0.00000537,0.00107967,-0.00003771,-0.00002831,0.02095070,-
 0.00016393,-0.00017163,-0.06088959,-0.00006971,-0.00000558,0.02021149,
 0.00000007,0.00000107,-0.00106798,0.00000136,-0.00000083,0.00060359,-0
 .00000047,0.00000426,-0.00350843,0.00000026,-0.00000240,0.00075457,-0.
 00000010,-0.00000118,0.00063282,-0.00015061,0.00049405,0.00012305,0.00
 015041,-0.00049523,0.00012233,0.00026472,0.00020933,0.02177602,0.00026
 905,-0.00117484,-0.00000060,-0.00455879,0.00231563,-0.00000135,-0.0110
 4035,-0.01674947,-0.00002562,-0.00003729,-0.00354508,-0.00000303,0.000
 36204,0.00101543,0.00000122,-0.23316472,-0.14040384,-0.00028441,0.0076
 7495,0.00537177,0.00000211,-0.00239158,0.00086038,-0.00001412,0.001256
 19,0.00025273,0.00000432,0.00008024,-0.00001186,-0.00000001,-0.0003009
 5,-0.00007257,-0.00000618,-0.00030094,-0.00007248,0.00000528,0.0004726
 5,0.00137457,0.00000164,0.24137284,0.00007633,0.00066329,0.00000047,0.
 00298489,-0.00106054,0.00000315,0.00774876,0.00905037,0.00001141,0.000
 77300,0.00166846,0.00000174,-0.00055419,-0.00028214,-0.00000069,-0.136
 51078,-0.16697472,-0.00022187,-0.02699681,-0.00870296,-0.00003831,0.00
 374373,-0.00477390,-0.00001154,-0.00299677,-0.00114812,-0.00000088,-0.
 00007574,-0.00003227,-0.00000016,0.00015298,0.00000500,-0.00002107,0.0
 0015266,0.00000508,0.00002123,-0.00052035,-0.00020790,-0.00000046,0.15
 133104,0.17072725,0.00000009,-0.00000048,0.00007466,-0.00000045,0.0000
 0244,-0.00135427,-0.00000817,-0.00001142,0.00331711,0.00000038,-0.0000
 0213,0.00029287,0.00000004,0.00000077,-0.00012672,-0.00027975,-0.00022
 500,-0.04142726,-0.00002285,-0.00000871,0.00979915,-0.00001233,-0.0000
 1397,0.01381373,0.00000193,0.00000197,-0.00328613,-0.00000006,-0.00000
 019,0.00009361,-0.00010035,0.00004721,0.00009293,0.00009979,-0.0000475
 9,0.00009318,0.00000022,0.00000123,-0.00016638,0.00031605,0.00025145,0
 .02401380,0.00001436,0.00175470,0.00000087,-0.00454178,-0.00154095,-0.
 00000493,-0.00001587,-0.00096872,-0.00000861,0.00047590,-0.00042257,-0
 .00000098,0.00008239,-0.00002740,0.00000061,0.00595277,-0.00575625,-0.
 00000195,-0.24651644,0.14644636,-0.00008159,-0.00885956,0.02027254,0.0
 0000699,0.00223132,-0.00277664,0.00000102,-0.00049752,-0.00010670,-0.0
 0000079,0.00010816,-0.00008392,0.00000928,0.00010787,-0.00008365,-0.00
 000938,0.00005753,0.00007461,0.00000011,0.00030667,0.00069125,0.000005
 47,0.25109420,-0.00007684,0.00111065,0.00000019,-0.00393178,-0.0009938
 6,-0.00000408,-0.00161105,-0.00436736,-0.00001193,0.00142254,0.0006215
 4,0.00000079,0.00024062,-0.00069873,0.00000022,0.02529527,-0.00818582,
 0.00001481,0.14407415,-0.16469593,0.00002399,-0.00965143,0.01037141,-0
 .00000077,0.00241909,-0.00036918,0.00000284,-0.00034068,-0.00004932,-0
 .00000051,0.00008026,-0.00002955,0.00001177,0.00008001,-0.00002939,-0.
 00001178,-0.00003607,-0.00003275,-0.00000006,-0.00049142,0.00106310,0.
 00000440,-0.15747267,0.16628519,-0.00000104,0.00000234,0.00094233,-0.0
 0000690,-0.00000197,-0.00035016,-0.00000970,-0.00001107,0.00869375,0.0
 0000039,-0.00000089,0.00129288,0.00000080,-0.00000018,-0.00062522,0.00
 002315,-0.00001440,0.00311564,-0.00008495,0.00002709,-0.02830582,-0.00
 001492,0.00002612,-0.00011248,0.00000518,-0.00000191,-0.00130702,-0.00
 000113,-0.00000038,0.00016465,-0.00013784,0.00007356,0.00004075,0.0001
 3832,-0.00007399,0.00004087,0.00000001,0.00000001,0.00001094,0.0000047
 1,0.00000553,-0.00523029,0.00008393,-0.00002987,0.02162917\\-0.0000185
 6,0.00003795,0.00000053,0.00009306,0.00000500,-0.00000568,0.00000811,-
 0.00005512,-0.00000716,0.00005495,-0.00000411,0.00001056,-0.00005851,0
 .00000174,-0.00000341,-0.00001337,-0.00001935,0.00000548,0.00001504,0.
 00002958,-0.00000825,-0.00008480,0.00002503,0.00001711,0.00001291,0.00
 000256,-0.00000491,-0.00000387,-0.00002123,0.00000007,0.00000018,-0.00
 000820,0.00000196,0.00000049,-0.00000835,-0.00000213,0.00000331,0.0000
 0112,-0.00000342,0.00000243,0.00000731,0.00000047,-0.00001137,0.000006
 06,-0.00000123\\\@


 VIRTUE IS LEARNED AT YOUR MOTHER'S KNEE,
 VICES ARE PICKED UP AT SOME OTHER JOINT.
 Job cpu time:       0 days  1 hours 27 minutes 37.3 seconds.
 Elapsed time:       0 days  0 hours 21 minutes 54.8 seconds.
 File lengths (MBytes):  RWF=    102 Int=      0 D2E=      0 Chk=      8 Scr=      1
 Normal termination of Gaussian 16 at Sun Jul  3 18:12:33 2022.
### All Done ###
