### Starting Gaussian ###
 Entering Gaussian System, Link 0=g16
 Initial command:
 /cluster/software/gaussian/gaussian-16-A.03/avx2/g16/l1.exe "/local/scratch/ks29c/Gau-8115.inp" -scrdir="/local/scratch/ks29c/"
 Entering Link 1 = /cluster/software/gaussian/gaussian-16-A.03/avx2/g16/l1.exe PID=      8116.
  
 Copyright (c) 1988,1990,1992,1993,1995,1998,2003,2009,2016,
            Gaussian, Inc.  All Rights Reserved.
  
 This is part of the Gaussian(R) 16 program.  It is based on
 the Gaussian(R) 09 system (copyright 2009, Gaussian, Inc.),
 the Gaussian(R) 03 system (copyright 2003, Gaussian, Inc.),
 the Gaussian(R) 98 system (copyright 1998, Gaussian, Inc.),
 the Gaussian(R) 94 system (copyright 1995, Gaussian, Inc.),
 the Gaussian 92(TM) system (copyright 1992, Gaussian, Inc.),
 the Gaussian 90(TM) system (copyright 1990, Gaussian, Inc.),
 the Gaussian 88(TM) system (copyright 1988, Gaussian, Inc.),
 the Gaussian 86(TM) system (copyright 1986, Carnegie Mellon
 University), and the Gaussian 82(TM) system (copyright 1983,
 Carnegie Mellon University). Gaussian is a federally registered
 trademark of Gaussian, Inc.
  
 This software contains proprietary and confidential information,
 including trade secrets, belonging to Gaussian, Inc.
  
 This software is provided under written license and may be
 used, copied, transmitted, or stored only in accord with that
 written license.
  
 The following legend is applicable only to US Government
 contracts under FAR:
  
                    RESTRICTED RIGHTS LEGEND
  
 Use, reproduction and disclosure by the US Government is
 subject to restrictions as set forth in subparagraphs (a)
 and (c) of the Commercial Computer Software - Restricted
 Rights clause in FAR 52.227-19.
  
 Gaussian, Inc.
 340 Quinnipiac St., Bldg. 40, Wallingford CT 06492
  
  
 ---------------------------------------------------------------
 Warning -- This program may not be used in any manner that
 competes with the business of Gaussian, Inc. or will provide
 assistance to any competitor of Gaussian, Inc.  The licensee
 of this program is prohibited from giving any competitor of
 Gaussian, Inc. access to this program.  By using this program,
 the user acknowledges that Gaussian, Inc. is engaged in the
 business of creating and licensing software in the field of
 computational chemistry and represents and warrants to the
 licensee that it is not a competitor of Gaussian, Inc. and that
 it will not use this program in any manner prohibited above.
 ---------------------------------------------------------------
  

 Cite this work as:
 Gaussian 16, Revision A.03,
 M. J. Frisch, G. W. Trucks, H. B. Schlegel, G. E. Scuseria, 
 M. A. Robb, J. R. Cheeseman, G. Scalmani, V. Barone, 
 G. A. Petersson, H. Nakatsuji, X. Li, M. Caricato, A. V. Marenich, 
 J. Bloino, B. G. Janesko, R. Gomperts, B. Mennucci, H. P. Hratchian, 
 J. V. Ortiz, A. F. Izmaylov, J. L. Sonnenberg, D. Williams-Young, 
 F. Ding, F. Lipparini, F. Egidi, J. Goings, B. Peng, A. Petrone, 
 T. Henderson, D. Ranasinghe, V. G. Zakrzewski, J. Gao, N. Rega, 
 G. Zheng, W. Liang, M. Hada, M. Ehara, K. Toyota, R. Fukuda, 
 J. Hasegawa, M. Ishida, T. Nakajima, Y. Honda, O. Kitao, H. Nakai, 
 T. Vreven, K. Throssell, J. A. Montgomery, Jr., J. E. Peralta, 
 F. Ogliaro, M. J. Bearpark, J. J. Heyd, E. N. Brothers, K. N. Kudin, 
 V. N. Staroverov, T. A. Keith, R. Kobayashi, J. Normand, 
 K. Raghavachari, A. P. Rendell, J. C. Burant, S. S. Iyengar, 
 J. Tomasi, M. Cossi, J. M. Millam, M. Klene, C. Adamo, R. Cammi, 
 J. W. Ochterski, R. L. Martin, K. Morokuma, O. Farkas, 
 J. B. Foresman, and D. J. Fox, Gaussian, Inc., Wallingford CT, 2016.
 
 ******************************************
 Gaussian 16:  ES64L-G16RevA.03 25-Dec-2016
                 4-Aug-2022 
 ******************************************
 %chk=CC1dCCCC1.chk
 %NProcShared=20
 Will use up to   20 processors via shared memory.
 -----------------------------
 # opt freq b3lyp/6-31g(2df,p)
 -----------------------------
 1/18=20,19=15,26=3,38=1/1,3;
 2/9=110,12=2,17=6,18=5,40=1/2;
 3/5=1,6=6,7=104,11=2,25=1,30=1,71=1,74=-5/1,2,3;
 4//1;
 5/5=2,38=5/2;
 6/7=2,8=2,9=2,10=2,28=1/1;
 7//1,2,3,16;
 1/18=20,19=15,26=3/3(2);
 2/9=110/2;
 99//99;
 2/9=110/2;
 3/5=1,6=6,7=104,11=2,25=1,30=1,71=1,74=-5/1,2,3;
 4/5=5,16=3,69=1/1;
 5/5=2,38=5/2;
 7//1,2,3,16;
 1/18=20,19=15,26=3/3(-5);
 2/9=110/2;
 6/7=2,8=2,9=2,10=2,19=2,28=1/1;
 99/9=1/99;
 -------------------
 Title Card Required
 -------------------
 Symbolic Z-matrix:
 Charge =  0 Multiplicity = 1
 C                    -2.23845   0.01327  -0.04854 
 C                    -0.75344   0.04713   0.00061 
 C                     0.04283   1.12358  -0.03569 
 C                     1.48241   0.75049   0.09823 
 C                     1.46571  -0.75944  -0.13265 
 C                     0.03454  -1.21639   0.14615 
 H                    -2.66529   1.01726  -0.1365 
 H                    -2.63681  -0.44472   0.86253 
 H                    -2.57649  -0.57536  -0.9071 
 H                    -0.29909   2.1467   -0.11212 
 H                     1.84562   0.99749   1.10125 
 H                     2.10954   1.25801  -0.64044 
 H                     2.19206  -1.28064   0.49918 
 H                     1.72886  -0.97868  -1.17589 
 H                    -0.06636  -1.61359   1.16154 
 H                    -0.27857  -1.98172  -0.57053 
 

 GradGradGradGradGradGradGradGradGradGradGradGradGradGradGradGradGradGrad
 Berny optimization.
 Initialization pass.
                           ----------------------------
                           !    Initial Parameters    !
                           ! (Angstroms and Degrees)  !
 --------------------------                            --------------------------
 ! Name  Definition              Value          Derivative Info.                !
 --------------------------------------------------------------------------------
 ! R1    R(1,2)                  1.4862         estimate D2E/DX2                !
 ! R2    R(1,7)                  1.0945         estimate D2E/DX2                !
 ! R3    R(1,8)                  1.0948         estimate D2E/DX2                !
 ! R4    R(1,9)                  1.0945         estimate D2E/DX2                !
 ! R5    R(2,3)                  1.3394         estimate D2E/DX2                !
 ! R6    R(2,6)                  1.4962         estimate D2E/DX2                !
 ! R7    R(3,4)                  1.4932         estimate D2E/DX2                !
 ! R8    R(3,10)                 1.0814         estimate D2E/DX2                !
 ! R9    R(4,5)                  1.5276         estimate D2E/DX2                !
 ! R10   R(4,11)                 1.095          estimate D2E/DX2                !
 ! R11   R(4,12)                 1.0938         estimate D2E/DX2                !
 ! R12   R(5,6)                  1.528          estimate D2E/DX2                !
 ! R13   R(5,13)                 1.0947         estimate D2E/DX2                !
 ! R14   R(5,14)                 1.098          estimate D2E/DX2                !
 ! R15   R(6,15)                 1.095          estimate D2E/DX2                !
 ! R16   R(6,16)                 1.0943         estimate D2E/DX2                !
 ! A1    A(2,1,7)              111.8039         estimate D2E/DX2                !
 ! A2    A(2,1,8)              110.2181         estimate D2E/DX2                !
 ! A3    A(2,1,9)              110.2921         estimate D2E/DX2                !
 ! A4    A(7,1,8)              107.9825         estimate D2E/DX2                !
 ! A5    A(7,1,9)              108.0502         estimate D2E/DX2                !
 ! A6    A(8,1,9)              108.3876         estimate D2E/DX2                !
 ! A7    A(1,2,3)              127.6917         estimate D2E/DX2                !
 ! A8    A(1,2,6)              120.6779         estimate D2E/DX2                !
 ! A9    A(3,2,6)              111.6065         estimate D2E/DX2                !
 ! A10   A(2,3,4)              111.7101         estimate D2E/DX2                !
 ! A11   A(2,3,10)             125.0486         estimate D2E/DX2                !
 ! A12   A(4,3,10)             123.1993         estimate D2E/DX2                !
 ! A13   A(3,4,5)              102.8785         estimate D2E/DX2                !
 ! A14   A(3,4,11)             110.2182         estimate D2E/DX2                !
 ! A15   A(3,4,12)             112.1018         estimate D2E/DX2                !
 ! A16   A(5,4,11)             111.4103         estimate D2E/DX2                !
 ! A17   A(5,4,12)             111.2736         estimate D2E/DX2                !
 ! A18   A(11,4,12)            108.8896         estimate D2E/DX2                !
 ! A19   A(4,5,6)              106.1564         estimate D2E/DX2                !
 ! A20   A(4,5,13)             112.0931         estimate D2E/DX2                !
 ! A21   A(4,5,14)             109.7759         estimate D2E/DX2                !
 ! A22   A(6,5,13)             111.9479         estimate D2E/DX2                !
 ! A23   A(6,5,14)             109.7621         estimate D2E/DX2                !
 ! A24   A(13,5,14)            107.1146         estimate D2E/DX2                !
 ! A25   A(2,6,5)              102.8847         estimate D2E/DX2                !
 ! A26   A(2,6,15)             110.3658         estimate D2E/DX2                !
 ! A27   A(2,6,16)             112.1008         estimate D2E/DX2                !
 ! A28   A(5,6,15)             111.3454         estimate D2E/DX2                !
 ! A29   A(5,6,16)             110.9567         estimate D2E/DX2                !
 ! A30   A(15,6,16)            109.1031         estimate D2E/DX2                !
 ! D1    D(7,1,2,3)              0.7772         estimate D2E/DX2                !
 ! D2    D(7,1,2,6)            178.8404         estimate D2E/DX2                !
 ! D3    D(8,1,2,3)           -119.3341         estimate D2E/DX2                !
 ! D4    D(8,1,2,6)             58.7291         estimate D2E/DX2                !
 ! D5    D(9,1,2,3)            121.0242         estimate D2E/DX2                !
 ! D6    D(9,1,2,6)            -60.9126         estimate D2E/DX2                !
 ! D7    D(1,2,3,4)            177.4344         estimate D2E/DX2                !
 ! D8    D(1,2,3,10)            -0.2634         estimate D2E/DX2                !
 ! D9    D(6,2,3,4)             -0.774          estimate D2E/DX2                !
 ! D10   D(6,2,3,10)          -178.4718         estimate D2E/DX2                !
 ! D11   D(1,2,6,5)            168.9614         estimate D2E/DX2                !
 ! D12   D(1,2,6,15)           -72.1438         estimate D2E/DX2                !
 ! D13   D(1,2,6,16)            49.694          estimate D2E/DX2                !
 ! D14   D(3,2,6,5)            -12.687          estimate D2E/DX2                !
 ! D15   D(3,2,6,15)           106.2078         estimate D2E/DX2                !
 ! D16   D(3,2,6,16)          -131.9544         estimate D2E/DX2                !
 ! D17   D(2,3,4,5)             13.8869         estimate D2E/DX2                !
 ! D18   D(2,3,4,11)          -105.0114         estimate D2E/DX2                !
 ! D19   D(2,3,4,12)           133.527          estimate D2E/DX2                !
 ! D20   D(10,3,4,5)          -168.3654         estimate D2E/DX2                !
 ! D21   D(10,3,4,11)           72.7363         estimate D2E/DX2                !
 ! D22   D(10,3,4,12)          -48.7253         estimate D2E/DX2                !
 ! D23   D(3,4,5,6)            -21.0339         estimate D2E/DX2                !
 ! D24   D(3,4,5,13)          -143.5518         estimate D2E/DX2                !
 ! D25   D(3,4,5,14)            97.5368         estimate D2E/DX2                !
 ! D26   D(11,4,5,6)            97.0291         estimate D2E/DX2                !
 ! D27   D(11,4,5,13)          -25.4889         estimate D2E/DX2                !
 ! D28   D(11,4,5,14)         -144.4003         estimate D2E/DX2                !
 ! D29   D(12,4,5,6)          -141.2462         estimate D2E/DX2                !
 ! D30   D(12,4,5,13)           96.2359         estimate D2E/DX2                !
 ! D31   D(12,4,5,14)          -22.6755         estimate D2E/DX2                !
 ! D32   D(4,5,6,2)             20.6213         estimate D2E/DX2                !
 ! D33   D(4,5,6,15)           -97.5876         estimate D2E/DX2                !
 ! D34   D(4,5,6,16)           140.6812         estimate D2E/DX2                !
 ! D35   D(13,5,6,2)           143.2313         estimate D2E/DX2                !
 ! D36   D(13,5,6,15)           25.0224         estimate D2E/DX2                !
 ! D37   D(13,5,6,16)          -96.7089         estimate D2E/DX2                !
 ! D38   D(14,5,6,2)           -97.9584         estimate D2E/DX2                !
 ! D39   D(14,5,6,15)          143.8327         estimate D2E/DX2                !
 ! D40   D(14,5,6,16)           22.1015         estimate D2E/DX2                !
 --------------------------------------------------------------------------------
 Trust Radius=3.00D-01 FncErr=1.00D-07 GrdErr=1.00D-06 EigMax=2.50D+02 EigMin=1.00D-04
 Number of steps in this run=     96 maximum allowed number of steps=    100.
 GradGradGradGradGradGradGradGradGradGradGradGradGradGradGradGradGradGrad

                          Input orientation:                          
 ---------------------------------------------------------------------
 Center     Atomic      Atomic             Coordinates (Angstroms)
 Number     Number       Type             X           Y           Z
 ---------------------------------------------------------------------
      1          6           0       -2.238450    0.013270   -0.048540
      2          6           0       -0.753440    0.047130    0.000610
      3          6           0        0.042830    1.123580   -0.035690
      4          6           0        1.482410    0.750490    0.098230
      5          6           0        1.465710   -0.759440   -0.132650
      6          6           0        0.034540   -1.216390    0.146150
      7          1           0       -2.665290    1.017260   -0.136500
      8          1           0       -2.636810   -0.444720    0.862530
      9          1           0       -2.576490   -0.575360   -0.907100
     10          1           0       -0.299090    2.146700   -0.112120
     11          1           0        1.845620    0.997490    1.101250
     12          1           0        2.109540    1.258010   -0.640440
     13          1           0        2.192060   -1.280640    0.499180
     14          1           0        1.728860   -0.978680   -1.175890
     15          1           0       -0.066360   -1.613590    1.161540
     16          1           0       -0.278570   -1.981720   -0.570530
 ---------------------------------------------------------------------
                    Distance matrix (angstroms):
                    1          2          3          4          5
     1  C    0.000000
     2  C    1.486209   0.000000
     3  C    2.537162   1.339443   0.000000
     4  C    3.796029   2.345905   1.493158   0.000000
     5  C    3.784832   2.364940   2.362150   1.527571   0.000000
     6  C    2.591612   1.496188   2.347039   2.442794   1.527999
     7  H    1.094498   2.148283   2.712080   4.162893   4.496870
     8  H    1.094758   2.128827   3.232156   4.356679   4.233214
     9  H    1.094478   2.129540   3.241387   4.386711   4.119835
    10  H    2.883866   2.151124   1.081446   2.273190   3.400087
    11  H    4.355495   2.978205   2.135084   1.094979   2.180285
    12  H    4.561221   3.173930   2.157564   1.093847   2.177722
    13  H    4.647969   3.269177   3.268876   2.188573   1.094734
    14  H    4.241984   2.932278   2.926132   2.161978   1.098027
    15  H    2.971354   2.139586   2.989545   3.019634   2.179848
    16  H    2.844923   2.160540   3.167371   3.318624   2.174447
                    6          7          8          9         10
     6  C    0.000000
     7  H    3.515418   0.000000
     8  H    2.871373   1.770948   0.000000
     9  H    2.887513   1.771482   1.775471   0.000000
    10  H    3.389452   2.622047   3.623580   3.637053   0.000000
    11  H    3.015542   4.677684   4.714778   5.105133   2.718958
    12  H    3.323703   4.807382   5.261753   5.038971   2.621143
    13  H    2.187156   5.410941   4.914140   5.021366   4.280908
    14  H    2.162179   4.936868   4.847612   4.332546   3.874556
    15  H    1.094973   3.919275   2.839521   3.414373   3.976953
    16  H    1.094257   3.857291   3.158691   2.715062   4.153843
                   11         12         13         14         15
    11  H    0.000000
    12  H    1.780733   0.000000
    13  H    2.381677   2.783934   0.000000
    14  H    3.017325   2.331181   1.763971   0.000000
    15  H    3.236826   4.028369   2.376981   3.014881   0.000000
    16  H    4.022776   4.025395   2.782051   2.324290   1.783429
                   16
    16  H    0.000000
 Stoichiometry    C6H10
 Framework group  C1[X(C6H10)]
 Deg. of freedom    42
 Full point group                 C1      NOp   1
 Largest Abelian subgroup         C1      NOp   1
 Largest concise Abelian subgroup C1      NOp   1
                         Standard orientation:                         
 ---------------------------------------------------------------------
 Center     Atomic      Atomic             Coordinates (Angstroms)
 Number     Number       Type             X           Y           Z
 ---------------------------------------------------------------------
      1          6           0       -2.229439    0.033674   -0.036884
      2          6           0       -0.744406    0.078439    0.001718
      3          6           0        0.043292    1.161408   -0.026892
      4          6           0        1.486652    0.797852    0.091677
      5          6           0        1.479804   -0.709147   -0.158087
      6          6           0        0.054306   -1.180653    0.125495
      7          1           0       -2.664612    1.035345   -0.109026
      8          1           0       -2.617446   -0.438790    0.871259
      9          1           0       -2.569372   -0.546743   -0.900275
     10          1           0       -0.307026    2.182722   -0.087891
     11          1           0        1.855454    1.035058    1.095021
     12          1           0        2.104327    1.319452   -0.645149
     13          1           0        2.214837   -1.232580    0.461740
     14          1           0        1.736812   -0.913230   -1.205923
     15          1           0       -0.035943   -1.591334    1.136516
     16          1           0       -0.258281   -1.939338   -0.598442
 ---------------------------------------------------------------------
 Rotational constants (GHZ):           7.0412884           3.0980212           2.2916747
 Standard basis: 6-31G(2df,p) (6D, 7F)
 There are   236 symmetry adapted cartesian basis functions of A   symmetry.
 There are   218 symmetry adapted basis functions of A   symmetry.
   218 basis functions,   334 primitive gaussians,   236 cartesian basis functions
    23 alpha electrons       23 beta electrons
       nuclear repulsion energy       235.0993468689 Hartrees.
 NAtoms=   16 NActive=   16 NUniq=   16 SFac= 1.00D+00 NAtFMM=   60 NAOKFM=F Big=F
 Integral buffers will be    131072 words long.
 Raffenetti 2 integral format.
 Two-electron integral symmetry is turned on.
 One-electron integrals computed using PRISM.
 PrsmSu:  requested number of processors reduced to:  13 ShMem   1 Linda.
 NBasis=   218 RedAO= T EigKep=  5.25D-04  NBF=   218
 NBsUse=   218 1.00D-06 EigRej= -1.00D+00 NBFU=   218
 ExpMin= 1.61D-01 ExpMax= 3.05D+03 ExpMxC= 4.57D+02 IAcc=3 IRadAn=         5 AccDes= 0.00D+00
 Harris functional with IExCor=  402 and IRadAn=       5 diagonalized for initial guess.
 HarFok:  IExCor=  402 AccDes= 0.00D+00 IRadAn=         5 IDoV= 1 UseB2=F ITyADJ=14
 ICtDFT=  3500011 ScaDFX=  1.000000  1.000000  1.000000  1.000000
 FoFCou: FMM=F IPFlag=           0 FMFlag=      100000 FMFlg1=           0
         NFxFlg=           0 DoJE=T BraDBF=F KetDBF=T FulRan=T
         wScrn=  0.000000 ICntrl=       500 IOpCl=  0 I1Cent=   200000004 NGrid=           0
         NMat0=    1 NMatS0=      1 NMatT0=    0 NMatD0=    1 NMtDS0=    0 NMtDT0=    0
 Petite list used in FoFCou.
 Requested convergence on RMS density matrix=1.00D-08 within 128 cycles.
 Requested convergence on MAX density matrix=1.00D-06.
 Requested convergence on             energy=1.00D-06.
 No special actions if energy rises.
 Integral accuracy reduced to 1.0D-05 until final iterations.
 Initial convergence to 1.0D-05 achieved.  Increase integral accuracy.
 SCF Done:  E(RB3LYP) =  -234.664607639     A.U. after   13 cycles
            NFock= 13  Conv=0.29D-08     -V/T= 2.0083

 **********************************************************************

            Population analysis using the SCF density.

 **********************************************************************

 Orbital symmetries:
       Occupied  (A) (A) (A) (A) (A) (A) (A) (A) (A) (A) (A) (A)
                 (A) (A) (A) (A) (A) (A) (A) (A) (A) (A) (A)
       Virtual   (A) (A) (A) (A) (A) (A) (A) (A) (A) (A) (A) (A)
                 (A) (A) (A) (A) (A) (A) (A) (A) (A) (A) (A) (A)
                 (A) (A) (A) (A) (A) (A) (A) (A) (A) (A) (A) (A)
                 (A) (A) (A) (A) (A) (A) (A) (A) (A) (A) (A) (A)
                 (A) (A) (A) (A) (A) (A) (A) (A) (A) (A) (A) (A)
                 (A) (A) (A) (A) (A) (A) (A) (A) (A) (A) (A) (A)
                 (A) (A) (A) (A) (A) (A) (A) (A) (A) (A) (A) (A)
                 (A) (A) (A) (A) (A) (A) (A) (A) (A) (A) (A) (A)
                 (A) (A) (A) (A) (A) (A) (A) (A) (A) (A) (A) (A)
                 (A) (A) (A) (A) (A) (A) (A) (A) (A) (A) (A) (A)
                 (A) (A) (A) (A) (A) (A) (A) (A) (A) (A) (A) (A)
                 (A) (A) (A) (A) (A) (A) (A) (A) (A) (A) (A) (A)
                 (A) (A) (A) (A) (A) (A) (A) (A) (A) (A) (A) (A)
                 (A) (A) (A) (A) (A) (A) (A) (A) (A) (A) (A) (A)
                 (A) (A) (A) (A) (A) (A) (A) (A) (A) (A) (A) (A)
                 (A) (A) (A) (A) (A) (A) (A) (A) (A) (A) (A) (A)
                 (A) (A) (A)
 The electronic state is 1-A.
 Alpha  occ. eigenvalues --  -10.17385 -10.17322 -10.17120 -10.17043 -10.17012
 Alpha  occ. eigenvalues --  -10.16216  -0.84165  -0.74222  -0.69994  -0.65359
 Alpha  occ. eigenvalues --   -0.56396  -0.50891  -0.46787  -0.46375  -0.41337
 Alpha  occ. eigenvalues --   -0.40748  -0.38987  -0.35410  -0.33562  -0.33329
 Alpha  occ. eigenvalues --   -0.33087  -0.32119  -0.22226
 Alpha virt. eigenvalues --    0.03667   0.09445   0.11783   0.12633   0.14500
 Alpha virt. eigenvalues --    0.16164   0.17870   0.18059   0.18479   0.20008
 Alpha virt. eigenvalues --    0.20591   0.23134   0.23725   0.24751   0.29154
 Alpha virt. eigenvalues --    0.32248   0.42037   0.43753   0.47893   0.48815
 Alpha virt. eigenvalues --    0.49528   0.51784   0.52426   0.54890   0.56936
 Alpha virt. eigenvalues --    0.58278   0.59780   0.62147   0.65104   0.66152
 Alpha virt. eigenvalues --    0.67322   0.67752   0.69918   0.71673   0.72677
 Alpha virt. eigenvalues --    0.74574   0.75636   0.76187   0.79181   0.79730
 Alpha virt. eigenvalues --    0.81378   0.82389   0.83934   0.85584   0.86237
 Alpha virt. eigenvalues --    0.88118   0.88493   1.00403   1.02250   1.08522
 Alpha virt. eigenvalues --    1.12347   1.17182   1.18476   1.20976   1.24148
 Alpha virt. eigenvalues --    1.24548   1.30403   1.39714   1.40675   1.41949
 Alpha virt. eigenvalues --    1.44726   1.45247   1.46522   1.50182   1.52981
 Alpha virt. eigenvalues --    1.56596   1.58188   1.61305   1.61931   1.63336
 Alpha virt. eigenvalues --    1.68950   1.79378   1.81010   1.81956   1.85542
 Alpha virt. eigenvalues --    1.88844   1.91560   1.95465   2.00354   2.01220
 Alpha virt. eigenvalues --    2.04220   2.10940   2.13067   2.20296   2.23024
 Alpha virt. eigenvalues --    2.25463   2.30560   2.33585   2.36616   2.39253
 Alpha virt. eigenvalues --    2.41336   2.44588   2.48342   2.48953   2.55257
 Alpha virt. eigenvalues --    2.59026   2.61029   2.69992   2.71567   2.73077
 Alpha virt. eigenvalues --    2.76111   2.77082   2.83314   2.85112   2.88934
 Alpha virt. eigenvalues --    2.91320   2.93127   2.93967   2.96180   2.96929
 Alpha virt. eigenvalues --    3.00361   3.02439   3.04078   3.09014   3.11417
 Alpha virt. eigenvalues --    3.15111   3.17514   3.19861   3.20512   3.24323
 Alpha virt. eigenvalues --    3.30710   3.32933   3.34552   3.35956   3.37466
 Alpha virt. eigenvalues --    3.40972   3.45579   3.48030   3.49080   3.53822
 Alpha virt. eigenvalues --    3.57112   3.61804   3.65541   3.65822   3.68874
 Alpha virt. eigenvalues --    3.71386   3.74826   3.75980   3.82568   3.85308
 Alpha virt. eigenvalues --    3.91004   3.93614   3.99054   4.03419   4.07112
 Alpha virt. eigenvalues --    4.13297   4.16429   4.21511   4.27742   4.37299
 Alpha virt. eigenvalues --    4.40736   4.42343   4.43944   4.48836   4.50950
 Alpha virt. eigenvalues --    4.53890   4.54609   4.57578   4.63654   4.64610
 Alpha virt. eigenvalues --    4.65937   4.69717   4.71362   4.73285   4.76960
 Alpha virt. eigenvalues --    4.77687   4.80147   4.81102   4.82830   4.84347
 Alpha virt. eigenvalues --    4.86873   4.89957   4.92919   4.94639   4.99051
 Alpha virt. eigenvalues --    5.01166   5.07206   5.12454   5.21882   5.30598
 Alpha virt. eigenvalues --    5.38347   5.43209   5.45377   5.52538   5.61839
 Alpha virt. eigenvalues --    5.66507   5.74829   6.07000   6.24572  10.24047
 Alpha virt. eigenvalues --   11.32199  11.40124  11.90958  12.36496  12.51851
          Condensed to atoms (all electrons):
               1          2          3          4          5          6
     1  C    5.154948   0.401687  -0.059309   0.011264   0.004630  -0.094249
     2  C    0.401687   4.314453   0.724967   0.009359  -0.041338   0.383021
     3  C   -0.059309   0.724967   4.895303   0.351582  -0.040803  -0.017245
     4  C    0.011264   0.009359   0.351582   4.930111   0.413997  -0.092979
     5  C    0.004630  -0.041338  -0.040803   0.413997   4.827931   0.404777
     6  C   -0.094249   0.383021  -0.017245  -0.092979   0.404777   5.026459
     7  H    0.358506  -0.010741  -0.007427  -0.000140  -0.000220   0.005135
     8  H    0.361499  -0.021255   0.000319  -0.000301   0.000185  -0.001711
     9  H    0.361003  -0.021369   0.000996  -0.000136  -0.000174  -0.001660
    10  H   -0.011159  -0.037981   0.362539  -0.060992   0.004943   0.010811
    11  H   -0.000237  -0.007075  -0.024374   0.355746  -0.027305   0.002066
    12  H   -0.000232  -0.001385  -0.025868   0.365052  -0.027963   0.005811
    13  H   -0.000169   0.004160   0.003962  -0.029291   0.363726  -0.029484
    14  H   -0.000018   0.002956   0.001837  -0.030594   0.370404  -0.030887
    15  H    0.002276  -0.020126  -0.005627   0.003344  -0.027417   0.345963
    16  H   -0.001546  -0.029399   0.001518   0.005852  -0.029385   0.363070
               7          8          9         10         11         12
     1  C    0.358506   0.361499   0.361003  -0.011159  -0.000237  -0.000232
     2  C   -0.010741  -0.021255  -0.021369  -0.037981  -0.007075  -0.001385
     3  C   -0.007427   0.000319   0.000996   0.362539  -0.024374  -0.025868
     4  C   -0.000140  -0.000301  -0.000136  -0.060992   0.355746   0.365052
     5  C   -0.000220   0.000185  -0.000174   0.004943  -0.027305  -0.027963
     6  C    0.005135  -0.001711  -0.001660   0.010811   0.002066   0.005811
     7  H    0.594573  -0.031135  -0.031287   0.004801  -0.000005  -0.000006
     8  H   -0.031135   0.605250  -0.036201  -0.000046   0.000058  -0.000006
     9  H   -0.031287  -0.036201   0.604702   0.000031  -0.000012   0.000021
    10  H    0.004801  -0.000046   0.000031   0.648126   0.002004  -0.000338
    11  H   -0.000005   0.000058  -0.000012   0.002004   0.646527  -0.045438
    12  H   -0.000006  -0.000006   0.000021  -0.000338  -0.045438   0.645088
    13  H    0.000004   0.000008  -0.000007  -0.000148  -0.007644   0.002915
    14  H    0.000004   0.000010  -0.000026  -0.000162   0.005890  -0.011589
    15  H   -0.000144   0.003113  -0.000617  -0.000278   0.002115  -0.000366
    16  H   -0.000062  -0.000813   0.004281  -0.000195  -0.000377  -0.000017
              13         14         15         16
     1  C   -0.000169  -0.000018   0.002276  -0.001546
     2  C    0.004160   0.002956  -0.020126  -0.029399
     3  C    0.003962   0.001837  -0.005627   0.001518
     4  C   -0.029291  -0.030594   0.003344   0.005852
     5  C    0.363726   0.370404  -0.027417  -0.029385
     6  C   -0.029484  -0.030887   0.345963   0.363070
     7  H    0.000004   0.000004  -0.000144  -0.000062
     8  H    0.000008   0.000010   0.003113  -0.000813
     9  H   -0.000007  -0.000026  -0.000617   0.004281
    10  H   -0.000148  -0.000162  -0.000278  -0.000195
    11  H   -0.007644   0.005890   0.002115  -0.000377
    12  H    0.002915  -0.011589  -0.000366  -0.000017
    13  H    0.649544  -0.040781  -0.007888   0.002776
    14  H   -0.040781   0.640568   0.005942  -0.011920
    15  H   -0.007888   0.005942   0.648578  -0.046131
    16  H    0.002776  -0.011920  -0.046131   0.648385
 Mulliken charges:
               1
     1  C   -0.488895
     2  C    0.350067
     3  C   -0.162369
     4  C   -0.231875
     5  C   -0.195989
     6  C   -0.278897
     7  H    0.118143
     8  H    0.121027
     9  H    0.120455
    10  H    0.078043
    11  H    0.098062
    12  H    0.094321
    13  H    0.088316
    14  H    0.098367
    15  H    0.097263
    16  H    0.093963
 Sum of Mulliken charges =  -0.00000
 Mulliken charges with hydrogens summed into heavy atoms:
               1
     1  C   -0.129271
     2  C    0.350067
     3  C   -0.084326
     4  C   -0.039493
     5  C   -0.009307
     6  C   -0.087670
 Electronic spatial extent (au):  <R**2>=            598.5287
 Charge=             -0.0000 electrons
 Dipole moment (field-independent basis, Debye):
    X=             -0.1594    Y=             -0.1661    Z=              0.0377  Tot=              0.2333
 Quadrupole moment (field-independent basis, Debye-Ang):
   XX=            -37.7065   YY=            -37.5104   ZZ=            -37.9855
   XY=              0.1002   XZ=              0.0517   YZ=             -0.0601
 Traceless Quadrupole moment (field-independent basis, Debye-Ang):
   XX=              0.0277   YY=              0.2237   ZZ=             -0.2514
   XY=              0.1002   XZ=              0.0517   YZ=             -0.0601
 Octapole moment (field-independent basis, Debye-Ang**2):
  XXX=             -1.1156  YYY=              2.8772  ZZZ=              0.3920  XYY=             -1.2315
  XXY=              0.3163  XXZ=             -0.0274  XZZ=              0.7075  YZZ=             -1.9615
  YYZ=             -0.6520  XYZ=             -0.3358
 Hexadecapole moment (field-independent basis, Debye-Ang**3):
 XXXX=           -522.9277 YYYY=           -237.2775 ZZZZ=            -68.7522 XXXY=             -1.3016
 XXXZ=             -0.1498 YYYX=             -2.4800 YYYZ=             -0.0400 ZZZX=             -0.4044
 ZZZY=              0.3614 XXYY=           -124.4940 XXZZ=            -93.3443 YYZZ=            -51.1101
 XXYZ=             -1.3048 YYXZ=              0.6002 ZZXY=              2.0318
 N-N= 2.350993468689D+02 E-N=-1.012951503154D+03  KE= 2.327288336074D+02
 PrsmSu:  requested number of processors reduced to:  13 ShMem   1 Linda.
 Calling FoFJK, ICntrl=      2127 FMM=F ISym2X=0 I1Cent= 0 IOpClX= 0 NMat=1 NMatS=1 NMatT=0.
 ***** Axes restored to original set *****
 -------------------------------------------------------------------
 Center     Atomic                   Forces (Hartrees/Bohr)
 Number     Number              X              Y              Z
 -------------------------------------------------------------------
      1        6          -0.001861565    0.005458506   -0.000593598
      2        6          -0.003184315    0.013419794   -0.001220658
      3        6          -0.010383511   -0.006519851    0.000143701
      4        6           0.003899198    0.006353756   -0.003345793
      5        6           0.014189449   -0.011102245   -0.000549596
      6        6           0.001804029   -0.002125658   -0.003165137
      7        1          -0.000307141   -0.000468060    0.000061933
      8        1          -0.002947138   -0.002302515   -0.000228856
      9        1          -0.003026989   -0.002327500    0.000382010
     10        1          -0.001388668    0.002136556    0.000345353
     11        1           0.004154077    0.003040662    0.000912280
     12        1           0.003845586    0.002832395    0.002960491
     13        1           0.001215977   -0.000550567   -0.002055182
     14        1          -0.000431247    0.000495236    0.001918299
     15        1          -0.002654360   -0.004391174    0.001110170
     16        1          -0.002923382   -0.003949334    0.003324582
 -------------------------------------------------------------------
 Cartesian Forces:  Max     0.014189449 RMS     0.004454913

 GradGradGradGradGradGradGradGradGradGradGradGradGradGradGradGradGradGrad
 Berny optimization.
 FormGI is forming the generalized inverse of G from B-inverse, IUseBI=4.
 Internal  Forces:  Max     0.013303628 RMS     0.003363336
 Search for a local minimum.
 Step number   1 out of a maximum of   96
 All quantities printed in internal units (Hartrees-Bohrs-Radians)
 Mixed Optimization -- RFO/linear search
 Second derivative matrix not updated -- first step.
 ITU=  0
     Eigenvalues ---    0.00537   0.00948   0.01121   0.01314   0.01782
     Eigenvalues ---    0.03425   0.03556   0.05145   0.05323   0.06009
     Eigenvalues ---    0.06073   0.07284   0.07301   0.07469   0.07596
     Eigenvalues ---    0.08105   0.08153   0.09355   0.11138   0.15981
     Eigenvalues ---    0.16000   0.16000   0.16000   0.21511   0.22739
     Eigenvalues ---    0.24981   0.28524   0.28727   0.31323   0.32723
     Eigenvalues ---    0.33868   0.33901   0.34243   0.34244   0.34269
     Eigenvalues ---    0.34271   0.34298   0.34300   0.34325   0.34372
     Eigenvalues ---    0.35820   0.54373
 RFO step:  Lambda=-4.22022792D-03 EMin= 5.36874174D-03
 Linear search not attempted -- first point.
 Iteration  1 RMS(Cart)=  0.02686758 RMS(Int)=  0.00026174
 Iteration  2 RMS(Cart)=  0.00025616 RMS(Int)=  0.00012718
 Iteration  3 RMS(Cart)=  0.00000006 RMS(Int)=  0.00012718
 Variable       Old X    -DE/DX   Delta X   Delta X   Delta X     New X
                                 (Linear)    (Quad)   (Total)
    R1        2.80853   0.00814   0.00000   0.02374   0.02374   2.83227
    R2        2.06830  -0.00032   0.00000  -0.00091  -0.00091   2.06739
    R3        2.06879   0.00185   0.00000   0.00532   0.00532   2.07412
    R4        2.06826   0.00189   0.00000   0.00543   0.00543   2.07370
    R5        2.53118  -0.00293   0.00000  -0.00553  -0.00565   2.52553
    R6        2.82738   0.01305   0.00000   0.03842   0.03837   2.86575
    R7        2.82166   0.01275   0.00000   0.03834   0.03830   2.85996
    R8        2.04364   0.00244   0.00000   0.00672   0.00672   2.05036
    R9        2.88669   0.01240   0.00000   0.04218   0.04226   2.92895
   R10        2.06921   0.00290   0.00000   0.00836   0.00836   2.07757
   R11        2.06707   0.00152   0.00000   0.00437   0.00437   2.07144
   R12        2.88750   0.01330   0.00000   0.04472   0.04484   2.93234
   R13        2.06875  -0.00012   0.00000  -0.00034  -0.00034   2.06841
   R14        2.07497  -0.00202   0.00000  -0.00590  -0.00590   2.06907
   R15        2.06920   0.00287   0.00000   0.00827   0.00827   2.07747
   R16        2.06785   0.00142   0.00000   0.00409   0.00409   2.07194
    A1        1.95135   0.00004   0.00000   0.00355   0.00347   1.95482
    A2        1.92367   0.00267   0.00000   0.01453   0.01449   1.93816
    A3        1.92496   0.00279   0.00000   0.01550   0.01545   1.94041
    A4        1.88465  -0.00089   0.00000  -0.00254  -0.00261   1.88204
    A5        1.88583  -0.00087   0.00000  -0.00192  -0.00199   1.88384
    A6        1.89172  -0.00403   0.00000  -0.03100  -0.03101   1.86071
    A7        2.22864  -0.00062   0.00000  -0.00027  -0.00024   2.22840
    A8        2.10623   0.00265   0.00000   0.01256   0.01259   2.11881
    A9        1.94790  -0.00203   0.00000  -0.01249  -0.01255   1.93535
   A10        1.94971   0.00519   0.00000   0.01985   0.01981   1.96952
   A11        2.18251  -0.00324   0.00000  -0.01380  -0.01378   2.16873
   A12        2.15023  -0.00196   0.00000  -0.00607  -0.00606   2.14418
   A13        1.79557  -0.00155   0.00000   0.00087   0.00082   1.79639
   A14        1.92367   0.00061   0.00000   0.00598   0.00607   1.92974
   A15        1.95655   0.00162   0.00000   0.01803   0.01768   1.97422
   A16        1.94448   0.00114   0.00000   0.00363   0.00351   1.94799
   A17        1.94209   0.00173   0.00000   0.01862   0.01852   1.96061
   A18        1.90048  -0.00330   0.00000  -0.04347  -0.04334   1.85714
   A19        1.85278  -0.00327   0.00000  -0.01591  -0.01584   1.83694
   A20        1.95639   0.00143   0.00000   0.01632   0.01629   1.97269
   A21        1.91595   0.00059   0.00000  -0.00716  -0.00736   1.90859
   A22        1.95386   0.00225   0.00000   0.02136   0.02123   1.97509
   A23        1.91571   0.00023   0.00000  -0.00635  -0.00646   1.90925
   A24        1.86950  -0.00119   0.00000  -0.00874  -0.00862   1.86089
   A25        1.79568   0.00196   0.00000   0.01628   0.01614   1.81181
   A26        1.92625  -0.00062   0.00000  -0.00409  -0.00432   1.92193
   A27        1.95653  -0.00066   0.00000   0.00353   0.00290   1.95943
   A28        1.94334   0.00093   0.00000   0.00980   0.00974   1.95308
   A29        1.93656   0.00166   0.00000   0.02514   0.02498   1.96154
   A30        1.90421  -0.00295   0.00000  -0.04622  -0.04619   1.85802
    D1        0.01357   0.00010   0.00000   0.00419   0.00418   0.01774
    D2        3.12135  -0.00016   0.00000  -0.00379  -0.00379   3.11757
    D3       -2.08277  -0.00061   0.00000  -0.00476  -0.00479  -2.08756
    D4        1.02502  -0.00086   0.00000  -0.01274  -0.01275   1.01227
    D5        2.11227   0.00092   0.00000   0.01464   0.01466   2.12693
    D6       -1.06313   0.00067   0.00000   0.00666   0.00669  -1.05643
    D7        3.09682  -0.00015   0.00000   0.00258   0.00269   3.09951
    D8       -0.00460   0.00020   0.00000   0.00340   0.00339  -0.00120
    D9       -0.01351   0.00001   0.00000   0.00957   0.00958  -0.00393
   D10       -3.11492   0.00036   0.00000   0.01039   0.01028  -3.10464
   D11        2.94893   0.00018   0.00000   0.00878   0.00890   2.95783
   D12       -1.25915   0.00205   0.00000   0.02724   0.02721  -1.23194
   D13        0.86732  -0.00262   0.00000  -0.03241  -0.03237   0.83495
   D14       -0.22143  -0.00003   0.00000   0.00212   0.00229  -0.21914
   D15        1.85368   0.00184   0.00000   0.02059   0.02060   1.87427
   D16       -2.30304  -0.00283   0.00000  -0.03906  -0.03898  -2.34202
   D17        0.24237  -0.00009   0.00000  -0.01744  -0.01770   0.22468
   D18       -1.83279  -0.00085   0.00000  -0.02491  -0.02509  -1.85788
   D19        2.33049   0.00183   0.00000   0.01409   0.01404   2.34453
   D20       -2.93853  -0.00047   0.00000  -0.01847  -0.01861  -2.95714
   D21        1.26949  -0.00123   0.00000  -0.02594  -0.02600   1.24349
   D22       -0.85042   0.00145   0.00000   0.01306   0.01313  -0.83728
   D23       -0.36711   0.00162   0.00000   0.02500   0.02480  -0.34231
   D24       -2.50545   0.00016   0.00000  -0.00063  -0.00070  -2.50615
   D25        1.70234   0.00035   0.00000   0.00469   0.00472   1.70705
   D26        1.69348   0.00198   0.00000   0.03420   0.03405   1.72753
   D27       -0.44486   0.00052   0.00000   0.00857   0.00856  -0.43631
   D28       -2.52026   0.00071   0.00000   0.01388   0.01397  -2.50629
   D29       -2.46521  -0.00023   0.00000  -0.00593  -0.00618  -2.47139
   D30        1.67963  -0.00169   0.00000  -0.03156  -0.03168   1.64796
   D31       -0.39576  -0.00150   0.00000  -0.02625  -0.02626  -0.42203
   D32        0.35991  -0.00069   0.00000  -0.01594  -0.01598   0.34393
   D33       -1.70322  -0.00151   0.00000  -0.02496  -0.02496  -1.72818
   D34        2.45535   0.00047   0.00000   0.00978   0.01005   2.46540
   D35        2.49986   0.00026   0.00000   0.00650   0.00639   2.50625
   D36        0.43672  -0.00056   0.00000  -0.00252  -0.00259   0.43413
   D37       -1.68789   0.00141   0.00000   0.03222   0.03242  -1.65547
   D38       -1.70970   0.00035   0.00000   0.00490   0.00471  -1.70499
   D39        2.51035  -0.00047   0.00000  -0.00412  -0.00427   2.50608
   D40        0.38574   0.00150   0.00000   0.03063   0.03074   0.41648
         Item               Value     Threshold  Converged?
 Maximum Force            0.013304     0.000450     NO 
 RMS     Force            0.003363     0.000300     NO 
 Maximum Displacement     0.088370     0.001800     NO 
 RMS     Displacement     0.026845     0.001200     NO 
 Predicted change in Energy=-2.177008D-03
 GradGradGradGradGradGradGradGradGradGradGradGradGradGradGradGradGradGrad

                          Input orientation:                          
 ---------------------------------------------------------------------
 Center     Atomic      Atomic             Coordinates (Angstroms)
 Number     Number       Type             X           Y           Z
 ---------------------------------------------------------------------
      1          6           0       -2.263302    0.024682   -0.051669
      2          6           0       -0.765484    0.049593   -0.004365
      3          6           0        0.035034    1.119368   -0.033622
      4          6           0        1.500008    0.760585    0.091212
      5          6           0        1.501173   -0.773645   -0.128868
      6          6           0        0.041698   -1.225880    0.141812
      7          1           0       -2.687509    1.029630   -0.135340
      8          1           0       -2.678514   -0.441334    0.851159
      9          1           0       -2.623254   -0.566068   -0.903510
     10          1           0       -0.316576    2.143736   -0.098991
     11          1           0        1.879264    1.026933    1.088164
     12          1           0        2.134773    1.285625   -0.631957
     13          1           0        2.235785   -1.294826    0.493037
     14          1           0        1.761867   -0.990685   -1.169903
     15          1           0       -0.079408   -1.636037    1.154568
     16          1           0       -0.288486   -2.008287   -0.551698
 ---------------------------------------------------------------------
                    Distance matrix (angstroms):
                    1          2          3          4          5
     1  C    0.000000
     2  C    1.498772   0.000000
     3  C    2.545783   1.336452   0.000000
     4  C    3.837248   2.376362   1.513426   0.000000
     5  C    3.848969   2.414738   2.396276   1.549936   0.000000
     6  C    2.629518   1.516490   2.351810   2.464807   1.551726
     7  H    1.094017   2.161437   2.725920   4.202263   4.560363
     8  H    1.097575   2.152351   3.252994   4.413862   4.305888
     9  H    1.097353   2.153789   3.265562   4.444183   4.201673
    10  H    2.877911   2.143807   1.085003   2.291126   3.437473
    11  H    4.411868   3.023823   2.160586   1.099404   2.205947
    12  H    4.611917   3.214520   2.189647   1.096160   2.212496
    13  H    4.720126   3.326032   3.308929   2.219808   1.094554
    14  H    4.299233   2.971222   2.953881   2.173920   1.094907
    15  H    2.997064   2.157586   3.002857   3.060895   2.211145
    16  H    2.878001   2.182194   3.186737   3.358377   2.214950
                    6          7          8          9         10
     6  C    0.000000
     7  H    3.551438   0.000000
     8  H    2.918602   1.771156   0.000000
     9  H    2.937689   1.772136   1.759964   0.000000
    10  H    3.397154   2.619901   3.628240   3.648432   0.000000
    11  H    3.057351   4.727831   4.794301   5.174657   2.734648
    12  H    3.359663   4.854541   5.324449   5.112859   2.651324
    13  H    2.223090   5.480582   5.000704   5.108002   4.323049
    14  H    2.175982   4.994892   4.909528   4.413678   3.910418
    15  H    1.099349   3.946117   2.876583   3.442625   3.989279
    16  H    1.096421   3.893277   3.183643   2.766751   4.176725
                   11         12         13         14         15
    11  H    0.000000
    12  H    1.758130   0.000000
    13  H    2.423189   2.816831   0.000000
    14  H    3.030417   2.368550   1.755696   0.000000
    15  H    3.306389   4.078036   2.431906   3.034788   0.000000
    16  H    4.074413   4.090047   2.823551   2.371000   1.758871
                   16
    16  H    0.000000
 Stoichiometry    C6H10
 Framework group  C1[X(C6H10)]
 Deg. of freedom    42
 Full point group                 C1      NOp   1
 Largest Abelian subgroup         C1      NOp   1
 Largest concise Abelian subgroup C1      NOp   1
                         Standard orientation:                         
 ---------------------------------------------------------------------
 Center     Atomic      Atomic             Coordinates (Angstroms)
 Number     Number       Type             X           Y           Z
 ---------------------------------------------------------------------
      1          6           0       -2.256332    0.030643   -0.037974
      2          6           0       -0.758698    0.076338   -0.001608
      3          6           0        0.026339    1.157688   -0.024020
      4          6           0        1.497162    0.818364    0.085509
      5          6           0        1.518371   -0.712967   -0.152977
      6          6           0        0.067566   -1.189148    0.123190
      7          1           0       -2.695360    1.030366   -0.106391
      8          1           0       -2.657966   -0.451953    0.862282
      9          1           0       -2.614401   -0.555001   -0.894123
     10          1           0       -0.340235    2.177645   -0.074448
     11          1           0        1.880241    1.078210    1.082715
     12          1           0        2.118863    1.360965   -0.636044
     13          1           0        2.265038   -1.230985    0.457100
     14          1           0        1.774122   -0.913867   -1.198468
     15          1           0       -0.039948   -1.613011    1.131828
     16          1           0       -0.256811   -1.967876   -0.577167
 ---------------------------------------------------------------------
 Rotational constants (GHZ):           6.9636720           3.0155758           2.2349922
 Standard basis: 6-31G(2df,p) (6D, 7F)
 There are   236 symmetry adapted cartesian basis functions of A   symmetry.
 There are   218 symmetry adapted basis functions of A   symmetry.
   218 basis functions,   334 primitive gaussians,   236 cartesian basis functions
    23 alpha electrons       23 beta electrons
       nuclear repulsion energy       232.8617215129 Hartrees.
 NAtoms=   16 NActive=   16 NUniq=   16 SFac= 1.00D+00 NAtFMM=   60 NAOKFM=F Big=F
 Integral buffers will be    131072 words long.
 Raffenetti 2 integral format.
 Two-electron integral symmetry is turned on.
 One-electron integrals computed using PRISM.
 PrsmSu:  requested number of processors reduced to:  13 ShMem   1 Linda.
 NBasis=   218 RedAO= T EigKep=  5.50D-04  NBF=   218
 NBsUse=   218 1.00D-06 EigRej= -1.00D+00 NBFU=   218
 Initial guess from the checkpoint file:  "CC1dCCCC1.chk"
 B after Tr=    -0.000000   -0.000000    0.000000
         Rot=    0.999995    0.000423    0.000097   -0.003207 Ang=   0.37 deg.
 ExpMin= 1.61D-01 ExpMax= 3.05D+03 ExpMxC= 4.57D+02 IAcc=2 IRadAn=         4 AccDes= 0.00D+00
 Harris functional with IExCor=  402 and IRadAn=       4 diagonalized for initial guess.
 HarFok:  IExCor=  402 AccDes= 0.00D+00 IRadAn=         4 IDoV= 1 UseB2=F ITyADJ=14
 ICtDFT=  3500011 ScaDFX=  1.000000  1.000000  1.000000  1.000000
 FoFCou: FMM=F IPFlag=           0 FMFlag=      100000 FMFlg1=           0
         NFxFlg=           0 DoJE=T BraDBF=F KetDBF=T FulRan=T
         wScrn=  0.000000 ICntrl=       500 IOpCl=  0 I1Cent=   200000004 NGrid=           0
         NMat0=    1 NMatS0=      1 NMatT0=    0 NMatD0=    1 NMtDS0=    0 NMtDT0=    0
 Petite list used in FoFCou.
 Requested convergence on RMS density matrix=1.00D-08 within 128 cycles.
 Requested convergence on MAX density matrix=1.00D-06.
 Requested convergence on             energy=1.00D-06.
 No special actions if energy rises.
 Integral accuracy reduced to 1.0D-05 until final iterations.
 Initial convergence to 1.0D-05 achieved.  Increase integral accuracy.
 SCF Done:  E(RB3LYP) =  -234.666649392     A.U. after   10 cycles
            NFock= 10  Conv=0.48D-08     -V/T= 2.0092
 PrsmSu:  requested number of processors reduced to:  13 ShMem   1 Linda.
 Calling FoFJK, ICntrl=      2127 FMM=F ISym2X=0 I1Cent= 0 IOpClX= 0 NMat=1 NMatS=1 NMatT=0.
 ***** Axes restored to original set *****
 -------------------------------------------------------------------
 Center     Atomic                   Forces (Hartrees/Bohr)
 Number     Number              X              Y              Z
 -------------------------------------------------------------------
      1        6           0.001464282    0.000965978   -0.000044592
      2        6           0.000839500    0.001577897    0.000073177
      3        6          -0.000241040   -0.002115592   -0.000071840
      4        6          -0.002250272    0.000487869   -0.000157282
      5        6          -0.000478421   -0.001098697   -0.000120598
      6        6           0.001455429    0.000711757   -0.000896942
      7        1           0.000568408   -0.000015616    0.000008455
      8        1          -0.000178946   -0.000458815   -0.000084716
      9        1          -0.000142816   -0.000441270    0.000153895
     10        1           0.000368993    0.000517441    0.000133901
     11        1           0.000425113    0.000519945   -0.000045978
     12        1           0.000099944    0.000206356    0.000367534
     13        1          -0.001098863    0.000531606    0.000158925
     14        1          -0.000523743    0.000211673   -0.000111550
     15        1          -0.000276992   -0.000739094    0.000135299
     16        1          -0.000030575   -0.000861437    0.000502314
 -------------------------------------------------------------------
 Cartesian Forces:  Max     0.002250272 RMS     0.000741376

 GradGradGradGradGradGradGradGradGradGradGradGradGradGradGradGradGradGrad
 Berny optimization.
 Using GEDIIS/GDIIS optimizer.
 FormGI is forming the generalized inverse of G from B-inverse, IUseBI=4.
 Internal  Forces:  Max     0.002080151 RMS     0.000518746
 Search for a local minimum.
 Step number   2 out of a maximum of   96
 All quantities printed in internal units (Hartrees-Bohrs-Radians)
 Mixed Optimization -- En-DIIS/RFO-DIIS
 Update second derivatives using D2CorX and points    1    2
 DE= -2.04D-03 DEPred=-2.18D-03 R= 9.38D-01
 TightC=F SS=  1.41D+00  RLast= 1.75D-01 DXNew= 5.0454D-01 5.2460D-01
 Trust test= 9.38D-01 RLast= 1.75D-01 DXMaxT set to 5.05D-01
 ITU=  1  0
 Use linear search instead of GDIIS.
     Eigenvalues ---    0.00534   0.00948   0.01117   0.01311   0.01773
     Eigenvalues ---    0.03374   0.03506   0.04995   0.05214   0.05907
     Eigenvalues ---    0.06034   0.07145   0.07171   0.07326   0.07637
     Eigenvalues ---    0.08152   0.08338   0.09536   0.11170   0.15806
     Eigenvalues ---    0.15989   0.16000   0.16107   0.21408   0.23208
     Eigenvalues ---    0.24903   0.28265   0.28817   0.31133   0.33297
     Eigenvalues ---    0.33888   0.34103   0.34236   0.34246   0.34266
     Eigenvalues ---    0.34295   0.34298   0.34321   0.34368   0.35782
     Eigenvalues ---    0.36172   0.54350
 RFO step:  Lambda=-9.36023914D-05 EMin= 5.33628084D-03
 Quartic linear search produced a step of -0.01904.
 Iteration  1 RMS(Cart)=  0.00408141 RMS(Int)=  0.00000763
 Iteration  2 RMS(Cart)=  0.00000752 RMS(Int)=  0.00000296
 Iteration  3 RMS(Cart)=  0.00000000 RMS(Int)=  0.00000296
 Variable       Old X    -DE/DX   Delta X   Delta X   Delta X     New X
                                 (Linear)    (Quad)   (Total)
    R1        2.83227  -0.00171  -0.00045  -0.00402  -0.00448   2.82779
    R2        2.06739  -0.00024   0.00002  -0.00071  -0.00070   2.06670
    R3        2.07412   0.00019  -0.00010   0.00076   0.00066   2.07478
    R4        2.07370   0.00016  -0.00010   0.00068   0.00058   2.07428
    R5        2.52553  -0.00184   0.00011  -0.00355  -0.00344   2.52208
    R6        2.86575   0.00021  -0.00073   0.00214   0.00141   2.86716
    R7        2.85996  -0.00208  -0.00073  -0.00490  -0.00563   2.85433
    R8        2.05036   0.00036  -0.00013   0.00125   0.00112   2.05148
    R9        2.92895   0.00054  -0.00080   0.00373   0.00293   2.93188
   R10        2.07757   0.00023  -0.00016   0.00099   0.00083   2.07840
   R11        2.07144  -0.00008  -0.00008  -0.00007  -0.00015   2.07129
   R12        2.93234  -0.00170  -0.00085  -0.00357  -0.00443   2.92791
   R13        2.06841  -0.00090   0.00001  -0.00259  -0.00258   2.06582
   R14        2.06907  -0.00006   0.00011  -0.00041  -0.00029   2.06878
   R15        2.07747   0.00043  -0.00016   0.00156   0.00140   2.07887
   R16        2.07194   0.00031  -0.00008   0.00103   0.00096   2.07289
    A1        1.95482  -0.00068  -0.00007  -0.00345  -0.00352   1.95130
    A2        1.93816   0.00024  -0.00028   0.00175   0.00148   1.93964
    A3        1.94041   0.00017  -0.00029   0.00134   0.00104   1.94146
    A4        1.88204   0.00035   0.00005   0.00265   0.00270   1.88474
    A5        1.88384   0.00036   0.00004   0.00264   0.00268   1.88652
    A6        1.86071  -0.00042   0.00059  -0.00494  -0.00434   1.85637
    A7        2.22840  -0.00086   0.00000  -0.00312  -0.00311   2.22528
    A8        2.11881  -0.00009  -0.00024   0.00040   0.00016   2.11898
    A9        1.93535   0.00095   0.00024   0.00270   0.00294   1.93829
   A10        1.96952  -0.00001  -0.00038  -0.00019  -0.00057   1.96895
   A11        2.16873   0.00054   0.00026   0.00318   0.00344   2.17217
   A12        2.14418  -0.00053   0.00012  -0.00306  -0.00294   2.14123
   A13        1.79639  -0.00029  -0.00002  -0.00032  -0.00034   1.79605
   A14        1.92974   0.00016  -0.00012   0.00139   0.00126   1.93101
   A15        1.97422   0.00001  -0.00034   0.00045   0.00012   1.97434
   A16        1.94799   0.00027  -0.00007   0.00327   0.00321   1.95120
   A17        1.96061   0.00027  -0.00035   0.00211   0.00176   1.96237
   A18        1.85714  -0.00038   0.00083  -0.00639  -0.00556   1.85158
   A19        1.83694   0.00049   0.00030   0.00108   0.00138   1.83832
   A20        1.97269  -0.00014  -0.00031  -0.00119  -0.00150   1.97119
   A21        1.90859  -0.00015   0.00014   0.00007   0.00022   1.90880
   A22        1.97509  -0.00047  -0.00040  -0.00405  -0.00445   1.97064
   A23        1.90925  -0.00020   0.00012  -0.00196  -0.00183   1.90741
   A24        1.86089   0.00045   0.00016   0.00589   0.00605   1.86693
   A25        1.81181  -0.00115  -0.00031  -0.00291  -0.00321   1.80860
   A26        1.92193   0.00033   0.00008   0.00126   0.00135   1.92327
   A27        1.95943   0.00073  -0.00006   0.00606   0.00601   1.96544
   A28        1.95308   0.00047  -0.00019   0.00182   0.00164   1.95472
   A29        1.96154   0.00034  -0.00048   0.00298   0.00251   1.96405
   A30        1.85802  -0.00065   0.00088  -0.00866  -0.00778   1.85024
    D1        0.01774  -0.00000  -0.00008   0.00097   0.00089   0.01863
    D2        3.11757   0.00003   0.00007   0.00058   0.00065   3.11822
    D3       -2.08756  -0.00014   0.00009  -0.00128  -0.00119  -2.08875
    D4        1.01227  -0.00011   0.00024  -0.00167  -0.00142   1.01084
    D5        2.12693   0.00011  -0.00028   0.00290   0.00262   2.12955
    D6       -1.05643   0.00015  -0.00013   0.00251   0.00239  -1.05405
    D7        3.09951  -0.00002  -0.00005   0.00034   0.00029   3.09980
    D8       -0.00120   0.00001  -0.00006   0.00248   0.00242   0.00121
    D9       -0.00393  -0.00004  -0.00018   0.00073   0.00054  -0.00338
   D10       -3.10464  -0.00000  -0.00020   0.00286   0.00267  -3.10197
   D11        2.95783  -0.00002  -0.00017   0.00027   0.00010   2.95793
   D12       -1.23194   0.00004  -0.00052   0.00139   0.00088  -1.23107
   D13        0.83495  -0.00009   0.00062  -0.00477  -0.00416   0.83079
   D14       -0.21914  -0.00003  -0.00004  -0.00018  -0.00023  -0.21937
   D15        1.87427   0.00003  -0.00039   0.00094   0.00055   1.87482
   D16       -2.34202  -0.00010   0.00074  -0.00522  -0.00448  -2.34651
   D17        0.22468  -0.00005   0.00034  -0.00137  -0.00103   0.22364
   D18       -1.85788  -0.00027   0.00048  -0.00567  -0.00519  -1.86308
   D19        2.34453   0.00009  -0.00027   0.00121   0.00094   2.34547
   D20       -2.95714  -0.00005   0.00035  -0.00331  -0.00295  -2.96008
   D21        1.24349  -0.00028   0.00050  -0.00761  -0.00711   1.23638
   D22       -0.83728   0.00009  -0.00025  -0.00072  -0.00097  -0.83826
   D23       -0.34231  -0.00018  -0.00047   0.00061   0.00015  -0.34217
   D24       -2.50615   0.00015   0.00001   0.00564   0.00566  -2.50049
   D25        1.70705  -0.00023  -0.00009  -0.00105  -0.00114   1.70591
   D26        1.72753  -0.00003  -0.00065   0.00362   0.00298   1.73051
   D27       -0.43631   0.00030  -0.00016   0.00865   0.00849  -0.42782
   D28       -2.50629  -0.00008  -0.00027   0.00195   0.00169  -2.50460
   D29       -2.47139  -0.00015   0.00012  -0.00083  -0.00071  -2.47210
   D30        1.64796   0.00019   0.00060   0.00420   0.00480   1.65276
   D31       -0.42203  -0.00019   0.00050  -0.00250  -0.00200  -0.42403
   D32        0.34393  -0.00011   0.00030  -0.00110  -0.00079   0.34314
   D33       -1.72818  -0.00005   0.00048  -0.00178  -0.00130  -1.72949
   D34        2.46540   0.00022  -0.00019   0.00600   0.00580   2.47120
   D35        2.50625  -0.00024  -0.00012  -0.00432  -0.00443   2.50181
   D36        0.43413  -0.00018   0.00005  -0.00500  -0.00495   0.42919
   D37       -1.65547   0.00009  -0.00062   0.00278   0.00216  -1.65331
   D38       -1.70499  -0.00011  -0.00009  -0.00080  -0.00089  -1.70588
   D39        2.50608  -0.00005   0.00008  -0.00149  -0.00140   2.50468
   D40        0.41648   0.00023  -0.00059   0.00629   0.00570   0.42219
         Item               Value     Threshold  Converged?
 Maximum Force            0.002080     0.000450     NO 
 RMS     Force            0.000519     0.000300     NO 
 Maximum Displacement     0.017752     0.001800     NO 
 RMS     Displacement     0.004081     0.001200     NO 
 Predicted change in Energy=-4.778144D-05
 GradGradGradGradGradGradGradGradGradGradGradGradGradGradGradGradGradGrad

                          Input orientation:                          
 ---------------------------------------------------------------------
 Center     Atomic      Atomic             Coordinates (Angstroms)
 Number     Number       Type             X           Y           Z
 ---------------------------------------------------------------------
      1          6           0       -2.259094    0.026141   -0.052115
      2          6           0       -0.763611    0.048792   -0.004786
      3          6           0        0.034046    1.118451   -0.033205
      4          6           0        1.496558    0.761821    0.090581
      5          6           0        1.498609   -0.773925   -0.129842
      6          6           0        0.042302   -1.228458    0.140620
      7          1           0       -2.678115    1.032868   -0.135731
      8          1           0       -2.676633   -0.441100    0.849432
      9          1           0       -2.621059   -0.565440   -0.902921
     10          1           0       -0.315998    2.144176   -0.095510
     11          1           0        1.878567    1.032019    1.085927
     12          1           0        2.130719    1.288903   -0.631508
     13          1           0        2.229569   -1.293177    0.495564
     14          1           0        1.757635   -0.990872   -1.171149
     15          1           0       -0.079276   -1.641034    1.153142
     16          1           0       -0.287149   -2.015773   -0.548470
 ---------------------------------------------------------------------
                    Distance matrix (angstroms):
                    1          2          3          4          5
     1  C    0.000000
     2  C    1.496403   0.000000
     3  C    2.540076   1.334629   0.000000
     4  C    3.829688   2.371892   1.510447   0.000000
     5  C    3.842718   2.410424   2.394864   1.551485   0.000000
     6  C    2.628229   1.517236   2.353352   2.465477   1.549381
     7  H    1.093649   2.156589   2.715447   4.189580   4.550776
     8  H    1.097926   2.151590   3.249466   4.408900   4.301442
     9  H    1.097660   2.152681   3.262127   4.438855   4.196758
    10  H    2.874644   2.144580   1.085598   2.287114   3.436464
    11  H    4.407626   3.022829   2.159209   1.099842   2.209954
    12  H    4.604424   3.210577   2.187021   1.096079   2.215060
    13  H    4.710483   3.318186   3.303917   2.219084   1.093187
    14  H    4.291930   2.966139   2.952104   2.175329   1.094752
    15  H    2.997287   2.159774   3.005831   3.063658   2.210802
    16  H    2.881727   2.187473   3.192495   3.362295   2.215032
                    6          7          8          9         10
     6  C    0.000000
     7  H    3.548328   0.000000
     8  H    2.918040   1.772887   0.000000
     9  H    2.936334   1.773816   1.757638   0.000000
    10  H    3.399823   2.610790   3.626178   3.647909   0.000000
    11  H    3.061900   4.717605   4.793314   5.172429   2.729248
    12  H    3.360770   4.841099   5.319467   5.107998   2.646735
    13  H    2.216825   5.467576   4.992202   5.100387   4.317948
    14  H    2.172453   4.984325   4.903849   4.407482   3.909664
    15  H    1.100091   3.945239   2.877212   3.441650   3.992866
    16  H    1.096927   3.896317   3.184865   2.770602   4.184636
                   11         12         13         14         15
    11  H    0.000000
    12  H    1.754752   0.000000
    13  H    2.424514   2.819078   0.000000
    14  H    3.033332   2.372294   1.758420   0.000000
    15  H    3.314043   4.080881   2.425733   3.033031   0.000000
    16  H    4.080516   4.095591   2.818868   2.370504   1.754743
                   16
    16  H    0.000000
 Stoichiometry    C6H10
 Framework group  C1[X(C6H10)]
 Deg. of freedom    42
 Full point group                 C1      NOp   1
 Largest Abelian subgroup         C1      NOp   1
 Largest concise Abelian subgroup C1      NOp   1
                         Standard orientation:                         
 ---------------------------------------------------------------------
 Center     Atomic      Atomic             Coordinates (Angstroms)
 Number     Number       Type             X           Y           Z
 ---------------------------------------------------------------------
      1          6           0       -2.252116    0.032140   -0.038116
      2          6           0       -0.756790    0.075697   -0.001735
      3          6           0        0.025292    1.156945   -0.023708
      4          6           0        1.493646    0.819934    0.084966
      5          6           0        1.515907   -0.712987   -0.153282
      6          6           0        0.068343   -1.191448    0.122788
      7          1           0       -2.686078    1.033646   -0.106895
      8          1           0       -2.656034   -0.451383    0.861048
      9          1           0       -2.612114   -0.554748   -0.892998
     10          1           0       -0.339808    2.178192   -0.071473
     11          1           0        1.879375    1.084118    1.080492
     12          1           0        2.114679    1.364331   -0.635685
     13          1           0        2.258965   -1.228859    0.460557
     14          1           0        1.770017   -0.914204   -1.198950
     15          1           0       -0.039581   -1.617345    1.131334
     16          1           0       -0.255115   -1.975430   -0.572909
 ---------------------------------------------------------------------
 Rotational constants (GHZ):           6.9508850           3.0269196           2.2396383
 Standard basis: 6-31G(2df,p) (6D, 7F)
 There are   236 symmetry adapted cartesian basis functions of A   symmetry.
 There are   218 symmetry adapted basis functions of A   symmetry.
   218 basis functions,   334 primitive gaussians,   236 cartesian basis functions
    23 alpha electrons       23 beta electrons
       nuclear repulsion energy       233.0171892067 Hartrees.
 NAtoms=   16 NActive=   16 NUniq=   16 SFac= 1.00D+00 NAtFMM=   60 NAOKFM=F Big=F
 Integral buffers will be    131072 words long.
 Raffenetti 2 integral format.
 Two-electron integral symmetry is turned on.
 One-electron integrals computed using PRISM.
 PrsmSu:  requested number of processors reduced to:  13 ShMem   1 Linda.
 NBasis=   218 RedAO= T EigKep=  5.46D-04  NBF=   218
 NBsUse=   218 1.00D-06 EigRej= -1.00D+00 NBFU=   218
 Initial guess from the checkpoint file:  "CC1dCCCC1.chk"
 B after Tr=    -0.000000   -0.000000   -0.000000
         Rot=    1.000000    0.000079   -0.000020   -0.000063 Ang=   0.01 deg.
 Requested convergence on RMS density matrix=1.00D-08 within 128 cycles.
 Requested convergence on MAX density matrix=1.00D-06.
 Requested convergence on             energy=1.00D-06.
 No special actions if energy rises.
 SCF Done:  E(RB3LYP) =  -234.666700217     A.U. after    8 cycles
            NFock=  8  Conv=0.53D-08     -V/T= 2.0091
 PrsmSu:  requested number of processors reduced to:  13 ShMem   1 Linda.
 Calling FoFJK, ICntrl=      2127 FMM=F ISym2X=0 I1Cent= 0 IOpClX= 0 NMat=1 NMatS=1 NMatT=0.
 ***** Axes restored to original set *****
 -------------------------------------------------------------------
 Center     Atomic                   Forces (Hartrees/Bohr)
 Number     Number              X              Y              Z
 -------------------------------------------------------------------
      1        6           0.000227678    0.000333759   -0.000040208
      2        6          -0.000436580   -0.000504271    0.000057586
      3        6           0.000397146   -0.000328281    0.000012792
      4        6          -0.000735443    0.000039010   -0.000011405
      5        6          -0.000028389   -0.000324915   -0.000000075
      6        6           0.000519485    0.000818765   -0.000245124
      7        1           0.000023181   -0.000028045   -0.000002263
      8        1          -0.000071444   -0.000086871   -0.000028695
      9        1          -0.000065171   -0.000085116    0.000039645
     10        1           0.000122403   -0.000028106    0.000065339
     11        1           0.000194532    0.000013656   -0.000011953
     12        1           0.000133548   -0.000042027   -0.000051953
     13        1          -0.000068685    0.000127895    0.000086176
     14        1          -0.000032541    0.000206765   -0.000000251
     15        1          -0.000125435   -0.000056425    0.000054343
     16        1          -0.000054284   -0.000055793    0.000076046
 -------------------------------------------------------------------
 Cartesian Forces:  Max     0.000818765 RMS     0.000239024

 GradGradGradGradGradGradGradGradGradGradGradGradGradGradGradGradGradGrad
 Berny optimization.
 Using GEDIIS/GDIIS optimizer.
 FormGI is forming the generalized inverse of G from B-inverse, IUseBI=4.
 Internal  Forces:  Max     0.000410695 RMS     0.000107016
 Search for a local minimum.
 Step number   3 out of a maximum of   96
 All quantities printed in internal units (Hartrees-Bohrs-Radians)
 Mixed Optimization -- En-DIIS/RFO-DIIS
 Swapping is turned off.
 Update second derivatives using D2CorX and points    1    2    3
 DE= -5.08D-05 DEPred=-4.78D-05 R= 1.06D+00
 TightC=F SS=  1.41D+00  RLast= 2.91D-02 DXNew= 8.4853D-01 8.7230D-02
 Trust test= 1.06D+00 RLast= 2.91D-02 DXMaxT set to 5.05D-01
 ITU=  1  1  0
     Eigenvalues ---    0.00531   0.00948   0.01104   0.01311   0.01764
     Eigenvalues ---    0.03354   0.03503   0.04740   0.05008   0.05928
     Eigenvalues ---    0.06004   0.07180   0.07225   0.07281   0.07629
     Eigenvalues ---    0.08188   0.08405   0.09522   0.11168   0.15447
     Eigenvalues ---    0.15997   0.16000   0.16111   0.21313   0.24623
     Eigenvalues ---    0.24813   0.28715   0.29200   0.31554   0.33017
     Eigenvalues ---    0.33789   0.34002   0.34199   0.34245   0.34264
     Eigenvalues ---    0.34292   0.34298   0.34324   0.34338   0.35114
     Eigenvalues ---    0.35956   0.54934
 En-DIIS/RFO-DIIS/Sim-DIIS IScMMF=       -3 using points:     3    2
 RFO step:  Lambda=-7.07850465D-06.
 DidBck=F Rises=F RFO-DIIS coefs:    1.29444   -0.29444
 Iteration  1 RMS(Cart)=  0.00137928 RMS(Int)=  0.00000165
 Iteration  2 RMS(Cart)=  0.00000172 RMS(Int)=  0.00000054
 Iteration  3 RMS(Cart)=  0.00000000 RMS(Int)=  0.00000054
 Variable       Old X    -DE/DX   Delta X   Delta X   Delta X     New X
                                 (Linear)    (Quad)   (Total)
    R1        2.82779  -0.00011  -0.00132   0.00070  -0.00061   2.82718
    R2        2.06670  -0.00004  -0.00020   0.00004  -0.00016   2.06653
    R3        2.07478   0.00004   0.00020  -0.00001   0.00019   2.07497
    R4        2.07428   0.00004   0.00017  -0.00000   0.00017   2.07445
    R5        2.52208   0.00004  -0.00101   0.00080  -0.00022   2.52187
    R6        2.86716  -0.00030   0.00042  -0.00131  -0.00090   2.86626
    R7        2.85433  -0.00041  -0.00166   0.00008  -0.00157   2.85276
    R8        2.05148  -0.00007   0.00033  -0.00044  -0.00011   2.05137
    R9        2.93188  -0.00027   0.00086  -0.00144  -0.00058   2.93131
   R10        2.07840   0.00006   0.00024   0.00002   0.00026   2.07866
   R11        2.07129   0.00009  -0.00005   0.00033   0.00029   2.07158
   R12        2.92791  -0.00026  -0.00130   0.00019  -0.00111   2.92680
   R13        2.06582  -0.00006  -0.00076   0.00040  -0.00036   2.06546
   R14        2.06878  -0.00005  -0.00009  -0.00010  -0.00019   2.06859
   R15        2.07887   0.00009   0.00041  -0.00003   0.00038   2.07925
   R16        2.07289   0.00001   0.00028  -0.00018   0.00010   2.07299
    A1        1.95130  -0.00001  -0.00104   0.00090  -0.00013   1.95117
    A2        1.93964   0.00007   0.00044   0.00006   0.00049   1.94013
    A3        1.94146   0.00005   0.00031   0.00006   0.00037   1.94183
    A4        1.88474   0.00000   0.00080  -0.00040   0.00040   1.88514
    A5        1.88652   0.00001   0.00079  -0.00040   0.00039   1.88691
    A6        1.85637  -0.00012  -0.00128  -0.00030  -0.00158   1.85479
    A7        2.22528  -0.00004  -0.00092   0.00063  -0.00029   2.22499
    A8        2.11898   0.00035   0.00005   0.00156   0.00161   2.12059
    A9        1.93829  -0.00031   0.00087  -0.00220  -0.00133   1.93695
   A10        1.96895   0.00019  -0.00017   0.00114   0.00097   1.96992
   A11        2.17217   0.00001   0.00101  -0.00054   0.00047   2.17264
   A12        2.14123  -0.00021  -0.00087  -0.00056  -0.00142   2.13981
   A13        1.79605  -0.00002  -0.00010   0.00039   0.00029   1.79634
   A14        1.93101   0.00007   0.00037   0.00125   0.00163   1.93263
   A15        1.97434   0.00009   0.00003   0.00062   0.00065   1.97500
   A16        1.95120  -0.00002   0.00094  -0.00097  -0.00003   1.95116
   A17        1.96237  -0.00007   0.00052  -0.00153  -0.00102   1.96135
   A18        1.85158  -0.00004  -0.00164   0.00025  -0.00139   1.85019
   A19        1.83832  -0.00007   0.00041  -0.00086  -0.00045   1.83787
   A20        1.97119  -0.00005  -0.00044  -0.00030  -0.00074   1.97044
   A21        1.90880  -0.00006   0.00006  -0.00162  -0.00156   1.90725
   A22        1.97064   0.00006  -0.00131   0.00144   0.00013   1.97077
   A23        1.90741   0.00005  -0.00054   0.00110   0.00056   1.90798
   A24        1.86693   0.00007   0.00178   0.00019   0.00197   1.86890
   A25        1.80860   0.00021  -0.00095   0.00215   0.00120   1.80981
   A26        1.92327  -0.00010   0.00040  -0.00136  -0.00097   1.92231
   A27        1.96544  -0.00009   0.00177  -0.00143   0.00034   1.96578
   A28        1.95472   0.00002   0.00048   0.00019   0.00067   1.95540
   A29        1.96405  -0.00002   0.00074  -0.00015   0.00059   1.96464
   A30        1.85024  -0.00003  -0.00229   0.00051  -0.00177   1.84846
    D1        0.01863   0.00000   0.00026   0.00038   0.00064   0.01927
    D2        3.11822   0.00001   0.00019   0.00006   0.00025   3.11847
    D3       -2.08875  -0.00004  -0.00035   0.00023  -0.00012  -2.08886
    D4        1.01084  -0.00003  -0.00042  -0.00009  -0.00051   1.01034
    D5        2.12955   0.00004   0.00077   0.00053   0.00130   2.13085
    D6       -1.05405   0.00004   0.00070   0.00021   0.00091  -1.05313
    D7        3.09980   0.00002   0.00009   0.00125   0.00134   3.10113
    D8        0.00121   0.00002   0.00071   0.00018   0.00089   0.00211
    D9       -0.00338  -0.00000   0.00016   0.00148   0.00164  -0.00175
   D10       -3.10197   0.00001   0.00079   0.00040   0.00119  -3.10078
   D11        2.95793  -0.00001   0.00003  -0.00007  -0.00004   2.95789
   D12       -1.23107   0.00008   0.00026   0.00069   0.00095  -1.23011
   D13        0.83079  -0.00007  -0.00122  -0.00049  -0.00171   0.82908
   D14       -0.21937  -0.00000  -0.00007  -0.00029  -0.00036  -0.21973
   D15        1.87482   0.00009   0.00016   0.00047   0.00063   1.87545
   D16       -2.34651  -0.00007  -0.00132  -0.00071  -0.00203  -2.34854
   D17        0.22364  -0.00001  -0.00030  -0.00196  -0.00226   0.22138
   D18       -1.86308  -0.00000  -0.00153  -0.00164  -0.00317  -1.86625
   D19        2.34547  -0.00005   0.00028  -0.00324  -0.00296   2.34251
   D20       -2.96008  -0.00001  -0.00087  -0.00091  -0.00177  -2.96186
   D21        1.23638  -0.00000  -0.00209  -0.00059  -0.00268   1.23370
   D22       -0.83826  -0.00005  -0.00029  -0.00218  -0.00247  -0.84073
   D23       -0.34217   0.00004   0.00004   0.00205   0.00209  -0.34007
   D24       -2.50049   0.00003   0.00167   0.00102   0.00269  -2.49780
   D25        1.70591   0.00002  -0.00034   0.00208   0.00175   1.70765
   D26        1.73051   0.00009   0.00088   0.00329   0.00416   1.73467
   D27       -0.42782   0.00009   0.00250   0.00226   0.00476  -0.42306
   D28       -2.50460   0.00008   0.00050   0.00332   0.00382  -2.50079
   D29       -2.47210  -0.00002  -0.00021   0.00187   0.00166  -2.47044
   D30        1.65276  -0.00002   0.00141   0.00084   0.00226   1.65501
   D31       -0.42403  -0.00004  -0.00059   0.00190   0.00131  -0.42271
   D32        0.34314   0.00002  -0.00023  -0.00082  -0.00105   0.34209
   D33       -1.72949  -0.00000  -0.00038  -0.00057  -0.00095  -1.73044
   D34        2.47120   0.00003   0.00171  -0.00126   0.00045   2.47166
   D35        2.50181  -0.00005  -0.00131  -0.00090  -0.00220   2.49961
   D36        0.42919  -0.00007  -0.00146  -0.00065  -0.00211   0.42708
   D37       -1.65331  -0.00004   0.00064  -0.00134  -0.00070  -1.65401
   D38       -1.70588   0.00010  -0.00026   0.00099   0.00073  -1.70515
   D39        2.50468   0.00008  -0.00041   0.00124   0.00083   2.50551
   D40        0.42219   0.00012   0.00168   0.00055   0.00223   0.42442
         Item               Value     Threshold  Converged?
 Maximum Force            0.000411     0.000450     YES
 RMS     Force            0.000107     0.000300     YES
 Maximum Displacement     0.005573     0.001800     NO 
 RMS     Displacement     0.001379     0.001200     NO 
 Predicted change in Energy=-3.539999D-06
 GradGradGradGradGradGradGradGradGradGradGradGradGradGradGradGradGradGrad

                          Input orientation:                          
 ---------------------------------------------------------------------
 Center     Atomic      Atomic             Coordinates (Angstroms)
 Number     Number       Type             X           Y           Z
 ---------------------------------------------------------------------
      1          6           0       -2.259229    0.026420   -0.052505
      2          6           0       -0.764072    0.048068   -0.004689
      3          6           0        0.033896    1.117384   -0.031890
      4          6           0        1.495915    0.761612    0.090013
      5          6           0        1.498736   -0.773957   -0.129479
      6          6           0        0.042781   -1.228081    0.140204
      7          1           0       -2.677394    1.033421   -0.135969
      8          1           0       -2.677888   -0.441454    0.848318
      9          1           0       -2.621723   -0.565211   -0.903166
     10          1           0       -0.315292    2.143435   -0.092561
     11          1           0        1.881077    1.032769    1.084037
     12          1           0        2.129446    1.287777   -0.633527
     13          1           0        2.229127   -1.291820    0.497410
     14          1           0        1.758384   -0.989702   -1.170777
     15          1           0       -0.080020   -1.641051    1.152638
     16          1           0       -0.286674   -2.016219   -0.548028
 ---------------------------------------------------------------------
                    Distance matrix (angstroms):
                    1          2          3          4          5
     1  C    0.000000
     2  C    1.496078   0.000000
     3  C    2.539498   1.334515   0.000000
     4  C    3.829090   2.371847   1.509614   0.000000
     5  C    3.843024   2.410726   2.394255   1.551180   0.000000
     6  C    2.628719   1.516761   2.351788   2.464345   1.548794
     7  H    1.093563   2.156144   2.714586   4.188253   4.550464
     8  H    1.098026   2.151730   3.249386   4.409425   4.302422
     9  H    1.097749   2.152728   3.262294   4.438672   4.197660
    10  H    2.874413   2.144688   1.085538   2.285441   3.435584
    11  H    4.409830   3.025190   2.159752   1.099981   2.209766
    12  H    4.603160   3.210103   2.186854   1.096230   2.214183
    13  H    4.710149   3.317626   3.302039   2.218142   1.092996
    14  H    4.292349   2.966398   2.951396   2.173841   1.094653
    15  H    2.996962   2.158810   3.004172   3.063582   2.210916
    16  H    2.882514   2.187329   3.191964   3.361706   2.214969
                    6          7          8          9         10
     6  C    0.000000
     7  H    3.548242   0.000000
     8  H    2.919289   1.773154   0.000000
     9  H    2.937278   1.774068   1.756749   0.000000
    10  H    3.398458   2.610276   3.626121   3.648762   0.000000
    11  H    3.062939   4.718906   4.797193   5.174720   2.728003
    12  H    3.358924   4.839212   5.319451   5.106846   2.646042
    13  H    2.216250   5.466430   4.992499   5.101011   4.315450
    14  H    2.172278   4.983973   4.904878   4.408758   3.908866
    15  H    1.100294   3.944574   2.877597   3.441513   3.991016
    16  H    1.096980   3.896875   3.185525   2.772003   4.184613
                   11         12         13         14         15
    11  H    0.000000
    12  H    1.754064   0.000000
    13  H    2.422599   2.818382   0.000000
    14  H    3.031440   2.369227   1.759466   0.000000
    15  H    3.316613   4.080461   2.425581   3.033520   0.000000
    16  H    4.081557   4.094061   2.819033   2.371459   1.753774
                   16
    16  H    0.000000
 Stoichiometry    C6H10
 Framework group  C1[X(C6H10)]
 Deg. of freedom    42
 Full point group                 C1      NOp   1
 Largest Abelian subgroup         C1      NOp   1
 Largest concise Abelian subgroup C1      NOp   1
[...]

 Dipole orientation:
     6         -2.73327000          1.69996196          2.80736634
     6         -0.93772977          0.63379037          0.90165707
     6         -0.86166063          1.11757757         -1.57274273
     6          1.27765415         -0.22295297         -2.89971683
     6          2.19055188         -2.15264345         -0.88972468
     6          1.17365084         -1.14797624          1.66389375
     1         -4.10448660          2.97863318          1.93832287
     1         -1.72248046          2.75091102          4.28366475
     1         -3.78041493          0.19529925          3.77840027
     1         -2.13759140          2.39562265         -2.54576165
     1          2.77792410          1.11819096         -3.42045257
     1          0.69386374         -1.13980662         -4.66348160
     1          4.24020206         -2.40839179         -0.89436234
     1          1.34775599         -4.00014946         -1.28377460
     1          2.62960046         -0.11674638          2.73179997
     1          0.52199100         -2.66786119          2.91411715

 Electric dipole moment (dipole orientation):
 (Debye = 10**-18 statcoulomb cm , SI units = C m)
                  (au)            (Debye)         (10**-30 SI)
   Tot        0.919278D-01      0.233657D+00      0.779397D+00
   x          0.000000D+00      0.000000D+00      0.000000D+00
   y          0.000000D+00      0.000000D+00      0.000000D+00
   z          0.919278D-01      0.233657D+00      0.779397D+00

 Dipole polarizability, Alpha (dipole orientation).
 (esu units = cm**3 , SI units = C**2 m**2 J**-1)
 Alpha(0;0):
               (au)            (10**-24 esu)      (10**-40 SI)
   iso        0.625984D+02      0.927613D+01      0.103211D+02
   aniso      0.253467D+02      0.375599D+01      0.417910D+01
   xx         0.588764D+02      0.872459D+01      0.970741D+01
   yx        -0.808407D+01     -0.119794D+01     -0.133288D+01
   yy         0.544152D+02      0.806351D+01      0.897186D+01
   zx        -0.605454D+01     -0.897191D+00     -0.998259D+00
   zy        -0.930881D+00     -0.137942D+00     -0.153481D+00
   zz         0.745035D+02      0.110403D+02      0.122840D+02

 ----------------------------------------------------------------------
 1\1\GINC-LEWIS4-R630-HPC4-NODE295\Freq\RB3LYP\6-31G(2df,p)\C6H10\KS29C
 \04-Aug-2022\0\\#N Geom=AllCheck Guess=TCheck SCRF=Check GenChk RB3LYP
 /6-31G(2df,p) Freq\\Title Card Required\\0,1\C,-2.2593895771,0.0266439
 516,-0.0520833901\C,-0.7642630054,0.0475908731,-0.0045256263\C,0.03375
 96463,1.1172285701,-0.0312456972\C,1.4956602574,0.7619877594,0.0894050
 769\C,1.499025361,-0.7742432134,-0.1283837347\C,0.0428235016,-1.228354
 8134,0.1390823923\H,-2.6771430115,1.0338453178,-0.1350371854\H,-2.6783
 516494,-0.4413808781,0.8485426902\H,-2.6223178238,-0.5642979281,-0.903
 0556043\H,-0.3157260115,2.1432587218,-0.0906422347\H,1.8828465257,1.03
 49860699,1.0821094042\H,2.1276851923,1.2871268821,-0.6363629693\H,2.22
 8268117,-1.2911625346,0.5006946269\H,1.761303274,-0.9914241908,-1.1686
 938753\H,-0.0810130213,-1.6428672876,1.150807989\H,-0.2860977754,-2.01
 55472997,-0.5505818623\\Version=ES64L-G16RevA.03\State=1-A\HF=-234.666
 7046\RMSD=1.149e-09\RMSF=1.823e-05\ZeroPoint=0.1442008\Thermal=0.15038
 44\Dipole=-0.0616095,-0.0661512,0.0167036\DipoleDeriv=0.0316934,0.0222
 865,-0.0026755,0.0027335,0.0646421,0.0036931,0.0031434,0.011872,0.1481
 963,0.2239231,0.036503,0.0064103,-0.0015456,0.1208693,-0.0117935,-0.01
 0575,-0.0704864,-0.1130219,-0.0000274,-0.0252927,0.0078757,-0.0448516,
 0.0143264,-0.0061721,0.0711071,0.0331979,-0.214998,0.0906386,0.0346977
 ,-0.0144379,0.0269038,0.0357495,-0.0022102,-0.0429584,-0.0212094,0.233
 7966,0.0948539,-0.0622702,0.0345724,-0.054151,0.0487593,-0.0220475,0.0
 01849,-0.0004971,0.1490512,-0.0353662,0.0394006,-0.0049213,0.0244118,0
 .0966154,0.0204041,0.0079258,0.037268,0.2103454,-0.030209,0.0365137,-0
 .0052603,0.1093744,-0.1041007,0.0147572,-0.0123381,0.0120494,0.0625121
 ,-0.0540137,-0.0436307,0.0282324,-0.0423037,0.0274484,0.0770316,0.0915
 477,0.0789454,-0.0722836,-0.0480325,-0.0399465,-0.0256088,-0.05018,0.0
 013857,-0.0922581,-0.083412,-0.091279,-0.0559242,-0.0125532,0.0951866,
 -0.0095845,0.0709497,-0.0995299,0.0119592,-0.0117648,0.0054205,0.12046
 44,-0.0782105,-0.0565101,-0.053957,0.0101219,0.0075618,-0.0480487,-0.1
 108178,-0.0829817,-0.1281057,-0.0915116,-0.0838814,0.0603509,-0.052807
 ,-0.0271389,0.0537827,0.1078265,0.0811679,-0.0353298,-0.0938213,0.0780
 686,-0.0549612,0.0795848,-0.0288939,0.0399418,-0.0903939,0.0639623,-0.
 0096952,-0.0006136,0.0045121,0.0354895,0.0061224,0.0022904,-0.0322096,
 0.0777611,-0.0575793,-0.1334854,0.0059139,0.0149034,0.0368834,-0.02564
 78,-0.0525544,0.0592678,0.045454,0.1160099,-0.132217,-0.0026639,-0.050
 5406,-0.0384081,-0.0587156,-0.1074305,-0.066098,-0.0443546,-0.1158605,
 -0.0293053\Polar=73.7644611,5.519446,66.4639516,0.5675658,-0.7605647,4
 7.5668019\Quadrupole=0.2678996,0.1894898,-0.4573894,0.1171943,0.043523
 8,-0.0443187\PG=C01 [X(C6H10)]\NImag=0\\0.48744548,-0.01199896,0.57165
 310,0.00077458,-0.00308296,0.52274030,-0.22228603,0.00434021,-0.005506
 02,0.68981609,-0.00205281,-0.08638522,0.00170461,0.16286359,0.66453058
 ,-0.00534706,0.00134117,-0.07467006,0.01194776,-0.02521528,0.18693269,
 -0.02270077,-0.02804489,0.00011289,-0.24849561,-0.20366567,0.00639638,
 0.58477507,-0.00070813,0.00338679,0.00035165,-0.20176157,-0.37757545,0
 .00981338,0.08553471,0.83415351,-0.00102633,-0.00055101,0.00628579,0.0
 0288889,0.00571784,-0.05627081,0.01889173,-0.03119228,0.14238987,0.001
 26219,-0.00166166,-0.00057423,-0.04087095,-0.01029568,-0.00484938,-0.1
 8855364,0.02156234,-0.00850218,0.50911750,-0.00056854,-0.00422951,0.00
 035193,-0.01901689,0.00520477,-0.00185724,0.03199431,-0.08704787,0.003
 28300,0.07549880,0.45101272,0.00002930,0.00087027,0.01325862,-0.001071
 61,-0.00058881,0.00493751,-0.00903586,0.00247968,-0.06988571,-0.012947
 03,-0.01334454,0.55039216,-0.00021341,0.00288634,-0.00032191,-0.035951
 00,0.00828049,0.00131405,-0.00671067,0.02833331,0.00405377,-0.06963277
 ,-0.00121749,0.00265026,0.50219791,0.00085085,-0.00518900,0.00034985,0
 .01707087,0.00684900,-0.00476338,0.01865286,-0.02584705,0.00053147,0.0
 0158066,-0.15756594,-0.01297653,-0.08317320,0.44486827,-0.00029715,0.0
 0153694,0.00111484,-0.00460847,0.00007460,0.00052450,-0.00204014,0.004
 44087,0.00071249,0.00031044,-0.01621415,-0.08040370,0.02464486,-0.0134
 9970,0.58223288,-0.01416218,0.02670427,-0.00265218,-0.10688511,0.04819
 769,-0.00530176,0.00917842,-0.00396806,0.00028153,-0.00737635,-0.01610
 757,-0.00049041,-0.15190256,-0.02668286,0.01832057,0.42214951,0.000463
 17,0.00389814,-0.00054434,0.04128340,-0.15234064,0.00763372,0.00571802
 ,-0.04603756,0.00716457,-0.02448957,-0.02013591,0.00683299,-0.02407536
 ,-0.07804398,0.00522995,0.05024738,0.53964863,-0.00071384,-0.00039065,
 0.00151094,-0.00496604,0.00778691,-0.07518058,-0.00015388,0.00398669,0
 .00713038,-0.00581259,-0.00074788,-0.00461385,0.01603637,0.00187482,-0
 .08160309,0.00900203,0.01605854,0.54759111,-0.08300449,0.08875284,-0.0
 0737996,-0.01297039,0.03397650,-0.00305511,0.00258433,0.00080195,0.000
 12458,0.00013771,0.00010065,-0.00002022,-0.00067432,0.00157793,-0.0005
 0057,-0.00494424,-0.00292203,0.00041041,0.09202282,0.09144980,-0.27456
 428,0.01858879,-0.00036799,0.00126962,-0.00013824,-0.00117552,0.001090
 37,-0.00019875,0.00033364,0.00009938,-0.00001842,-0.00031115,-0.000040
 86,0.00013373,-0.00046587,0.00119890,-0.00024430,-0.09978574,0.2969413
 2,-0.00762439,0.01856189,-0.04820723,-0.00031878,0.00088832,-0.0014057
 8,0.00011970,-0.00003863,-0.00048335,0.00004657,-0.00005283,-0.0001907
 9,0.00004885,0.00024207,0.00033601,-0.00042015,-0.00032465,0.00142998,
 0.00848787,-0.02053766,0.04694848,-0.07921554,-0.03823501,0.07906796,-
 0.01589323,-0.01776543,0.02863682,-0.00252131,0.00264952,0.00022599,-0
 .00028076,-0.00094199,-0.00289762,0.00016919,-0.00063774,-0.00037935,0
 .00152589,-0.00052635,-0.00002292,0.00411856,0.00427998,-0.01061192,0.
 08955735,-0.03632809,-0.09191512,0.09027219,-0.00361186,-0.00185848,-0
 .00057669,-0.00024966,0.00124792,0.00028673,-0.00011791,-0.00008096,-0
 .00039075,-0.00007814,0.00003762,-0.00017198,-0.00004139,0.00012769,-0
 .00021193,-0.01137743,-0.01178082,0.02487211,0.04501968,0.09638706,0.0
 7710882,0.09049449,-0.21720037,0.00052215,-0.00075858,0.00402994,-0.00
 097568,-0.00102993,-0.00017430,0.00001938,0.00002298,-0.00023783,0.000
 18949,0.00000201,0.00015896,0.00000222,0.00004240,0.00038020,-0.000210
 31,-0.00014722,-0.00143319,-0.08607147,-0.09944107,0.23729656,-0.06997
 700,-0.04179093,-0.06478854,-0.01431942,-0.02120212,-0.02704977,-0.002
 83771,0.00265322,-0.00037749,-0.00056830,-0.00105509,0.00257448,0.0000
 8585,-0.00038640,0.00037779,0.00127174,-0.00115794,0.00024584,0.003352
 42,0.00561604,0.01011341,0.00366055,0.00682620,0.00902468,0.07978509,-
 0.03981509,-0.12006311,-0.10751377,-0.00394137,-0.00188387,0.00114523,
 -0.00006521,0.00128978,-0.00053763,-0.00019515,0.00011968,0.00039758,-
 0.00010140,-0.00011854,-0.00003704,0.00010426,0.00042274,0.00061414,-0
 .00961643,-0.01498753,-0.02356114,0.00474097,0.00722946,0.01128211,0.0
 4887662,0.12741799,-0.06340394,-0.10772537,-0.19893425,-0.00103222,0.0
 0020276,0.00203693,0.00069466,0.00097599,-0.00001097,0.00011060,-0.000
 04396,-0.00030128,-0.00012206,0.00001161,0.00018457,-0.00002087,-0.000
 26884,0.00012028,0.00188980,0.00242988,0.00253385,-0.00812316,-0.01514
 471,-0.02272703,0.07032468,0.11899342,0.21695499,0.00203555,-0.0003770
 0,0.00037868,0.00859817,-0.01935020,0.00123683,-0.08508464,0.08762570,
 -0.00703739,-0.00108241,0.02467250,-0.00005491,-0.00505486,0.00088960,
 -0.00147337,-0.00298301,-0.00274359,-0.00042211,-0.00014629,0.00053667
 ,-0.00004125,-0.00005209,0.00009045,-0.00002205,0.00004394,0.00013301,
 -0.00000075,0.08169130,0.00127884,0.00076978,-0.00025735,0.01367779,-0
 .01720612,0.00165378,0.08189946,-0.30428667,0.01544836,-0.00298284,-0.
 00040326,-0.00014669,-0.00088069,0.00006676,0.00045319,-0.00209984,-0.
 00222965,0.00006559,-0.00105499,0.00040525,-0.00007673,-0.00002041,0.0
 0018279,-0.00002459,-0.00008887,0.00017512,0.00000657,-0.09152219,0.32
 418106,0.00020906,-0.00048066,-0.00572643,-0.00060246,0.00102153,0.004
 12290,-0.00672885,0.01503842,-0.03714526,0.00026972,0.00184969,0.00055
 802,-0.00005794,-0.00003512,0.00192084,0.00007781,0.00073303,0.0115245
 7,0.00002031,0.00001917,0.00018285,0.00070914,0.00051568,0.00011060,-0
 .00074256,-0.00048964,0.00012107,0.00686432,-0.01729206,0.02474797,-0.
 00032398,-0.00073460,0.00320143,-0.00175656,0.00342554,-0.00155142,-0.
 01653041,-0.00982421,-0.02843435,-0.07144111,-0.02187445,-0.07766650,0
 .00003191,0.00197264,0.00277091,-0.00062108,0.00006374,-0.00123907,0.0
 0001590,0.00003725,-0.00005357,-0.00106278,-0.00010583,-0.00000338,0.0
 0028690,0.00010680,-0.00011202,0.00008080,0.00050914,0.00044984,0.0829
 3582,-0.00011091,0.00034436,-0.00060710,0.00034600,-0.00064704,0.00000
 840,0.00153258,0.00382909,0.00852538,-0.01901651,-0.06049713,-0.050563
 14,-0.00768396,-0.00715215,-0.02871671,-0.00025642,-0.00091849,-0.0010
 6766,-0.00001220,0.00000997,0.00004337,0.00026197,0.00009360,-0.000062
 34,0.00007366,-0.00013604,0.00005190,-0.00032605,-0.00016289,-0.000425
 41,0.02207922,0.06539970,-0.00008127,-0.00011039,0.00000742,0.00053797
 ,0.00194435,0.00059403,-0.00374968,0.00012503,0.00133700,-0.07386413,-
 0.05311786,-0.24983110,0.00042331,-0.00050676,-0.00281116,-0.00010611,
 -0.00079236,-0.00011703,-0.00000970,0.00001881,-0.00000705,-0.00001008
 ,-0.00001391,-0.00003367,-0.00005278,-0.00000090,-0.00003356,-0.000682
 03,0.00003786,-0.00019327,0.08488231,0.05868473,0.27161256,-0.00017984
 ,-0.00130029,-0.00248502,-0.00372503,0.00271184,0.00069517,-0.01815380
 ,-0.01683826,0.02021987,-0.12720902,-0.06718513,0.09753127,0.00172022,
 0.00191320,-0.00228746,-0.00111904,0.00060174,0.00123591,0.00002459,0.
 00003896,0.00004055,0.00015421,0.00006933,0.00007912,-0.00092446,-0.00
 009962,0.00001178,0.00073355,0.00057457,-0.00047648,0.00667062,0.00483
 068,-0.00721107,0.14112096,-0.00023270,0.00058348,0.00067804,0.0019470
 4,-0.00101113,0.00053738,0.00388690,0.00607062,-0.00861269,-0.06585087
 ,-0.10293089,0.08085009,-0.01782513,-0.01359750,0.01832663,0.00118435,
 -0.00455542,-0.00017233,-0.00005954,0.00001948,-0.00003047,0.00004614,
 -0.00009071,-0.00004061,0.00036230,0.00011917,0.00009305,-0.00077051,0
 .00011640,0.00003128,0.00376212,0.00349117,-0.00468012,0.07557006,0.11
 205739,-0.00019747,-0.00004551,-0.00030542,-0.00052257,-0.00048250,0.0
 0039894,-0.00268697,-0.00285371,0.00418927,0.09875419,0.08296802,-0.16
 293680,-0.00465702,-0.00422041,0.00308966,-0.00071708,-0.00189708,0.00
 066202,0.00002268,-0.00000194,-0.00000413,0.00012594,-0.00001599,-0.00
 003423,-0.00002835,-0.00000903,0.00001970,0.00064878,-0.00001800,0.000
 17058,0.01688772,0.01412862,-0.02275995,-0.10683984,-0.08713248,0.1756
 6804,-0.00027772,0.00165138,0.00015448,-0.00449368,-0.00215605,0.00028
 659,-0.00088167,-0.00023807,-0.00010227,0.00184397,-0.00199439,0.00132
 251,-0.16123305,0.08121269,-0.10173059,-0.01660670,0.01384381,-0.01641
 250,-0.00058869,0.00001803,0.00002355,-0.00002099,-0.00002884,0.000027
 50,0.00014071,-0.00002673,0.00002241,0.00015610,0.00009893,0.00003436,
 0.00075666,0.00024153,0.00033794,-0.00021083,-0.00007826,0.00019528,0.
 17560738,-0.00005126,0.00066704,0.00001141,-0.00154801,-0.00190631,0.0
 0029853,-0.00057863,-0.00538388,-0.00016569,0.02017559,-0.01229815,0.0
 1766978,0.08128802,-0.10377184,0.07205765,-0.00794551,0.00555285,-0.00
 650016,-0.00023064,0.00009538,0.00000333,0.00012727,-0.00000291,-0.000
 02052,0.00015037,0.00004684,0.00003748,0.00160274,-0.00007341,-0.00037
 756,-0.00021715,0.00207707,-0.00026865,0.00018216,-0.00181342,0.000048
 34,-0.08854733,0.11305188,0.00021527,-0.00048473,0.00012051,0.00195692
 ,0.00001259,0.00031482,0.00057179,-0.00157794,0.00046793,0.00490443,-0
 .00431675,0.00268524,-0.10438264,0.07397786,-0.14005073,0.00628324,-0.
 00385362,0.00333182,0.00016680,0.00002135,0.00000042,-0.00005573,0.000
 02638,0.00000191,-0.00001761,0.00001457,-0.00001745,0.00041092,-0.0001
 0745,0.00013772,0.00025829,0.00027087,0.00127492,-0.00015139,-0.000034
 87,0.00016036,0.11102859,-0.07868234,0.14871894,-0.00027735,0.00041257
 ,-0.00030609,-0.00057445,-0.00163125,0.00037078,-0.00012295,0.00017627
 ,-0.00052471,0.00007847,-0.00199021,-0.00120102,-0.06089648,0.01470199
 ,0.05539136,-0.00909690,0.00369300,0.02976042,-0.00018115,0.00003442,-
 0.00010053,0.00020700,0.00002114,-0.00007150,-0.00008219,0.00001592,-0
 .00000803,-0.00001255,0.00010721,0.00000273,0.00062160,-0.00097347,-0.
 00015647,0.00083250,-0.00009485,-0.00036904,0.00552113,-0.00450100,-0.
 02102627,0.06699263,-0.00001451,0.00014686,-0.00008998,-0.00003651,-0.
 00061867,0.00064155,-0.00143214,-0.00096760,-0.00027792,0.00588103,-0.
 00958220,-0.03146829,0.01486254,-0.05440982,-0.04654885,-0.00489199,0.
 00069035,0.01062716,-0.00005340,0.00002484,-0.00004224,0.00011100,0.00
 002139,-0.00003889,0.00003238,0.00002672,-0.00000674,0.00043427,-0.000
 07837,0.00047580,0.00140388,-0.00548210,-0.00105348,-0.00038715,0.0019
 1306,-0.00015372,-0.00387285,0.00323841,0.01488584,-0.00962154,0.06400
 203,-0.00002401,-0.00016803,-0.00013353,0.00014644,0.00020095,0.000124
 86,-0.00004181,-0.00007215,0.00026000,-0.00033406,-0.00057663,-0.00381
 978,0.05660253,-0.04720042,-0.28511556,0.00071668,0.00019946,-0.004919
 83,0.00006576,-0.00002316,0.00001193,-0.00001637,0.00002834,-0.0000002
 7,0.00001219,0.00003283,0.00001234,0.00010753,-0.00009561,-0.00016808,
 0.00030767,-0.00107313,0.00125394,-0.00037791,-0.00006893,0.00174224,0
 .00442725,-0.00370751,-0.01863156,-0.06289073,0.05204135,0.30646857,0.
 00076501,-0.00018087,-0.00005306,0.00297416,0.00670270,-0.01778875,-0.
 00156666,0.00114296,0.00001920,-0.00076205,-0.00048650,0.00057138,-0.0
 0404153,-0.00817774,0.02856928,-0.04892060,-0.00902290,0.02076828,0.00
 004626,-0.00006185,0.00042934,-0.00030889,-0.00018197,0.00038183,0.000
 14278,0.00012815,0.00008459,0.00031583,0.00020365,0.00131191,0.0000703
 1,0.00000280,-0.00027146,0.00013320,-0.00098404,-0.00046726,0.00199125
 ,0.00065153,-0.00020455,-0.00501024,-0.00274347,0.00134649,0.05305583,
 -0.00096512,0.00008152,-0.00019303,-0.00242375,-0.01583655,0.02601685,
 0.00314277,-0.00136491,0.00087111,0.00005383,-0.00066296,0.00144343,0.
 00064980,-0.00200700,0.00608741,-0.01171592,-0.07605487,0.08354547,-0.
 00001685,0.00002220,-0.00038259,0.00069773,0.00032159,-0.00024869,0.00
 008343,0.00012753,-0.00003677,-0.00023145,-0.00065561,-0.00246366,-0.0
 0013431,0.00008520,-0.00022088,-0.00051942,-0.00021928,-0.00028501,0.0
 0016809,0.00083895,-0.00033308,-0.00035257,0.00026875,0.00008473,0.009
 94624,0.08663628,0.00016124,0.00035494,-0.00010000,-0.00051265,0.00395
 469,-0.00022852,-0.00171704,-0.00072255,0.00069390,0.00074339,0.000379
 23,-0.00015669,0.00066274,-0.00009672,-0.00367451,0.02412640,0.0804365
 5,-0.25641709,-0.00018719,0.00002194,0.00022081,-0.00057377,0.00006257
 ,0.00006471,0.00008729,-0.00011700,-0.00005548,-0.00004809,0.00009234,
 -0.00002034,0.00014901,0.00027128,-0.00021826,0.00003298,0.00003329,-0
 .00004850,0.00030949,-0.00024283,0.00130075,0.00111949,0.00056663,0.00
 119106,-0.02587939,-0.09224385,0.27938475,0.00111007,-0.00042341,0.000
 37697,0.00683305,0.01196084,0.01405888,-0.00237797,0.00285833,-0.00070
 084,-0.00466248,0.00017199,0.00070599,-0.00789443,-0.02136536,-0.01706
 810,-0.06950778,-0.05097653,-0.04771630,0.00020698,-0.00017669,-0.0001
 3925,-0.00003716,0.00009432,-0.00000079,-0.00006091,-0.00024475,-0.000
 31547,0.00076062,0.00030022,-0.00134091,0.00026537,-0.00098894,0.00001
 327,0.00013215,-0.00086303,-0.00014899,-0.00170387,-0.00055816,0.00004
 193,0.00200094,0.00032847,-0.00004764,0.00111533,0.00161752,0.00152610
 ,0.07382009,-0.00119656,0.00081516,-0.00001994,-0.00882096,-0.02058450
 ,-0.01653917,0.00285009,-0.00255709,-0.00029249,-0.00047569,-0.0010017
 7,-0.00104666,-0.00095400,-0.00407798,-0.00315255,-0.05226253,-0.17122
 278,-0.11522442,-0.00008063,0.00019677,0.00043585,0.00019266,0.0000798
 8,-0.00003155,0.00100712,0.00021403,0.00042371,-0.00066395,-0.00080119
 ,0.00187951,-0.00046978,-0.00033433,-0.00004548,-0.00016267,-0.0001524
 1,-0.00002959,-0.00029195,-0.00031849,0.00018134,0.00000237,0.00080634
 ,0.00039789,0.00306130,0.00841915,0.00724948,0.05826518,0.19051918,0.0
 0021717,-0.00012041,0.00023887,0.00114069,0.00353601,0.00373864,0.0003
 4276,0.00027548,0.00050375,0.00172488,0.00141699,0.00054597,0.00291534
 ,0.00630936,0.00338399,-0.04910193,-0.11665034,-0.15082983,0.00017486,
 0.00007603,0.00006719,-0.00000345,-0.00009699,-0.00020200,0.00029676,-
 0.00021373,0.00009630,0.00013489,0.00026083,-0.00034374,0.00015314,0.0
 0053094,-0.00007485,-0.00001747,0.00022275,-0.00001178,0.00007541,-0.0
 0016128,0.00018438,0.00000962,0.00044176,0.00172369,-0.00881782,-0.021
 64145,-0.02193659,0.05075515,0.12581405,0.16291600\\0.00001146,0.00000
 961,-0.00000104,-0.00004687,-0.00006652,0.00000941,0.00004627,0.000032
 39,-0.00000851,-0.00003140,0.00002189,0.00001361,-0.00001979,-0.000024
 87,0.00001229,0.00002950,0.00002862,-0.00002639,-0.00000455,-0.0000038
 7,0.00000060,-0.00000309,0.00000108,0.00000334,-0.00000084,0.00000003,
 -0.00000099,-0.00000173,-0.00000215,0.00000215,0.00000355,0.00000048,-
 0.00000007,0.00000386,0.00000118,-0.00000862,0.00001080,-0.00000446,-0
 .00000568,0.00000142,0.00000391,-0.00000266,0.00000242,0.00000771,0.00
 000997,-0.00000101,-0.00000504,0.00000259\\\@


 WORK FAITHFULLY FOR EIGHT HOURS A DAY AND DON'T WORRY.
 IN TIME YOU MAY BECOME BOSS AND WORK TWELVE HOURS A DAY
 AND HAVE ALL THE WORRY.
 Job cpu time:       0 days  0 hours 53 minutes 16.1 seconds.
 Elapsed time:       0 days  0 hours 13 minutes 19.5 seconds.
 File lengths (MBytes):  RWF=     62 Int=      0 D2E=      0 Chk=      5 Scr=      1
 Normal termination of Gaussian 16 at Thu Aug  4 01:10:17 2022.
### All Done ###
