### Starting Gaussian ###
 Entering Gaussian System, Link 0=g16
 Initial command:
 /cluster/software/gaussian/gaussian-16-A.03/avx2/g16/l1.exe "/local/scratch/ks29c/Gau-12891.inp" -scrdir="/local/scratch/ks29c/"
 Entering Link 1 = /cluster/software/gaussian/gaussian-16-A.03/avx2/g16/l1.exe PID=     12900.
  
 Copyright (c) 1988,1990,1992,1993,1995,1998,2003,2009,2016,
            Gaussian, Inc.  All Rights Reserved.
  
 This is part of the Gaussian(R) 16 program.  It is based on
 the Gaussian(R) 09 system (copyright 2009, Gaussian, Inc.),
 the Gaussian(R) 03 system (copyright 2003, Gaussian, Inc.),
 the Gaussian(R) 98 system (copyright 1998, Gaussian, Inc.),
 the Gaussian(R) 94 system (copyright 1995, Gaussian, Inc.),
 the Gaussian 92(TM) system (copyright 1992, Gaussian, Inc.),
 the Gaussian 90(TM) system (copyright 1990, Gaussian, Inc.),
 the Gaussian 88(TM) system (copyright 1988, Gaussian, Inc.),
 the Gaussian 86(TM) system (copyright 1986, Carnegie Mellon
 University), and the Gaussian 82(TM) system (copyright 1983,
 Carnegie Mellon University). Gaussian is a federally registered
 trademark of Gaussian, Inc.
  
 This software contains proprietary and confidential information,
 including trade secrets, belonging to Gaussian, Inc.
  
 This software is provided under written license and may be
 used, copied, transmitted, or stored only in accord with that
 written license.
  
 The following legend is applicable only to US Government
 contracts under FAR:
  
                    RESTRICTED RIGHTS LEGEND
  
 Use, reproduction and disclosure by the US Government is
 subject to restrictions as set forth in subparagraphs (a)
 and (c) of the Commercial Computer Software - Restricted
 Rights clause in FAR 52.227-19.
  
 Gaussian, Inc.
 340 Quinnipiac St., Bldg. 40, Wallingford CT 06492
  
  
 ---------------------------------------------------------------
 Warning -- This program may not be used in any manner that
 competes with the business of Gaussian, Inc. or will provide
 assistance to any competitor of Gaussian, Inc.  The licensee
 of this program is prohibited from giving any competitor of
 Gaussian, Inc. access to this program.  By using this program,
 the user acknowledges that Gaussian, Inc. is engaged in the
 business of creating and licensing software in the field of
 computational chemistry and represents and warrants to the
 licensee that it is not a competitor of Gaussian, Inc. and that
 it will not use this program in any manner prohibited above.
 ---------------------------------------------------------------
  

 Cite this work as:
 Gaussian 16, Revision A.03,
 M. J. Frisch, G. W. Trucks, H. B. Schlegel, G. E. Scuseria, 
 M. A. Robb, J. R. Cheeseman, G. Scalmani, V. Barone, 
 G. A. Petersson, H. Nakatsuji, X. Li, M. Caricato, A. V. Marenich, 
 J. Bloino, B. G. Janesko, R. Gomperts, B. Mennucci, H. P. Hratchian, 
 J. V. Ortiz, A. F. Izmaylov, J. L. Sonnenberg, D. Williams-Young, 
 F. Ding, F. Lipparini, F. Egidi, J. Goings, B. Peng, A. Petrone, 
 T. Henderson, D. Ranasinghe, V. G. Zakrzewski, J. Gao, N. Rega, 
 G. Zheng, W. Liang, M. Hada, M. Ehara, K. Toyota, R. Fukuda, 
 J. Hasegawa, M. Ishida, T. Nakajima, Y. Honda, O. Kitao, H. Nakai, 
 T. Vreven, K. Throssell, J. A. Montgomery, Jr., J. E. Peralta, 
 F. Ogliaro, M. J. Bearpark, J. J. Heyd, E. N. Brothers, K. N. Kudin, 
 V. N. Staroverov, T. A. Keith, R. Kobayashi, J. Normand, 
 K. Raghavachari, A. P. Rendell, J. C. Burant, S. S. Iyengar, 
 J. Tomasi, M. Cossi, J. M. Millam, M. Klene, C. Adamo, R. Cammi, 
 J. W. Ochterski, R. L. Martin, K. Morokuma, O. Farkas, 
 J. B. Foresman, and D. J. Fox, Gaussian, Inc., Wallingford CT, 2016.
 
 ******************************************
 Gaussian 16:  ES64L-G16RevA.03 25-Dec-2016
                 3-Jul-2022 
 ******************************************
 %chk=CC1dCCpdNpCC1O.chk
 %NProcShared=20
 Will use up to   20 processors via shared memory.
 -----------------------------
 # opt freq b3lyp/6-31g(2df,p)
 -----------------------------
 1/18=20,19=15,26=3,38=1/1,3;
 2/9=110,12=2,17=6,18=5,40=1/2;
 3/5=1,6=6,7=104,11=2,25=1,30=1,71=1,74=-5/1,2,3;
 4//1;
 5/5=2,38=5/2;
 6/7=2,8=2,9=2,10=2,28=1/1;
 7//1,2,3,16;
 1/18=20,19=15,26=3/3(2);
 2/9=110/2;
 99//99;
 2/9=110/2;
 3/5=1,6=6,7=104,11=2,25=1,30=1,71=1,74=-5/1,2,3;
 4/5=5,16=3,69=1/1;
 5/5=2,38=5/2;
 7//1,2,3,16;
 1/18=20,19=15,26=3/3(-5);
 2/9=110/2;
 6/7=2,8=2,9=2,10=2,19=2,28=1/1;
 99/9=1/99;
 -------------------
 Title Card Required
 -------------------
 Symbolic Z-matrix:
 Charge =  0 Multiplicity = 1
 C                     0.99031  -0.02533   0.06563 
 C                     2.481    -0.06452   0.04066 
 C                     3.21251  -1.18294  -0.01151 
 C                     4.60821  -0.72833  -0.01739 
 N                     5.6477   -1.46247   0.16392 
 C                     4.70197   0.74164  -0.28244 
 C                     3.3051    1.19381   0.13089 
 O                     2.80595   2.19567  -0.73481 
 H                     0.56794  -1.03403  -0.00565 
 H                     0.60372   0.55024  -0.78117 
 H                     0.62645   0.42547   0.9933 
 H                     2.88252  -2.20687  -0.04568 
 H                     5.38362  -2.43557   0.35095 
 H                     4.89844   0.90269  -1.34903 
 H                     5.49318   1.21635   0.30264 
 H                     3.30273   1.57955   1.15688 
 H                     2.78387   1.8332   -1.63555 
 

 GradGradGradGradGradGradGradGradGradGradGradGradGradGradGradGradGradGrad
 Berny optimization.
 Initialization pass.
                           ----------------------------
                           !    Initial Parameters    !
                           ! (Angstroms and Degrees)  !
 --------------------------                            --------------------------
 ! Name  Definition              Value          Derivative Info.                !
 --------------------------------------------------------------------------------
 ! R1    R(1,2)                  1.4914         estimate D2E/DX2                !
 ! R2    R(1,9)                  1.0959         estimate D2E/DX2                !
 ! R3    R(1,10)                 1.0944         estimate D2E/DX2                !
 ! R4    R(1,11)                 1.0937         estimate D2E/DX2                !
 ! R5    R(2,3)                  1.3374         estimate D2E/DX2                !
 ! R6    R(2,7)                  1.5069         estimate D2E/DX2                !
 ! R7    R(3,4)                  1.4679         estimate D2E/DX2                !
 ! R8    R(3,12)                 1.0763         estimate D2E/DX2                !
 ! R9    R(4,5)                  1.2854         estimate D2E/DX2                !
 ! R10   R(4,6)                  1.4966         estimate D2E/DX2                !
 ! R11   R(5,13)                 1.0255         estimate D2E/DX2                !
 ! R12   R(6,7)                  1.5253         estimate D2E/DX2                !
 ! R13   R(6,14)                 1.0964         estimate D2E/DX2                !
 ! R14   R(6,15)                 1.0926         estimate D2E/DX2                !
 ! R15   R(7,8)                  1.415          estimate D2E/DX2                !
 ! R16   R(7,16)                 1.0961         estimate D2E/DX2                !
 ! R17   R(8,17)                 0.9712         estimate D2E/DX2                !
 ! A1    A(2,1,9)              111.0973         estimate D2E/DX2                !
 ! A2    A(2,1,10)             110.7275         estimate D2E/DX2                !
 ! A3    A(2,1,11)             110.9502         estimate D2E/DX2                !
 ! A4    A(9,1,10)             107.3135         estimate D2E/DX2                !
 ! A5    A(9,1,11)             107.8385         estimate D2E/DX2                !
 ! A6    A(10,1,11)            108.7833         estimate D2E/DX2                !
 ! A7    A(1,2,3)              124.7027         estimate D2E/DX2                !
 ! A8    A(1,2,7)              121.5796         estimate D2E/DX2                !
 ! A9    A(3,2,7)              113.6738         estimate D2E/DX2                !
 ! A10   A(2,3,4)              105.1427         estimate D2E/DX2                !
 ! A11   A(2,3,12)             128.9827         estimate D2E/DX2                !
 ! A12   A(4,3,12)             125.8743         estimate D2E/DX2                !
 ! A13   A(3,4,5)              126.2601         estimate D2E/DX2                !
 ! A14   A(3,4,6)              111.3748         estimate D2E/DX2                !
 ! A15   A(5,4,6)              122.3621         estimate D2E/DX2                !
 ! A16   A(4,5,13)             111.0645         estimate D2E/DX2                !
 ! A17   A(4,6,7)              100.708          estimate D2E/DX2                !
 ! A18   A(4,6,14)             109.1339         estimate D2E/DX2                !
 ! A19   A(4,6,15)             112.1658         estimate D2E/DX2                !
 ! A20   A(7,6,14)             112.5921         estimate D2E/DX2                !
 ! A21   A(7,6,15)             112.9101         estimate D2E/DX2                !
 ! A22   A(14,6,15)            109.1082         estimate D2E/DX2                !
 ! A23   A(2,7,6)              103.7136         estimate D2E/DX2                !
 ! A24   A(2,7,8)              111.2036         estimate D2E/DX2                !
 ! A25   A(2,7,16)             110.4101         estimate D2E/DX2                !
 ! A26   A(6,7,8)              111.54           estimate D2E/DX2                !
 ! A27   A(6,7,16)             111.0973         estimate D2E/DX2                !
 ! A28   A(8,7,16)             108.8279         estimate D2E/DX2                !
 ! A29   A(7,8,17)             108.1306         estimate D2E/DX2                !
 ! D1    D(9,1,2,3)             -2.3144         estimate D2E/DX2                !
 ! D2    D(9,1,2,7)           -179.7469         estimate D2E/DX2                !
 ! D3    D(10,1,2,3)          -121.4616         estimate D2E/DX2                !
 ! D4    D(10,1,2,7)            61.1059         estimate D2E/DX2                !
 ! D5    D(11,1,2,3)           117.6394         estimate D2E/DX2                !
 ! D6    D(11,1,2,7)           -59.7931         estimate D2E/DX2                !
 ! D7    D(1,2,3,4)            179.9862         estimate D2E/DX2                !
 ! D8    D(1,2,3,12)             0.1505         estimate D2E/DX2                !
 ! D9    D(7,2,3,4)             -2.402          estimate D2E/DX2                !
 ! D10   D(7,2,3,12)           177.7623         estimate D2E/DX2                !
 ! D11   D(1,2,7,6)           -166.1405         estimate D2E/DX2                !
 ! D12   D(1,2,7,8)            -46.1382         estimate D2E/DX2                !
 ! D13   D(1,2,7,16)            74.7727         estimate D2E/DX2                !
 ! D14   D(3,2,7,6)             16.1641         estimate D2E/DX2                !
 ! D15   D(3,2,7,8)            136.1664         estimate D2E/DX2                !
 ! D16   D(3,2,7,16)          -102.9227         estimate D2E/DX2                !
 ! D17   D(2,3,4,5)            167.5008         estimate D2E/DX2                !
 ! D18   D(2,3,4,6)            -13.1258         estimate D2E/DX2                !
 ! D19   D(12,3,4,5)           -12.6568         estimate D2E/DX2                !
 ! D20   D(12,3,4,6)           166.7166         estimate D2E/DX2                !
 ! D21   D(3,4,5,13)            -1.9071         estimate D2E/DX2                !
 ! D22   D(6,4,5,13)           178.7837         estimate D2E/DX2                !
 ! D23   D(3,4,6,7)             22.1026         estimate D2E/DX2                !
 ! D24   D(3,4,6,14)           -96.5466         estimate D2E/DX2                !
 ! D25   D(3,4,6,15)           142.4232         estimate D2E/DX2                !
 ! D26   D(5,4,6,7)           -158.4956         estimate D2E/DX2                !
 ! D27   D(5,4,6,14)            82.8553         estimate D2E/DX2                !
 ! D28   D(5,4,6,15)           -38.175          estimate D2E/DX2                !
 ! D29   D(4,6,7,2)            -21.542          estimate D2E/DX2                !
 ! D30   D(4,6,7,8)           -141.3154         estimate D2E/DX2                !
 ! D31   D(4,6,7,16)            97.0721         estimate D2E/DX2                !
 ! D32   D(14,6,7,2)            94.5615         estimate D2E/DX2                !
 ! D33   D(14,6,7,8)           -25.2118         estimate D2E/DX2                !
 ! D34   D(14,6,7,16)         -146.8243         estimate D2E/DX2                !
 ! D35   D(15,6,7,2)          -141.3289         estimate D2E/DX2                !
 ! D36   D(15,6,7,8)            98.8978         estimate D2E/DX2                !
 ! D37   D(15,6,7,16)          -22.7147         estimate D2E/DX2                !
 ! D38   D(2,7,8,17)           -56.2546         estimate D2E/DX2                !
 ! D39   D(6,7,8,17)            58.9913         estimate D2E/DX2                !
 ! D40   D(16,7,8,17)         -178.0904         estimate D2E/DX2                !
 --------------------------------------------------------------------------------
 Trust Radius=3.00D-01 FncErr=1.00D-07 GrdErr=1.00D-06 EigMax=2.50D+02 EigMin=1.00D-04
 Number of steps in this run=     96 maximum allowed number of steps=    102.
 GradGradGradGradGradGradGradGradGradGradGradGradGradGradGradGradGradGrad

                          Input orientation:                          
 ---------------------------------------------------------------------
 Center     Atomic      Atomic             Coordinates (Angstroms)
 Number     Number       Type             X           Y           Z
 ---------------------------------------------------------------------
      1          6           0        0.990310   -0.025330    0.065630
      2          6           0        2.481000   -0.064520    0.040660
      3          6           0        3.212510   -1.182940   -0.011510
      4          6           0        4.608210   -0.728330   -0.017390
      5          7           0        5.647700   -1.462470    0.163920
      6          6           0        4.701970    0.741640   -0.282440
      7          6           0        3.305100    1.193810    0.130890
      8          8           0        2.805950    2.195670   -0.734810
      9          1           0        0.567940   -1.034030   -0.005650
     10          1           0        0.603720    0.550240   -0.781170
     11          1           0        0.626450    0.425470    0.993300
     12          1           0        2.882520   -2.206870   -0.045680
     13          1           0        5.383620   -2.435570    0.350950
     14          1           0        4.898440    0.902690   -1.349030
     15          1           0        5.493180    1.216350    0.302640
     16          1           0        3.302730    1.579550    1.156880
     17          1           0        2.783870    1.833200   -1.635550
 ---------------------------------------------------------------------
                    Distance matrix (angstroms):
                    1          2          3          4          5
     1  C    0.000000
     2  C    1.491414   0.000000
     3  C    2.506828   1.337420   0.000000
     4  C    3.686503   2.229133   1.467884   0.000000
     5  N    4.875071   3.463733   2.457451   1.285447   0.000000
     6  C    3.806024   2.384742   2.448653   1.496614   2.439620
     7  C    2.617024   1.506876   2.382812   2.326952   3.541848
     8  O    2.978270   2.411515   3.479003   3.508933   4.718606
     9  H    1.095880   2.145202   2.648766   4.051836   5.100615
    10  H    1.094442   2.139513   3.225225   4.272475   5.512344
    11  H    1.093703   2.141721   3.206919   4.266985   5.428180
    12  H    2.889977   2.181361   1.076333   2.272639   2.871286
    13  H    5.019147   3.760766   2.532623   1.910917   1.025496
    14  H    4.258634   2.951398   2.996860   2.125494   2.905923
    15  H    4.676941   3.283670   3.325167   2.160410   2.686856
    16  H    3.018899   2.150384   3.000771   2.899913   3.967208
    17  H    3.092734   2.550049   3.452295   3.536678   4.722399
                    6          7          8          9         10
     6  C    0.000000
     7  C    1.525302   0.000000
     8  O    2.431817   1.415030   0.000000
     9  H    4.507751   3.531849   3.996414   0.000000
    10  H    4.132919   2.922925   2.749437   1.764263   0.000000
    11  H    4.282212   2.917064   3.296997   1.769595   1.778996
    12  H    3.472775   3.431381   4.456806   2.595079   3.651785
    13  H    3.310664   4.188206   5.410327   5.028146   5.748409
    14  H    1.096427   2.194002   2.535267   4.930394   4.346413
    15  H    1.092557   2.194926   3.042462   5.423766   5.052244
    16  H    2.175226   1.096110   2.050582   3.957443   3.478530
    17  H    2.588729   1.949567   0.971187   3.973403   2.670020
                   11         12         13         14         15
    11  H    0.000000
    12  H    3.619191   0.000000
    13  H    5.588276   2.542660   0.000000
    14  H    4.895319   3.928361   3.777474   0.000000
    15  H    4.978711   4.319179   3.653882   1.783287   0.000000
    16  H    2.919098   3.994960   4.593562   3.046968   2.379015
    17  H    3.680627   4.342762   5.378409   2.327949   3.387838
                   16         17
    16  H    0.000000
    17  H    2.851529   0.000000
 Stoichiometry    C6H9NO
 Framework group  C1[X(C6H9NO)]
 Deg. of freedom    45
 Full point group                 C1      NOp   1
 Largest Abelian subgroup         C1      NOp   1
 Largest concise Abelian subgroup C1      NOp   1
                         Standard orientation:                         
 ---------------------------------------------------------------------
 Center     Atomic      Atomic             Coordinates (Angstroms)
 Number     Number       Type             X           Y           Z
 ---------------------------------------------------------------------
      1          6           0        1.961672    1.426202    0.049502
      2          6           0        0.674779    0.672663    0.069572
      3          6           0       -0.525143    1.208249   -0.179478
      4          6           0       -1.475941    0.097995   -0.045303
      5          7           0       -2.755806    0.196990    0.021928
      6          6           0       -0.771469   -1.221911   -0.007577
      7          6           0        0.620910   -0.787358    0.438506
      8          8           0        1.631964   -1.520881   -0.226344
      9          1           0        1.802056    2.471898   -0.236846
     10          1           0        2.653903    0.991276   -0.678136
     11          1           0        2.435452    1.417326    1.035220
     12          1           0       -0.774089    2.225163   -0.429290
     13          1           0       -3.051143    1.178819    0.001188
     14          1           0       -0.774225   -1.659613   -1.012844
     15          1           0       -1.242173   -1.920652    0.688037
     16          1           0        0.745843   -0.913160    1.520181
     17          1           0        1.530458   -1.377989   -1.181583
 ---------------------------------------------------------------------
 Rotational constants (GHZ):           3.4728282           1.7791460           1.2379120
 Standard basis: 6-31G(2df,p) (6D, 7F)
 There are   293 symmetry adapted cartesian basis functions of A   symmetry.
 There are   269 symmetry adapted basis functions of A   symmetry.
   269 basis functions,   415 primitive gaussians,   293 cartesian basis functions
    30 alpha electrons       30 beta electrons
       nuclear repulsion energy       368.4350068840 Hartrees.
 NAtoms=   17 NActive=   17 NUniq=   17 SFac= 1.00D+00 NAtFMM=   60 NAOKFM=F Big=F
 Integral buffers will be    131072 words long.
 Raffenetti 2 integral format.
 Two-electron integral symmetry is turned on.
 One-electron integrals computed using PRISM.
 PrsmSu:  requested number of processors reduced to:  13 ShMem   1 Linda.
 NBasis=   269 RedAO= T EigKep=  2.81D-04  NBF=   269
 NBsUse=   269 1.00D-06 EigRej= -1.00D+00 NBFU=   269
 ExpMin= 1.61D-01 ExpMax= 5.48D+03 ExpMxC= 8.25D+02 IAcc=3 IRadAn=         5 AccDes= 0.00D+00
 Harris functional with IExCor=  402 and IRadAn=       5 diagonalized for initial guess.
 HarFok:  IExCor=  402 AccDes= 0.00D+00 IRadAn=         5 IDoV= 1 UseB2=F ITyADJ=14
 ICtDFT=  3500011 ScaDFX=  1.000000  1.000000  1.000000  1.000000
 FoFCou: FMM=F IPFlag=           0 FMFlag=      100000 FMFlg1=           0
         NFxFlg=           0 DoJE=T BraDBF=F KetDBF=T FulRan=T
         wScrn=  0.000000 ICntrl=       500 IOpCl=  0 I1Cent=   200000004 NGrid=           0
         NMat0=    1 NMatS0=      1 NMatT0=    0 NMatD0=    1 NMtDS0=    0 NMtDT0=    0
 Petite list used in FoFCou.
 Requested convergence on RMS density matrix=1.00D-08 within 128 cycles.
 Requested convergence on MAX density matrix=1.00D-06.
 Requested convergence on             energy=1.00D-06.
 No special actions if energy rises.
 Integral accuracy reduced to 1.0D-05 until final iterations.
 Initial convergence to 1.0D-05 achieved.  Increase integral accuracy.
 SCF Done:  E(RB3LYP) =  -364.018586869     A.U. after   14 cycles
            NFock= 14  Conv=0.27D-08     -V/T= 2.0072

 **********************************************************************

            Population analysis using the SCF density.

 **********************************************************************

 Orbital symmetries:
       Occupied  (A) (A) (A) (A) (A) (A) (A) (A) (A) (A) (A) (A)
                 (A) (A) (A) (A) (A) (A) (A) (A) (A) (A) (A) (A)
                 (A) (A) (A) (A) (A) (A)
       Virtual   (A) (A) (A) (A) (A) (A) (A) (A) (A) (A) (A) (A)
                 (A) (A) (A) (A) (A) (A) (A) (A) (A) (A) (A) (A)
                 (A) (A) (A) (A) (A) (A) (A) (A) (A) (A) (A) (A)
                 (A) (A) (A) (A) (A) (A) (A) (A) (A) (A) (A) (A)
                 (A) (A) (A) (A) (A) (A) (A) (A) (A) (A) (A) (A)
                 (A) (A) (A) (A) (A) (A) (A) (A) (A) (A) (A) (A)
                 (A) (A) (A) (A) (A) (A) (A) (A) (A) (A) (A) (A)
                 (A) (A) (A) (A) (A) (A) (A) (A) (A) (A) (A) (A)
                 (A) (A) (A) (A) (A) (A) (A) (A) (A) (A) (A) (A)
                 (A) (A) (A) (A) (A) (A) (A) (A) (A) (A) (A) (A)
                 (A) (A) (A) (A) (A) (A) (A) (A) (A) (A) (A) (A)
                 (A) (A) (A) (A) (A) (A) (A) (A) (A) (A) (A) (A)
                 (A) (A) (A) (A) (A) (A) (A) (A) (A) (A) (A) (A)
                 (A) (A) (A) (A) (A) (A) (A) (A) (A) (A) (A) (A)
                 (A) (A) (A) (A) (A) (A) (A) (A) (A) (A) (A) (A)
                 (A) (A) (A) (A) (A) (A) (A) (A) (A) (A) (A) (A)
                 (A) (A) (A) (A) (A) (A) (A) (A) (A) (A) (A) (A)
                 (A) (A) (A) (A) (A) (A) (A) (A) (A) (A) (A) (A)
                 (A) (A) (A) (A) (A) (A) (A) (A) (A) (A) (A) (A)
                 (A) (A) (A) (A) (A) (A) (A) (A) (A) (A) (A)
 The electronic state is 1-A.
 Alpha  occ. eigenvalues --  -19.14261 -14.29338 -10.24268 -10.22188 -10.20479
 Alpha  occ. eigenvalues --  -10.19073 -10.18937 -10.18405  -1.02823  -0.89901
 Alpha  occ. eigenvalues --   -0.83182  -0.75428  -0.70375  -0.65282  -0.56003
 Alpha  occ. eigenvalues --   -0.54590  -0.50603  -0.48501  -0.46095  -0.43673
 Alpha  occ. eigenvalues --   -0.42481  -0.39910  -0.39140  -0.38509  -0.37429
 Alpha  occ. eigenvalues --   -0.33170  -0.32197  -0.27742  -0.24645  -0.24101
 Alpha virt. eigenvalues --   -0.02774   0.05072   0.07265   0.10666   0.11225
 Alpha virt. eigenvalues --    0.11838   0.13569   0.14750   0.16676   0.17527
 Alpha virt. eigenvalues --    0.19403   0.21405   0.23196   0.24899   0.26541
 Alpha virt. eigenvalues --    0.28571   0.33071   0.39175   0.39415   0.44057
 Alpha virt. eigenvalues --    0.44426   0.48160   0.48634   0.49842   0.50497
 Alpha virt. eigenvalues --    0.52399   0.53744   0.55315   0.57294   0.59167
 Alpha virt. eigenvalues --    0.61453   0.63017   0.63497   0.65972   0.67480
 Alpha virt. eigenvalues --    0.68356   0.69864   0.71709   0.72378   0.73912
 Alpha virt. eigenvalues --    0.74364   0.75916   0.76135   0.78232   0.78710
 Alpha virt. eigenvalues --    0.79664   0.80697   0.83807   0.84097   0.85899
 Alpha virt. eigenvalues --    0.88232   0.90890   0.91705   0.94479   0.95553
 Alpha virt. eigenvalues --    0.97515   0.98400   0.99712   1.04907   1.08796
 Alpha virt. eigenvalues --    1.11226   1.14082   1.20741   1.20929   1.23560
 Alpha virt. eigenvalues --    1.23668   1.25696   1.28557   1.34087   1.34628
 Alpha virt. eigenvalues --    1.37024   1.41274   1.42946   1.44260   1.45678
 Alpha virt. eigenvalues --    1.47928   1.49908   1.54092   1.54445   1.55345
 Alpha virt. eigenvalues --    1.57669   1.61234   1.62640   1.64862   1.66709
 Alpha virt. eigenvalues --    1.72609   1.76148   1.77483   1.81102   1.83566
 Alpha virt. eigenvalues --    1.88148   1.92950   1.94364   1.94975   1.99750
 Alpha virt. eigenvalues --    2.02153   2.07718   2.09413   2.12636   2.14269
 Alpha virt. eigenvalues --    2.20132   2.24250   2.25316   2.30153   2.34767
 Alpha virt. eigenvalues --    2.39264   2.41235   2.42692   2.44821   2.47489
 Alpha virt. eigenvalues --    2.51935   2.57077   2.58373   2.60664   2.65595
 Alpha virt. eigenvalues --    2.68072   2.72498   2.76511   2.79686   2.80487
 Alpha virt. eigenvalues --    2.85504   2.86852   2.88239   2.90241   2.91849
 Alpha virt. eigenvalues --    2.93341   2.94486   2.96596   2.98787   3.01230
 Alpha virt. eigenvalues --    3.01639   3.03882   3.06638   3.07760   3.09725
 Alpha virt. eigenvalues --    3.13834   3.17192   3.25609   3.26955   3.29075
 Alpha virt. eigenvalues --    3.29740   3.31247   3.32614   3.36619   3.39995
 Alpha virt. eigenvalues --    3.42341   3.45069   3.47771   3.51041   3.53674
 Alpha virt. eigenvalues --    3.59943   3.61241   3.64679   3.65550   3.69166
 Alpha virt. eigenvalues --    3.72535   3.75923   3.77265   3.81381   3.85331
 Alpha virt. eigenvalues --    3.90186   3.92532   3.93576   3.96206   4.01071
 Alpha virt. eigenvalues --    4.03203   4.07123   4.08940   4.15217   4.16643
 Alpha virt. eigenvalues --    4.18936   4.21072   4.25748   4.28380   4.31079
 Alpha virt. eigenvalues --    4.34534   4.36555   4.39389   4.42526   4.42697
 Alpha virt. eigenvalues --    4.43157   4.46457   4.49860   4.51733   4.53509
 Alpha virt. eigenvalues --    4.55410   4.56751   4.57869   4.60431   4.63239
 Alpha virt. eigenvalues --    4.65766   4.66793   4.69442   4.71771   4.73350
 Alpha virt. eigenvalues --    4.76086   4.77906   4.78632   4.81296   4.82189
 Alpha virt. eigenvalues --    4.83891   4.85159   4.88509   4.93548   4.97865
 Alpha virt. eigenvalues --    5.02125   5.03779   5.05798   5.12847   5.15015
 Alpha virt. eigenvalues --    5.20860   5.28618   5.33678   5.35769   5.42882
 Alpha virt. eigenvalues --    5.48677   5.52698   5.56381   5.59906   5.62948
 Alpha virt. eigenvalues --    5.68408   5.70959   5.82914   5.85176   5.91726
 Alpha virt. eigenvalues --    5.98714   6.10023   6.21734   6.55496   7.13075
 Alpha virt. eigenvalues --   10.09529  10.90231  11.29924  11.36955  11.82367
 Alpha virt. eigenvalues --   12.20541  12.49062  13.29496  13.35416
          Condensed to atoms (all electrons):
               1          2          3          4          5          6
     1  C    5.167787   0.349859  -0.038000   0.002942  -0.000363   0.008467
     2  C    0.349859   4.646302   0.526276   0.010371   0.008134  -0.066295
     3  C   -0.038000   0.526276   5.148248   0.464678  -0.090648  -0.078731
     4  C    0.002942   0.010371   0.464678   4.462562   0.644803   0.321257
     5  N   -0.000363   0.008134  -0.090648   0.644803   6.636109  -0.024530
     6  C    0.008467  -0.066295  -0.078731   0.321257  -0.024530   5.154108
     7  C   -0.083785   0.408223  -0.020319  -0.056582   0.000102   0.348715
     8  O    0.003430  -0.055864   0.003399   0.000363  -0.000022  -0.034127
     9  H    0.367483  -0.017378  -0.008172   0.000053   0.000001  -0.000136
    10  H    0.360011  -0.019496   0.001005   0.000010   0.000003  -0.000027
    11  H    0.358516  -0.016005   0.000556  -0.000110   0.000008   0.000120
    12  H   -0.007356  -0.027716   0.361999  -0.038475  -0.003239   0.004197
    13  H   -0.000043   0.001052  -0.016685  -0.110214   0.348392   0.009867
    14  H   -0.000117  -0.002354   0.002467  -0.016079  -0.001754   0.352203
    15  H   -0.000122   0.004730   0.003908  -0.007492  -0.002739   0.342337
    16  H   -0.001681  -0.039453   0.005059   0.000194   0.000244  -0.035868
    17  H   -0.000180   0.003396   0.002472  -0.001494  -0.000017   0.001391
               7          8          9         10         11         12
     1  C   -0.083785   0.003430   0.367483   0.360011   0.358516  -0.007356
     2  C    0.408223  -0.055864  -0.017378  -0.019496  -0.016005  -0.027716
     3  C   -0.020319   0.003399  -0.008172   0.001005   0.000556   0.361999
     4  C   -0.056582   0.000363   0.000053   0.000010  -0.000110  -0.038475
     5  N    0.000102  -0.000022   0.000001   0.000003   0.000008  -0.003239
     6  C    0.348715  -0.034127  -0.000136  -0.000027   0.000120   0.004197
     7  C    4.751985   0.367599   0.003697  -0.001818   0.000123   0.005480
     8  O    0.367599   7.853908   0.000167   0.007838  -0.000271  -0.000034
     9  H    0.003697   0.000167   0.589381  -0.031753  -0.030606   0.003554
    10  H   -0.001818   0.007838  -0.031753   0.579669  -0.029450  -0.000092
    11  H    0.000123  -0.000271  -0.030606  -0.029450   0.579504  -0.000006
    12  H    0.005480  -0.000034   0.003554  -0.000092  -0.000006   0.585572
    13  H   -0.000422   0.000002  -0.000001   0.000000   0.000000   0.003829
    14  H   -0.022941  -0.003669   0.000004  -0.000008   0.000002  -0.000153
    15  H   -0.016710   0.001899   0.000003  -0.000012   0.000006  -0.000081
    16  H    0.347995  -0.019031  -0.000154  -0.000100   0.002234  -0.000208
    17  H   -0.079327   0.311148  -0.000078   0.000421   0.000142  -0.000018
              13         14         15         16         17
     1  C   -0.000043  -0.000117  -0.000122  -0.001681  -0.000180
     2  C    0.001052  -0.002354   0.004730  -0.039453   0.003396
     3  C   -0.016685   0.002467   0.003908   0.005059   0.002472
     4  C   -0.110214  -0.016079  -0.007492   0.000194  -0.001494
     5  N    0.348392  -0.001754  -0.002739   0.000244  -0.000017
     6  C    0.009867   0.352203   0.342337  -0.035868   0.001391
     7  C   -0.000422  -0.022941  -0.016710   0.347995  -0.079327
     8  O    0.000002  -0.003669   0.001899  -0.019031   0.311148
     9  H   -0.000001   0.000004   0.000003  -0.000154  -0.000078
    10  H    0.000000  -0.000008  -0.000012  -0.000100   0.000421
    11  H    0.000000   0.000002   0.000006   0.002234   0.000142
    12  H    0.003829  -0.000153  -0.000081  -0.000208  -0.000018
    13  H    0.558726  -0.000196  -0.000288   0.000013  -0.000001
    14  H   -0.000196   0.593201  -0.030127   0.004495   0.005925
    15  H   -0.000288  -0.030127   0.582091  -0.004837   0.000036
    16  H    0.000013   0.004495  -0.004837   0.621925   0.007007
    17  H   -0.000001   0.005925   0.000036   0.007007   0.468417
 Mulliken charges:
               1
     1  C   -0.486848
     2  C    0.286217
     3  C   -0.267513
     4  C    0.323213
     5  N   -0.514483
     6  C   -0.302946
     7  C    0.047986
     8  O   -0.436735
     9  H    0.123935
    10  H    0.133800
    11  H    0.135236
    12  H    0.112748
    13  H    0.205967
    14  H    0.119102
    15  H    0.127397
    16  H    0.112165
    17  H    0.280759
 Sum of Mulliken charges =  -0.00000
 Mulliken charges with hydrogens summed into heavy atoms:
               1
     1  C   -0.093877
     2  C    0.286217
     3  C   -0.154765
     4  C    0.323213
     5  N   -0.308515
     6  C   -0.056447
     7  C    0.160150
     8  O   -0.155976
 Electronic spatial extent (au):  <R**2>=            969.4035
 Charge=             -0.0000 electrons
 Dipole moment (field-independent basis, Debye):
    X=              1.9268    Y=              1.8689    Z=             -0.7795  Tot=              2.7951
 Quadrupole moment (field-independent basis, Debye-Ang):
   XX=            -57.7439   YY=            -45.6821   ZZ=            -44.4518
   XY=             -0.3910   XZ=             -0.8026   YZ=              0.6957
 Traceless Quadrupole moment (field-independent basis, Debye-Ang):
   XX=             -8.4513   YY=              3.6105   ZZ=              4.8408
   XY=             -0.3910   XZ=             -0.8026   YZ=              0.6957
 Octapole moment (field-independent basis, Debye-Ang**2):
  XXX=             30.6866  YYY=              4.8747  ZZZ=             -2.6864  XYY=             -9.3019
  XXY=             15.9600  XXZ=             -3.7974  XZZ=              7.7203  YZZ=             -7.7841
  YYZ=             -3.2681  XYZ=              2.9287
 Hexadecapole moment (field-independent basis, Debye-Ang**3):
 XXXX=           -862.4789 YYYY=           -404.3972 ZZZZ=            -75.8824 XXXY=            -40.3358
 XXXZ=             -4.2127 YYYX=             -7.7952 YYYZ=             -0.9200 ZZZX=             -4.6805
 ZZZY=              6.6652 XXYY=           -189.2766 XXZZ=           -132.9267 YYZZ=            -75.9890
 XXYZ=              4.6031 YYXZ=             -3.3058 ZZXY=             -8.0390
 N-N= 3.684350068840D+02 E-N=-1.584528202112D+03  KE= 3.614228191494D+02
 PrsmSu:  requested number of processors reduced to:  13 ShMem   1 Linda.
 Calling FoFJK, ICntrl=      2127 FMM=F ISym2X=0 I1Cent= 0 IOpClX= 0 NMat=1 NMatS=1 NMatT=0.
 ***** Axes restored to original set *****
 -------------------------------------------------------------------
 Center     Atomic                   Forces (Hartrees/Bohr)
 Number     Number              X              Y              Z
 -------------------------------------------------------------------
      1        6          -0.002854890   -0.002890119   -0.001877595
      2        6          -0.027600290   -0.013599161    0.007395916
      3        6           0.013545048    0.031394573   -0.003025909
      4        6           0.032941855   -0.047660318    0.000740929
      5        7          -0.000157547    0.006606421    0.001302834
      6        6           0.002013765   -0.004311142    0.014601134
      7        6          -0.001931875    0.002928369   -0.023838783
      8        8          -0.009115898    0.011892645   -0.000629489
      9        1           0.001152362    0.001117453    0.000736840
     10        1          -0.001499155    0.003607471    0.002461779
     11        1          -0.002239927    0.003576387   -0.000347277
     12        1          -0.000618596   -0.003264043    0.000804692
     13        1          -0.001142719    0.002121679   -0.002081122
     14        1          -0.003069729    0.003163547    0.001271713
     15        1           0.001904239   -0.001676624   -0.003492208
     16        1          -0.003011456    0.005308886   -0.002468036
     17        1           0.001684814    0.001683977    0.008444582
 -------------------------------------------------------------------
 Cartesian Forces:  Max     0.047660318 RMS     0.011604458

 GradGradGradGradGradGradGradGradGradGradGradGradGradGradGradGradGradGrad
 Berny optimization.
 FormGI is forming the generalized inverse of G from B-inverse, IUseBI=4.
 Internal  Forces:  Max     0.024356170 RMS     0.006863528
 Search for a local minimum.
 Step number   1 out of a maximum of   96
 All quantities printed in internal units (Hartrees-Bohrs-Radians)
 Mixed Optimization -- RFO/linear search
 Second derivative matrix not updated -- first step.
 ITU=  0
     Eigenvalues ---    0.00699   0.00880   0.01177   0.01280   0.01493
     Eigenvalues ---    0.01567   0.02163   0.03207   0.04457   0.05002
     Eigenvalues ---    0.05698   0.06077   0.07222   0.07287   0.07346
     Eigenvalues ---    0.08105   0.08840   0.13782   0.16000   0.16000
     Eigenvalues ---    0.16000   0.16000   0.16000   0.16000   0.21706
     Eigenvalues ---    0.22986   0.24968   0.24998   0.28662   0.30331
     Eigenvalues ---    0.31988   0.33295   0.34080   0.34116   0.34142
     Eigenvalues ---    0.34304   0.34388   0.34519   0.34846   0.36441
     Eigenvalues ---    0.43218   0.43473   0.53135   0.54851   0.71402
 RFO step:  Lambda=-1.87988863D-02 EMin= 6.99348493D-03
 Linear search not attempted -- first point.
 Iteration  1 RMS(Cart)=  0.05153904 RMS(Int)=  0.00156899
 Iteration  2 RMS(Cart)=  0.00175097 RMS(Int)=  0.00094188
 Iteration  3 RMS(Cart)=  0.00000172 RMS(Int)=  0.00094188
 Iteration  4 RMS(Cart)=  0.00000000 RMS(Int)=  0.00094188
 Variable       Old X    -DE/DX   Delta X   Delta X   Delta X     New X
                                 (Linear)    (Quad)   (Total)
    R1        2.81836   0.00560   0.00000   0.01591   0.01591   2.83428
    R2        2.07091  -0.00152   0.00000  -0.00422  -0.00422   2.06669
    R3        2.06820   0.00052   0.00000   0.00144   0.00144   2.06964
    R4        2.06680   0.00192   0.00000   0.00531   0.00531   2.07211
    R5        2.52736   0.01242   0.00000   0.02221   0.02245   2.54980
    R6        2.84758   0.00757   0.00000   0.02081   0.02071   2.86830
    R7        2.77390   0.00529   0.00000   0.01710   0.01736   2.79126
    R8        2.03398   0.00327   0.00000   0.00853   0.00853   2.04251
    R9        2.42914  -0.00615   0.00000  -0.00839  -0.00839   2.42076
   R10        2.82819   0.01196   0.00000   0.03439   0.03411   2.86230
   R11        1.93791  -0.00210   0.00000  -0.00463  -0.00463   1.93328
   R12        2.88240   0.01886   0.00000   0.05554   0.05545   2.93785
   R13        2.07195  -0.00132   0.00000  -0.00368  -0.00368   2.06827
   R14        2.06463  -0.00122   0.00000  -0.00335  -0.00335   2.06128
   R15        2.67402   0.00745   0.00000   0.01653   0.01653   2.69055
   R16        2.07135  -0.00044   0.00000  -0.00121  -0.00121   2.07014
   R17        1.83528  -0.00850   0.00000  -0.01545  -0.01545   1.81983
    A1        1.93901  -0.00045   0.00000   0.00334   0.00327   1.94229
    A2        1.93256   0.00155   0.00000   0.00671   0.00666   1.93922
    A3        1.93645   0.00151   0.00000   0.00458   0.00455   1.94100
    A4        1.87297   0.00123   0.00000   0.01435   0.01426   1.88723
    A5        1.88214   0.00032   0.00000   0.00551   0.00548   1.88761
    A6        1.89863  -0.00430   0.00000  -0.03510  -0.03511   1.86351
    A7        2.17647   0.01304   0.00000   0.05085   0.05086   2.22734
    A8        2.12196  -0.00212   0.00000  -0.00582  -0.00577   2.11619
    A9        1.98398  -0.01088   0.00000  -0.04458  -0.04472   1.93926
   A10        1.83509   0.02436   0.00000   0.10474   0.10488   1.93997
   A11        2.25117  -0.01179   0.00000  -0.05014  -0.05035   2.20082
   A12        2.19692  -0.01256   0.00000  -0.05453  -0.05471   2.14221
   A13        2.20365   0.01743   0.00000   0.06661   0.06657   2.27023
   A14        1.94386  -0.02298   0.00000  -0.08867  -0.08929   1.85457
   A15        2.13562   0.00557   0.00000   0.02243   0.02246   2.15808
   A16        1.93844  -0.00348   0.00000  -0.01945  -0.01945   1.91899
   A17        1.75769   0.01603   0.00000   0.06887   0.06865   1.82634
   A18        1.90475  -0.00166   0.00000  -0.00475  -0.00457   1.90018
   A19        1.95766  -0.00723   0.00000  -0.01032  -0.01157   1.94609
   A20        1.96510  -0.00946   0.00000  -0.06233  -0.06195   1.90315
   A21        1.97065   0.00090   0.00000   0.02873   0.02744   1.99810
   A22        1.90430   0.00171   0.00000  -0.01661  -0.01662   1.88768
   A23        1.81014  -0.00446   0.00000  -0.00300  -0.00586   1.80428
   A24        1.94087   0.00226   0.00000   0.04398   0.04269   1.98356
   A25        1.92702   0.00111   0.00000  -0.02190  -0.02268   1.90434
   A26        1.94674   0.01115   0.00000   0.08083   0.07859   2.02533
   A27        1.93901  -0.00115   0.00000  -0.01615  -0.01449   1.92452
   A28        1.89941  -0.00846   0.00000  -0.07886  -0.07760   1.82180
   A29        1.88724  -0.00372   0.00000  -0.02078  -0.02078   1.86646
    D1       -0.04039   0.00076   0.00000   0.00641   0.00619  -0.03421
    D2       -3.13718  -0.00021   0.00000  -0.00571  -0.00544   3.14057
    D3       -2.11990  -0.00150   0.00000  -0.01812  -0.01840  -2.13830
    D4        1.06650  -0.00247   0.00000  -0.03024  -0.03003   1.03647
    D5        2.05320   0.00188   0.00000   0.01863   0.01840   2.07159
    D6       -1.04359   0.00091   0.00000   0.00651   0.00677  -1.03682
    D7        3.14135   0.00193   0.00000   0.02223   0.02262  -3.11922
    D8        0.00263   0.00101   0.00000  -0.00011  -0.00030   0.00232
    D9       -0.04192   0.00298   0.00000   0.03417   0.03389  -0.00803
   D10        3.10254   0.00206   0.00000   0.01183   0.01097   3.11351
   D11       -2.89970  -0.00519   0.00000  -0.06792  -0.06717  -2.96687
   D12       -0.80526   0.00654   0.00000   0.04840   0.04871  -0.75655
   D13        1.30503  -0.00188   0.00000  -0.03665  -0.03663   1.26840
   D14        0.28212  -0.00662   0.00000  -0.08101  -0.07922   0.20289
   D15        2.37655   0.00512   0.00000   0.03532   0.03666   2.41321
   D16       -1.79634  -0.00330   0.00000  -0.04973  -0.04868  -1.84502
   D17        2.92344   0.00036   0.00000  -0.00581  -0.00665   2.91679
   D18       -0.22909   0.00263   0.00000   0.03225   0.03083  -0.19826
   D19       -0.22090   0.00124   0.00000   0.01562   0.01537  -0.20554
   D20        2.90975   0.00351   0.00000   0.05368   0.05284   2.96259
   D21       -0.03328   0.00261   0.00000   0.04884   0.04949   0.01620
   D22        3.12036   0.00025   0.00000   0.00747   0.00683   3.12719
   D23        0.38576  -0.00546   0.00000  -0.07614  -0.07491   0.31085
   D24       -1.68506  -0.00206   0.00000  -0.03792  -0.03683  -1.72189
   D25        2.48575   0.00163   0.00000  -0.00704  -0.00575   2.48001
   D26       -2.76627  -0.00319   0.00000  -0.03944  -0.04008  -2.80635
   D27        1.44610   0.00021   0.00000  -0.00122  -0.00200   1.44410
   D28       -0.66628   0.00390   0.00000   0.02966   0.02909  -0.63719
   D29       -0.37598   0.00144   0.00000   0.06533   0.06890  -0.30708
   D30       -2.46642  -0.00425   0.00000  -0.02614  -0.02423  -2.49065
   D31        1.69423  -0.00037   0.00000   0.02992   0.03240   1.72663
   D32        1.65041   0.00450   0.00000   0.07229   0.07319   1.72360
   D33       -0.44003  -0.00119   0.00000  -0.01918  -0.01994  -0.45997
   D34       -2.56257   0.00269   0.00000   0.03688   0.03669  -2.52588
   D35       -2.46665   0.00001   0.00000   0.02329   0.02399  -2.44267
   D36        1.72609  -0.00568   0.00000  -0.06818  -0.06914   1.65695
   D37       -0.39645  -0.00180   0.00000  -0.01212  -0.01251  -0.40896
   D38       -0.98183  -0.00232   0.00000  -0.05567  -0.05761  -1.03944
   D39        1.02959   0.00041   0.00000   0.01756   0.01973   1.04933
   D40       -3.10826   0.00049   0.00000  -0.00383  -0.00407  -3.11233
         Item               Value     Threshold  Converged?
 Maximum Force            0.024356     0.000450     NO 
 RMS     Force            0.006864     0.000300     NO 
 Maximum Displacement     0.140524     0.001800     NO 
 RMS     Displacement     0.051125     0.001200     NO 
 Predicted change in Energy=-1.064400D-02
 GradGradGradGradGradGradGradGradGradGradGradGradGradGradGradGradGradGrad

                          Input orientation:                          
 ---------------------------------------------------------------------
 Center     Atomic      Atomic             Coordinates (Angstroms)
 Number     Number       Type             X           Y           Z
 ---------------------------------------------------------------------
      1          6           0        0.955857   -0.026821    0.074141
      2          6           0        2.454431   -0.070837    0.031191
      3          6           0        3.245312   -1.163085   -0.014675
      4          6           0        4.673745   -0.787162   -0.015705
      5          7           0        5.716457   -1.508389    0.167511
      6          6           0        4.718468    0.708503   -0.250647
      7          6           0        3.281205    1.201177    0.078701
      8          8           0        2.773170    2.243738   -0.747195
      9          1           0        0.527711   -1.032184    0.029450
     10          1           0        0.554079    0.552278   -0.764127
     11          1           0        0.599280    0.455844    0.991868
     12          1           0        2.911352   -2.190937   -0.029652
     13          1           0        5.444604   -2.482997    0.318710
     14          1           0        4.925972    0.894559   -1.309048
     15          1           0        5.504828    1.182403    0.338307
     16          1           0        3.244858    1.614906    1.092387
     17          1           0        2.763891    1.907562   -1.649577
 ---------------------------------------------------------------------
                    Distance matrix (angstroms):
                    1          2          3          4          5
     1  C    0.000000
     2  C    1.499835   0.000000
     3  C    2.557458   1.349297   0.000000
     4  C    3.795903   2.332526   1.477071   0.000000
     5  N    4.986689   3.567345   2.501796   1.281009   0.000000
     6  C    3.847522   2.410947   2.393473   1.514665   2.466870
     7  C    2.629684   1.517838   2.366378   2.429315   3.644185
     8  O    3.022028   2.462668   3.516525   3.651522   4.855726
     9  H    1.093646   2.153239   2.721109   4.153513   5.212380
    10  H    1.095206   2.152241   3.278244   4.396121   5.635995
    11  H    1.096511   2.154502   3.261219   4.377389   5.542858
    12  H    2.918583   2.169632   1.080848   2.253177   2.893676
    13  H    5.122642   3.852573   2.586541   1.892594   1.023047
    14  H    4.303947   2.972666   2.955321   2.136478   2.929036
    15  H    4.714355   3.312077   3.275870   2.166843   2.704500
    16  H    2.995266   2.143045   2.990455   3.006579   4.088908
    17  H    3.159435   2.614346   3.511915   3.684917   4.867050
                    6          7          8          9         10
     6  C    0.000000
     7  C    1.554646   0.000000
     8  O    2.527388   1.423775   0.000000
     9  H    4.546525   3.545709   4.046842   0.000000
    10  H    4.198834   2.927225   2.790285   1.772281   0.000000
    11  H    4.309918   2.929525   3.308580   1.773584   1.759223
    12  H    3.423632   3.413937   4.494474   2.651026   3.690720
    13  H    3.322215   4.279140   5.533058   5.134624   5.856848
    14  H    1.094480   2.173734   2.602022   4.984838   4.418998
    15  H    1.090784   2.238805   3.125172   5.456325   5.111002
    16  H    2.190167   1.095469   2.000495   3.939519   3.437458
    17  H    2.686097   1.937405   0.963013   4.057307   2.739359
                   11         12         13         14         15
    11  H    0.000000
    12  H    3.659867   0.000000
    13  H    5.706759   2.573718   0.000000
    14  H    4.920056   3.900748   3.785031   0.000000
    15  H    5.001943   4.270941   3.665947   1.769663   0.000000
    16  H    2.890089   3.981788   4.714898   3.018598   2.421396
    17  H    3.710830   4.409489   5.507938   2.411789   3.462697
                   16         17
    16  H    0.000000
    17  H    2.799168   0.000000
 Stoichiometry    C6H9NO
 Framework group  C1[X(C6H9NO)]
 Deg. of freedom    45
 Full point group                 C1      NOp   1
 Largest Abelian subgroup         C1      NOp   1
 Largest concise Abelian subgroup C1      NOp   1
                         Standard orientation:                         
 ---------------------------------------------------------------------
 Center     Atomic      Atomic             Coordinates (Angstroms)
 Number     Number       Type             X           Y           Z
 ---------------------------------------------------------------------
      1          6           0        1.983211    1.465019    0.054519
      2          6           0        0.695516    0.696041    0.059184
      3          6           0       -0.546196    1.167573   -0.178330
      4          6           0       -1.556275    0.097533   -0.049901
      5          7           0       -2.833068    0.172952    0.021484
      6          6           0       -0.786926   -1.204991    0.025882
      7          6           0        0.663382   -0.783855    0.394901
      8          8           0        1.707138   -1.531814   -0.220134
      9          1           0        1.818545    2.513480   -0.209444
     10          1           0        2.693549    1.040473   -0.662876
     11          1           0        2.468383    1.432313    1.037308
     12          1           0       -0.804707    2.190180   -0.414294
     13          1           0       -3.128912    1.150434   -0.038762
     14          1           0       -0.782323   -1.671553   -0.964162
     15          1           0       -1.247836   -1.901343    0.727642
     16          1           0        0.833838   -0.911641    1.469456
     17          1           0        1.607568   -1.422414   -1.171717
 ---------------------------------------------------------------------
 Rotational constants (GHZ):           3.4746990           1.6833153           1.1868316
 Standard basis: 6-31G(2df,p) (6D, 7F)
 There are   293 symmetry adapted cartesian basis functions of A   symmetry.
 There are   269 symmetry adapted basis functions of A   symmetry.
   269 basis functions,   415 primitive gaussians,   293 cartesian basis functions
    30 alpha electrons       30 beta electrons
       nuclear repulsion energy       364.0372770045 Hartrees.
 NAtoms=   17 NActive=   17 NUniq=   17 SFac= 1.00D+00 NAtFMM=   60 NAOKFM=F Big=F
 Integral buffers will be    131072 words long.
 Raffenetti 2 integral format.
 Two-electron integral symmetry is turned on.
 One-electron integrals computed using PRISM.
 PrsmSu:  requested number of processors reduced to:  13 ShMem   1 Linda.
 NBasis=   269 RedAO= T EigKep=  2.72D-04  NBF=   269
 NBsUse=   269 1.00D-06 EigRej= -1.00D+00 NBFU=   269
 Initial guess from the checkpoint file:  "CC1dCCpdNpCC1O.chk"
 B after Tr=     0.000000    0.000000   -0.000000
         Rot=    0.999985    0.001796   -0.000501   -0.005177 Ang=   0.63 deg.
 ExpMin= 1.61D-01 ExpMax= 5.48D+03 ExpMxC= 8.25D+02 IAcc=2 IRadAn=         4 AccDes= 0.00D+00
 Harris functional with IExCor=  402 and IRadAn=       4 diagonalized for initial guess.
 HarFok:  IExCor=  402 AccDes= 0.00D+00 IRadAn=         4 IDoV= 1 UseB2=F ITyADJ=14
 ICtDFT=  3500011 ScaDFX=  1.000000  1.000000  1.000000  1.000000
 FoFCou: FMM=F IPFlag=           0 FMFlag=      100000 FMFlg1=           0
         NFxFlg=           0 DoJE=T BraDBF=F KetDBF=T FulRan=T
         wScrn=  0.000000 ICntrl=       500 IOpCl=  0 I1Cent=   200000004 NGrid=           0
         NMat0=    1 NMatS0=      1 NMatT0=    0 NMatD0=    1 NMtDS0=    0 NMtDT0=    0
 Petite list used in FoFCou.
 Requested convergence on RMS density matrix=1.00D-08 within 128 cycles.
 Requested convergence on MAX density matrix=1.00D-06.
 Requested convergence on             energy=1.00D-06.
 No special actions if energy rises.
 Integral accuracy reduced to 1.0D-05 until final iterations.
 Initial convergence to 1.0D-05 achieved.  Increase integral accuracy.
 SCF Done:  E(RB3LYP) =  -364.027634603     A.U. after   12 cycles
            NFock= 12  Conv=0.63D-08     -V/T= 2.0078
 PrsmSu:  requested number of processors reduced to:  13 ShMem   1 Linda.
 Calling FoFJK, ICntrl=      2127 FMM=F ISym2X=0 I1Cent= 0 IOpClX= 0 NMat=1 NMatS=1 NMatT=0.
 ***** Axes restored to original set *****
 -------------------------------------------------------------------
 Center     Atomic                   Forces (Hartrees/Bohr)
 Number     Number              X              Y              Z
 -------------------------------------------------------------------
      1        6           0.002596826   -0.003120584   -0.000988963
      2        6          -0.001699739   -0.008893876    0.000229075
      3        6           0.000623501    0.009894489   -0.000653150
      4        6           0.000970308   -0.007858564    0.000710544
      5        7          -0.006235050    0.005300626   -0.001635520
      6        6          -0.001940356    0.003006958    0.003661456
      7        6           0.002708016   -0.000018772   -0.002227872
      8        8           0.002258012   -0.003162672    0.002043218
      9        1           0.000208128    0.000310124    0.000241072
     10        1           0.000553041    0.001414146    0.000682784
     11        1           0.000574257    0.001055407   -0.000167585
     12        1          -0.001485679   -0.002608644    0.001414683
     13        1           0.000027469   -0.000754750   -0.000269939
     14        1           0.000702074    0.001469846   -0.001244345
     15        1           0.000118453    0.001555918   -0.000953195
     16        1          -0.000191191    0.001566671    0.000822980
     17        1           0.000211930    0.000843678   -0.001665243
 -------------------------------------------------------------------
 Cartesian Forces:  Max     0.009894489 RMS     0.002866974

 GradGradGradGradGradGradGradGradGradGradGradGradGradGradGradGradGradGrad
 Berny optimization.
 Using GEDIIS/GDIIS optimizer.
 FormGI is forming the generalized inverse of G from B-inverse, IUseBI=4.
 Internal  Forces:  Max     0.007884739 RMS     0.001700986
 Search for a local minimum.
 Step number   2 out of a maximum of   96
 All quantities printed in internal units (Hartrees-Bohrs-Radians)
 Mixed Optimization -- RFO/linear search
 Update second derivatives using D2CorX and points    1    2
 DE= -9.05D-03 DEPred=-1.06D-02 R= 8.50D-01
 TightC=F SS=  1.41D+00  RLast= 3.57D-01 DXNew= 5.0454D-01 1.0724D+00
 Trust test= 8.50D-01 RLast= 3.57D-01 DXMaxT set to 5.05D-01
 ITU=  1  0
 Use linear search instead of GDIIS.
     Eigenvalues ---    0.00663   0.00879   0.01203   0.01295   0.01492
     Eigenvalues ---    0.01613   0.02166   0.03208   0.04126   0.04906
     Eigenvalues ---    0.05640   0.05980   0.07211   0.07240   0.07340
     Eigenvalues ---    0.08411   0.09530   0.14446   0.15982   0.15997
     Eigenvalues ---    0.16000   0.16000   0.16000   0.16128   0.22260
     Eigenvalues ---    0.23187   0.24858   0.24988   0.29108   0.30617
     Eigenvalues ---    0.31799   0.33592   0.34099   0.34137   0.34167
     Eigenvalues ---    0.34304   0.34386   0.34521   0.35439   0.36507
     Eigenvalues ---    0.43421   0.43559   0.53162   0.56564   0.71412
 RFO step:  Lambda=-1.09271436D-03 EMin= 6.63457937D-03
 Quartic linear search produced a step of -0.01683.
 Iteration  1 RMS(Cart)=  0.03192229 RMS(Int)=  0.00038841
 Iteration  2 RMS(Cart)=  0.00057102 RMS(Int)=  0.00010397
 Iteration  3 RMS(Cart)=  0.00000009 RMS(Int)=  0.00010397
 Variable       Old X    -DE/DX   Delta X   Delta X   Delta X     New X
                                 (Linear)    (Quad)   (Total)
    R1        2.83428  -0.00395  -0.00027  -0.01080  -0.01106   2.82321
    R2        2.06669  -0.00038   0.00007  -0.00129  -0.00122   2.06547
    R3        2.06964   0.00002  -0.00002   0.00014   0.00011   2.06975
    R4        2.07211   0.00014  -0.00009   0.00066   0.00057   2.07268
    R5        2.54980  -0.00756  -0.00038  -0.01246  -0.01277   2.53704
    R6        2.86830   0.00277  -0.00035   0.00879   0.00848   2.87678
    R7        2.79126  -0.00272  -0.00029  -0.00668  -0.00696   2.78430
    R8        2.04251   0.00292  -0.00014   0.00828   0.00813   2.05064
    R9        2.42076  -0.00788   0.00014  -0.01125  -0.01111   2.40965
   R10        2.86230   0.00273  -0.00057   0.01117   0.01054   2.87284
   R11        1.93328   0.00067   0.00008   0.00128   0.00136   1.93464
   R12        2.93785  -0.00460  -0.00093  -0.01131  -0.01230   2.92555
   R13        2.06827   0.00159   0.00006   0.00437   0.00443   2.07270
   R14        2.06128   0.00025   0.00006   0.00053   0.00059   2.06187
   R15        2.69055  -0.00280  -0.00028  -0.00551  -0.00579   2.68476
   R16        2.07014   0.00136   0.00002   0.00384   0.00386   2.07400
   R17        1.81983   0.00126   0.00026   0.00155   0.00181   1.82164
    A1        1.94229   0.00071  -0.00006   0.00838   0.00832   1.95061
    A2        1.93922  -0.00077  -0.00011  -0.00554  -0.00572   1.93349
    A3        1.94100  -0.00115  -0.00008  -0.00944  -0.00957   1.93143
    A4        1.88723   0.00093  -0.00024   0.01139   0.01114   1.89837
    A5        1.88761   0.00063  -0.00009   0.00635   0.00627   1.89388
    A6        1.86351  -0.00031   0.00059  -0.01108  -0.01061   1.85290
    A7        2.22734   0.00111  -0.00086   0.00706   0.00629   2.23363
    A8        2.11619  -0.00105   0.00010  -0.00422  -0.00404   2.11215
    A9        1.93926  -0.00005   0.00075  -0.00295  -0.00237   1.93689
   A10        1.93997   0.00067  -0.00176   0.00862   0.00662   1.94659
   A11        2.20082  -0.00098   0.00085  -0.00832  -0.00740   2.19342
   A12        2.14221   0.00031   0.00092  -0.00059   0.00039   2.14261
   A13        2.27023   0.00001  -0.00112   0.00143   0.00047   2.27070
   A14        1.85457   0.00104   0.00150   0.00334   0.00450   1.85906
   A15        2.15808  -0.00106  -0.00038  -0.00497  -0.00518   2.15290
   A16        1.91899   0.00037   0.00033   0.00126   0.00158   1.92057
   A17        1.82634  -0.00244  -0.00116   0.00202   0.00035   1.82669
   A18        1.90018   0.00086   0.00008   0.00103   0.00122   1.90140
   A19        1.94609   0.00200   0.00019   0.01871   0.01901   1.96510
   A20        1.90315   0.00001   0.00104  -0.01372  -0.01257   1.89057
   A21        1.99810   0.00056  -0.00046   0.00416   0.00370   2.00180
   A22        1.88768  -0.00096   0.00028  -0.01224  -0.01207   1.87561
   A23        1.80428   0.00098   0.00010   0.00839   0.00829   1.81257
   A24        1.98356   0.00096  -0.00072   0.00758   0.00701   1.99057
   A25        1.90434  -0.00038   0.00038   0.00134   0.00179   1.90613
   A26        2.02533  -0.00210  -0.00132  -0.01018  -0.01134   2.01399
   A27        1.92452   0.00045   0.00024   0.00202   0.00216   1.92668
   A28        1.82180   0.00013   0.00131  -0.00854  -0.00733   1.81447
   A29        1.86646   0.00217   0.00035   0.01216   0.01251   1.87896
    D1       -0.03421   0.00009  -0.00010  -0.00988  -0.00996  -0.04417
    D2        3.14057   0.00012   0.00009  -0.00538  -0.00528   3.13528
    D3       -2.13830  -0.00105   0.00031  -0.02626  -0.02589  -2.16420
    D4        1.03647  -0.00102   0.00051  -0.02176  -0.02122   1.01525
    D5        2.07159   0.00060  -0.00031  -0.00254  -0.00289   2.06870
    D6       -1.03682   0.00063  -0.00011   0.00196   0.00178  -1.03504
    D7       -3.11922  -0.00030  -0.00038  -0.00092  -0.00142  -3.12064
    D8        0.00232  -0.00045   0.00001  -0.01702  -0.01700  -0.01467
    D9       -0.00803  -0.00035  -0.00057  -0.00509  -0.00576  -0.01379
   D10        3.11351  -0.00050  -0.00018  -0.02118  -0.02133   3.09217
   D11       -2.96687   0.00040   0.00113  -0.02980  -0.02880  -2.99567
   D12       -0.75655  -0.00094  -0.00082  -0.03181  -0.03265  -0.78920
   D13        1.26840  -0.00045   0.00062  -0.03702  -0.03640   1.23199
   D14        0.20289   0.00040   0.00133  -0.02617  -0.02502   0.17788
   D15        2.41321  -0.00094  -0.00062  -0.02818  -0.02887   2.38434
   D16       -1.84502  -0.00045   0.00082  -0.03339  -0.03262  -1.87764
   D17        2.91679   0.00050   0.00011   0.02872   0.02888   2.94568
   D18       -0.19826   0.00066  -0.00052   0.03727   0.03684  -0.16143
   D19       -0.20554   0.00066  -0.00026   0.04429   0.04404  -0.16150
   D20        2.96259   0.00083  -0.00089   0.05284   0.05199   3.01458
   D21        0.01620   0.00044  -0.00083   0.01697   0.01613   0.03233
   D22        3.12719   0.00028  -0.00011   0.00724   0.00714   3.13433
   D23        0.31085  -0.00072   0.00126  -0.05184  -0.05061   0.26024
   D24       -1.72189   0.00012   0.00062  -0.03752  -0.03686  -1.75874
   D25        2.48001  -0.00047   0.00010  -0.03449  -0.03441   2.44560
   D26       -2.80635  -0.00059   0.00067  -0.04409  -0.04342  -2.84977
   D27        1.44410   0.00026   0.00003  -0.02977  -0.02967   1.41443
   D28       -0.63719  -0.00033  -0.00049  -0.02675  -0.02722  -0.66441
   D29       -0.30708   0.00078  -0.00116   0.04744   0.04620  -0.26088
   D30       -2.49065   0.00014   0.00041   0.03777   0.03814  -2.45250
   D31        1.72663   0.00106  -0.00055   0.05435   0.05371   1.78034
   D32        1.72360   0.00052  -0.00123   0.04331   0.04202   1.76562
   D33       -0.45997  -0.00012   0.00034   0.03365   0.03397  -0.42600
   D34       -2.52588   0.00080  -0.00062   0.05023   0.04954  -2.47634
   D35       -2.44267  -0.00034  -0.00040   0.02013   0.01977  -2.42290
   D36        1.65695  -0.00098   0.00116   0.01046   0.01172   1.66867
   D37       -0.40896  -0.00006   0.00021   0.02705   0.02729  -0.38167
   D38       -1.03944  -0.00053   0.00097  -0.02943  -0.02834  -1.06778
   D39        1.04933  -0.00006  -0.00033  -0.01982  -0.02031   1.02902
   D40       -3.11233  -0.00066   0.00007  -0.02962  -0.02952   3.14133
         Item               Value     Threshold  Converged?
 Maximum Force            0.007885     0.000450     NO 
 RMS     Force            0.001701     0.000300     NO 
 Maximum Displacement     0.118624     0.001800     NO 
 RMS     Displacement     0.031922     0.001200     NO 
 Predicted change in Energy=-5.772945D-04
 GradGradGradGradGradGradGradGradGradGradGradGradGradGradGradGradGradGrad

                          Input orientation:                          
 ---------------------------------------------------------------------
 Center     Atomic      Atomic             Coordinates (Angstroms)
 Number     Number       Type             X           Y           Z
 ---------------------------------------------------------------------
      1          6           0        0.956005   -0.036751    0.085273
      2          6           0        2.448420   -0.081224    0.033316
      3          6           0        3.241795   -1.163540   -0.006288
      4          6           0        4.666738   -0.789175   -0.022439
      5          7           0        5.707160   -1.509998    0.132142
      6          6           0        4.715625    0.717126   -0.221937
      7          6           0        3.273043    1.197923    0.068776
      8          8           0        2.788443    2.223141   -0.787094
      9          1           0        0.519089   -1.037781    0.044157
     10          1           0        0.555827    0.556739   -0.743722
     11          1           0        0.615219    0.454446    1.004832
     12          1           0        2.905803   -2.195286    0.006560
     13          1           0        5.439519   -2.490375    0.255937
     14          1           0        4.944655    0.929792   -1.273291
     15          1           0        5.486416    1.195448    0.384345
     16          1           0        3.211917    1.639367    1.071733
     17          1           0        2.819547    1.888708   -1.690660
 ---------------------------------------------------------------------
                    Distance matrix (angstroms):
                    1          2          3          4          5
     1  C    0.000000
     2  C    1.493980   0.000000
     3  C    2.550072   1.342542   0.000000
     4  C    3.787781   2.329215   1.473389   0.000000
     5  N    4.974547   3.559571   2.493436   1.275130   0.000000
     6  C    3.846745   2.417175   2.399080   1.520241   2.463451
     7  C    2.625520   1.522326   2.362862   2.428840   3.641672
     8  O    3.037427   2.469573   3.504967   3.631356   4.827031
     9  H    1.093000   2.153471   2.726075   4.155627   5.210260
    10  H    1.095265   2.143057   3.273773   4.385354   5.619143
    11  H    1.096813   2.142757   3.246404   4.360812   5.527068
    12  H    2.909842   2.163140   1.085152   2.253637   2.886692
    13  H    5.113833   3.847109   2.580552   1.889117   1.023766
    14  H    4.323104   2.993421   2.981119   2.143996   2.917058
    15  H    4.704506   3.313990   3.279595   2.185423   2.726127
    16  H    2.978525   2.149807   3.003216   3.035051   4.126447
    17  H    3.214672   2.643948   3.511641   3.655973   4.817895
                    6          7          8          9         10
     6  C    0.000000
     7  C    1.548135   0.000000
     8  O    2.510283   1.420713   0.000000
     9  H    4.556470   3.547286   4.058887   0.000000
    10  H    4.195463   2.907668   2.786279   1.778932   0.000000
    11  H    4.288040   2.914272   3.325986   1.777323   1.752550
    12  H    3.436540   3.413591   4.490675   2.652854   3.695803
    13  H    3.322717   4.281611   5.507573   5.134736   5.842489
    14  H    1.096826   2.160400   2.560936   5.019228   4.436376
    15  H    1.091095   2.235757   3.115683   5.456865   5.098156
    16  H    2.187521   1.097512   1.993831   3.933745   3.394521
    17  H    2.669245   1.943826   0.963973   4.106828   2.792000
                   11         12         13         14         15
    11  H    0.000000
    12  H    3.642033   0.000000
    13  H    5.701463   2.563002   0.000000
    14  H    4.915263   3.944750   3.779018   0.000000
    15  H    4.966150   4.277775   3.688357   1.764039   0.000000
    16  H    2.855057   3.991599   4.762615   3.000836   2.417212
    17  H    3.765879   4.423461   5.461673   2.368502   3.449412
                   16         17
    16  H    0.000000
    17  H    2.801239   0.000000
 Stoichiometry    C6H9NO
 Framework group  C1[X(C6H9NO)]
 Deg. of freedom    45
 Full point group                 C1      NOp   1
 Largest Abelian subgroup         C1      NOp   1
 Largest concise Abelian subgroup C1      NOp   1
                         Standard orientation:                         
 ---------------------------------------------------------------------
 Center     Atomic      Atomic             Coordinates (Angstroms)
 Number     Number       Type             X           Y           Z
 ---------------------------------------------------------------------
      1          6           0        1.983398    1.464854    0.054888
      2          6           0        0.698365    0.702848    0.058653
      3          6           0       -0.539427    1.169386   -0.170762
      4          6           0       -1.550118    0.104351   -0.047966
      5          7           0       -2.822144    0.180471   -0.002029
      6          6           0       -0.786288   -1.204604    0.071757
      7          6           0        0.667702   -0.781765    0.394006
      8          8           0        1.680277   -1.541954   -0.250376
      9          1           0        1.831654    2.513924   -0.211708
     10          1           0        2.695831    1.021818   -0.649218
     11          1           0        2.461770    1.421818    1.040944
     12          1           0       -0.796887    2.201205   -0.386682
     13          1           0       -3.118858    1.155787   -0.095939
     14          1           0       -0.790729   -1.709762   -0.901805
     15          1           0       -1.233989   -1.886391    0.796476
     16          1           0        0.876614   -0.914919    1.463191
     17          1           0        1.545589   -1.461565   -1.201502
 ---------------------------------------------------------------------
 Rotational constants (GHZ):           3.4486008           1.6972666           1.1920547
 Standard basis: 6-31G(2df,p) (6D, 7F)
 There are   293 symmetry adapted cartesian basis functions of A   symmetry.
 There are   269 symmetry adapted basis functions of A   symmetry.
   269 basis functions,   415 primitive gaussians,   293 cartesian basis functions
    30 alpha electrons       30 beta electrons
       nuclear repulsion energy       364.4700030151 Hartrees.
 NAtoms=   17 NActive=   17 NUniq=   17 SFac= 1.00D+00 NAtFMM=   60 NAOKFM=F Big=F
 Integral buffers will be    131072 words long.
 Raffenetti 2 integral format.
 Two-electron integral symmetry is turned on.
 One-electron integrals computed using PRISM.
 PrsmSu:  requested number of processors reduced to:  13 ShMem   1 Linda.
 NBasis=   269 RedAO= T EigKep=  2.67D-04  NBF=   269
 NBsUse=   269 1.00D-06 EigRej= -1.00D+00 NBFU=   269
 Initial guess from the checkpoint file:  "CC1dCCpdNpCC1O.chk"
 B after Tr=    -0.000000   -0.000000    0.000000
         Rot=    0.999997    0.001219   -0.001147    0.001978 Ang=   0.30 deg.
 ExpMin= 1.61D-01 ExpMax= 5.48D+03 ExpMxC= 8.25D+02 IAcc=2 IRadAn=         4 AccDes= 0.00D+00
 Harris functional with IExCor=  402 and IRadAn=       4 diagonalized for initial guess.
 HarFok:  IExCor=  402 AccDes= 0.00D+00 IRadAn=         4 IDoV= 1 UseB2=F ITyADJ=14
 ICtDFT=  3500011 ScaDFX=  1.000000  1.000000  1.000000  1.000000
 FoFCou: FMM=F IPFlag=           0 FMFlag=      100000 FMFlg1=           0
         NFxFlg=           0 DoJE=T BraDBF=F KetDBF=T FulRan=T
         wScrn=  0.000000 ICntrl=       500 IOpCl=  0 I1Cent=   200000004 NGrid=           0
         NMat0=    1 NMatS0=      1 NMatT0=    0 NMatD0=    1 NMtDS0=    0 NMtDT0=    0
 Petite list used in FoFCou.
 Requested convergence on RMS density matrix=1.00D-08 within 128 cycles.
 Requested convergence on MAX density matrix=1.00D-06.
 Requested convergence on             energy=1.00D-06.
 No special actions if energy rises.
 Integral accuracy reduced to 1.0D-05 until final iterations.
 Initial convergence to 1.0D-05 achieved.  Increase integral accuracy.
 SCF Done:  E(RB3LYP) =  -364.028301369     A.U. after   11 cycles
            NFock= 11  Conv=0.84D-08     -V/T= 2.0076
 PrsmSu:  requested number of processors reduced to:  13 ShMem   1 Linda.
 Calling FoFJK, ICntrl=      2127 FMM=F ISym2X=0 I1Cent= 0 IOpClX= 0 NMat=1 NMatS=1 NMatT=0.
 ***** Axes restored to original set *****
 -------------------------------------------------------------------
 Center     Atomic                   Forces (Hartrees/Bohr)
 Number     Number              X              Y              Z
 -------------------------------------------------------------------
      1        6           0.000817721   -0.000597185   -0.000302819
      2        6          -0.001002576   -0.001524452    0.000231599
      3        6           0.001129318    0.001634739   -0.000698582
      4        6          -0.000326255   -0.000683545    0.001849468
      5        7          -0.000596931   -0.000126324   -0.001341664
      6        6          -0.002301854    0.000221245   -0.000988081
      7        6           0.001562747    0.000970843    0.000409716
      8        8          -0.000366293   -0.001101763    0.000118857
      9        1           0.000002259    0.000298377    0.000036302
     10        1           0.000151457    0.000492171    0.000091764
     11        1          -0.000088342    0.000243235    0.000214320
     12        1          -0.000009353   -0.000186986    0.000291108
     13        1           0.000350547   -0.000254259    0.000217640
     14        1           0.001079696    0.000356660   -0.000082016
     15        1          -0.000230051   -0.000153713    0.000080496
     16        1          -0.000584995    0.000248695    0.000127750
     17        1           0.000412906    0.000162262   -0.000255859
 -------------------------------------------------------------------
 Cartesian Forces:  Max     0.002301854 RMS     0.000757156

 GradGradGradGradGradGradGradGradGradGradGradGradGradGradGradGradGradGrad
 Berny optimization.
 Using GEDIIS/GDIIS optimizer.
 FormGI is forming the generalized inverse of G from B-inverse, IUseBI=4.
 Internal  Forces:  Max     0.001134991 RMS     0.000360542
 Search for a local minimum.
 Step number   3 out of a maximum of   96
 All quantities printed in internal units (Hartrees-Bohrs-Radians)
 Mixed Optimization -- En-DIIS/RFO-DIIS
 Update second derivatives using D2CorX and points    1    2    3
 DE= -6.67D-04 DEPred=-5.77D-04 R= 1.15D+00
 TightC=F SS=  1.41D+00  RLast= 2.04D-01 DXNew= 8.4853D-01 6.1117D-01
 Trust test= 1.15D+00 RLast= 2.04D-01 DXMaxT set to 6.11D-01
 ITU=  1  1  0
 Use linear search instead of GDIIS.
     Eigenvalues ---    0.00535   0.00872   0.01147   0.01321   0.01451
     Eigenvalues ---    0.01608   0.02199   0.03235   0.04203   0.04901
     Eigenvalues ---    0.05787   0.06250   0.06997   0.07178   0.07435
     Eigenvalues ---    0.08566   0.09593   0.14557   0.15884   0.15990
     Eigenvalues ---    0.16000   0.16000   0.16005   0.16243   0.22028
     Eigenvalues ---    0.22870   0.24645   0.25039   0.29168   0.30670
     Eigenvalues ---    0.31821   0.33421   0.34058   0.34105   0.34162
     Eigenvalues ---    0.34309   0.34398   0.34540   0.35010   0.36551
     Eigenvalues ---    0.43314   0.43480   0.53166   0.56636   0.72620
 RFO step:  Lambda=-2.25783509D-04 EMin= 5.34771519D-03
 Quartic linear search produced a step of  0.26359.
 Iteration  1 RMS(Cart)=  0.02660686 RMS(Int)=  0.00031169
 Iteration  2 RMS(Cart)=  0.00039740 RMS(Int)=  0.00005840
 Iteration  3 RMS(Cart)=  0.00000004 RMS(Int)=  0.00005840
 Variable       Old X    -DE/DX   Delta X   Delta X   Delta X     New X
                                 (Linear)    (Quad)   (Total)
    R1        2.82321  -0.00087  -0.00292  -0.00217  -0.00508   2.81813
    R2        2.06547  -0.00028  -0.00032  -0.00100  -0.00133   2.06414
    R3        2.06975   0.00014   0.00003   0.00054   0.00057   2.07032
    R4        2.07268   0.00032   0.00015   0.00121   0.00136   2.07404
    R5        2.53704  -0.00055  -0.00336  -0.00000  -0.00332   2.53372
    R6        2.87678   0.00012   0.00224   0.00053   0.00276   2.87954
    R7        2.78430  -0.00100  -0.00183  -0.00316  -0.00495   2.77935
    R8        2.05064   0.00018   0.00214   0.00018   0.00233   2.05297
    R9        2.40965  -0.00012  -0.00293   0.00046  -0.00247   2.40718
   R10        2.87284   0.00052   0.00278   0.00173   0.00449   2.87733
   R11        1.93464   0.00018   0.00036   0.00033   0.00069   1.93533
   R12        2.92555  -0.00094  -0.00324  -0.00146  -0.00476   2.92079
   R13        2.07270   0.00037   0.00117   0.00098   0.00215   2.07485
   R14        2.06187  -0.00019   0.00015  -0.00078  -0.00063   2.06124
   R15        2.68476  -0.00061  -0.00153  -0.00105  -0.00258   2.68218
   R16        2.07400   0.00025   0.00102   0.00061   0.00163   2.07562
   R17        1.82164   0.00020   0.00048   0.00005   0.00053   1.82218
    A1        1.95061   0.00034   0.00219   0.00334   0.00554   1.95615
    A2        1.93349  -0.00035  -0.00151  -0.00264  -0.00419   1.92931
    A3        1.93143  -0.00009  -0.00252  -0.00064  -0.00319   1.92824
    A4        1.89837   0.00021   0.00294   0.00246   0.00539   1.90376
    A5        1.89388  -0.00002   0.00165   0.00027   0.00192   1.89580
    A6        1.85290  -0.00011  -0.00280  -0.00301  -0.00588   1.84702
    A7        2.23363   0.00113   0.00166   0.00565   0.00737   2.24100
    A8        2.11215  -0.00102  -0.00107  -0.00546  -0.00648   2.10567
    A9        1.93689  -0.00011  -0.00062   0.00011  -0.00066   1.93623
   A10        1.94659   0.00039   0.00174   0.00380   0.00545   1.95203
   A11        2.19342  -0.00015  -0.00195  -0.00123  -0.00315   2.19027
   A12        2.14261  -0.00024   0.00010  -0.00265  -0.00252   2.14008
   A13        2.27070   0.00015   0.00012   0.00200   0.00210   2.27281
   A14        1.85906  -0.00031   0.00119  -0.00288  -0.00193   1.85713
   A15        2.15290   0.00017  -0.00137   0.00170   0.00031   2.15321
   A16        1.92057   0.00081   0.00042   0.00593   0.00635   1.92692
   A17        1.82669   0.00011   0.00009   0.00504   0.00486   1.83155
   A18        1.90140  -0.00002   0.00032   0.00185   0.00221   1.90361
   A19        1.96510  -0.00009   0.00501  -0.00531  -0.00022   1.96488
   A20        1.89057   0.00044  -0.00331   0.00708   0.00380   1.89438
   A21        2.00180  -0.00012   0.00098  -0.00298  -0.00197   1.99983
   A22        1.87561  -0.00028  -0.00318  -0.00480  -0.00802   1.86759
   A23        1.81257  -0.00011   0.00219  -0.00066   0.00132   1.81389
   A24        1.99057  -0.00010   0.00185  -0.00480  -0.00287   1.98769
   A25        1.90613  -0.00017   0.00047  -0.00285  -0.00236   1.90377
   A26        2.01399  -0.00017  -0.00299  -0.00107  -0.00398   2.01001
   A27        1.92668   0.00054   0.00057   0.00875   0.00933   1.93601
   A28        1.81447   0.00004  -0.00193   0.00099  -0.00098   1.81349
   A29        1.87896   0.00013   0.00330  -0.00027   0.00303   1.88199
    D1       -0.04417  -0.00003  -0.00263  -0.00783  -0.01045  -0.05462
    D2        3.13528  -0.00011  -0.00139  -0.01874  -0.02013   3.11516
    D3       -2.16420  -0.00028  -0.00682  -0.01143  -0.01823  -2.18243
    D4        1.01525  -0.00037  -0.00559  -0.02234  -0.02791   0.98735
    D5        2.06870   0.00012  -0.00076  -0.00566  -0.00645   2.06225
    D6       -1.03504   0.00003   0.00047  -0.01656  -0.01612  -1.05116
    D7       -3.12064  -0.00004  -0.00037  -0.00141  -0.00186  -3.12250
    D8       -0.01467  -0.00009  -0.00448  -0.00385  -0.00837  -0.02304
    D9       -0.01379   0.00002  -0.00152   0.00848   0.00692  -0.00687
   D10        3.09217  -0.00003  -0.00562   0.00604   0.00042   3.09259
   D11       -2.99567   0.00020  -0.00759  -0.00762  -0.01529  -3.01096
   D12       -0.78920  -0.00016  -0.00861  -0.01252  -0.02117  -0.81037
   D13        1.23199  -0.00028  -0.00960  -0.01607  -0.02567   1.20632
   D14        0.17788   0.00010  -0.00659  -0.01697  -0.02360   0.15428
   D15        2.38434  -0.00026  -0.00761  -0.02186  -0.02948   2.35487
   D16       -1.87764  -0.00039  -0.00860  -0.02542  -0.03398  -1.91162
   D17        2.94568   0.00030   0.00761   0.03138   0.03899   2.98467
   D18       -0.16143  -0.00004   0.00971   0.00419   0.01388  -0.14754
   D19       -0.16150   0.00035   0.01161   0.03370   0.04530  -0.11620
   D20        3.01458   0.00001   0.01370   0.00652   0.02019   3.03478
   D21        0.03233  -0.00034   0.00425  -0.02185  -0.01762   0.01471
   D22        3.13433   0.00004   0.00188   0.00929   0.01119  -3.13766
   D23        0.26024   0.00012  -0.01334  -0.01392  -0.02727   0.23297
   D24       -1.75874  -0.00043  -0.00972  -0.02547  -0.03516  -1.79391
   D25        2.44560  -0.00001  -0.00907  -0.01739  -0.02648   2.41912
   D26       -2.84977  -0.00019  -0.01144  -0.03883  -0.05028  -2.90005
   D27        1.41443  -0.00074  -0.00782  -0.05038  -0.05817   1.35626
   D28       -0.66441  -0.00032  -0.00718  -0.04230  -0.04948  -0.71390
   D29       -0.26088  -0.00010   0.01218   0.01780   0.02999  -0.23089
   D30       -2.45250   0.00022   0.01005   0.02514   0.03520  -2.41730
   D31        1.78034  -0.00011   0.01416   0.01820   0.03234   1.81268
   D32        1.76562   0.00012   0.01108   0.02565   0.03672   1.80234
   D33       -0.42600   0.00044   0.00895   0.03298   0.04193  -0.38407
   D34       -2.47634   0.00011   0.01306   0.02604   0.03907  -2.43727
   D35       -2.42290   0.00001   0.00521   0.02270   0.02795  -2.39495
   D36        1.66867   0.00033   0.00309   0.03004   0.03316   1.70183
   D37       -0.38167   0.00000   0.00719   0.02310   0.03030  -0.35137
   D38       -1.06778  -0.00023  -0.00747  -0.02023  -0.02764  -1.09541
   D39        1.02902  -0.00059  -0.00535  -0.02585  -0.03127   0.99774
   D40        3.14133   0.00001  -0.00778  -0.01485  -0.02263   3.11870
         Item               Value     Threshold  Converged?
 Maximum Force            0.001135     0.000450     NO 
 RMS     Force            0.000361     0.000300     NO 
 Maximum Displacement     0.094540     0.001800     NO 
 RMS     Displacement     0.026596     0.001200     NO 
 Predicted change in Energy=-1.463284D-04
 GradGradGradGradGradGradGradGradGradGradGradGradGradGradGradGradGradGrad

[...]
   yx        -0.109131D+02     -0.161716D+01     -0.179933D+01
   yy         0.872790D+02      0.129334D+02      0.143904D+02
   zx        -0.109647D+01     -0.162480D+00     -0.180784D+00
   zy         0.158500D+02      0.234873D+01      0.261332D+01
   zz         0.831747D+02      0.123252D+02      0.137137D+02

 ----------------------------------------------------------------------
 1\1\GINC-LEWIS4-R630-HPC4-NODE303\Freq\RB3LYP\6-31G(2df,p)\C6H9N1O1\KS
 29C\03-Jul-2022\0\\#N Geom=AllCheck Guess=TCheck SCRF=Check GenChk RB3
 LYP/6-31G(2df,p) Freq\\Title Card Required\\0,1\C,0.9494464423,-0.0239
 847326,0.1632820382\C,2.4382130846,-0.0717052254,0.0772481914\C,3.2370
 321262,-1.1484280425,0.0268007047\C,4.6569172255,-0.776807211,-0.05250
 41557\N,5.6974913581,-1.5128613122,-0.071508974\C,4.7134197184,0.74513
 42726,-0.1025628451\C,3.2456241719,1.2185121916,0.017109398\O,2.806530
 0336,2.0799739911,-1.0296094275\H,0.4986878004,-1.0158582589,0.0821999
 317\H,0.5461418526,0.6205341921,-0.6250784425\H,0.6333222121,0.4219368
 32,1.1154060872\H,2.905541309,-2.1819380374,0.0502825196\H,5.435538169
 6,-2.5010376354,-0.0177910493\H,5.1472676643,1.0862994888,-1.047993630
 9\H,5.3540760424,1.1334778763,0.6930913123\H,3.0853739731,1.8092925597
 ,0.9268809518\H,2.9445968158,1.6160190511,-1.8636126101\\Version=ES64L
 -G16RevA.03\State=1-A\HF=-364.0287778\RMSD=3.933e-09\RMSF=1.107e-05\Ze
 roPoint=0.1423431\Thermal=0.1503948\Dipole=-0.9810266,-0.2807795,-0.03
 80245\DipoleDeriv=-0.0909259,0.0342375,0.0010042,0.0825346,0.0227895,0
 .0160212,0.0366525,-0.014681,0.0756192,0.4129513,-0.1862001,-0.0461817
 ,-0.2026502,0.0829397,0.0493826,-0.0741357,0.0452281,-0.1163801,-0.537
 0985,0.1739418,0.0360256,0.1098876,0.0061608,0.0045099,0.0346018,-0.01
 18892,-0.1007028,0.9203806,-0.340918,-0.0382693,-0.0578695,0.5464922,-
 0.0307134,-0.0434797,-0.004995,0.0944287,-0.8689461,0.4919936,-0.00213
 66,0.2140721,-0.4141805,-0.0045986,0.0093752,-0.0256051,-0.4656414,-0.
 0713288,0.0137503,-0.0073847,0.0385004,-0.205885,0.0408624,0.0394809,0
 .0166727,0.0867268,0.2711523,-0.0605749,0.089278,-0.1447586,0.588918,-
 0.191704,0.1477019,-0.2640278,0.549529,-0.5096009,0.0142465,-0.0971441
 ,0.0848545,-0.6498702,0.2883554,-0.1705015,0.3912006,-0.5275706,-0.028
 0532,-0.0319888,0.0063076,-0.1010074,-0.0852073,-0.0100043,-0.0075621,
 -0.0119749,0.0692074,-0.0004522,0.0464737,-0.0151399,0.027297,0.041111
 8,0.0638462,-0.0675852,0.0679153,-0.0068407,-0.034285,0.035425,0.02114
 95,0.0040476,0.0470103,-0.0738235,0.0712998,-0.0733944,-0.0544347,0.01
 16381,-0.0404162,0.0037934,-0.0562954,-0.0850932,0.00923,0.0035226,0.0
 060263,0.1278924,0.2275865,-0.2070029,0.0089942,-0.0557405,-0.0430932,
 0.0156183,0.0010953,0.0210183,0.2213133,0.0279719,0.0013958,0.0227744,
 -0.0085355,0.0141004,0.0377858,0.0519948,0.0579659,-0.0556067,-0.01843
 49,-0.0118778,-0.0493571,-0.0192463,0.0149482,-0.0286351,-0.0807639,-0
 .0517566,-0.0072871,0.0187271,0.0248633,0.0295552,0.0575914,-0.0893891
 ,-0.0600686,0.0135397,-0.0441172,-0.0847371,0.2687178,0.0426511,0.0367
 314,0.027318,0.2082476,-0.1260641,0.0347638,-0.103586,0.1944844\Polar=
 92.1245241,-15.0539976,81.7672124,-1.7346144,-1.5112259,50.336075\Quad
 rupole=-3.7469416,0.4012985,3.3456431,3.6349294,-0.369021,0.5526587\PG
 =C01 [X(C6H9N1O1)]\NImag=0\\0.48877937,0.01919385,0.57856701,0.0053502
 3,-0.00148540,0.52154391,-0.22308866,-0.00445975,0.00674948,0.68425448
 ,0.00560516,-0.08796089,0.00001805,-0.16048182,0.64479247,0.00831218,0
 .00037483,-0.07629962,-0.02524377,0.00943229,0.19707034,-0.02143558,0.
 03085990,0.00284960,-0.23604291,0.17643492,0.01102655,0.58091069,0.000
 45931,0.00391164,-0.00084114,0.18832392,-0.36865587,-0.01095945,-0.060
 42901,0.84717085,0.00193724,-0.00265629,0.01071283,0.01116752,-0.01017
 036,-0.05657042,-0.02700485,0.00061632,0.12236115,0.00317329,-0.002255
 73,0.00005440,-0.05270913,0.03306195,0.00349583,-0.18291602,-0.0544734
 1,0.00604301,0.75600687,0.00088260,-0.00681565,-0.00083362,0.02626296,
 0.00558249,-0.00110293,-0.05298119,-0.11709504,0.00496113,-0.20570607,
 0.65261084,0.00047179,-0.00040327,0.01438959,0.00304540,-0.00107593,0.
 00355766,0.00658505,0.00408170,-0.07334334,-0.01719853,-0.00629129,0.1
 9489238,-0.00120006,0.00336715,0.00016317,0.00023666,-0.01365318,-0.00
 046853,-0.05278151,0.03649370,0.00312728,-0.42243203,0.20469693,0.0084
 0681,0.53398004,0.00053273,0.00103391,-0.00002359,-0.00564026,0.003796
 70,0.00066995,0.01144689,0.00806917,0.00005541,0.26011054,-0.28583699,
 -0.00327403,-0.17243959,0.67462117,-0.00035705,0.00010903,-0.00501281,
 0.00026397,0.00155767,0.00286522,0.00478388,-0.00110482,0.03297807,0.0
 0529261,-0.00182277,-0.05706070,-0.01535723,-0.01720139,0.06210812,0.0
 0025751,-0.00232738,0.00025286,-0.03249446,-0.00785379,0.00546052,-0.0
 0994697,-0.02707040,0.00243688,-0.08124881,-0.01364987,0.00097910,0.00
 330533,0.03344056,-0.00163863,0.50976324,-0.00100538,-0.00462037,-0.00
 013315,-0.02017765,0.00495058,0.00337946,-0.01313945,-0.02258309,0.001
 09410,-0.02206324,-0.16891994,0.00361841,0.01346089,-0.02960508,0.0010
 1856,0.06993167,0.45264317,0.00028843,0.00045092,0.00170421,-0.0001008
 0,-0.00202004,0.00172286,0.00081940,0.00201121,0.00888887,0.00129392,0
 .00359585,-0.07644015,-0.00101722,-0.00061126,-0.00509588,0.01262516,-
 0.00647872,0.56891250,-0.01616749,-0.02736731,-0.00000257,-0.11422603,
 -0.04668195,-0.00080703,0.00957433,0.00662975,0.00019314,-0.00172637,0
 .02607540,-0.00040188,-0.00012717,-0.00561897,0.00014865,-0.15280303,0
 .01791911,0.01725377,0.44013147,-0.00395293,0.00568612,0.00028712,-0.0
 3946988,-0.13383363,-0.01507057,-0.00257081,-0.04088237,0.00029722,0.0
 2968722,-0.01448462,-0.00476658,-0.00197115,-0.00710759,0.00041226,0.0
 1646109,-0.08123797,-0.00917642,-0.03463970,0.51057371,0.00251188,0.00
 139596,0.00219285,0.00152473,-0.00750889,-0.07422006,-0.00181726,-0.00
 162127,0.00642901,-0.00171304,0.00037459,-0.01091835,0.00146371,-0.000
 66488,0.00245976,0.01235347,-0.00654289,-0.08312001,-0.02415232,0.0791
 5368,0.54454630,-0.00090959,0.00062586,-0.00078877,0.00793637,-0.00326
 215,0.00855357,0.00066300,-0.00125215,-0.00057385,-0.00782934,-0.00560
 155,-0.00164694,0.00072921,0.00372461,-0.00039327,-0.00948844,0.025369
 97,-0.02666546,-0.07670198,0.03404961,-0.01423659,0.09862670,0.0013027
 4,0.00092640,-0.00070336,0.01148642,-0.03149860,0.03396197,-0.00491861
 ,-0.00147298,0.00092176,0.00051303,-0.00126512,0.00290100,0.00139907,-
 0.00052024,-0.00051902,0.00937251,-0.00795476,0.01435929,0.03331278,-0
 .12442589,0.03238407,-0.10301628,0.31424647,-0.00149762,0.00042440,0.0
 0057668,-0.00306200,0.01708647,-0.00980271,0.00314023,0.00073019,0.000
 46490,-0.00118448,-0.00253733,-0.00071484,-0.00097899,0.00120888,0.000
 06764,-0.00544581,0.00763312,-0.00424459,-0.03664136,0.07095484,-0.156
 10955,-0.01113665,0.10216223,0.57860496,-0.08996633,-0.09604414,-0.008
 40607,-0.01462245,-0.03383821,-0.00253111,0.00266466,-0.00062972,0.000
 05451,-0.00003661,-0.00050238,0.00016121,0.00010543,0.00025791,-0.0000
 6251,-0.00050891,-0.00141619,0.00018161,-0.00502794,0.00373862,-0.0001
 5926,0.00087404,-0.00004645,0.00036334,0.09962831,-0.09885949,-0.27086
 787,-0.01808116,0.00145590,0.00274099,0.00046785,0.00075664,0.00112076
 ,0.00013781,-0.00020351,0.00014521,0.00010332,-0.00013189,0.00004384,-
 0.00002051,0.00030533,0.00003651,0.00001725,0.00113452,0.00055883,0.00
 013881,-0.00053639,0.00007935,-0.00021906,0.10764633,0.29181348,-0.009
 07966,-0.01860365,-0.04816107,0.00128637,0.00191898,-0.00116129,-0.000
 29001,0.00013575,-0.00055363,0.00006209,0.00013740,-0.00025046,-0.0000
 3667,-0.00002174,0.00008901,0.00007325,-0.00005267,0.00028077,0.000089
 11,0.00066349,0.00082000,0.00070606,-0.00035727,0.00054995,0.00844138,
 0.02049400,0.04681279,-0.07843561,0.05379778,-0.07046552,-0.01503956,0
 .02230094,-0.02538696,-0.00406841,-0.00266400,0.00097296,0.00068834,0.
 00180701,0.00258746,-0.00089020,-0.00049294,-0.00091435,0.00011235,0.0
 0003532,0.00033348,0.00007918,0.00174771,-0.00146756,0.00215329,-0.000
 45106,0.00152646,0.00458598,-0.00696213,0.01064922,0.08823814,0.052238
 33,-0.13651466,0.11284333,0.00571022,-0.00165761,-0.00073724,-0.000569
 20,0.00119540,0.00042543,0.00072191,0.00018719,-0.00025464,-0.00018098
 ,0.00005844,-0.00001097,0.00020772,0.00010228,0.00022406,-0.00023500,-
 0.00048891,-0.00005326,-0.00061541,-0.00051512,-0.00012766,0.01095761,
 -0.01526786,0.02097225,-0.06291564,0.14527883,-0.06984799,0.11199100,-
 0.18036836,0.00036607,-0.00293648,0.00354055,0.00079315,-0.00040520,-0
 .00041776,0.00019246,0.00009242,-0.00059840,0.00000140,-0.00005862,0.0
 0024704,-0.00012134,-0.00019776,-0.00004836,-0.00063326,0.00107447,-0.
 00034083,0.00115465,-0.00009402,-0.00004371,0.00249692,-0.00315857,0.0
 0265176,0.07557938,-0.12347344,0.19723196,-0.06340503,0.02668595,0.064
 42350,-0.01274829,0.01619288,0.03094713,-0.00313550,-0.00219537,-0.000
 65343,0.00021155,0.00167961,-0.00294242,-0.00071334,-0.00041318,0.0010
 4563,-0.00004165,0.00015233,-0.00053956,0.00100490,0.00082546,-0.00014
 934,0.00023821,-0.00009753,-0.00013548,0.00330059,-0.00429867,-0.01199
 255,0.00330393,-0.00523588,-0.01022312,0.07208155,0.02424371,-0.086055
 11,-0.09150703,0.00475509,-0.00269158,-0.00052229,0.00001576,0.0013547
 8,0.00006387,0.00050110,0.00002781,0.00046798,-0.00003973,0.00004565,-
 0.00021200,0.00002281,-0.00000610,-0.00006780,-0.00013095,0.00016611,0
 .00029628,-0.00012133,-0.00017076,-0.00028716,0.00858018,-0.01091234,-
 0.02566390,-0.00553009,0.00749715,0.01699840,-0.03231052,0.09052271,0.
 06168189,-0.09190293,-0.23736205,0.00239691,-0.00056151,0.00086458,-0.
 00084219,0.00121892,-0.00031120,0.00004304,-0.00023588,-0.00027268,0.0
 0005325,0.00014891,0.00008244,0.00006380,0.00003249,0.00019765,0.00010
 324,-0.00043118,0.00003024,0.00025410,0.00043445,0.00010828,-0.0002964
 9,0.00026616,-0.00134874,0.00631274,-0.01025156,-0.02191313,-0.0697108
 6,0.10088440,0.25959607,0.00196905,0.00020007,-0.00025075,0.00971417,0
 .02027202,-0.00051954,-0.08368022,-0.08322807,0.00276746,-0.00103387,-
 0.02754050,0.00041205,0.00205593,0.00042010,-0.00004619,-0.00456350,-0
 .00107848,0.00028306,-0.00376748,0.00192001,0.00156092,0.00073170,0.00
 075046,-0.00065145,-0.00023050,-0.00056243,-0.00004309,-0.00002293,-0.
 00014907,0.00000393,0.00000862,-0.00013932,-0.00001388,0.07841571,-0.0
 0109531,0.00089562,0.00002920,-0.01277314,-0.01647793,0.00079898,-0.08
 016215,-0.30826658,0.00571577,0.00454257,-0.00349391,-0.00017980,-0.00
 107100,0.00189062,-0.00001918,0.00019596,0.00014148,-0.00000813,0.0020
 5306,-0.00078692,-0.00091594,0.00014974,-0.00117714,0.00101214,0.00096
 715,0.00029352,0.00000906,-0.00001672,0.00013475,0.00003887,0.00002513
 ,0.00009372,0.00002583,0.08865145,0.32763768,-0.00034400,0.00031304,-0
 .00515581,-0.00074603,-0.00186026,0.00340865,0.00269389,0.00604345,-0.
 03857556,-0.00021261,0.00073823,0.00075626,-0.00007107,-0.00002972,-0.
 00128253,-0.00040652,0.00088856,0.00382384,0.00211475,0.00214927,0.011
 73059,-0.00061605,-0.00346703,0.00061759,-0.00009130,-0.00007983,0.000
 12930,-0.00064008,0.00023075,0.00029631,0.00069362,-0.00045960,0.00010
 692,-0.00347572,-0.00633172,0.02523913,0.00005353,-0.00028290,0.000083
 74,0.00002183,-0.00005114,-0.00002995,0.00228536,0.00263024,-0.0007051
 6,-0.00565905,0.04757549,-0.00163248,-0.06252711,-0.12914032,0.0069908
 6,-0.00150655,0.00035134,0.00049265,-0.00008747,0.00103630,-0.00018332
 ,-0.00003991,-0.00028811,0.00034927,-0.00005601,0.00002812,0.00000189,
 0.00012790,-0.00003512,0.00000580,0.00008317,-0.00002264,-0.00003863,0
 .,-0.00088035,0.00004997,0.06772754,0.00001613,0.00040101,0.00017650,-
 0.00015252,-0.00057796,-0.00010439,-0.00195097,0.00531787,-0.00066213,
 -0.01378978,-0.03582550,0.00201200,-0.06944715,-0.36942387,0.01750350,
 0.00651196,0.00116561,0.00007902,-0.00216752,-0.00141100,0.00010706,0.
 00115676,-0.00004734,0.00038709,0.00005085,-0.00000013,-0.00001217,-0.
 00012061,-0.00004791,-0.00003357,-0.00014923,-0.00001143,0.00003569,0.
 00182910,-0.00002207,0.00001557,0.07852078,0.39977252,0.00027451,-0.00
 018891,0.00156072,0.00004137,-0.00100521,-0.00017607,-0.00149347,-0.00
 060079,-0.01204494,0.00186290,0.00023263,0.00126800,0.00426501,0.02044
 501,-0.03401830,0.00002633,-0.00035963,0.01370215,0.00025887,0.0007951
 7,0.00132763,0.00061408,-0.00012659,-0.00010045,0.00000932,0.00001131,
 -0.00003140,0.00033075,0.00004179,-0.00009649,-0.00029085,0.00015240,-
 0.00000084,-0.00011773,0.00003053,0.00025209,-0.00536902,-0.01936200,0
 .02860798,-0.00035334,-0.00110965,-0.00061080,-0.00262973,0.00185250,0
 .00008066,-0.00016777,-0.00030984,-0.00004076,-0.00118377,-0.00172447,
 -0.00108105,0.00023927,0.00139520,0.00071714,-0.08243528,-0.03048669,0
 .08948794,-0.01281983,-0.00875240,0.02650397,0.00502551,-0.00128389,0.
 00019381,-0.00041717,0.00001735,-0.00007083,-0.00012339,-0.00002455,0.
 00001088,0.00022336,0.00000469,-0.00006116,-0.00004815,-0.00012997,0.0
 0002390,-0.00015384,-0.00021587,0.00002868,0.09154200,0.00000788,0.000
 35487,0.00033622,0.00062985,-0.00136991,-0.00006848,-0.00038202,-0.003
 09887,-0.00098632,-0.01221778,-0.01095216,0.02926306,-0.00051073,0.001
 39757,0.00017080,-0.03210883,-0.06647091,0.07390478,0.00585628,0.00181
 183,-0.01031644,-0.00123520,0.00078761,-0.00082319,0.00011181,0.000069
 94,0.00001736,-0.00002266,-0.00001632,0.00000655,-0.00013181,0.0000231
 4,0.00004853,-0.00089418,-0.00020594,-0.00090525,0.00010858,0.00015263
 ,-0.00251125,0.03471954,0.07317192,-0.00001047,-0.00002305,-0.00009202
 ,-0.00037908,-0.00060942,-0.00007017,-0.00039518,-0.00001057,-0.000163
 74,-0.00076384,-0.00072174,0.00167188,0.00002073,0.00008010,0.00096471
 ,0.09075479,0.07066763,-0.24308675,-0.00098486,0.00058149,-0.00378821,
 -0.00193890,0.00031785,0.00259394,0.00000827,-0.00001794,0.00003353,0.
 00004911,0.00002914,0.00000876,-0.00001548,0.00001448,0.00000621,-0.00
 004385,-0.00001725,-0.00024560,-0.00009786,0.00014764,-0.00002326,-0.0
 9739502,-0.07794916,0.26277004,-0.00008094,-0.00113500,0.00044129,-0.0
 0357627,0.00081584,0.00070264,-0.00044359,-0.00036489,-0.00012583,-0.0
 0069136,-0.00165323,0.00130337,0.00014061,0.00140336,-0.00065934,-0.13
 412998,-0.05323518,-0.11500491,-0.01228227,-0.01187030,-0.02015254,-0.
 00288039,0.00210476,-0.00093864,-0.00037071,0.00001639,0.00007191,0.00
 019560,0.00012247,-0.00003043,-0.00009265,0.00001621,0.00003132,0.0000
 0683,-0.00008753,-0.00005527,-0.00012309,-0.00026348,0.00017686,0.0077
 1519,0.00443892,0.00972758,0.14554238,-0.00006864,0.00047395,-0.000264
 55,0.00110524,-0.00109868,-0.00055726,-0.00019582,-0.00349498,0.001041
 28,-0.01869443,-0.01277033,-0.02523184,-0.00024140,0.00174727,-0.00004
 239,-0.05416886,-0.07679451,-0.07242136,0.00583985,0.00454615,0.009513
 38,0.00246608,-0.00174337,0.00038235,0.00012053,0.00004263,-0.00001649
 ,-0.00015031,-0.00005200,0.00002978,-0.00002666,-0.00001555,0.00000830
 ,-0.00096456,-0.00009778,0.00098692,0.00042924,0.00050636,0.00227633,0
 .00586372,0.00420863,0.00765468,0.05923547,0.08397204,0.00011010,0.000
 27666,-0.00019640,0.00150495,-0.00001286,0.00013143,0.00017900,0.00036
 714,-0.00024331,0.00160462,0.00232866,0.00206209,0.00031357,-0.0001245
 1,0.00091932,-0.11633363,-0.07116539,-0.18969708,0.00502272,0.00191054
 ,0.00272039,-0.00083144,0.00052758,0.00068074,0.00008421,-0.00000443,-
 0.00001814,-0.00002111,-0.00000397,-0.00000675,0.00001849,-0.00000221,
 -0.00000509,0.00012956,0.00004091,-0.00009759,0.00014730,-0.00010100,-
 0.00005446,-0.01664869,-0.01064492,-0.02144444,0.12405589,0.07650914,0
 .20366616,0.00097287,0.00050176,-0.00000751,0.00399046,-0.01105214,-0.
 01492734,-0.00116088,-0.00168906,0.00044647,-0.00382409,-0.00129145,0.
 00104849,0.00024802,0.00174427,0.00009437,-0.00584918,0.01624418,0.021
 95801,-0.05528433,0.01928364,0.03338848,0.00250739,-0.00236403,-0.0128
 3478,0.00011511,0.00012817,0.00028252,0.00001564,-0.00001490,-0.000088
 29,-0.00023514,0.00002283,0.00026781,0.00065862,-0.00040146,0.00113612
 ,-0.00017485,0.00037685,-0.00063849,-0.00269918,0.00171664,0.00089904,
 0.00129315,-0.00028143,-0.00001465,0.05916748,0.00084806,0.00072174,0.
 00017086,0.00384143,-0.01809093,-0.02150725,-0.00260154,-0.00193089,-0
 .00012323,-0.00056854,-0.00161031,-0.00135065,0.00067060,-0.00003830,0
 .00017805,0.00090436,-0.00074137,-0.00440549,0.01994533,-0.12602890,-0
 .12557866,-0.00083711,0.01033514,0.02543736,0.00007770,0.00008183,0.00
 042219,-0.00013870,0.00004017,0.00001947,-0.00081555,0.00011527,0.0003
 6711,0.00057827,-0.00057826,0.00191425,-0.00004099,0.00016608,0.000158
 37,0.00035627,-0.00043997,0.00021269,0.00033988,0.00055779,0.00023464,
 -0.02396318,0.13866151,-0.00008935,-0.00012996,0.00007307,0.00031870,-
 0.00208965,0.00328015,-0.00092748,0.00032515,0.00019031,0.00126777,0.0
 0064543,0.00031681,-0.00033287,-0.00020231,-0.00019517,-0.00091478,-0.
 00228578,0.00008520,0.03312314,-0.11211175,-0.20963775,-0.00075162,-0.
 00662980,-0.03769201,-0.00018963,0.00001769,0.00009300,0.00010308,0.00
 001504,-0.00004823,-0.00038868,-0.00010847,0.00013920,-0.00002670,-0.0
 0007154,-0.00056011,0.00001308,-0.00011046,-0.00004643,-0.00001087,0.0
 0004653,0.00042821,-0.00001784,0.00042297,0.00123102,-0.02884639,0.118
 56336,0.24568431,-0.00016298,-0.00025047,0.00016371,0.00102354,0.00033
 816,0.00133515,-0.00031869,-0.00023099,-0.00004260,0.00121040,0.001670
 70,-0.00009744,-0.00036908,-0.00073091,0.00009148,0.00157832,-0.000862
 54,-0.00168947,0.00023151,-0.00552248,-0.01527591,-0.02163578,0.052224
 19,0.06893414,-0.00003750,0.00006574,-0.00015099,-0.00092026,0.0000174
 7,0.00033979,-0.00008426,0.00013221,-0.00024489,-0.00021397,0.00003256
 ,-0.00005361,0.00002857,-0.00020531,0.00002089,-0.00171388,-0.00008630
 ,0.00056503,-0.00022250,-0.00026802,0.00067913,0.00025891,0.00140371,-
 0.00232956,0.02134764,-0.00034875,-0.00013770,0.00001171,-0.00041602,0
 .00205037,0.00154455,0.00038666,-0.00065982,-0.00073180,0.00083416,0.0
 0051605,0.00038058,-0.00040153,-0.00017228,0.00000317,-0.00017485,-0.0
 0010551,0.00054682,-0.00192470,0.00734504,0.02983841,0.04893495,-0.155
 58364,-0.22342467,-0.00003161,0.00002132,-0.00004258,-0.00022389,0.000
 06619,0.00010671,0.00011304,0.00001655,-0.00008771,-0.00006488,0.00001
 915,-0.00014664,0.00006147,-0.00011487,0.00001084,-0.00017194,0.000575
 93,-0.00035657,0.00011631,0.00001239,-0.00013598,0.00103930,-0.0012205
 9,0.00370355,-0.04772770,0.14737142,0.00028789,0.00005762,-0.00010574,
 0.00086620,-0.00016283,0.00185888,-0.00010029,0.00001342,0.00019874,-0
 .00014015,0.00043923,0.00068426,0.00044766,-0.00039619,-0.00011596,-0.
 00016544,-0.00111634,0.00241475,0.00531589,-0.01672305,-0.03412201,0.0
 4829708,-0.17607312,-0.37555683,-0.00006439,-0.00007272,0.00006462,0.0
 0045092,0.00013094,-0.00009437,-0.00008660,-0.00004734,0.00008212,0.00
 003192,-0.00015772,-0.00044348,-0.00007812,-0.00007836,-0.00012592,-0.
 00112779,0.00041118,0.00043692,0.00047394,-0.00029122,0.00035211,-0.00
 216385,0.00528691,-0.00334159,-0.05224485,0.18877959,0.40781350\\0.000
 00504,0.00002484,-0.00000099,-0.00001142,-0.00004292,0.00000283,-0.000
 00043,-0.00000128,0.00000351,-0.00000913,0.00001739,0.00000454,0.00001
 256,-0.00001219,-0.00000473,-0.00001492,0.00000729,-0.00001703,0.00001
 042,0.00003487,-0.00002029,0.00000966,-0.00000445,0.00001035,-0.000006
 13,0.00000046,0.00000230,0.00000193,-0.00000151,0.00000042,0.00000065,
 -0.00000261,0.00000288,0.00000578,0.00000305,0.00000191,-0.00000021,-0
 .00000224,0.00000147,0.00000402,-0.00000649,0.00000470,0.00000117,-0.0
 0000351,0.00000383,-0.00000376,-0.00000784,0.00000386,-0.00000524,-0.0
 0000287,0.00000043\\\@


 Just remember, when you're over the hill, you begin to pick up speed.
 -- Charles Schulz
 Job cpu time:       0 days  1 hours 21 minutes 20.2 seconds.
 Elapsed time:       0 days  0 hours 20 minutes 20.8 seconds.
 File lengths (MBytes):  RWF=     99 Int=      0 D2E=      0 Chk=      7 Scr=      1
 Normal termination of Gaussian 16 at Sun Jul  3 15:15:23 2022.
### All Done ###
