### Starting Gaussian ###
 Entering Gaussian System, Link 0=g16
 Initial command:
 /cluster/software/gaussian/gaussian-16-A.03/avx2/g16/l1.exe "/local/scratch/ks29c/Gau-26249.inp" -scrdir="/local/scratch/ks29c/"
 Entering Link 1 = /cluster/software/gaussian/gaussian-16-A.03/avx2/g16/l1.exe PID=     26250.
  
 Copyright (c) 1988,1990,1992,1993,1995,1998,2003,2009,2016,
            Gaussian, Inc.  All Rights Reserved.
  
 This is part of the Gaussian(R) 16 program.  It is based on
 the Gaussian(R) 09 system (copyright 2009, Gaussian, Inc.),
 the Gaussian(R) 03 system (copyright 2003, Gaussian, Inc.),
 the Gaussian(R) 98 system (copyright 1998, Gaussian, Inc.),
 the Gaussian(R) 94 system (copyright 1995, Gaussian, Inc.),
 the Gaussian 92(TM) system (copyright 1992, Gaussian, Inc.),
 the Gaussian 90(TM) system (copyright 1990, Gaussian, Inc.),
 the Gaussian 88(TM) system (copyright 1988, Gaussian, Inc.),
 the Gaussian 86(TM) system (copyright 1986, Carnegie Mellon
 University), and the Gaussian 82(TM) system (copyright 1983,
 Carnegie Mellon University). Gaussian is a federally registered
 trademark of Gaussian, Inc.
  
 This software contains proprietary and confidential information,
 including trade secrets, belonging to Gaussian, Inc.
  
 This software is provided under written license and may be
 used, copied, transmitted, or stored only in accord with that
 written license.
  
 The following legend is applicable only to US Government
 contracts under FAR:
  
                    RESTRICTED RIGHTS LEGEND
  
 Use, reproduction and disclosure by the US Government is
 subject to restrictions as set forth in subparagraphs (a)
 and (c) of the Commercial Computer Software - Restricted
 Rights clause in FAR 52.227-19.
  
 Gaussian, Inc.
 340 Quinnipiac St., Bldg. 40, Wallingford CT 06492
  
  
 ---------------------------------------------------------------
 Warning -- This program may not be used in any manner that
 competes with the business of Gaussian, Inc. or will provide
 assistance to any competitor of Gaussian, Inc.  The licensee
 of this program is prohibited from giving any competitor of
 Gaussian, Inc. access to this program.  By using this program,
 the user acknowledges that Gaussian, Inc. is engaged in the
 business of creating and licensing software in the field of
 computational chemistry and represents and warrants to the
 licensee that it is not a competitor of Gaussian, Inc. and that
 it will not use this program in any manner prohibited above.
 ---------------------------------------------------------------
  

 Cite this work as:
 Gaussian 16, Revision A.03,
 M. J. Frisch, G. W. Trucks, H. B. Schlegel, G. E. Scuseria, 
 M. A. Robb, J. R. Cheeseman, G. Scalmani, V. Barone, 
 G. A. Petersson, H. Nakatsuji, X. Li, M. Caricato, A. V. Marenich, 
 J. Bloino, B. G. Janesko, R. Gomperts, B. Mennucci, H. P. Hratchian, 
 J. V. Ortiz, A. F. Izmaylov, J. L. Sonnenberg, D. Williams-Young, 
 F. Ding, F. Lipparini, F. Egidi, J. Goings, B. Peng, A. Petrone, 
 T. Henderson, D. Ranasinghe, V. G. Zakrzewski, J. Gao, N. Rega, 
 G. Zheng, W. Liang, M. Hada, M. Ehara, K. Toyota, R. Fukuda, 
 J. Hasegawa, M. Ishida, T. Nakajima, Y. Honda, O. Kitao, H. Nakai, 
 T. Vreven, K. Throssell, J. A. Montgomery, Jr., J. E. Peralta, 
 F. Ogliaro, M. J. Bearpark, J. J. Heyd, E. N. Brothers, K. N. Kudin, 
 V. N. Staroverov, T. A. Keith, R. Kobayashi, J. Normand, 
 K. Raghavachari, A. P. Rendell, J. C. Burant, S. S. Iyengar, 
 J. Tomasi, M. Cossi, J. M. Millam, M. Klene, C. Adamo, R. Cammi, 
 J. W. Ochterski, R. L. Martin, K. Morokuma, O. Farkas, 
 J. B. Foresman, and D. J. Fox, Gaussian, Inc., Wallingford CT, 2016.
 
 ******************************************
 Gaussian 16:  ES64L-G16RevA.03 25-Dec-2016
                 3-Jul-2022 
 ******************************************
 %chk=CC1dCCpNpN2CC12N.chk
 %NProcShared=20
 Will use up to   20 processors via shared memory.
 -----------------------------
 # opt freq b3lyp/6-31g(2df,p)
 -----------------------------
 1/18=20,19=15,26=3,38=1/1,3;
 2/9=110,12=2,17=6,18=5,40=1/2;
 3/5=1,6=6,7=104,11=2,25=1,30=1,71=1,74=-5/1,2,3;
 4//1;
 5/5=2,38=5/2;
 6/7=2,8=2,9=2,10=2,28=1/1;
 7//1,2,3,16;
 1/18=20,19=15,26=3/3(2);
 2/9=110/2;
 99//99;
 2/9=110/2;
 3/5=1,6=6,7=104,11=2,25=1,30=1,71=1,74=-5/1,2,3;
 4/5=5,16=3,69=1/1;
 5/5=2,38=5/2;
 7//1,2,3,16;
 1/18=20,19=15,26=3/3(-5);
 2/9=110/2;
 6/7=2,8=2,9=2,10=2,19=2,28=1/1;
 99/9=1/99;
 -------------------
 Title Card Required
 -------------------
 Symbolic Z-matrix:
 Charge =  0 Multiplicity = 1
 C                     0.99044   0.1612    0.09208 
 C                     2.47431   0.24      0.17457 
 C                     3.12131   1.42591   0.11518 
 C                     4.57206   1.19285   0.0268 
 N                     5.0829    1.9803   -1.07917 
 N                     4.71166  -0.17061  -0.48464 
 C                     4.75669  -1.37468   0.13216 
 C                     3.33344  -0.94316   0.1802 
 N                     2.65715  -2.22677  -0.0443 
 H                     0.52807   1.15123   0.07429 
 H                     0.61144  -0.38001   0.96297 
 H                     0.66658  -0.36125  -0.8188 
 H                     2.64997   2.38674   0.04888 
 H                     5.05574   1.51516   0.96467 
 H                     4.80248   1.42083  -1.88925 
 H                     6.09409   1.87382  -1.07367 
 H                     5.22256  -1.76914   1.02186 
 H                     4.98077  -2.09697  -0.67466 
 H                     1.65306  -2.11285  -0.14159 
 H                     2.72588  -2.76825   0.8263 
 

 GradGradGradGradGradGradGradGradGradGradGradGradGradGradGradGradGradGrad
 Berny optimization.
 Initialization pass.
                           ----------------------------
                           !    Initial Parameters    !
                           ! (Angstroms and Degrees)  !
 --------------------------                            --------------------------
 ! Name  Definition              Value          Derivative Info.                !
 --------------------------------------------------------------------------------
 ! R1    R(1,2)                  1.4882         estimate D2E/DX2                !
 ! R2    R(1,10)                 1.0928         estimate D2E/DX2                !
 ! R3    R(1,11)                 1.0932         estimate D2E/DX2                !
 ! R4    R(1,12)                 1.0989         estimate D2E/DX2                !
 ! R5    R(2,3)                  1.3522         estimate D2E/DX2                !
 ! R6    R(2,8)                  1.4622         estimate D2E/DX2                !
 ! R7    R(3,4)                  1.472          estimate D2E/DX2                !
 ! R8    R(3,13)                 1.0723         estimate D2E/DX2                !
 ! R9    R(4,5)                  1.4506         estimate D2E/DX2                !
 ! R10   R(4,6)                  1.4629         estimate D2E/DX2                !
 ! R11   R(4,14)                 1.1034         estimate D2E/DX2                !
 ! R12   R(5,15)                 1.0237         estimate D2E/DX2                !
 ! R13   R(5,16)                 1.0168         estimate D2E/DX2                !
 ! R14   R(6,7)                  1.3536         estimate D2E/DX2                !
 ! R15   R(6,8)                  1.7142         estimate D2E/DX2                !
 ! R16   R(7,8)                  1.488          estimate D2E/DX2                !
 ! R17   R(7,17)                 1.079          estimate D2E/DX2                !
 ! R18   R(7,18)                 1.1058         estimate D2E/DX2                !
 ! R19   R(8,9)                  1.4681         estimate D2E/DX2                !
 ! R20   R(9,19)                 1.0152         estimate D2E/DX2                !
 ! R21   R(9,20)                 1.0276         estimate D2E/DX2                !
 ! A1    A(2,1,10)             112.0111         estimate D2E/DX2                !
 ! A2    A(2,1,11)             109.1315         estimate D2E/DX2                !
 ! A3    A(2,1,12)             111.4057         estimate D2E/DX2                !
 ! A4    A(10,1,11)            108.3487         estimate D2E/DX2                !
 ! A5    A(10,1,12)            107.0094         estimate D2E/DX2                !
 ! A6    A(11,1,12)            108.833          estimate D2E/DX2                !
 ! A7    A(1,2,3)              121.4036         estimate D2E/DX2                !
 ! A8    A(1,2,8)              122.902          estimate D2E/DX2                !
 ! A9    A(3,2,8)              115.384          estimate D2E/DX2                !
 ! A10   A(2,3,4)              109.5934         estimate D2E/DX2                !
 ! A11   A(2,3,13)             125.3279         estimate D2E/DX2                !
 ! A12   A(4,3,13)             124.8471         estimate D2E/DX2                !
 ! A13   A(3,4,5)              107.8727         estimate D2E/DX2                !
 ! A14   A(3,4,6)              105.2247         estimate D2E/DX2                !
 ! A15   A(3,4,14)             109.5574         estimate D2E/DX2                !
 ! A16   A(5,4,6)              101.8759         estimate D2E/DX2                !
 ! A17   A(5,4,14)             109.5797         estimate D2E/DX2                !
 ! A18   A(6,4,14)             121.8429         estimate D2E/DX2                !
 ! A19   A(4,5,15)             102.1338         estimate D2E/DX2                !
 ! A20   A(4,5,16)             106.8129         estimate D2E/DX2                !
 ! A21   A(15,5,16)            102.6782         estimate D2E/DX2                !
 ! A22   A(4,6,7)              132.2935         estimate D2E/DX2                !
 ! A23   A(4,6,8)              101.9894         estimate D2E/DX2                !
 ! A24   A(6,7,17)             135.6675         estimate D2E/DX2                !
 ! A25   A(6,7,18)             104.7906         estimate D2E/DX2                !
 ! A26   A(8,7,17)             119.4969         estimate D2E/DX2                !
 ! A27   A(8,7,18)             114.0032         estimate D2E/DX2                !
 ! A28   A(17,7,18)            105.9819         estimate D2E/DX2                !
 ! A29   A(2,8,6)               96.0985         estimate D2E/DX2                !
 ! A30   A(2,8,7)              142.7998         estimate D2E/DX2                !
 ! A31   A(2,8,9)              115.8629         estimate D2E/DX2                !
 ! A32   A(6,8,9)              134.8378         estimate D2E/DX2                !
 ! A33   A(7,8,9)              100.4928         estimate D2E/DX2                !
 ! A34   A(8,9,19)             111.8481         estimate D2E/DX2                !
 ! A35   A(8,9,20)             107.4791         estimate D2E/DX2                !
 ! A36   A(19,9,20)            101.9163         estimate D2E/DX2                !
 ! D1    D(10,1,2,3)            -5.1788         estimate D2E/DX2                !
 ! D2    D(10,1,2,8)          -178.4832         estimate D2E/DX2                !
 ! D3    D(11,1,2,3)          -125.1545         estimate D2E/DX2                !
 ! D4    D(11,1,2,8)            61.541          estimate D2E/DX2                !
 ! D5    D(12,1,2,3)           114.6478         estimate D2E/DX2                !
 ! D6    D(12,1,2,8)           -58.6567         estimate D2E/DX2                !
 ! D7    D(1,2,3,4)           -171.9709         estimate D2E/DX2                !
 ! D8    D(1,2,3,13)             2.7075         estimate D2E/DX2                !
 ! D9    D(8,2,3,4)              1.8087         estimate D2E/DX2                !
 ! D10   D(8,2,3,13)           176.4871         estimate D2E/DX2                !
 ! D11   D(1,2,8,6)            153.3738         estimate D2E/DX2                !
 ! D12   D(1,2,8,7)            173.0057         estimate D2E/DX2                !
 ! D13   D(1,2,8,9)              6.2505         estimate D2E/DX2                !
 ! D14   D(3,2,8,6)            -20.3023         estimate D2E/DX2                !
 ! D15   D(3,2,8,7)             -0.6704         estimate D2E/DX2                !
 ! D16   D(3,2,8,9)           -167.4256         estimate D2E/DX2                !
 ! D17   D(2,3,4,5)            129.9003         estimate D2E/DX2                !
 ! D18   D(2,3,4,6)             21.7293         estimate D2E/DX2                !
 ! D19   D(2,3,4,14)          -110.8758         estimate D2E/DX2                !
 ! D20   D(13,3,4,5)           -44.8095         estimate D2E/DX2                !
 ! D21   D(13,3,4,6)          -152.9805         estimate D2E/DX2                !
 ! D22   D(13,3,4,14)           74.4144         estimate D2E/DX2                !
 ! D23   D(3,4,5,15)           -77.5596         estimate D2E/DX2                !
 ! D24   D(3,4,5,16)           175.014          estimate D2E/DX2                !
 ! D25   D(6,4,5,15)            32.9135         estimate D2E/DX2                !
 ! D26   D(6,4,5,16)           -74.5128         estimate D2E/DX2                !
 ! D27   D(14,4,5,15)          163.2307         estimate D2E/DX2                !
 ! D28   D(14,4,5,16)           55.8043         estimate D2E/DX2                !
 ! D29   D(3,4,6,7)            -87.5549         estimate D2E/DX2                !
 ! D30   D(3,4,6,8)            -32.1762         estimate D2E/DX2                !
 ! D31   D(5,4,6,7)            159.9716         estimate D2E/DX2                !
 ! D32   D(5,4,6,8)           -144.6497         estimate D2E/DX2                !
 ! D33   D(14,4,6,7)            37.7141         estimate D2E/DX2                !
 ! D34   D(14,4,6,8)            93.0929         estimate D2E/DX2                !
 ! D35   D(4,6,7,17)           -41.4111         estimate D2E/DX2                !
 ! D36   D(4,6,7,18)          -174.08           estimate D2E/DX2                !
 ! D37   D(4,6,8,2)             31.315          estimate D2E/DX2                !
 ! D38   D(4,6,8,9)            167.7763         estimate D2E/DX2                !
 ! D39   D(17,7,8,2)           107.7574         estimate D2E/DX2                !
 ! D40   D(17,7,8,9)           -84.3456         estimate D2E/DX2                !
 ! D41   D(18,7,8,2)          -125.5025         estimate D2E/DX2                !
 ! D42   D(18,7,8,9)            42.3945         estimate D2E/DX2                !
 ! D43   D(2,8,9,19)            -2.1185         estimate D2E/DX2                !
 ! D44   D(2,8,9,20)          -113.1871         estimate D2E/DX2                !
 ! D45   D(6,8,9,19)          -132.5496         estimate D2E/DX2                !
 ! D46   D(6,8,9,20)           116.3817         estimate D2E/DX2                !
 ! D47   D(7,8,9,19)          -174.0199         estimate D2E/DX2                !
 ! D48   D(7,8,9,20)            74.9115         estimate D2E/DX2                !
 --------------------------------------------------------------------------------
 Trust Radius=3.00D-01 FncErr=1.00D-07 GrdErr=1.00D-06 EigMax=2.50D+02 EigMin=1.00D-04
 Number of steps in this run=    115 maximum allowed number of steps=    120.
 GradGradGradGradGradGradGradGradGradGradGradGradGradGradGradGradGradGrad

                          Input orientation:                          
 ---------------------------------------------------------------------
 Center     Atomic      Atomic             Coordinates (Angstroms)
 Number     Number       Type             X           Y           Z
 ---------------------------------------------------------------------
      1          6           0        0.990440    0.161200    0.092080
      2          6           0        2.474310    0.240000    0.174570
      3          6           0        3.121310    1.425910    0.115180
      4          6           0        4.572060    1.192850    0.026800
      5          7           0        5.082900    1.980300   -1.079170
      6          7           0        4.711660   -0.170610   -0.484640
      7          6           0        4.756690   -1.374680    0.132160
      8          6           0        3.333440   -0.943160    0.180200
      9          7           0        2.657150   -2.226770   -0.044300
     10          1           0        0.528070    1.151230    0.074290
     11          1           0        0.611440   -0.380010    0.962970
     12          1           0        0.666580   -0.361250   -0.818800
     13          1           0        2.649970    2.386740    0.048880
     14          1           0        5.055740    1.515160    0.964670
     15          1           0        4.802480    1.420830   -1.889250
     16          1           0        6.094090    1.873820   -1.073670
     17          1           0        5.222560   -1.769140    1.021860
     18          1           0        4.980770   -2.096970   -0.674660
     19          1           0        1.653060   -2.112850   -0.141590
     20          1           0        2.725880   -2.768250    0.826300
 ---------------------------------------------------------------------
                    Distance matrix (angstroms):
                    1          2          3          4          5
     1  C    0.000000
     2  C    1.488249   0.000000
     3  C    2.478030   1.352227   0.000000
     4  C    3.727810   2.308747   1.472007   0.000000
     5  N    4.629166   3.377166   2.362553   1.450588   0.000000
     6  N    3.780236   2.368310   2.331925   1.462902   2.262233
     7  C    4.067576   2.796113   3.243156   2.576315   3.581846
     8  C    2.591722   1.462191   2.379437   2.473914   3.632250
     9  N    2.915291   2.483201   3.685505   3.919915   4.965346
    10  H    1.092823   2.151336   2.608067   4.044483   4.771195
    11  H    1.093160   2.115720   3.206173   4.363120   5.453013
    12  H    1.098882   2.148528   3.176784   4.287545   5.005450
    13  H    2.776497   2.157579   1.072265   2.262806   2.712349
    14  H    4.372789   2.985644   2.114620   1.103372   2.096276
    15  H    4.477051   3.327775   2.616123   1.943275   1.023656
    16  H    5.508111   4.162965   3.232864   1.997831   1.016796
    17  H    4.743579   3.508194   3.930097   3.191658   4.300248
    18  H    4.648651   3.530575   4.061049   3.388511   4.098559
    19  H    2.380120   2.512033   3.839858   4.413227   5.421876
    20  H    3.483175   3.088302   4.272357   4.442735   5.633390
                    6          7          8          9         10
     6  N    0.000000
     7  C    1.353608   0.000000
     8  C    1.714158   1.488005   0.000000
     9  N    2.939848   2.272722   1.468136   0.000000
    10  H    4.422905   4.925931   3.502540   3.994738   0.000000
    11  H    4.353301   4.343122   2.887759   2.934288   1.772399
    12  H    4.063333   4.319764   2.906676   2.835910   1.761928
    13  H    3.327950   4.312016   3.401854   4.614456   2.455522
    14  H    2.249602   3.022198   3.102426   4.557773   4.628717
    15  H    2.124584   3.450083   3.468307   4.616413   4.711555
    16  H    2.537275   3.714218   4.138690   5.448578   5.728920
    17  H    2.255185   1.078981   2.226973   2.815573   5.609339
    18  H    1.954326   1.105836   2.185351   2.411102   5.562218
    19  H    3.639370   3.201930   2.072535   1.015204   3.459252
    20  H    3.522729   2.558917   2.029169   1.027555   4.556118
                   11         12         13         14         15
    11  H    0.000000
    12  H    1.782722   0.000000
    13  H    3.556131   3.498307   0.000000
    14  H    4.831509   5.095724   2.717729   0.000000
    15  H    5.379870   4.628968   3.053298   2.866688   0.000000
    16  H    6.267942   5.875233   3.658575   2.315521   1.593307
    17  H    4.816179   5.111471   4.983598   3.289031   4.339002
    18  H    4.972004   4.652498   5.104879   3.967431   3.725847
    19  H    2.303858   2.121287   4.612637   5.095537   5.045796
    20  H    3.192683   3.569414   5.213834   4.878011   5.406928
                   16         17         18         19         20
    16  H    0.000000
    17  H    4.292082   0.000000
    18  H    4.143171   1.744739   0.000000
    19  H    6.040286   3.770024   3.370174   0.000000
    20  H    6.041816   2.696271   2.790704   1.586601   0.000000
 Stoichiometry    C6H11N3
 Framework group  C1[X(C6H11N3)]
 Deg. of freedom    54
 Full point group                 C1      NOp   1
 Largest Abelian subgroup         C1      NOp   1
 Largest concise Abelian subgroup C1      NOp   1
                         Standard orientation:                         
 ---------------------------------------------------------------------
 Center     Atomic      Atomic             Coordinates (Angstroms)
 Number     Number       Type             X           Y           Z
 ---------------------------------------------------------------------
      1          6           0       -1.745101    1.810394   -0.124893
      2          6           0       -0.634057    0.865369    0.170728
      3          6           0        0.633206    1.301733    0.350030
      4          6           0        1.544910    0.149119    0.434179
      5          7           0        2.643816    0.382794   -0.483430
      6          7           0        0.835361   -0.950478   -0.219662
      7          6           0       -0.046880   -1.867470    0.241892
      8          6           0       -0.799313   -0.587256    0.146736
      9          7           0       -2.099811   -1.076117   -0.327754
     10          1           0       -1.418708    2.852466   -0.082278
     11          1           0       -2.541199    1.668775    0.610749
     12          1           0       -2.156968    1.643386   -1.129888
     13          1           0        0.942742    2.328301    0.340092
     14          1           0        1.934463    0.060637    1.462697
     15          1           0        2.220022    0.159249   -1.388028
     16          1           0        3.303969   -0.379281   -0.351846
     17          1           0       -0.137450   -2.472116    1.130937
     18          1           0       -0.214288   -2.552056   -0.610275
     19          1           0       -2.732786   -0.313460   -0.547611
     20          1           0       -2.571959   -1.520627    0.469339
 ---------------------------------------------------------------------
 Rotational constants (GHZ):           2.5394066           1.5843553           1.0522402
 Standard basis: 6-31G(2df,p) (6D, 7F)
 There are   334 symmetry adapted cartesian basis functions of A   symmetry.
 There are   307 symmetry adapted basis functions of A   symmetry.
   307 basis functions,   473 primitive gaussians,   334 cartesian basis functions
    34 alpha electrons       34 beta electrons
       nuclear repulsion energy       466.8587164919 Hartrees.
 NAtoms=   20 NActive=   20 NUniq=   20 SFac= 1.00D+00 NAtFMM=   60 NAOKFM=F Big=F
 Integral buffers will be    131072 words long.
 Raffenetti 2 integral format.
 Two-electron integral symmetry is turned on.
 One-electron integrals computed using PRISM.
 PrsmSu:  requested number of processors reduced to:  13 ShMem   1 Linda.
 NBasis=   307 RedAO= T EigKep=  2.59D-04  NBF=   307
 NBsUse=   307 1.00D-06 EigRej= -1.00D+00 NBFU=   307
 ExpMin= 1.61D-01 ExpMax= 4.17D+03 ExpMxC= 6.27D+02 IAcc=3 IRadAn=         5 AccDes= 0.00D+00
 Harris functional with IExCor=  402 and IRadAn=       5 diagonalized for initial guess.
 HarFok:  IExCor=  402 AccDes= 0.00D+00 IRadAn=         5 IDoV= 1 UseB2=F ITyADJ=14
 ICtDFT=  3500011 ScaDFX=  1.000000  1.000000  1.000000  1.000000
 FoFCou: FMM=F IPFlag=           0 FMFlag=      100000 FMFlg1=           0
         NFxFlg=           0 DoJE=T BraDBF=F KetDBF=T FulRan=T
         wScrn=  0.000000 ICntrl=       500 IOpCl=  0 I1Cent=   200000004 NGrid=           0
         NMat0=    1 NMatS0=      1 NMatT0=    0 NMatD0=    1 NMtDS0=    0 NMtDT0=    0
 Petite list used in FoFCou.
 Requested convergence on RMS density matrix=1.00D-08 within 128 cycles.
 Requested convergence on MAX density matrix=1.00D-06.
 Requested convergence on             energy=1.00D-06.
 No special actions if energy rises.
 Integral accuracy reduced to 1.0D-05 until final iterations.
 Initial convergence to 1.0D-05 achieved.  Increase integral accuracy.
 SCF Done:  E(RB3LYP) =  -399.338287919     A.U. after   15 cycles
            NFock= 15  Conv=0.61D-08     -V/T= 2.0067

 **********************************************************************

            Population analysis using the SCF density.

 **********************************************************************

 Orbital symmetries:
       Occupied  (A) (A) (A) (A) (A) (A) (A) (A) (A) (A) (A) (A)
                 (A) (A) (A) (A) (A) (A) (A) (A) (A) (A) (A) (A)
                 (A) (A) (A) (A) (A) (A) (A) (A) (A) (A)
       Virtual   (A) (A) (A) (A) (A) (A) (A) (A) (A) (A) (A) (A)
                 (A) (A) (A) (A) (A) (A) (A) (A) (A) (A) (A) (A)
                 (A) (A) (A) (A) (A) (A) (A) (A) (A) (A) (A) (A)
                 (A) (A) (A) (A) (A) (A) (A) (A) (A) (A) (A) (A)
                 (A) (A) (A) (A) (A) (A) (A) (A) (A) (A) (A) (A)
                 (A) (A) (A) (A) (A) (A) (A) (A) (A) (A) (A) (A)
                 (A) (A) (A) (A) (A) (A) (A) (A) (A) (A) (A) (A)
                 (A) (A) (A) (A) (A) (A) (A) (A) (A) (A) (A) (A)
                 (A) (A) (A) (A) (A) (A) (A) (A) (A) (A) (A) (A)
                 (A) (A) (A) (A) (A) (A) (A) (A) (A) (A) (A) (A)
                 (A) (A) (A) (A) (A) (A) (A) (A) (A) (A) (A) (A)
                 (A) (A) (A) (A) (A) (A) (A) (A) (A) (A) (A) (A)
                 (A) (A) (A) (A) (A) (A) (A) (A) (A) (A) (A) (A)
                 (A) (A) (A) (A) (A) (A) (A) (A) (A) (A) (A) (A)
                 (A) (A) (A) (A) (A) (A) (A) (A) (A) (A) (A) (A)
                 (A) (A) (A) (A) (A) (A) (A) (A) (A) (A) (A) (A)
                 (A) (A) (A) (A) (A) (A) (A) (A) (A) (A) (A) (A)
                 (A) (A) (A) (A) (A) (A) (A) (A) (A) (A) (A) (A)
                 (A) (A) (A) (A) (A) (A) (A) (A) (A) (A) (A) (A)
                 (A) (A) (A) (A) (A) (A) (A) (A) (A) (A) (A) (A)
                 (A) (A) (A) (A) (A) (A) (A) (A) (A) (A) (A) (A)
                 (A) (A) (A) (A) (A) (A) (A) (A) (A) (A) (A) (A)
                 (A) (A) (A) (A) (A) (A) (A) (A) (A)
 The electronic state is 1-A.
 Alpha  occ. eigenvalues --  -14.32582 -14.31764 -14.28794 -10.24308 -10.22825
 Alpha  occ. eigenvalues --  -10.21726 -10.19558 -10.18945 -10.16039  -0.97290
 Alpha  occ. eigenvalues --   -0.89318  -0.85808  -0.80194  -0.71955  -0.66774
 Alpha  occ. eigenvalues --   -0.62782  -0.57991  -0.52855  -0.50514  -0.49378
 Alpha  occ. eigenvalues --   -0.47714  -0.44605  -0.44100  -0.42390  -0.41095
 Alpha  occ. eigenvalues --   -0.39773  -0.38737  -0.35330  -0.34162  -0.29847
 Alpha  occ. eigenvalues --   -0.26513  -0.24974  -0.23001  -0.16761
 Alpha virt. eigenvalues --   -0.03235   0.05577   0.08096   0.10657   0.11535
 Alpha virt. eigenvalues --    0.13560   0.13888   0.14654   0.15757   0.16242
 Alpha virt. eigenvalues --    0.17719   0.17976   0.18842   0.20095   0.21089
 Alpha virt. eigenvalues --    0.23072   0.26245   0.26378   0.31386   0.32995
 Alpha virt. eigenvalues --    0.36579   0.42018   0.43001   0.45392   0.48086
 Alpha virt. eigenvalues --    0.49182   0.50067   0.51176   0.52168   0.54015
 Alpha virt. eigenvalues --    0.56606   0.57246   0.60365   0.60877   0.61213
 Alpha virt. eigenvalues --    0.63232   0.64143   0.64708   0.66206   0.67416
 Alpha virt. eigenvalues --    0.68723   0.70202   0.70604   0.71972   0.73245
 Alpha virt. eigenvalues --    0.74260   0.74707   0.75782   0.77638   0.78804
 Alpha virt. eigenvalues --    0.79433   0.80738   0.81782   0.82335   0.83523
 Alpha virt. eigenvalues --    0.85328   0.86860   0.87957   0.89052   0.89805
 Alpha virt. eigenvalues --    0.93050   0.94998   0.98306   0.98937   1.01208
 Alpha virt. eigenvalues --    1.02698   1.05472   1.10215   1.11937   1.15059
 Alpha virt. eigenvalues --    1.17055   1.19442   1.20546   1.22731   1.25481
 Alpha virt. eigenvalues --    1.27870   1.31383   1.33178   1.35869   1.39334
 Alpha virt. eigenvalues --    1.41641   1.43817   1.44820   1.48042   1.48553
 Alpha virt. eigenvalues --    1.50049   1.52774   1.54825   1.55892   1.57341
 Alpha virt. eigenvalues --    1.58396   1.60046   1.62936   1.66136   1.69300
 Alpha virt. eigenvalues --    1.71503   1.76065   1.78279   1.78485   1.81154
 Alpha virt. eigenvalues --    1.85559   1.86458   1.87943   1.89598   1.91848
 Alpha virt. eigenvalues --    1.94090   1.94580   1.98450   1.99564   2.02844
 Alpha virt. eigenvalues --    2.06578   2.10980   2.13682   2.16773   2.19420
 Alpha virt. eigenvalues --    2.25225   2.26247   2.30187   2.34341   2.36379
 Alpha virt. eigenvalues --    2.38090   2.41864   2.46272   2.47247   2.48917
 Alpha virt. eigenvalues --    2.53919   2.56080   2.57534   2.60257   2.65084
 Alpha virt. eigenvalues --    2.68551   2.69983   2.72147   2.73896   2.75507
 Alpha virt. eigenvalues --    2.78001   2.82137   2.82635   2.85510   2.87680
 Alpha virt. eigenvalues --    2.89182   2.89833   2.91372   2.91742   2.94206
 Alpha virt. eigenvalues --    2.99166   3.00697   3.01720   3.04981   3.06118
 Alpha virt. eigenvalues --    3.07963   3.09761   3.11026   3.12405   3.15447
 Alpha virt. eigenvalues --    3.17396   3.17974   3.20403   3.22557   3.26385
 Alpha virt. eigenvalues --    3.27146   3.30520   3.32110   3.33108   3.35878
 Alpha virt. eigenvalues --    3.39510   3.42855   3.43361   3.46553   3.49503
 Alpha virt. eigenvalues --    3.55192   3.57963   3.59454   3.62959   3.65256
 Alpha virt. eigenvalues --    3.68736   3.70441   3.72696   3.74389   3.77114
 Alpha virt. eigenvalues --    3.78021   3.82850   3.86876   3.90557   3.92704
 Alpha virt. eigenvalues --    3.94096   3.95663   3.99060   4.01100   4.04863
 Alpha virt. eigenvalues --    4.07622   4.13637   4.16688   4.18426   4.19633
 Alpha virt. eigenvalues --    4.20376   4.20979   4.24429   4.27274   4.29294
 Alpha virt. eigenvalues --    4.32045   4.34776   4.35866   4.37414   4.40556
 Alpha virt. eigenvalues --    4.41178   4.42424   4.43859   4.45165   4.47809
 Alpha virt. eigenvalues --    4.48899   4.49219   4.50969   4.51907   4.54517
 Alpha virt. eigenvalues --    4.57855   4.58525   4.61303   4.63691   4.65522
 Alpha virt. eigenvalues --    4.67947   4.68823   4.71615   4.72545   4.72737
 Alpha virt. eigenvalues --    4.74724   4.77212   4.79329   4.81936   4.82560
 Alpha virt. eigenvalues --    4.82813   4.87211   4.89205   4.91511   4.96341
 Alpha virt. eigenvalues --    4.98392   5.00308   5.01771   5.02188   5.05668
 Alpha virt. eigenvalues --    5.07969   5.11567   5.13721   5.16115   5.17900
 Alpha virt. eigenvalues --    5.20639   5.27215   5.32877   5.36164   5.40043
 Alpha virt. eigenvalues --    5.50452   5.51687   5.58165   5.64779   5.66091
 Alpha virt. eigenvalues --    5.73091   5.76974   5.79247   5.87445   5.99398
 Alpha virt. eigenvalues --    6.31245   9.81509  10.27054  10.74589  11.02731
 Alpha virt. eigenvalues --   11.34540  11.46563  11.51271  11.72048  11.97253
 Alpha virt. eigenvalues --   12.33844  12.72878  16.14341
          Condensed to atoms (all electrons):
               1          2          3          4          5          6
     1  C    5.186675   0.375153  -0.068706   0.009375  -0.000099   0.002689
     2  C    0.375153   4.467121   0.620563  -0.007705  -0.006909  -0.039568
     3  C   -0.068706   0.620563   5.143847   0.277698  -0.029731  -0.091818
     4  C    0.009375  -0.007705   0.277698   4.863762   0.403279   0.421749
     5  N   -0.000099  -0.006909  -0.029731   0.403279   6.617867  -0.116288
     6  N    0.002689  -0.039568  -0.091818   0.421749  -0.116288   6.605296
     7  C    0.003428  -0.003512   0.002328  -0.079805   0.004912   0.325701
     8  C   -0.062731   0.475595  -0.012982  -0.053922   0.004050   0.068594
     9  N   -0.011977  -0.053453   0.003208   0.001031   0.000005   0.010492
    10  H    0.374372  -0.018666  -0.004521   0.000035  -0.000003  -0.000017
    11  H    0.345421  -0.017252   0.001796  -0.000468  -0.000003  -0.000112
    12  H    0.361725  -0.017805  -0.002232   0.000107   0.000010   0.000158
    13  H   -0.009288  -0.026429   0.361331  -0.038933   0.001710   0.001914
    14  H   -0.000313   0.003491  -0.041851   0.350223  -0.042152  -0.031821
    15  H   -0.000027   0.003547   0.001079  -0.053203   0.323467   0.018900
    16  H    0.000010   0.000295   0.009833  -0.058001   0.318205   0.012861
    17  H    0.000015   0.000603  -0.000590  -0.007151  -0.000033  -0.007392
    18  H   -0.000041  -0.000674   0.000411   0.005672  -0.000260  -0.027822
    19  H    0.006757  -0.013679   0.000187  -0.000008  -0.000004  -0.001085
    20  H    0.000106   0.002433  -0.000058  -0.000111   0.000001   0.002358
               7          8          9         10         11         12
     1  C    0.003428  -0.062731  -0.011977   0.374372   0.345421   0.361725
     2  C   -0.003512   0.475595  -0.053453  -0.018666  -0.017252  -0.017805
     3  C    0.002328  -0.012982   0.003208  -0.004521   0.001796  -0.002232
     4  C   -0.079805  -0.053922   0.001031   0.000035  -0.000468   0.000107
     5  N    0.004912   0.004050   0.000005  -0.000003  -0.000003   0.000010
     6  N    0.325701   0.068594   0.010492  -0.000017  -0.000112   0.000158
     7  C    5.044723   0.353151  -0.088119  -0.000068   0.000044  -0.000099
     8  C    0.353151   4.805286   0.342077   0.001148  -0.000479  -0.001404
     9  N   -0.088119   0.342077   6.677033   0.000458   0.000777  -0.000449
    10  H   -0.000068   0.001148   0.000458   0.565366  -0.027131  -0.029729
    11  H    0.000044  -0.000479   0.000777  -0.027131   0.609882  -0.039851
    12  H   -0.000099  -0.001404  -0.000449  -0.029729  -0.039851   0.589685
    13  H   -0.000424   0.007411  -0.000072   0.004166   0.000124   0.000020
    14  H   -0.002960   0.003527  -0.000065  -0.000004   0.000033  -0.000003
    15  H   -0.000026  -0.000055  -0.000066   0.000002   0.000003  -0.000015
    16  H    0.000345  -0.000422  -0.000006   0.000000   0.000000  -0.000001
    17  H    0.325873  -0.037659   0.002685  -0.000000  -0.000012   0.000008
    18  H    0.370109  -0.009750  -0.002934   0.000002  -0.000003  -0.000006
    19  H    0.010837  -0.034943   0.322128  -0.000331   0.005439   0.003242
    20  H   -0.012441  -0.050032   0.352373  -0.000013   0.000490  -0.000069
              13         14         15         16         17         18
     1  C   -0.009288  -0.000313  -0.000027   0.000010   0.000015  -0.000041
     2  C   -0.026429   0.003491   0.003547   0.000295   0.000603  -0.000674
     3  C    0.361331  -0.041851   0.001079   0.009833  -0.000590   0.000411
     4  C   -0.038933   0.350223  -0.053203  -0.058001  -0.007151   0.005672
     5  N    0.001710  -0.042152   0.323467   0.318205  -0.000033  -0.000260
     6  N    0.001914  -0.031821   0.018900   0.012861  -0.007392  -0.027822
     7  C   -0.000424  -0.002960  -0.000026   0.000345   0.325873   0.370109
     8  C    0.007411   0.003527  -0.000055  -0.000422  -0.037659  -0.009750
     9  N   -0.000072  -0.000065  -0.000066  -0.000006   0.002685  -0.002934
    10  H    0.004166  -0.000004   0.000002   0.000000  -0.000000   0.000002
    11  H    0.000124   0.000033   0.000003   0.000000  -0.000012  -0.000003
    12  H    0.000020  -0.000003  -0.000015  -0.000001   0.000008  -0.000006
    13  H    0.593188   0.001586  -0.000391  -0.000280  -0.000007   0.000019
    14  H    0.001586   0.670395   0.009437  -0.007106   0.002112  -0.000265
    15  H   -0.000391   0.009437   0.507284  -0.028612   0.000082  -0.000281
    16  H   -0.000280  -0.007106  -0.028612   0.548319  -0.000061  -0.000031
    17  H   -0.000007   0.002112   0.000082  -0.000061   0.698205  -0.073765
    18  H    0.000019  -0.000265  -0.000281  -0.000031  -0.073765   0.602446
    19  H   -0.000006   0.000008   0.000006   0.000000  -0.000593   0.000834
    20  H    0.000005   0.000016   0.000001  -0.000000   0.003731  -0.000775
              19         20
     1  C    0.006757   0.000106
     2  C   -0.013679   0.002433
     3  C    0.000187  -0.000058
     4  C   -0.000008  -0.000111
     5  N   -0.000004   0.000001
     6  N   -0.001085   0.002358
     7  C    0.010837  -0.012441
     8  C   -0.034943  -0.050032
     9  N    0.322128   0.352373
    10  H   -0.000331  -0.000013
    11  H    0.005439   0.000490
    12  H    0.003242  -0.000069
    13  H   -0.000006   0.000005
    14  H    0.000008   0.000016
    15  H    0.000006   0.000001
    16  H    0.000000  -0.000000
    17  H   -0.000593   0.003731
    18  H    0.000834  -0.000775
    19  H    0.524843  -0.041852
    20  H   -0.041852   0.502145
 Mulliken charges:
               1
     1  C   -0.512544
     2  C    0.256851
     3  C   -0.169793
     4  C   -0.033626
     5  N   -0.478025
     6  N   -0.154791
     7  C   -0.253998
     8  C    0.203541
     9  N   -0.555127
    10  H    0.134934
    11  H    0.121302
    12  H    0.136710
    13  H    0.104358
    14  H    0.085712
    15  H    0.218869
    16  H    0.204648
    17  H    0.093950
    18  H    0.137115
    19  H    0.218220
    20  H    0.241692
 Sum of Mulliken charges =  -0.00000
 Mulliken charges with hydrogens summed into heavy atoms:
               1
     1  C   -0.119598
     2  C    0.256851
     3  C   -0.065435
     4  C    0.052086
     5  N   -0.054507
     6  N   -0.154791
     7  C   -0.022933
     8  C    0.203541
     9  N   -0.095215
 Electronic spatial extent (au):  <R**2>=           1170.0871
 Charge=             -0.0000 electrons
 Dipole moment (field-independent basis, Debye):
    X=             -2.1708    Y=             -0.3780    Z=              1.3624  Tot=              2.5906
 Quadrupole moment (field-independent basis, Debye-Ang):
   XX=            -52.6079   YY=            -52.9420   ZZ=            -54.6033
   XY=             -4.2902   XZ=             -0.3880   YZ=             -2.2563
 Traceless Quadrupole moment (field-independent basis, Debye-Ang):
   XX=              0.7765   YY=              0.4424   ZZ=             -1.2189
   XY=             -4.2902   XZ=             -0.3880   YZ=             -2.2563
 Octapole moment (field-independent basis, Debye-Ang**2):
  XXX=            -19.9799  YYY=             -1.6644  ZZZ=             -3.5529  XYY=             -3.6445
  XXY=            -13.7049  XXZ=              7.0419  XZZ=              3.6023  YZZ=             -1.0370
  YYZ=              3.2250  XYZ=              7.0712
 Hexadecapole moment (field-independent basis, Debye-Ang**3):
 XXXX=           -824.6783 YYYY=           -537.0301 ZZZZ=           -111.5887 XXXY=            -39.0559
 XXXZ=             -7.2733 YYYX=              2.1760 YYYZ=             -3.3917 ZZZX=             -5.4137
 ZZZY=             -3.8480 XXYY=           -250.6441 XXZZ=           -153.9899 YYZZ=           -117.3785
 XXYZ=             -6.2190 YYXZ=             -5.8623 ZZXY=             -1.4252
 N-N= 4.668587164919D+02 E-N=-1.862240444799D+03  KE= 3.966989089726D+02
 PrsmSu:  requested number of processors reduced to:  13 ShMem   1 Linda.
 Calling FoFJK, ICntrl=      2127 FMM=F ISym2X=0 I1Cent= 0 IOpClX= 0 NMat=1 NMatS=1 NMatT=0.
 ***** Axes restored to original set *****
 -------------------------------------------------------------------
 Center     Atomic                   Forces (Hartrees/Bohr)
 Number     Number              X              Y              Z
 -------------------------------------------------------------------
      1        6          -0.004693287   -0.010396683    0.005509177
      2        6           0.011473572    0.038084102    0.015825503
      3        6          -0.022360961   -0.024652342    0.008084240
      4        6           0.003819885    0.011164527   -0.022568744
      5        7           0.012372235    0.016788436   -0.004654738
      6        7           0.019669078    0.019092733   -0.044352235
      7        6           0.022337854   -0.018453203    0.046723975
      8        6          -0.041454241   -0.063002872   -0.010432795
      9        7          -0.022079576    0.014002255   -0.008207760
     10        1           0.003473391    0.000287039    0.000667229
     11        1          -0.007614470   -0.001978423   -0.000415882
     12        1          -0.001242186   -0.000732631    0.001957095
     13        1           0.000855707    0.006687343    0.004530419
     14        1           0.006487155   -0.011214269   -0.001274985
     15        1           0.000481465    0.008107950    0.000951706
     16        1           0.004205707    0.003036365   -0.001431952
     17        1           0.018120202    0.013973169    0.017604600
     18        1          -0.013846785   -0.004979797    0.010374874
     19        1          -0.001853926   -0.000004608   -0.010022174
     20        1           0.011849180    0.004190910   -0.008867553
 -------------------------------------------------------------------
 Cartesian Forces:  Max     0.063002872 RMS     0.017545183

 GradGradGradGradGradGradGradGradGradGradGradGradGradGradGradGradGradGrad
 Berny optimization.
 FormGI is forming the generalized inverse of G from B-inverse, IUseBI=4.
 Internal  Forces:  Max     0.039612487 RMS     0.011263346
 Search for a local minimum.
 Step number   1 out of a maximum of  115
 All quantities printed in internal units (Hartrees-Bohrs-Radians)
 Mixed Optimization -- RFO/linear search
 Second derivative matrix not updated -- first step.
 ITU=  0
     Eigenvalues ---    0.00790   0.00921   0.01023   0.01210   0.01412
     Eigenvalues ---    0.01581   0.01851   0.02017   0.02982   0.04668
     Eigenvalues ---    0.05254   0.05753   0.05852   0.06303   0.06641
     Eigenvalues ---    0.07238   0.07467   0.07986   0.09611   0.11191
     Eigenvalues ---    0.13888   0.15905   0.15918   0.16000   0.16000
     Eigenvalues ---    0.16000   0.16000   0.16000   0.16000   0.16000
     Eigenvalues ---    0.17638   0.19641   0.22882   0.24792   0.27829
     Eigenvalues ---    0.32733   0.33045   0.33312   0.33642   0.33806
     Eigenvalues ---    0.34429   0.34450   0.34488   0.35964   0.36118
     Eigenvalues ---    0.36245   0.36945   0.38168   0.43154   0.43760
     Eigenvalues ---    0.44853   0.45112   0.46395   0.51282
 RFO step:  Lambda=-7.17087556D-02 EMin= 7.90472942D-03
 Linear search not attempted -- first point.
 Maximum step size (   0.300) exceeded in Quadratic search.
    -- Step size scaled by   0.815
 Iteration  1 RMS(Cart)=  0.09833191 RMS(Int)=  0.00500597
 Iteration  2 RMS(Cart)=  0.00642942 RMS(Int)=  0.00221205
 Iteration  3 RMS(Cart)=  0.00003687 RMS(Int)=  0.00221194
 Iteration  4 RMS(Cart)=  0.00000022 RMS(Int)=  0.00221194
 Variable       Old X    -DE/DX   Delta X   Delta X   Delta X     New X
                                 (Linear)    (Quad)   (Total)
    R1        2.81238   0.01030   0.00000   0.02056   0.02056   2.83294
    R2        2.06514  -0.00122   0.00000  -0.00239  -0.00239   2.06275
    R3        2.06577   0.00329   0.00000   0.00644   0.00644   2.07221
    R4        2.07659  -0.00091   0.00000  -0.00180  -0.00180   2.07478
    R5        2.55534  -0.00508   0.00000  -0.00664  -0.00662   2.54872
    R6        2.76314   0.01018   0.00000   0.01579   0.01485   2.77799
    R7        2.78169   0.02508   0.00000   0.05123   0.05235   2.83404
    R8        2.02629   0.00534   0.00000   0.00986   0.00986   2.03614
    R9        2.74121   0.02508   0.00000   0.04509   0.04509   2.78630
   R10        2.76448   0.01351   0.00000   0.02605   0.02707   2.79155
   R11        2.08507  -0.00152   0.00000  -0.00305  -0.00305   2.08202
   R12        1.93443  -0.00532   0.00000  -0.00851  -0.00851   1.92592
   R13        1.92147   0.00386   0.00000   0.00604   0.00604   1.92751
   R14        2.55795   0.02444   0.00000   0.04911   0.05653   2.61448
   R15        3.23929   0.03961   0.00000   0.10329   0.09611   3.33540
   R16        2.81192   0.02130   0.00000   0.03805   0.03846   2.85038
   R17        2.03898   0.01723   0.00000   0.03244   0.03244   2.07142
   R18        2.08973  -0.00712   0.00000  -0.01443  -0.01443   2.07529
   R19        2.77437  -0.00619   0.00000  -0.01170  -0.01170   2.76268
   R20        1.91846   0.00279   0.00000   0.00435   0.00435   1.92281
   R21        1.94180  -0.00893   0.00000  -0.01446  -0.01446   1.92734
    A1        1.95496  -0.00693   0.00000  -0.02528  -0.02519   1.92977
    A2        1.90470   0.01079   0.00000   0.03934   0.03934   1.94405
    A3        1.94440   0.00141   0.00000   0.00446   0.00432   1.94872
    A4        1.89104  -0.00172   0.00000  -0.00518  -0.00497   1.88607
    A5        1.86767   0.00141   0.00000   0.00243   0.00238   1.87005
    A6        1.89949  -0.00534   0.00000  -0.01705  -0.01726   1.88223
    A7        2.11889   0.00818   0.00000   0.02430   0.02542   2.14431
    A8        2.14504  -0.00975   0.00000  -0.02300  -0.02204   2.12300
    A9        2.01383   0.00204   0.00000   0.00093  -0.00142   2.01241
   A10        1.91277   0.01169   0.00000   0.03479   0.03431   1.94707
   A11        2.18738  -0.00124   0.00000  -0.00371  -0.00359   2.18380
   A12        2.17899  -0.01053   0.00000  -0.03214  -0.03178   2.14721
   A13        1.88273   0.00246   0.00000   0.02934   0.02879   1.91153
   A14        1.83652  -0.00897   0.00000  -0.01052  -0.01345   1.82307
   A15        1.91214   0.00716   0.00000   0.00732   0.00480   1.91694
   A16        1.77807   0.02507   0.00000   0.11207   0.11199   1.89006
   A17        1.91253  -0.01181   0.00000  -0.04205  -0.03985   1.87267
   A18        2.12656  -0.01177   0.00000  -0.07946  -0.07951   2.04705
   A19        1.78257   0.00939   0.00000   0.03611   0.03580   1.81837
   A20        1.86424   0.00588   0.00000   0.02323   0.02296   1.88720
   A21        1.79207  -0.00122   0.00000   0.00449   0.00368   1.79575
   A22        2.30896  -0.02314   0.00000  -0.10914  -0.11329   2.19567
   A23        1.78005   0.00105   0.00000   0.00583   0.00731   1.78736
   A24        2.36784   0.00368   0.00000  -0.00923  -0.00930   2.35854
   A25        1.82894  -0.01300   0.00000  -0.02690  -0.02566   1.80328
   A26        2.08562   0.01006   0.00000   0.04595   0.04989   2.13551
   A27        1.98973  -0.01786   0.00000  -0.06969  -0.07065   1.91908
   A28        1.84973   0.00553   0.00000   0.01609   0.01583   1.86556
   A29        1.67723  -0.00564   0.00000  -0.01003  -0.00850   1.66873
   A30        2.49233  -0.01440   0.00000  -0.06242  -0.06980   2.42253
   A31        2.02219   0.00012   0.00000  -0.00986  -0.01233   2.00986
   A32        2.35336  -0.00488   0.00000  -0.04872  -0.05159   2.30178
   A33        1.75393   0.01532   0.00000   0.07813   0.08714   1.84107
   A34        1.95212   0.00601   0.00000   0.02826   0.02816   1.98028
   A35        1.87586  -0.00675   0.00000  -0.01575  -0.01586   1.86000
   A36        1.77877   0.00774   0.00000   0.04439   0.04417   1.82295
    D1       -0.09039   0.00339   0.00000   0.01616   0.01567  -0.07471
    D2       -3.11512  -0.00181   0.00000  -0.00793  -0.00765  -3.12277
    D3       -2.18436   0.00273   0.00000   0.01243   0.01222  -2.17214
    D4        1.07409  -0.00246   0.00000  -0.01166  -0.01111   1.06299
    D5        2.00098   0.00142   0.00000   0.00507   0.00462   2.00560
    D6       -1.02375  -0.00377   0.00000  -0.01902  -0.01870  -1.04246
    D7       -3.00146   0.01081   0.00000   0.05905   0.05776  -2.94370
    D8        0.04725   0.00940   0.00000   0.04536   0.04464   0.09189
    D9        0.03157   0.01484   0.00000   0.07975   0.07825   0.10982
   D10        3.08028   0.01343   0.00000   0.06605   0.06513  -3.13777
   D11        2.67688  -0.00448   0.00000  -0.01519  -0.01381   2.66307
   D12        3.01952   0.01920   0.00000   0.13377   0.13058  -3.13309
   D13        0.10909   0.00849   0.00000   0.07591   0.07683   0.18593
   D14       -0.35434  -0.00983   0.00000  -0.03952  -0.03729  -0.39163
   D15       -0.01170   0.01385   0.00000   0.10943   0.10710   0.09539
   D16       -2.92213   0.00315   0.00000   0.05157   0.05335  -2.86878
   D17        2.26719   0.01515   0.00000   0.05747   0.05754   2.32473
   D18        0.37925  -0.01008   0.00000  -0.07523  -0.07567   0.30358
   D19       -1.93515   0.00645   0.00000   0.02824   0.02911  -1.90604
   D20       -0.78207   0.01596   0.00000   0.06925   0.06861  -0.71346
   D21       -2.67001  -0.00927   0.00000  -0.06344  -0.06460  -2.73461
   D22        1.29878   0.00726   0.00000   0.04003   0.04017   1.33895
   D23       -1.35367   0.00324   0.00000   0.00402   0.00195  -1.35172
   D24        3.05457  -0.00092   0.00000  -0.02220  -0.02475   3.02982
   D25        0.57445   0.00476   0.00000   0.04989   0.05192   0.62637
   D26       -1.30049   0.00060   0.00000   0.02367   0.02522  -1.27528
   D27        2.84891  -0.00011   0.00000   0.00186   0.00263   2.85154
   D28        0.97397  -0.00427   0.00000  -0.02436  -0.02408   0.94989
   D29       -1.52812   0.00398   0.00000   0.03546   0.03877  -1.48936
   D30       -0.56158   0.00716   0.00000   0.05710   0.05672  -0.50486
   D31        2.79203  -0.00521   0.00000  -0.03572  -0.03428   2.75776
   D32       -2.52461  -0.00203   0.00000  -0.01408  -0.01632  -2.54094
   D33        0.65824  -0.00358   0.00000  -0.02564  -0.02149   0.63674
   D34        1.62478  -0.00040   0.00000  -0.00399  -0.00354   1.62123
   D35       -0.72276  -0.00274   0.00000   0.00323   0.00620  -0.71656
   D36       -3.03827   0.00302   0.00000   0.02811   0.02864  -3.00962
   D37        0.54655   0.00401   0.00000  -0.00639  -0.00759   0.53896
   D38        2.92825  -0.01040   0.00000  -0.09882  -0.09525   2.83300
   D39        1.88072  -0.02465   0.00000  -0.19964  -0.19739   1.68333
   D40       -1.47211  -0.01549   0.00000  -0.15105  -0.15269  -1.62480
   D41       -2.19043  -0.02500   0.00000  -0.20279  -0.20023  -2.39067
   D42        0.73992  -0.01585   0.00000  -0.15420  -0.15554   0.58439
   D43       -0.03697  -0.00149   0.00000  -0.00700  -0.00518  -0.04216
   D44       -1.97549  -0.00989   0.00000  -0.06479  -0.06309  -2.03858
   D45       -2.31343   0.01708   0.00000   0.10281   0.09856  -2.21487
   D46        2.03124   0.00869   0.00000   0.04502   0.04065   2.07189
   D47       -3.03722  -0.00486   0.00000  -0.02822  -0.02560  -3.06282
   D48        1.30745  -0.01326   0.00000  -0.08601  -0.08352   1.22394
         Item               Value     Threshold  Converged?
 Maximum Force            0.039612     0.000450     NO 
 RMS     Force            0.011263     0.000300     NO 
 Maximum Displacement     0.388454     0.001800     NO 
 RMS     Displacement     0.099599     0.001200     NO 
 Predicted change in Energy=-4.603895D-02
 GradGradGradGradGradGradGradGradGradGradGradGradGradGradGradGradGradGrad

                          Input orientation:                          
 ---------------------------------------------------------------------
 Center     Atomic      Atomic             Coordinates (Angstroms)
 Number     Number       Type             X           Y           Z
 ---------------------------------------------------------------------
      1          6           0        0.970907    0.138247    0.121696
      2          6           0        2.466623    0.216732    0.185452
      3          6           0        3.140950    1.383744    0.136271
      4          6           0        4.611803    1.162652   -0.055654
      5          7           0        5.111339    2.061172   -1.112591
      6          7           0        4.715166   -0.228237   -0.542421
      7          6           0        4.764050   -1.361443    0.249787
      8          6           0        3.302770   -0.992349    0.190076
      9          7           0        2.598083   -2.236449   -0.114744
     10          1           0        0.534584    1.138731    0.109175
     11          1           0        0.561620   -0.400422    0.984701
     12          1           0        0.630529   -0.374718   -0.787399
     13          1           0        2.688217    2.361470    0.129159
     14          1           0        5.151766    1.414944    0.870985
     15          1           0        4.810350    1.618301   -1.979739
     16          1           0        6.126622    1.971438   -1.151760
     17          1           0        5.262679   -1.632965    1.187434
     18          1           0        4.977658   -2.163698   -0.469099
     19          1           0        1.598122   -2.111601   -0.255505
     20          1           0        2.666762   -2.821196    0.718057
 ---------------------------------------------------------------------
                    Distance matrix (angstroms):
                    1          2          3          4          5
     1  C    0.000000
     2  C    1.499130   0.000000
     3  C    2.502112   1.348723   0.000000
     4  C    3.786421   2.356840   1.499708   0.000000
     5  N    4.729089   3.475831   2.429197   1.474446   0.000000
     6  N    3.820319   2.404941   2.353139   1.477226   2.392372
     7  C    4.080859   2.788000   3.191143   2.547063   3.700133
     8  C    2.592394   1.470048   2.382205   2.533373   3.780457
     9  N    2.888388   2.474974   3.669267   3.951259   5.077569
    10  H    1.091560   2.142119   2.617998   4.080620   4.826002
    11  H    1.096566   2.156088   3.249005   4.464249   5.581937
    12  H    1.097927   2.160438   3.201183   4.330069   5.110476
    13  H    2.809258   2.156890   1.077481   2.274094   2.739277
    14  H    4.435196   3.019215   2.141065   1.101758   2.086581
    15  H    4.620380   3.485040   2.705441   1.987245   1.019154
    16  H    5.618156   4.273490   3.304337   2.037219   1.019993
    17  H    4.763643   3.499039   3.834998   3.127999   4.354270
    18  H    4.658545   3.521389   4.040336   3.371853   4.275685
    19  H    2.365903   2.523861   3.840736   4.454543   5.521715
    20  H    3.462639   3.090749   4.271400   4.500318   5.758885
                    6          7          8          9         10
     6  N    0.000000
     7  C    1.383524   0.000000
     8  C    1.765016   1.508355   0.000000
     9  N    2.949214   2.364303   1.461946   0.000000
    10  H    4.446397   4.915183   3.494410   3.962324   0.000000
    11  H    4.428735   4.373108   2.914740   2.954142   1.770951
    12  H    4.094598   4.374400   2.911666   2.791017   1.761697
    13  H    3.356505   4.264236   3.410203   4.605266   2.476616
    14  H    2.210968   2.871330   3.110865   4.563511   4.687752
    15  H    2.341932   3.721801   3.714349   4.819899   4.782857
    16  H    2.683667   3.863811   4.307980   5.588587   5.792603
    17  H    2.294652   1.096147   2.290492   3.026538   5.585680
    18  H    1.954556   1.098198   2.147515   2.406914   5.566089
    19  H    3.653129   3.292591   2.087366   1.017508   3.439297
    20  H    3.536694   2.597840   2.006976   1.019904   4.538495
                   11         12         13         14         15
    11  H    0.000000
    12  H    1.773625   0.000000
    13  H    3.589208   3.544134   0.000000
    14  H    4.937401   5.137578   2.741403   0.000000
    15  H    5.560113   4.781705   3.082726   2.878289   0.000000
    16  H    6.415562   5.987006   3.689919   2.313337   1.594624
    17  H    4.864177   5.190372   4.868604   3.066299   4.561394
    18  H    4.972330   4.711613   5.106525   3.825287   4.075971
    19  H    2.353844   2.058133   4.620026   5.131656   5.215704
    20  H    3.219141   3.521065   5.216060   4.913605   5.619805
                   16         17         18         19         20
    16  H    0.000000
    17  H    4.382915   0.000000
    18  H    4.345744   1.762673   0.000000
    19  H    6.162937   3.967386   3.386680   0.000000
    20  H    6.199692   2.893268   2.679904   1.610385   0.000000
 Stoichiometry    C6H11N3
 Framework group  C1[X(C6H11N3)]
 Deg. of freedom    54
 Full point group                 C1      NOp   1
 Largest Abelian subgroup         C1      NOp   1
 Largest concise Abelian subgroup C1      NOp   1
                         Standard orientation:                         
 ---------------------------------------------------------------------
 Center     Atomic      Atomic             Coordinates (Angstroms)
 Number     Number       Type             X           Y           Z
 ---------------------------------------------------------------------
      1          6           0       -1.777405    1.809524   -0.080612
      2          6           0       -0.653395    0.855843    0.192303
      3          6           0        0.617209    1.260748    0.393973
      4          6           0        1.573747    0.105908    0.371548
      5          7           0        2.732398    0.442198   -0.476053
      6          7           0        0.821067   -0.983643   -0.283089
      7          6           0       -0.044808   -1.860597    0.345680
      8          6           0       -0.848395   -0.600369    0.142681
      9          7           0       -2.124422   -1.037659   -0.421071
     10          1           0       -1.429128    2.841884   -0.013984
     11          1           0       -2.595430    1.679594    0.638006
     12          1           0       -2.190039    1.671549   -1.088650
     13          1           0        0.937495    2.287365    0.460602
     14          1           0        1.955181   -0.083306    1.387706
     15          1           0        2.386698    0.328798   -1.428055
     16          1           0        3.416462   -0.309642   -0.391327
     17          1           0       -0.042127   -2.408045    1.295328
     18          1           0       -0.283652   -2.588268   -0.441394
     19          1           0       -2.739779   -0.268308   -0.675548
     20          1           0       -2.620699   -1.524229    0.325363
 ---------------------------------------------------------------------
 Rotational constants (GHZ):           2.5326768           1.5102259           1.0263209
 Standard basis: 6-31G(2df,p) (6D, 7F)
 There are   334 symmetry adapted cartesian basis functions of A   symmetry.
 There are   307 symmetry adapted basis functions of A   symmetry.
   307 basis functions,   473 primitive gaussians,   334 cartesian basis functions
    34 alpha electrons       34 beta electrons
       nuclear repulsion energy       461.4488073106 Hartrees.
 NAtoms=   20 NActive=   20 NUniq=   20 SFac= 1.00D+00 NAtFMM=   60 NAOKFM=F Big=F
 Integral buffers will be    131072 words long.
 Raffenetti 2 integral format.
 Two-electron integral symmetry is turned on.
 One-electron integrals computed using PRISM.
 PrsmSu:  requested number of processors reduced to:  13 ShMem   1 Linda.
 NBasis=   307 RedAO= T EigKep=  2.83D-04  NBF=   307
 NBsUse=   307 1.00D-06 EigRej= -1.00D+00 NBFU=   307
 Initial guess from the checkpoint file:  "CC1dCCpNpN2CC12N.chk"
 B after Tr=     0.000000   -0.000000    0.000000
         Rot=    0.999971   -0.007378    0.001686   -0.000102 Ang=  -0.87 deg.
 ExpMin= 1.61D-01 ExpMax= 4.17D+03 ExpMxC= 6.27D+02 IAcc=2 IRadAn=         4 AccDes= 0.00D+00
 Harris functional with IExCor=  402 and IRadAn=       4 diagonalized for initial guess.
 HarFok:  IExCor=  402 AccDes= 0.00D+00 IRadAn=         4 IDoV= 1 UseB2=F ITyADJ=14
 ICtDFT=  3500011 ScaDFX=  1.000000  1.000000  1.000000  1.000000
 FoFCou: FMM=F IPFlag=           0 FMFlag=      100000 FMFlg1=           0
         NFxFlg=           0 DoJE=T BraDBF=F KetDBF=T FulRan=T
         wScrn=  0.000000 ICntrl=       500 IOpCl=  0 I1Cent=   200000004 NGrid=           0
         NMat0=    1 NMatS0=      1 NMatT0=    0 NMatD0=    1 NMtDS0=    0 NMtDT0=    0
 Petite list used in FoFCou.
 Requested convergence on RMS density matrix=1.00D-08 within 128 cycles.
 Requested convergence on MAX density matrix=1.00D-06.
 Requested convergence on             energy=1.00D-06.
 No special actions if energy rises.
 Integral accuracy reduced to 1.0D-05 until final iterations.
 Initial convergence to 1.0D-05 achieved.  Increase integral accuracy.
 SCF Done:  E(RB3LYP) =  -399.385150901     A.U. after   13 cycles
            NFock= 13  Conv=0.45D-08     -V/T= 2.0077
 PrsmSu:  requested number of processors reduced to:  13 ShMem   1 Linda.
 Calling FoFJK, ICntrl=      2127 FMM=F ISym2X=0 I1Cent= 0 IOpClX= 0 NMat=1 NMatS=1 NMatT=0.
 ***** Axes restored to original set *****
 -------------------------------------------------------------------
 Center     Atomic                   Forces (Hartrees/Bohr)
 Number     Number              X              Y              Z
 -------------------------------------------------------------------
      1        6          -0.000915742   -0.004620511    0.007624329
      2        6           0.012004509    0.025589465    0.017421377
      3        6          -0.008184803   -0.012974108   -0.000073231
      4        6          -0.004950401    0.005863533   -0.016171506
      5        7           0.003347538   -0.003632948    0.004366388
      6        7           0.016170538    0.017131703   -0.028995255
      7        6          -0.000350443   -0.006309750    0.032763967
      8        6          -0.021689703   -0.049926996   -0.021225030
      9        7          -0.006458415    0.016534915   -0.003951680
     10        1           0.001128400    0.000705631    0.000109563
     11        1          -0.002857991   -0.000608202   -0.000906547
     12        1           0.000036661    0.000407830    0.000543328
     13        1           0.000822494    0.003684824    0.003576321
     14        1           0.003463197   -0.007685810   -0.000386965
     15        1          -0.002269728    0.003273846   -0.000938351
     16        1           0.000114381    0.000805843    0.001858991
     17        1           0.008307358    0.019038630    0.005753888
     18        1          -0.008639478   -0.007634918    0.010374933
     19        1           0.003784136    0.001581741   -0.005863927
     20        1           0.007137493   -0.001224717   -0.005880594
 -------------------------------------------------------------------
 Cartesian Forces:  Max     0.049926996 RMS     0.012253963

 GradGradGradGradGradGradGradGradGradGradGradGradGradGradGradGradGradGrad
 Berny optimization.
 Using GEDIIS/GDIIS optimizer.
 FormGI is forming the generalized inverse of G from B-inverse, IUseBI=4.
 Internal  Forces:  Max     0.022465305 RMS     0.006826718
 Search for a local minimum.
 Step number   2 out of a maximum of  115
 All quantities printed in internal units (Hartrees-Bohrs-Radians)
 Mixed Optimization -- RFO/linear search
 Update second derivatives using D2CorX and points    1    2
 DE= -4.69D-02 DEPred=-4.60D-02 R= 1.02D+00
 TightC=F SS=  1.41D+00  RLast= 5.81D-01 DXNew= 5.0454D-01 1.7428D+00
 Trust test= 1.02D+00 RLast= 5.81D-01 DXMaxT set to 5.05D-01
 ITU=  1  0
 Use linear search instead of GDIIS.
     Eigenvalues ---    0.00790   0.00921   0.01022   0.01157   0.01418
     Eigenvalues ---    0.01576   0.01868   0.02441   0.03099   0.04394
     Eigenvalues ---    0.05311   0.05459   0.06043   0.06405   0.06868
     Eigenvalues ---    0.07220   0.07348   0.07867   0.09603   0.11181
     Eigenvalues ---    0.12434   0.15429   0.15912   0.16000   0.16000
     Eigenvalues ---    0.16000   0.16000   0.16000   0.16050   0.16431
     Eigenvalues ---    0.16882   0.20000   0.23072   0.25029   0.28139
     Eigenvalues ---    0.33009   0.33310   0.33542   0.33805   0.34163
     Eigenvalues ---    0.34435   0.34479   0.34521   0.35496   0.36158
     Eigenvalues ---    0.36807   0.36933   0.42228   0.43210   0.43946
     Eigenvalues ---    0.44884   0.45087   0.47069   0.51883
 RFO step:  Lambda=-4.52066269D-02 EMin= 7.89857860D-03
 Quartic linear search produced a step of  1.54285.
 Iteration  1 RMS(Cart)=  0.15313660 RMS(Int)=  0.06767260
 Iteration  2 RMS(Cart)=  0.08231784 RMS(Int)=  0.02485341
 Iteration  3 RMS(Cart)=  0.02041075 RMS(Int)=  0.01799664
 Iteration  4 RMS(Cart)=  0.00115059 RMS(Int)=  0.01798481
 Iteration  5 RMS(Cart)=  0.00006057 RMS(Int)=  0.01798478
 Iteration  6 RMS(Cart)=  0.00000472 RMS(Int)=  0.01798478
 Iteration  7 RMS(Cart)=  0.00000033 RMS(Int)=  0.01798478
 Variable       Old X    -DE/DX   Delta X   Delta X   Delta X     New X
                                 (Linear)    (Quad)   (Total)
    R1        2.83294   0.00250   0.03172  -0.01483   0.01690   2.84984
    R2        2.06275   0.00019  -0.00368   0.00437   0.00068   2.06343
    R3        2.07221   0.00065   0.00993  -0.00543   0.00450   2.07671
    R4        2.07478  -0.00065  -0.00278  -0.00107  -0.00385   2.07093
    R5        2.54872  -0.00752  -0.01022  -0.01615  -0.02462   2.52410
    R6        2.77799   0.00901   0.02291   0.02159   0.03792   2.81590
    R7        2.83404   0.00420   0.08077  -0.04443   0.04481   2.87885
    R8        2.03614   0.00297   0.01521   0.00144   0.01665   2.05279
    R9        2.78630  -0.00311   0.06956  -0.07762  -0.00806   2.77824
   R10        2.79155  -0.00407   0.04176  -0.05770  -0.01188   2.77968
   R11        2.08202  -0.00039  -0.00471   0.00209  -0.00261   2.07941
   R12        1.92592   0.00005  -0.01312   0.01186  -0.00127   1.92466
   R13        1.92751  -0.00003   0.00932  -0.00839   0.00093   1.92844
   R14        2.61448   0.00969   0.08722  -0.00438   0.15089   2.76537
   R15        3.33540   0.01965   0.14828   0.00077   0.08409   3.41948
   R16        2.85038   0.00139   0.05933  -0.06304   0.00064   2.85102
   R17        2.07142   0.00398   0.05005  -0.02434   0.02571   2.09713
   R18        2.07529  -0.00289  -0.02227   0.00392  -0.01835   2.05694
   R19        2.76268  -0.01325  -0.01805  -0.05262  -0.07067   2.69201
   R20        1.92281  -0.00271   0.00672  -0.01745  -0.01073   1.91208
   R21        1.92734  -0.00362  -0.02231   0.00387  -0.01844   1.90890
    A1        1.92977  -0.00272  -0.03886   0.00793  -0.03077   1.89900
    A2        1.94405   0.00472   0.06070  -0.00700   0.05373   1.99778
    A3        1.94872  -0.00034   0.00666  -0.01136  -0.00518   1.94354
    A4        1.88607  -0.00053  -0.00767   0.00466  -0.00239   1.88368
    A5        1.87005   0.00053   0.00368  -0.00349  -0.00018   1.86987
    A6        1.88223  -0.00180  -0.02663   0.00990  -0.01724   1.86499
    A7        2.14431   0.00089   0.03921  -0.02427   0.02603   2.17034
    A8        2.12300  -0.00355  -0.03401   0.00829  -0.01681   2.10619
    A9        2.01241   0.00285  -0.00219   0.01571  -0.00737   2.00505
   A10        1.94707   0.00272   0.05293  -0.02445   0.02518   1.97225
   A11        2.18380   0.00118  -0.00553   0.01407   0.00934   2.19314
   A12        2.14721  -0.00398  -0.04903   0.01037  -0.03497   2.11224
   A13        1.91153   0.00050   0.04442  -0.00038   0.04767   1.95920
   A14        1.82307   0.00064  -0.02075   0.04643   0.01722   1.84028
   A15        1.91694   0.00178   0.00741  -0.00348  -0.01129   1.90564
   A16        1.89006   0.00594   0.17278  -0.07244   0.09645   1.98651
   A17        1.87267  -0.00137  -0.06149   0.04820  -0.00555   1.86712
   A18        2.04705  -0.00705  -0.12267  -0.01991  -0.14295   1.90410
   A19        1.81837   0.00420   0.05523  -0.00397   0.05057   1.86894
   A20        1.88720  -0.00121   0.03542  -0.04140  -0.00666   1.88054
   A21        1.79575   0.00117   0.00568   0.02326   0.02723   1.82298
   A22        2.19567  -0.02159  -0.17479  -0.11354  -0.29784   1.89782
   A23        1.78736   0.00009   0.01128  -0.00438   0.00722   1.79458
   A24        2.35854   0.00028  -0.01435  -0.04786  -0.06793   2.29062
   A25        1.80328  -0.00761  -0.03959   0.03887   0.02832   1.83160
   A26        2.13551   0.00512   0.07698   0.00479   0.10858   2.24409
   A27        1.91908  -0.01118  -0.10901  -0.02149  -0.12829   1.79078
   A28        1.86556   0.00369   0.02442   0.00583   0.02772   1.89329
   A29        1.66873  -0.00735  -0.01311  -0.01208   0.00180   1.67054
   A30        2.42253  -0.01816  -0.10769  -0.08672  -0.23888   2.18365
   A31        2.00986   0.00762  -0.01902   0.06484   0.02915   2.03902
   A32        2.30178  -0.00685  -0.07959  -0.06991  -0.15420   2.14758
   A33        1.84107   0.01115   0.13444   0.03170   0.21866   2.05973
   A34        1.98028   0.00012   0.04345  -0.02262   0.01885   1.99913
   A35        1.86000   0.00198  -0.02447   0.06416   0.03753   1.89753
   A36        1.82295   0.00447   0.06815   0.02278   0.08724   1.91018
    D1       -0.07471   0.00173   0.02418  -0.00704   0.01480  -0.05991
    D2       -3.12277  -0.00101  -0.01180  -0.00432  -0.01456  -3.13733
    D3       -2.17214   0.00110   0.01885  -0.01360   0.00373  -2.16841
    D4        1.06299  -0.00164  -0.01714  -0.01088  -0.02563   1.03735
    D5        2.00560   0.00037   0.00713  -0.01356  -0.00843   1.99717
    D6       -1.04246  -0.00237  -0.02886  -0.01084  -0.03779  -1.08025
    D7       -2.94370   0.00588   0.08911  -0.00623   0.06068  -2.88302
    D8        0.09189   0.00473   0.06887  -0.00602   0.05393   0.14582
    D9        0.10982   0.00815   0.12073  -0.00900   0.08792   0.19774
   D10       -3.13777   0.00700   0.10049  -0.00879   0.08116  -3.05661
   D11        2.66307  -0.00237  -0.02131   0.02234   0.01803   2.68110
   D12       -3.13309   0.01486   0.20146   0.17418   0.33099  -2.80210
   D13        0.18593   0.00755   0.11854   0.07754   0.19720   0.38313
   D14       -0.39163  -0.00484  -0.05754   0.02688  -0.01046  -0.40210
   D15        0.09539   0.01238   0.16523   0.17872   0.30249   0.39789
   D16       -2.86878   0.00508   0.08231   0.08208   0.16871  -2.70007
   D17        2.32473   0.00361   0.08878  -0.06687   0.02909   2.35382
   D18        0.30358  -0.00382  -0.11674  -0.00706  -0.12183   0.18175
   D19       -1.90604   0.00329   0.04491  -0.01057   0.04407  -1.86197
   D20       -0.71346   0.00437   0.10586  -0.06740   0.03258  -0.68088
   D21       -2.73461  -0.00305  -0.09967  -0.00759  -0.11835  -2.85296
   D22        1.33895   0.00406   0.06198  -0.01110   0.04756   1.38651
   D23       -1.35172   0.00105   0.00301   0.01685   0.01043  -1.34129
   D24        3.02982  -0.00163  -0.03819   0.00827  -0.04035   2.98947
   D25        0.62637   0.00520   0.08011   0.03307   0.12105   0.74743
   D26       -1.27528   0.00253   0.03891   0.02449   0.07028  -1.20499
   D27        2.85154  -0.00057   0.00405  -0.00673   0.00036   2.85190
   D28        0.94989  -0.00324  -0.03715  -0.01531  -0.05041   0.89948
   D29       -1.48936   0.00326   0.05981   0.02711   0.12230  -1.36705
   D30       -0.50486   0.00106   0.08751   0.01745   0.10839  -0.39647
   D31        2.75776  -0.00034  -0.05288   0.03728   0.00354   2.76130
   D32       -2.54094  -0.00254  -0.02518   0.02761  -0.01037  -2.55131
   D33        0.63674   0.00164  -0.03316   0.04584   0.04096   0.67770
   D34        1.62123  -0.00055  -0.00546   0.03618   0.02705   1.64829
   D35       -0.71656  -0.00061   0.00956   0.05189   0.08459  -0.63197
   D36       -3.00962   0.00397   0.04419   0.03838   0.07234  -2.93728
   D37        0.53896   0.00146  -0.01171  -0.03891  -0.06201   0.47695
   D38        2.83300  -0.00188  -0.14696  -0.01324  -0.13398   2.69901
   D39        1.68333  -0.02090  -0.30454  -0.26552  -0.54522   1.13811
   D40       -1.62480  -0.01396  -0.23558  -0.17129  -0.42279  -2.04759
   D41       -2.39067  -0.02247  -0.30893  -0.27510  -0.54788  -2.93855
   D42        0.58439  -0.01553  -0.23997  -0.18087  -0.42545   0.15894
   D43       -0.04216  -0.00021  -0.00799   0.02500   0.03402  -0.00813
   D44       -2.03858  -0.00689  -0.09734  -0.02994  -0.11215  -2.15073
   D45       -2.21487   0.01033   0.15207   0.03807   0.15553  -2.05933
   D46        2.07189   0.00365   0.06271  -0.01686   0.00936   2.08125
   D47       -3.06282  -0.00226  -0.03950  -0.02739  -0.04647  -3.10929
   D48        1.22394  -0.00895  -0.12885  -0.08232  -0.19265   1.03129
         Item               Value     Threshold  Converged?
 Maximum Force            0.022465     0.000450     NO 
 RMS     Force            0.006827     0.000300     NO 
 Maximum Displacement     1.099613     0.001800     NO 
 RMS     Displacement     0.236155     0.001200     NO 
 Predicted change in Energy=-5.517689D-02
 GradGradGradGradGradGradGradGradGradGradGradGradGradGradGradGradGradGrad

                          Input orientation:                          
 ---------------------------------------------------------------------
 Center     Atomic      Atomic             Coordinates (Angstroms)
 Number     Number       Type             X           Y           Z
 ---------------------------------------------------------------------
      1          6           0        0.957703    0.130949    0.244185
      2          6           0        2.464721    0.177659    0.212633
      3          6           0        3.183402    1.303105    0.181710
      4          6           0        4.638732    1.069684   -0.203437
      5          7           0        5.115528    2.044783   -1.195045
      6          7           0        4.702945   -0.325790   -0.664087
      7          6           0        4.719087   -1.206337    0.504604
      8          6           0        3.262718   -1.078189    0.132141
      9          7           0        2.600951   -2.228292   -0.386194
     10          1           0        0.574982    1.152119    0.299241
     11          1           0        0.537456   -0.433755    1.088097
     12          1           0        0.553054   -0.316643   -0.670635
     13          1           0        2.790890    2.308645    0.303570
     14          1           0        5.271802    1.183581    0.689354
     15          1           0        4.735721    1.763965   -2.097373
     16          1           0        6.123669    1.920804   -1.293397
     17          1           0        5.191109   -1.089547    1.502153
     18          1           0        4.978973   -2.188042    0.112791
     19          1           0        1.634940   -2.075988   -0.645852
     20          1           0        2.652216   -2.968359    0.299420
 ---------------------------------------------------------------------
                    Distance matrix (angstroms):
                    1          2          3          4          5
     1  C    0.000000
     2  C    1.508072   0.000000
     3  C    2.516265   1.335697   0.000000
     4  C    3.825123   2.386451   1.523419   0.000000
     5  N    4.798089   3.534755   2.485689   1.470184   0.000000
     6  N    3.880774   2.455962   2.382788   1.470942   2.464094
     7  C    4.000520   2.661364   2.959710   2.384963   3.689953
     8  C    2.605314   1.490112   2.383130   2.572816   3.866171
     9  N    2.943410   2.483094   3.623883   3.881056   5.023595
    10  H    1.091922   2.127953   2.615429   4.095552   4.862746
    11  H    1.098948   2.203319   3.292302   4.555091   5.684596
    12  H    1.095890   2.163092   3.204498   4.339694   5.164060
    13  H    2.847185   2.157721   1.086291   2.281798   2.778383
    14  H    4.462921   3.019744   2.152534   1.100375   2.077751
    15  H    4.735300   3.606929   2.795766   2.019512   1.018484
    16  H    5.679344   4.323724   3.347038   2.029152   1.020486
    17  H    4.581901   3.271371   3.391053   2.806499   4.135772
    18  H    4.643877   3.453690   3.926440   3.290675   4.432368
    19  H    2.474144   2.550383   3.807999   4.371927   5.421887
    20  H    3.532724   3.152795   4.305974   4.528233   5.782121
                    6          7          8          9         10
     6  N    0.000000
     7  C    1.463373   0.000000
     8  C    1.809513   1.508695   0.000000
     9  N    2.848705   2.514839   1.424551   0.000000
    10  H    4.489131   4.772640   3.496587   4.000194   0.000000
    11  H    4.520299   4.292247   2.959087   3.106752   1.771637
    12  H    4.149906   4.419114   2.926889   2.815882   1.760228
    13  H    3.395963   4.014157   3.423836   4.593000   2.499564
    14  H    2.105612   2.459946   3.076120   4.464430   4.713099
    15  H    2.534258   3.948830   3.901066   4.839783   4.840441
    16  H    2.731607   3.871004   4.383054   5.517931   5.823685
    17  H    2.348238   1.109751   2.365534   3.401693   5.270739
    18  H    2.036593   1.088487   2.043937   2.430143   5.530513
    19  H    3.532164   3.404674   2.061683   1.011828   3.526667
    20  H    3.480949   2.723743   1.993348   1.010145   4.614460
                   11         12         13         14         15
    11  H    0.000000
    12  H    1.762696   0.000000
    13  H    3.635135   3.584568   0.000000
    14  H    5.018845   5.134864   2.751277   0.000000
    15  H    5.709871   4.884590   3.137447   2.896563   0.000000
    16  H    6.513159   6.035376   3.715931   2.280455   1.611638
    17  H    4.717837   5.179763   4.329592   2.415423   4.615896
    18  H    4.873994   4.868742   5.004428   3.433077   4.534574
    19  H    2.628303   2.065523   4.632778   5.063036   5.144609
    20  H    3.393883   3.518392   5.278828   4.924722   5.699167
                   16         17         18         19         20
    16  H    0.000000
    17  H    4.212716   0.000000
    18  H    4.491137   1.783822   0.000000
    19  H    6.045027   4.270050   3.430838   0.000000
    20  H    6.204189   3.379716   2.461203   1.650671   0.000000
 Stoichiometry    C6H11N3
 Framework group  C1[X(C6H11N3)]
 Deg. of freedom    54
 Full point group                 C1      NOp   1
 Largest Abelian subgroup         C1      NOp   1
 Largest concise Abelian subgroup C1      NOp   1
                         Standard orientation:                         
 ---------------------------------------------------------------------
 Center     Atomic      Atomic             Coordinates (Angstroms)
 Number     Number       Type             X           Y           Z
 ---------------------------------------------------------------------
      1          6           0       -1.869781    1.758517    0.021832
      2          6           0       -0.706147    0.820217    0.221401
      3          6           0        0.551259    1.214588    0.439321
      4          6           0        1.567489    0.095681    0.249240
      5          7           0        2.735682    0.530995   -0.530032
      6          7           0        0.820576   -1.011037   -0.367983
      7          6           0        0.046755   -1.692644    0.670321
      8          6           0       -0.889417   -0.653910    0.103950
      9          7           0       -2.012868   -1.104249   -0.647314
     10          1           0       -1.519538    2.785164    0.146817
     11          1           0       -2.706699    1.599738    0.716124
     12          1           0       -2.278190    1.677845   -0.991909
     13          1           0        0.871252    2.235680    0.626411
     14          1           0        1.939588   -0.225929    1.233585
     15          1           0        2.449164    0.561546   -1.506906
     16          1           0        3.430748   -0.215202   -0.491755
     17          1           0        0.279750   -1.907898    1.733771
     18          1           0       -0.304802   -2.610018    0.201666
     19          1           0       -2.588707   -0.363904   -1.026910
     20          1           0       -2.577241   -1.701677   -0.059983
 ---------------------------------------------------------------------
 Rotational constants (GHZ):           2.5151330           1.4708851           1.0470617
 Standard basis: 6-31G(2df,p) (6D, 7F)
 There are   334 symmetry adapted cartesian basis functions of A   symmetry.
 There are   307 symmetry adapted basis functions of A   symmetry.
   307 basis functions,   473 primitive gaussians,   334 cartesian basis functions
    34 alpha electrons       34 beta electrons
       nuclear repulsion energy       459.8855315166 Hartrees.
 NAtoms=   20 NActive=   20 NUniq=   20 SFac= 1.00D+00 NAtFMM=   60 NAOKFM=F Big=F
 Integral buffers will be    131072 words long.
 Raffenetti 2 integral format.
 Two-electron integral symmetry is turned on.
 One-electron integrals computed using PRISM.
 PrsmSu:  requested number of processors reduced to:  13 ShMem   1 Linda.
[...]
 4,0.01402678,0.00995998,0.00209841,-0.01087634,-0.02116299,0.00229826,
 -0.00025609,0.00195024,-0.00114601,-0.13668359,-0.05270371,0.04441543,
 -0.13613930,0.05954218,-0.12963104,0.50788726,0.00198916,0.00781973,0.
 00027601,0.04623091,-0.13949148,-0.01296053,0.00415547,-0.04679099,-0.
 00659661,-0.03192937,-0.02760077,-0.00205100,0.00146950,-0.00126537,0.
 00060587,0.01044903,-0.07013892,0.00530063,0.02264323,-0.04568906,-0.0
 1245222,-0.00173430,0.52078111,0.00494488,-0.00387071,0.00045915,0.012
 38293,-0.01827872,-0.07090752,-0.00443218,-0.00366395,0.00707968,-0.00
 340140,-0.00094278,-0.01251876,0.00144719,0.00306307,-0.00193840,0.032
 50680,-0.00357923,-0.03302801,-0.09142917,0.01293868,-0.11335200,0.107
 14631,0.09572238,0.37837054,-0.00061001,0.00052436,-0.00117294,0.00992
 481,0.00812856,0.00717281,-0.00233287,0.00262782,0.00065741,-0.0046106
 9,0.00225807,-0.00350957,0.00064175,-0.00086804,0.00043846,-0.00696380
 ,-0.02247892,-0.01006919,-0.00806840,-0.01150600,-0.01037623,-0.081233
 00,-0.06689218,-0.04656810,0.39516311,-0.00156854,0.00017182,0.0009367
 2,-0.01380200,-0.02591057,-0.01861757,0.00503488,-0.00193733,-0.001824
 33,-0.00344448,0.00123481,-0.00575568,-0.00043950,-0.00038485,0.000773
 13,-0.01487897,-0.01871994,-0.00841966,-0.00192060,0.00586685,0.006888
 72,-0.01754510,-0.17490594,-0.05933439,0.18136574,0.44912782,-0.001301
 12,0.00044343,0.00032208,-0.00631285,-0.01183339,-0.00476740,0.0034339
 6,-0.00159715,-0.00048291,0.00377414,0.00264707,0.00121652,-0.00025500
 ,-0.00017766,0.00035721,-0.00909711,0.01248845,0.01258513,-0.01025991,
 -0.02592106,-0.02130766,-0.01077372,-0.06546693,-0.14198753,0.08706808
 ,-0.14050004,0.59621032,-0.09550660,0.10140459,0.01543171,-0.01563501,
 0.03187688,0.00477931,0.00251141,0.00065708,-0.00045356,0.00015822,0.0
 0083836,-0.00006548,0.00005256,-0.00028136,0.00006035,-0.00221838,0.00
 065347,0.00058009,0.00016127,-0.00022589,0.00035728,-0.00337278,-0.004
 18023,0.00020507,0.00048248,0.00006926,-0.00002436,0.10583811,0.104079
 64,-0.26122879,-0.03233215,-0.00238412,0.00470263,0.00076659,-0.000759
 67,0.00106051,0.00031272,0.00024471,-0.00000457,0.00002211,0.00005607,
 0.00008600,-0.00005424,-0.00036833,0.00042886,-0.00000673,-0.00014342,
 0.00005016,0.00008090,-0.00149453,0.00005114,-0.00012981,0.00050187,0.
 00001851,0.00004821,-0.11228433,0.28157387,0.01539990,-0.03129950,-0.0
 5113548,0.00293296,-0.00691096,-0.00218048,-0.00071886,0.00004761,-0.0
 0021929,-0.00008518,-0.00020927,-0.00015096,0.00003963,0.00006549,-0.0
 0006591,0.00032499,0.00012639,0.00026656,0.00042439,-0.00020445,-0.000
 13112,0.00051257,-0.00016600,0.00097581,0.00067576,0.00012708,0.000176
 90,-0.01846142,0.03506434,0.05081860,-0.04797973,-0.01501625,0.0274579
 1,-0.00626133,-0.02095047,0.02893913,-0.00283789,0.00169106,0.00101878
 ,-0.00074966,-0.00129193,-0.00290885,0.00019923,0.00020890,-0.00009340
 ,0.00049193,0.00030160,-0.00067883,-0.00054150,0.00030536,0.00003457,0
 .00112080,-0.00051742,-0.00040638,0.00009312,0.00025178,0.00005046,0.0
 0109587,0.00631752,-0.01208330,0.05454653,-0.01272359,-0.12086732,0.11
 473844,-0.00433347,-0.00339019,0.00216127,-0.00047227,0.00149036,0.000
 58645,-0.00033530,-0.00000182,-0.00057217,0.00010916,-0.00003152,-0.00
 003643,-0.00015000,-0.00004308,-0.00010564,-0.00020795,0.00027203,0.00
 018495,0.00022071,-0.00013612,-0.00033298,-0.00015302,0.00021256,0.000
 09355,-0.00369946,-0.01453037,0.02436672,0.01950973,0.12868690,0.02550
 310,0.11561848,-0.22051480,0.00303677,0.00353606,-0.00353825,-0.000289
 53,-0.00138604,-0.00020235,-0.00001722,0.00047749,0.00033604,0.0001080
 5,-0.00012045,-0.00004115,-0.00014745,-0.00025810,0.00032333,0.0004596
 1,-0.00018523,0.00003009,0.00002423,0.00077702,0.00038170,-0.00009464,
 -0.00035443,-0.00006027,-0.00126914,-0.00328656,0.00446003,-0.02977859
 ,-0.12812655,0.24051179,-0.10287319,-0.05694511,-0.09111053,-0.0180609
 1,-0.01838864,-0.02425262,-0.00316537,0.00292127,0.00077463,0.00125823
 ,-0.00170180,0.00197058,-0.00123134,0.00022538,0.00027571,0.00025570,0
 .00065609,0.00023385,0.00011472,-0.00002722,0.00013182,-0.00011031,-0.
 00217219,-0.00074644,0.00169350,0.00017419,0.00022389,0.00677410,0.005
 93613,0.01117329,0.00160658,0.00217089,0.00219279,0.11451286,-0.055139
 05,-0.10304462,-0.09218458,-0.00548502,-0.00335734,-0.00078390,-0.0006
 5561,0.00115258,0.00003386,0.00023912,-0.00006247,0.00047104,-0.000175
 16,-0.00006240,0.00005815,-0.00029211,-0.00004052,-0.00015424,-0.00011
 541,0.00009756,0.00002217,0.00050364,-0.00041239,-0.00013388,0.0000361
 0,0.00025760,0.00028497,-0.01425119,-0.01276635,-0.02145157,0.00892501
 ,0.00828920,0.01369931,0.06588131,0.11015488,-0.08981806,-0.09168365,-
 0.18473240,0.00342368,0.00510414,0.00861350,0.00121021,0.00028660,-0.0
 0028391,-0.00004972,0.00030983,-0.00074601,0.00021536,-0.00004562,-0.0
 0006384,-0.00029367,0.00022057,-0.00001979,-0.00004742,-0.00003503,0.0
 0004842,-0.00058672,-0.00116777,-0.00040106,0.00101546,-0.00002628,0.0
 0009187,-0.00095196,-0.00061490,-0.00308949,-0.01267350,-0.01345792,-0
 .02139431,0.09861805,0.10081063,0.20182534,0.00151835,0.00006566,-0.00
 155672,0.00885047,-0.01755826,-0.00318665,-0.08476007,0.08583033,0.022
 50258,0.00053235,0.02291208,0.00322515,0.00095050,-0.00056039,-0.00075
 529,-0.00406574,0.00456560,0.00128423,-0.00073324,-0.00141110,0.001153
 28,-0.00234624,-0.00279211,0.00327069,0.00089545,-0.00058479,-0.000705
 73,-0.00017102,0.00045394,0.00009843,0.00012814,0.00021954,0.00003020,
 -0.00014580,0.00004688,0.00010776,0.07862978,0.00126370,0.00080283,0.0
 0044824,0.01344931,-0.01562119,-0.00549204,0.08240887,-0.29889214,-0.0
 5471061,-0.00315020,-0.00066509,0.00150523,0.00001935,0.00039359,-0.00
 026546,-0.00064484,0.00021050,0.00010115,0.00010573,0.00022497,-0.0003
 6639,-0.00264002,-0.00130988,-0.00124783,0.00046408,-0.00176606,-0.000
 48162,-0.00093692,0.00025501,0.00016950,-0.00010965,0.00004966,-0.0000
 2073,0.00006345,0.00019437,-0.00001983,-0.09084120,0.31603055,-0.00150
 314,0.00039248,-0.00504737,-0.00018646,0.00437262,0.00325547,0.0222284
 0,-0.05705594,-0.04606218,-0.00194716,-0.00392305,-0.00031403,-0.00059
 243,0.00078764,0.00016721,-0.00172181,-0.00175246,0.00087930,0.0009323
 3,-0.00297227,0.00021618,0.00700491,-0.00152419,0.00939268,-0.00093043
 ,0.00213446,0.00046749,-0.00009077,-0.00005482,0.00020067,0.00069730,0
 .00048044,0.00006909,-0.00061400,-0.00034946,0.00035995,-0.02450790,0.
 06028130,0.03620559,0.00032652,-0.00123119,0.00246079,-0.00229319,0.00
 218320,-0.00032167,-0.02020729,-0.00947938,-0.01833950,-0.15370276,-0.
 04238454,-0.11942003,0.00757728,0.00110330,0.00737344,0.00363598,0.002
 22721,0.00119953,0.00050917,-0.00068542,0.00029311,-0.00203092,0.00118
 466,-0.00109172,0.00058532,-0.00041379,0.00029030,0.00001620,0.0000230
 7,-0.00006073,-0.00086760,-0.00013597,0.00016548,0.00013228,0.00008807
 ,-0.00014520,0.00033248,0.00046647,0.00062783,0.16438112,-0.00035853,0
 .00050792,-0.00064857,0.00169704,-0.00145393,-0.00081627,0.00405386,0.
 00420122,0.00604257,-0.03854178,-0.05896036,-0.04701271,0.01035294,0.0
 0216317,0.01741855,-0.02351039,-0.02189662,-0.01740381,0.00086892,0.00
 300302,-0.00336434,0.00214032,-0.00344280,-0.00488610,-0.00208091,-0.0
 0177391,0.00133710,-0.00004873,0.00001277,0.00005136,0.00031783,0.0000
 5904,-0.00008150,0.00006405,-0.00000968,0.00008971,-0.00051929,0.00004
 643,-0.00011959,0.04783113,0.07717087,-0.00027169,0.00046778,-0.001134
 42,0.00116383,-0.00023088,0.00003398,0.00545105,0.00315336,0.00844126,
 -0.11019568,-0.04718291,-0.16790982,-0.01977997,0.00043687,-0.03098829
 ,-0.00574695,-0.00452827,-0.00284678,0.00150686,0.00150151,0.00301216,
 0.00231027,0.00083311,-0.00115295,-0.00017532,-0.00007960,0.00042436,-
 0.00001071,-0.00000527,0.00001588,0.00041104,0.00006483,-0.00012360,-0
 .00009309,-0.00005731,0.00005150,-0.00078091,-0.00009918,0.00001120,0.
 12389144,0.04509797,0.19641844,-0.00012816,0.00017564,-0.00020666,-0.0
 0025502,-0.00072068,-0.00037848,0.00185416,0.00122715,0.00060922,0.007
 16647,0.00319159,0.00749225,-0.19466198,-0.05692879,-0.15537854,0.0000
 4156,-0.00083755,0.00074680,-0.00003243,0.00013990,0.00016801,0.000553
 09,-0.00018473,-0.00007486,-0.00028848,0.00007159,0.00011968,-0.000027
 26,0.00000406,0.00002656,0.00013447,0.00001751,-0.00005833,0.00002738,
 -0.00004573,0.00004199,-0.00005928,0.00008263,0.00028476,0.00104945,-0
 .00125548,0.00274303,0.20765191,-0.00001117,-0.00017768,0.00006188,-0.
 00007509,0.00042150,-0.00005031,0.00027079,-0.00003121,-0.00095343,0.0
 1149082,-0.00241097,0.02281702,-0.09031350,-0.04668277,-0.10054030,0.0
 0127564,0.00278563,-0.00108865,-0.00020737,-0.00089574,-0.00001202,-0.
 00093442,-0.00008913,0.00102241,0.00047195,0.00017452,-0.00011152,0.00
 008617,-0.00003533,-0.00004914,-0.00002889,-0.00001154,0.00002302,-0.0
 0002427,0.00003856,-0.00000325,0.00019345,-0.00011165,-0.00039893,-0.0
 0096465,0.00031877,0.00221826,0.06814244,0.04829913,0.00003683,-0.0000
 1245,-0.00018699,0.00067635,0.00097130,0.00047899,-0.00117575,-0.00109
 079,0.00192891,-0.02233018,-0.01241007,-0.03059630,-0.16406585,-0.0603
 0427,-0.25261719,0.00049894,-0.00073915,0.00212464,-0.00005576,-0.0003
 8932,0.00077435,0.00027023,0.00061522,0.00006927,0.00018451,-0.0000356
 5,-0.00013314,-0.00000746,0.00001067,-0.00000846,-0.00002258,-0.000012
 24,0.00001965,-0.00008769,-0.00000585,-0.00001830,0.00009480,0.0000050
 4,-0.00027255,0.00259688,0.00373418,-0.00502444,0.17431970,0.06943845,
 0.27506657,-0.00000145,-0.00017125,-0.00021348,0.00045664,0.00140097,0
 .00041715,0.00013850,-0.00192556,0.00302733,-0.01041042,0.00444617,0.0
 0424555,-0.35855621,0.08542847,0.07926071,0.00070721,0.00118180,-0.002
 22873,0.00028858,-0.00009192,-0.00014460,-0.00006298,0.00000425,-0.000
 02375,0.00022637,0.00001980,-0.00010958,0.00002835,-0.00000736,0.00000
 529,-0.00002986,0.00001943,0.00004346,-0.00010822,0.00001001,0.0000293
 4,-0.00007820,0.00011278,-0.00024296,0.00074102,-0.00020000,-0.0000562
 5,-0.02288840,0.01054293,0.00913900,0.38941117,-0.00010453,-0.00016564
 ,-0.00032011,-0.00021881,0.00042092,0.00036506,0.00015407,-0.00040285,
 0.00214761,-0.02275204,-0.00248967,0.01260243,0.13649577,-0.04942961,-
 0.03371968,0.00072989,0.00333000,-0.00135202,-0.00003762,0.00019896,0.
 00032529,-0.00094174,-0.00071548,-0.00022889,0.00016519,0.00017767,0.0
 0013130,0.00006709,-0.00002074,-0.00001713,0.00002754,0.00001952,0.000
 00511,-0.00008268,0.00001203,0.00001891,-0.00040742,0.00000144,0.00018
 807,0.00049493,0.00012255,-0.00076886,-0.01283161,-0.00164627,0.000318
 68,-0.10092270,0.05038041,0.00017683,0.00045422,0.00080427,0.00134463,
 -0.00100893,-0.00025800,0.00021076,0.00468596,-0.00492368,0.03473773,-
 0.01253617,-0.01025116,0.08893959,-0.01934639,-0.08584410,-0.00134747,
 -0.00025031,0.00132534,-0.00007647,0.00010996,0.00015160,-0.00023112,-
 0.00005837,-0.00021851,-0.00013508,0.00010842,0.00002133,-0.00004195,-
 0.00001231,-0.00001752,-0.00000928,-0.00000783,-0.00004400,0.00033568,
 0.00006159,-0.00008800,0.00003924,-0.00016402,0.00008773,-0.00046686,-
 0.00067691,0.00056569,-0.03039056,0.00803208,0.00806056,-0.09307905,0.
 02074854,0.09072921,-0.00019819,0.00012212,-0.00017181,0.00027003,-0.0
 0241288,0.00038435,0.00067386,-0.00012360,0.00094195,0.00206860,0.0020
 5335,-0.00136177,-0.00044286,0.00019136,-0.00052551,-0.00198204,0.0075
 5913,0.01554373,-0.04031897,0.00973479,0.00601495,0.00199799,-0.014638
 13,-0.02247326,-0.00136054,0.00240707,-0.00476861,-0.00005105,0.000011
 10,0.00002815,-0.00011318,-0.00001513,-0.00002246,0.00010023,-0.000024
 39,0.00004948,0.00007078,-0.00001840,-0.00025938,-0.00051466,-0.000477
 41,-0.00060965,-0.00001858,0.00011161,-0.00020350,-0.00002663,0.000133
 25,0.00008934,0.03980785,-0.00001535,-0.00004953,0.00007455,0.00104667
 ,0.00024894,0.00117707,0.00024888,0.00039762,0.00067482,-0.00020491,0.
 00211081,0.00193939,-0.00002108,0.00001989,-0.00059327,0.00242269,0.01
 002354,0.01860851,0.00748429,-0.12822648,-0.12716604,0.00212875,-0.005
 45196,0.00128649,-0.00070023,0.00102664,-0.00158209,0.00003695,0.00000
 794,0.00003280,-0.00013804,0.00000671,0.00001278,0.00001477,-0.0000166
 7,0.00004135,-0.00009241,0.00009103,-0.00026049,-0.00055269,0.00025956
 ,-0.00075506,-0.00003922,-0.00000139,-0.00023460,-0.00000681,0.0000127
 1,-0.00006018,-0.00949619,0.12808380,-0.00021790,0.00035952,0.00000914
 ,0.00004185,-0.00169025,0.00082349,0.00034496,0.00112360,0.00076610,0.
 00027885,-0.00406898,0.00165294,0.00026561,0.00044567,0.00040502,-0.00
 452187,-0.00475402,-0.02477762,0.00444146,-0.12178163,-0.24390770,0.00
 304270,-0.00030310,-0.00980524,0.00031414,0.00025459,0.00034722,-0.000
 09909,-0.00000168,0.00001302,-0.00005910,-0.00002782,-0.00004768,0.000
 07132,-0.00001093,0.00001269,-0.00022587,0.00011606,-0.00004020,0.0004
 9928,0.00139097,0.00027191,0.00002875,-0.00038114,0.00018018,-0.000109
 25,-0.00022095,-0.00001552,-0.00359665,0.12811995,0.27062719,0.0002952
 8,0.00039264,-0.00013472,0.00073752,0.00048010,-0.00466249,-0.00141437
 ,0.00103875,-0.00064964,-0.00000514,-0.00031004,0.00346941,0.00037820,
 -0.00151143,0.00033165,0.00816206,-0.01677063,-0.00538785,-0.10028554,
 0.11898872,-0.00321235,-0.01142162,0.02498646,0.00446738,0.00218737,-0
 .00132227,0.00337490,-0.00010256,-0.00001334,0.00006794,-0.00004773,-0
 .00008878,0.00007127,-0.00007693,-0.00002370,-0.00003720,0.00048718,0.
 00000741,0.00105101,0.00019016,0.00034856,0.00013408,-0.00014509,0.000
 01963,0.00008173,0.00021451,-0.00002333,-0.00014656,0.00080601,-0.0018
 6978,-0.00063459,0.09997443,-0.00008938,0.00014291,0.00003244,-0.00011
 622,-0.00082053,-0.00050883,0.00008853,-0.00001456,0.00000352,0.002197
 35,0.00214479,0.00185767,0.00001094,-0.00093874,0.00034473,0.00408182,
 -0.01480566,0.00594159,0.11579836,-0.26983047,-0.00598256,-0.00465419,
 0.00363534,0.00104106,0.00019257,0.00073988,0.00011825,-0.00001710,-0.
 00000043,0.00004090,0.00004734,0.00001334,-0.00006076,0.00009429,0.000
 01053,0.00000054,0.00024949,-0.00002285,-0.00008040,0.00007648,0.00015
 732,-0.00004540,-0.00005722,0.00002361,0.00000623,0.00010645,0.0001885
 2,-0.00001978,0.00615572,-0.00849955,0.00165073,-0.12426356,0.28787924
 ,-0.00005844,0.00006487,0.00000732,0.00095906,-0.00081672,-0.00075301,
 0.00018208,0.00202000,0.00088274,-0.00364092,-0.00209858,-0.00272061,0
 .00036664,0.00099054,-0.00035487,-0.00650149,0.02543496,-0.00613458,-0
 .00060373,-0.00886954,-0.04668781,-0.00420597,0.00998244,-0.00294883,0
 .00042000,-0.00058397,0.00106532,-0.00000793,0.00000304,-0.00000740,-0
 .00008029,-0.00003682,-0.00002003,-0.00003069,-0.00000705,-0.00001385,
 -0.00021457,0.00013181,0.00072076,0.00029248,0.00024381,0.00001902,-0.
 00000956,-0.00007174,0.00004651,-0.00002672,-0.00028186,-0.00003300,0.
 01147117,-0.02114272,0.00335100,0.00194852,-0.00474553,0.05360872,0.00
 029436,-0.00006145,0.00040211,0.00052338,-0.00014337,0.00108245,0.0000
 7793,-0.00034899,-0.00001999,0.00047670,-0.00021812,-0.00051827,-0.000
 23158,0.00004948,0.00022647,-0.00058593,0.00040131,0.00029640,-0.00013
 523,-0.00242456,-0.00289949,-0.00705343,0.00967144,-0.00677389,-0.1212
 9656,0.04274601,-0.17895221,-0.00002389,-0.00007675,-0.00022351,-0.000
 02488,-0.00001175,-0.00007474,-0.00047506,0.00016678,0.00006288,-0.000
 07728,-0.00011291,-0.00017109,0.00000824,0.00000783,0.00016957,0.00006
 636,-0.00015758,0.00003752,-0.00008393,-0.00002647,0.00004319,-0.00101
 674,-0.00063308,0.00031347,0.00074286,0.00005238,0.00018879,0.12020711
 ,0.00025272,-0.00014250,-0.00021242,-0.00003801,0.00154872,-0.00021220
 ,-0.00035711,-0.00042558,0.00051043,-0.00019250,0.00071644,-0.00002064
 ,0.00016133,-0.00014446,-0.00005832,0.00021739,0.00026867,0.00234495,0
 .00007038,-0.00301497,-0.00342541,-0.01573777,0.00749543,-0.03215040,0
 .04108905,-0.09185605,0.12543464,0.00001848,0.00002787,0.00006980,-0.0
 0002817,0.00003835,0.00007702,0.00037653,-0.00006137,-0.00025247,0.000
 06835,0.00007987,0.00001378,0.00016242,0.00002319,-0.00002724,-0.00009
 188,-0.00001851,0.00006207,0.00002434,0.00002446,-0.00001995,-0.001296
 68,-0.00003286,-0.00014102,-0.00012283,0.00001799,-0.00004618,-0.04054
 015,0.09363096,-0.00007010,0.00000556,-0.00052804,0.00026689,0.0012360
 0,0.00130602,-0.00026302,-0.00025782,0.00007514,-0.00030337,0.00060811
 ,0.00060812,0.00025937,-0.00021541,-0.00007139,-0.00178870,-0.00091959
 ,0.00090036,0.00188683,-0.00301466,-0.00017320,-0.01387400,0.00487739,
 -0.01989040,-0.13602023,0.09897755,-0.28095705,0.00011431,0.00016181,0
 .00028356,0.00002788,0.00000990,0.00010318,0.00098054,-0.00022231,0.00
 001971,0.00007693,0.00018568,-0.00032414,0.00017851,0.00000597,-0.0000
 1238,-0.00007654,0.00003246,0.00007664,0.00005909,0.00004439,-0.000048
 64,-0.00060606,-0.00008102,0.00015765,0.00016273,0.00012389,-0.0000093
 7,0.16162993,-0.10909438,0.31522555,0.00025107,0.00002056,0.00017576,0
 .00057609,0.00024968,0.00044125,-0.00015891,-0.00015106,0.00013242,-0.
 00125749,0.00097998,-0.00158035,0.00000234,-0.00019033,0.00019684,-0.0
 0109240,-0.00480039,-0.00179090,-0.00035344,-0.00015848,0.00104470,-0.
 00926574,0.00225656,0.01104991,-0.18512894,-0.17622028,0.12422482,-0.0
 0001000,-0.00009627,-0.00007686,0.00003668,0.00005971,0.00011714,-0.00
 022846,0.00031045,-0.00017076,0.00004140,0.00001036,-0.00005899,0.0001
 3119,-0.00068995,-0.00006095,-0.00004018,0.00011152,0.00001227,0.00003
 395,0.00008122,0.00000741,0.00024809,0.00038678,-0.00017807,-0.0006766
 1,0.00004595,-0.00044845,0.00860758,0.01596410,-0.01264098,0.18828377,
 -0.00021521,0.00000226,-0.00036499,-0.00018009,-0.00017453,0.00039980,
 -0.00040638,0.00031648,-0.00001688,-0.00114598,-0.00004835,-0.00083302
 ,0.00017473,-0.00003036,0.00005376,0.00393079,-0.00133173,-0.00202829,
 -0.00074572,0.00169458,-0.00068462,-0.02313117,-0.02234245,0.01370558,
 -0.13314607,-0.14175403,0.10464447,0.00021690,0.00031132,0.00014603,0.
 00017716,-0.00012571,-0.00034594,0.00076357,-0.00037349,0.00042444,0.0
 0016165,0.00000862,-0.00015918,0.00000669,-0.00050852,0.00000626,-0.00
 005961,0.00005047,0.00007255,0.00002818,-0.00001892,-0.00003961,0.0000
 2331,-0.00001075,-0.00007955,0.00005740,-0.00002067,-0.00017076,-0.008
 34004,-0.00817564,0.00753651,0.16182988,0.17253145,0.00022463,-0.00020
 584,0.00048960,-0.00012356,-0.00049768,-0.00029896,-0.00006163,-0.0000
 7185,0.00002541,-0.00111764,0.00015546,-0.00056918,0.00000514,-0.00014
 169,0.00009996,-0.00082935,-0.00432320,-0.00043515,0.00137694,0.001398
 82,0.00107142,-0.01523705,-0.01624336,0.01142038,0.11110510,0.12533092
 ,-0.16358978,-0.00004430,0.00002807,-0.00020491,0.00015702,0.00002985,
 -0.00024846,-0.00004710,-0.00008064,-0.00017202,0.00005036,-0.00007632
 ,0.00002714,-0.00002336,-0.00040238,-0.00007271,-0.00000723,0.00001485
 ,0.00003112,0.00000745,0.00001412,-0.00000359,0.00007555,-0.00009223,-
 0.00002357,-0.00029521,0.00028173,-0.00001801,0.02518043,0.01714794,-0
 .01674130,-0.12039620,-0.12226656,0.16921261\\0.00000287,-0.00000105,0
 .00000273,-0.00000117,0.00000640,0.00000333,0.00000207,-0.00000431,-0.
 00000094,-0.00000396,0.00001055,-0.00001049,-0.00000403,-0.00001155,0.
 00000744,-0.00000816,-0.00000251,0.00000887,0.00000243,0.00000152,-0.0
 0001452,0.00001423,-0.00000528,0.00000047,0.00000408,0.00000029,0.0000
 0323,-0.00000070,0.00000040,0.00000084,-0.00000129,-0.00000105,-0.0000
 0155,-0.00000172,0.00000272,-0.00000198,0.00000186,-0.00000048,-0.0000
 0292,0.00000433,-0.00000186,0.00000275,0.00000282,-0.00000111,0.000000
 10,-0.00000059,0.00000511,0.00000287,-0.00000272,0.00000296,0.00000020
 ,-0.00000199,-0.00000004,0.00000234,-0.00000273,0.00000173,-0.00000302
 ,-0.00000564,-0.00000247,0.00000027\\\@


 ONE THORN OF EXPERIENCE IS WORTH A WHOLE WILDERNESS OF
 WARNING....  LOWELL - AMONG MY BOOKS
 Job cpu time:       0 days  2 hours 24 minutes 10.2 seconds.
 Elapsed time:       0 days  0 hours 36 minutes  8.3 seconds.
 File lengths (MBytes):  RWF=    145 Int=      0 D2E=      0 Chk=      9 Scr=      1
 Normal termination of Gaussian 16 at Sun Jul  3 20:05:44 2022.
### All Done ###
