### Starting Gaussian ###
 Entering Gaussian System, Link 0=g16
 Initial command:
 /cluster/software/gaussian/gaussian-16-A.03/avx2/g16/l1.exe "/local/scratch/ks29c/Gau-17836.inp" -scrdir="/local/scratch/ks29c/"
 Entering Link 1 = /cluster/software/gaussian/gaussian-16-A.03/avx2/g16/l1.exe PID=     17837.
  
 Copyright (c) 1988,1990,1992,1993,1995,1998,2003,2009,2016,
            Gaussian, Inc.  All Rights Reserved.
  
 This is part of the Gaussian(R) 16 program.  It is based on
 the Gaussian(R) 09 system (copyright 2009, Gaussian, Inc.),
 the Gaussian(R) 03 system (copyright 2003, Gaussian, Inc.),
 the Gaussian(R) 98 system (copyright 1998, Gaussian, Inc.),
 the Gaussian(R) 94 system (copyright 1995, Gaussian, Inc.),
 the Gaussian 92(TM) system (copyright 1992, Gaussian, Inc.),
 the Gaussian 90(TM) system (copyright 1990, Gaussian, Inc.),
 the Gaussian 88(TM) system (copyright 1988, Gaussian, Inc.),
 the Gaussian 86(TM) system (copyright 1986, Carnegie Mellon
 University), and the Gaussian 82(TM) system (copyright 1983,
 Carnegie Mellon University). Gaussian is a federally registered
 trademark of Gaussian, Inc.
  
 This software contains proprietary and confidential information,
 including trade secrets, belonging to Gaussian, Inc.
  
 This software is provided under written license and may be
 used, copied, transmitted, or stored only in accord with that
 written license.
  
 The following legend is applicable only to US Government
 contracts under FAR:
  
                    RESTRICTED RIGHTS LEGEND
  
 Use, reproduction and disclosure by the US Government is
 subject to restrictions as set forth in subparagraphs (a)
 and (c) of the Commercial Computer Software - Restricted
 Rights clause in FAR 52.227-19.
  
 Gaussian, Inc.
 340 Quinnipiac St., Bldg. 40, Wallingford CT 06492
  
  
 ---------------------------------------------------------------
 Warning -- This program may not be used in any manner that
 competes with the business of Gaussian, Inc. or will provide
 assistance to any competitor of Gaussian, Inc.  The licensee
 of this program is prohibited from giving any competitor of
 Gaussian, Inc. access to this program.  By using this program,
 the user acknowledges that Gaussian, Inc. is engaged in the
 business of creating and licensing software in the field of
 computational chemistry and represents and warrants to the
 licensee that it is not a competitor of Gaussian, Inc. and that
 it will not use this program in any manner prohibited above.
 ---------------------------------------------------------------
  

 Cite this work as:
 Gaussian 16, Revision A.03,
 M. J. Frisch, G. W. Trucks, H. B. Schlegel, G. E. Scuseria, 
 M. A. Robb, J. R. Cheeseman, G. Scalmani, V. Barone, 
 G. A. Petersson, H. Nakatsuji, X. Li, M. Caricato, A. V. Marenich, 
 J. Bloino, B. G. Janesko, R. Gomperts, B. Mennucci, H. P. Hratchian, 
 J. V. Ortiz, A. F. Izmaylov, J. L. Sonnenberg, D. Williams-Young, 
 F. Ding, F. Lipparini, F. Egidi, J. Goings, B. Peng, A. Petrone, 
 T. Henderson, D. Ranasinghe, V. G. Zakrzewski, J. Gao, N. Rega, 
 G. Zheng, W. Liang, M. Hada, M. Ehara, K. Toyota, R. Fukuda, 
 J. Hasegawa, M. Ishida, T. Nakajima, Y. Honda, O. Kitao, H. Nakai, 
 T. Vreven, K. Throssell, J. A. Montgomery, Jr., J. E. Peralta, 
 F. Ogliaro, M. J. Bearpark, J. J. Heyd, E. N. Brothers, K. N. Kudin, 
 V. N. Staroverov, T. A. Keith, R. Kobayashi, J. Normand, 
 K. Raghavachari, A. P. Rendell, J. C. Burant, S. S. Iyengar, 
 J. Tomasi, M. Cossi, J. M. Millam, M. Klene, C. Adamo, R. Cammi, 
 J. W. Ochterski, R. L. Martin, K. Morokuma, O. Farkas, 
 J. B. Foresman, and D. J. Fox, Gaussian, Inc., Wallingford CT, 2016.
 
 ******************************************
 Gaussian 16:  ES64L-G16RevA.03 25-Dec-2016
                 3-Jul-2022 
 ******************************************
 %chk=CC1dNONpOpCdN1.chk
 %NProcShared=20
 Will use up to   20 processors via shared memory.
 -----------------------------
 # opt freq b3lyp/6-31g(2df,p)
 -----------------------------
 1/18=20,19=15,26=3,38=1/1,3;
 2/9=110,12=2,17=6,18=5,40=1/2;
 3/5=1,6=6,7=104,11=2,25=1,30=1,71=1,74=-5/1,2,3;
 4//1;
 5/5=2,38=5/2;
 6/7=2,8=2,9=2,10=2,28=1/1;
 7//1,2,3,16;
 1/18=20,19=15,26=3/3(2);
 2/9=110/2;
 99//99;
 2/9=110/2;
 3/5=1,6=6,7=104,11=2,25=1,30=1,71=1,74=-5/1,2,3;
 4/5=5,16=3,69=1/1;
 5/5=2,38=5/2;
 7//1,2,3,16;
 1/18=20,19=15,26=3/3(-5);
 2/9=110/2;
 6/7=2,8=2,9=2,10=2,19=2,28=1/1;
 99/9=1/99;
 -------------------
 Title Card Required
 -------------------
 Symbolic Z-matrix:
 Charge =  0 Multiplicity = 1
 C                     1.10588  -0.09472  -0.0597 
 C                     2.61113  -0.04267  -0.05993 
 N                     3.18593   1.12025  -0.0588 
 O                     4.58799   1.15448  -0.05174 
 N                     5.25488  -0.04331  -0.07747 
 O                     6.63017  -0.10407  -0.04763 
 C                     4.52522  -1.18042  -0.06345 
 N                     3.23789  -1.25959  -0.05862 
 H                     0.69357   0.91886  -0.06071 
 H                     0.75152  -0.61832   0.83259 
 H                     0.75092  -0.62085  -0.95009 
 H                     6.86552   0.84158  -0.0501 
 H                     5.13632  -2.09834  -0.06378 
 

 GradGradGradGradGradGradGradGradGradGradGradGradGradGradGradGradGradGrad
 Berny optimization.
 Initialization pass.
                           ----------------------------
                           !    Initial Parameters    !
                           ! (Angstroms and Degrees)  !
 --------------------------                            --------------------------
 ! Name  Definition              Value          Derivative Info.                !
 --------------------------------------------------------------------------------
 ! R1    R(1,2)                  1.5061         estimate D2E/DX2                !
 ! R2    R(1,9)                  1.0942         estimate D2E/DX2                !
 ! R3    R(1,10)                 1.0936         estimate D2E/DX2                !
 ! R4    R(1,11)                 1.0934         estimate D2E/DX2                !
 ! R5    R(2,3)                  1.2972         estimate D2E/DX2                !
 ! R6    R(2,8)                  1.3688         estimate D2E/DX2                !
 ! R7    R(3,4)                  1.4025         estimate D2E/DX2                !
 ! R8    R(4,5)                  1.3712         estimate D2E/DX2                !
 ! R9    R(5,6)                  1.377          estimate D2E/DX2                !
 ! R10   R(5,7)                  1.3512         estimate D2E/DX2                !
 ! R11   R(6,12)                 0.9745         estimate D2E/DX2                !
 ! R12   R(7,8)                  1.2898         estimate D2E/DX2                !
 ! R13   R(7,13)                 1.1027         estimate D2E/DX2                !
 ! A1    A(2,1,9)              110.1553         estimate D2E/DX2                !
 ! A2    A(2,1,10)             109.9083         estimate D2E/DX2                !
 ! A3    A(2,1,11)             109.934          estimate D2E/DX2                !
 ! A4    A(9,1,10)             108.7936         estimate D2E/DX2                !
 ! A5    A(9,1,11)             108.8222         estimate D2E/DX2                !
 ! A6    A(10,1,11)            109.1988         estimate D2E/DX2                !
 ! A7    A(1,2,3)              118.2824         estimate D2E/DX2                !
 ! A8    A(1,2,8)              115.2697         estimate D2E/DX2                !
 ! A9    A(3,2,8)              126.4478         estimate D2E/DX2                !
 ! A10   A(2,3,4)              117.7004         estimate D2E/DX2                !
 ! A11   A(3,4,5)              117.6973         estimate D2E/DX2                !
 ! A12   A(4,5,6)              121.5954         estimate D2E/DX2                !
 ! A13   A(4,5,7)              118.1852         estimate D2E/DX2                !
 ! A14   A(6,5,7)              120.1333         estimate D2E/DX2                !
 ! A15   A(5,6,12)             101.44           estimate D2E/DX2                !
 ! A16   A(5,7,8)              126.2069         estimate D2E/DX2                !
 ! A17   A(5,7,13)             113.6575         estimate D2E/DX2                !
 ! A18   A(8,7,13)             120.1341         estimate D2E/DX2                !
 ! A19   A(2,8,7)              113.7306         estimate D2E/DX2                !
 ! D1    D(9,1,2,3)              0.1209         estimate D2E/DX2                !
 ! D2    D(9,1,2,8)            179.9948         estimate D2E/DX2                !
 ! D3    D(10,1,2,3)          -119.7412         estimate D2E/DX2                !
 ! D4    D(10,1,2,8)            60.1326         estimate D2E/DX2                !
 ! D5    D(11,1,2,3)           120.0348         estimate D2E/DX2                !
 ! D6    D(11,1,2,8)           -60.0914         estimate D2E/DX2                !
 ! D7    D(1,2,3,4)            179.6637         estimate D2E/DX2                !
 ! D8    D(8,2,3,4)             -0.1945         estimate D2E/DX2                !
 ! D9    D(1,2,8,7)            179.7771         estimate D2E/DX2                !
 ! D10   D(3,2,8,7)             -0.361          estimate D2E/DX2                !
 ! D11   D(2,3,4,5)              1.4609         estimate D2E/DX2                !
 ! D12   D(3,4,5,6)           -178.7704         estimate D2E/DX2                !
 ! D13   D(3,4,5,7)             -2.1413         estimate D2E/DX2                !
 ! D14   D(4,5,6,12)            -2.4264         estimate D2E/DX2                !
 ! D15   D(7,5,6,12)          -178.9909         estimate D2E/DX2                !
 ! D16   D(4,5,7,8)              1.708          estimate D2E/DX2                !
 ! D17   D(4,5,7,13)          -178.7405         estimate D2E/DX2                !
 ! D18   D(6,5,7,8)            178.3882         estimate D2E/DX2                !
 ! D19   D(6,5,7,13)            -2.0603         estimate D2E/DX2                !
 ! D20   D(5,7,8,2)             -0.4255         estimate D2E/DX2                !
 ! D21   D(13,7,8,2)          -179.9505         estimate D2E/DX2                !
 --------------------------------------------------------------------------------
 Trust Radius=3.00D-01 FncErr=1.00D-07 GrdErr=1.00D-06 EigMax=2.50D+02 EigMin=1.00D-04
 Number of steps in this run=     63 maximum allowed number of steps=    100.
 GradGradGradGradGradGradGradGradGradGradGradGradGradGradGradGradGradGrad

                          Input orientation:                          
 ---------------------------------------------------------------------
 Center     Atomic      Atomic             Coordinates (Angstroms)
 Number     Number       Type             X           Y           Z
 ---------------------------------------------------------------------
      1          6           0        1.105880   -0.094720   -0.059700
      2          6           0        2.611130   -0.042670   -0.059930
      3          7           0        3.185930    1.120250   -0.058800
      4          8           0        4.587990    1.154480   -0.051740
      5          7           0        5.254880   -0.043310   -0.077470
      6          8           0        6.630170   -0.104070   -0.047630
      7          6           0        4.525220   -1.180420   -0.063450
      8          7           0        3.237890   -1.259590   -0.058620
      9          1           0        0.693570    0.918860   -0.060710
     10          1           0        0.751520   -0.618320    0.832590
     11          1           0        0.750920   -0.620850   -0.950090
     12          1           0        6.865520    0.841580   -0.050100
     13          1           0        5.136320   -2.098340   -0.063780
 ---------------------------------------------------------------------
                    Distance matrix (angstroms):
                    1          2          3          4          5
     1  C    0.000000
     2  C    1.506150   0.000000
     3  N    2.408892   1.297220   0.000000
     4  O    3.699413   2.311106   1.402496   0.000000
     5  N    4.149357   2.643808   2.373768   1.371169   0.000000
     6  O    5.524311   4.019528   3.655390   2.398846   1.376955
     7  C    3.587568   2.226708   2.662105   2.335773   1.351155
     8  N    2.429483   1.368840   2.380407   2.765963   2.355407
     9  H    1.094233   2.145129   2.500484   3.901552   4.661717
    10  H    1.093576   2.141521   3.121467   4.317796   4.630237
    11  H    1.093437   2.141742   3.123316   4.322260   4.623924
    12  H    5.835255   4.345323   3.690138   2.298924   1.837917
    13  H    4.500995   3.256129   3.763425   3.298734   2.058493
                    6          7          8          9         10
     6  O    0.000000
     7  C    2.364232   0.000000
     8  N    3.583701   1.289771   0.000000
     9  H    6.024100   4.369042   3.349509   0.000000
    10  H    5.966386   3.919140   2.717999   1.778838   0.000000
    11  H    5.970517   3.917217   2.718037   1.779043   1.782682
    12  H    0.974500   3.092841   4.192217   6.172443   6.347554
    13  H    2.491779   1.102733   2.075467   5.370431   4.713853
                   11         12         13
    11  H    0.000000
    12  H    6.351143   0.000000
    13  H    4.711715   3.410784   0.000000
 Stoichiometry    C3H5N3O2
 Framework group  C1[X(C3H5N3O2)]
 Deg. of freedom    33
 Full point group                 C1      NOp   1
 Largest Abelian subgroup         C1      NOp   1
 Largest concise Abelian subgroup C1      NOp   1
                         Standard orientation:                         
 ---------------------------------------------------------------------
 Center     Atomic      Atomic             Coordinates (Angstroms)
 Number     Number       Type             X           Y           Z
 ---------------------------------------------------------------------
      1          6           0        2.813777    0.008079    0.001653
      2          6           0        1.307865   -0.018647    0.000196
      3          7           0        0.713590   -1.171734   -0.001977
      4          8           0       -0.688853   -1.182397    0.003974
      5          7           0       -1.335486    0.026500   -0.019272
      6          8           0       -2.709582    0.110307    0.009715
      7          6           0       -0.586818    1.151139   -0.001900
      8          7           0        0.701657    1.208635    0.004066
      9          1           0        3.208984   -1.012286   -0.001569
     10          1           0        3.176203    0.523443    0.895497
     11          1           0        3.178221    0.530360   -0.887170
     12          1           0       -2.960800   -0.831242    0.004728
     13          1           0       -1.182395    2.079205   -0.000400
 ---------------------------------------------------------------------
 Rotational constants (GHZ):           5.8496791           1.5501649           1.2350625
 Standard basis: 6-31G(2df,p) (6D, 7F)
 There are   273 symmetry adapted cartesian basis functions of A   symmetry.
 There are   249 symmetry adapted basis functions of A   symmetry.
   249 basis functions,   387 primitive gaussians,   273 cartesian basis functions
    30 alpha electrons       30 beta electrons
       nuclear repulsion energy       379.6115990256 Hartrees.
 NAtoms=   13 NActive=   13 NUniq=   13 SFac= 1.00D+00 NAtFMM=   60 NAOKFM=F Big=F
 Integral buffers will be    131072 words long.
 Raffenetti 2 integral format.
 Two-electron integral symmetry is turned on.
 One-electron integrals computed using PRISM.
 PrsmSu:  requested number of processors reduced to:  13 ShMem   1 Linda.
 NBasis=   249 RedAO= T EigKep=  2.23D-04  NBF=   249
 NBsUse=   249 1.00D-06 EigRej= -1.00D+00 NBFU=   249
 ExpMin= 1.61D-01 ExpMax= 5.48D+03 ExpMxC= 8.25D+02 IAcc=3 IRadAn=         5 AccDes= 0.00D+00
 Harris functional with IExCor=  402 and IRadAn=       5 diagonalized for initial guess.
 HarFok:  IExCor=  402 AccDes= 0.00D+00 IRadAn=         5 IDoV= 1 UseB2=F ITyADJ=14
 ICtDFT=  3500011 ScaDFX=  1.000000  1.000000  1.000000  1.000000
 FoFCou: FMM=F IPFlag=           0 FMFlag=      100000 FMFlg1=           0
         NFxFlg=           0 DoJE=T BraDBF=F KetDBF=T FulRan=T
         wScrn=  0.000000 ICntrl=       500 IOpCl=  0 I1Cent=   200000004 NGrid=           0
         NMat0=    1 NMatS0=      1 NMatT0=    0 NMatD0=    1 NMtDS0=    0 NMtDT0=    0
 Petite list used in FoFCou.
 Requested convergence on RMS density matrix=1.00D-08 within 128 cycles.
 Requested convergence on MAX density matrix=1.00D-06.
 Requested convergence on             energy=1.00D-06.
 No special actions if energy rises.
 Integral accuracy reduced to 1.0D-05 until final iterations.
 Initial convergence to 1.0D-05 achieved.  Increase integral accuracy.
 SCF Done:  E(RB3LYP) =  -431.841165383     A.U. after   16 cycles
            NFock= 16  Conv=0.60D-08     -V/T= 2.0062

 **********************************************************************

            Population analysis using the SCF density.

 **********************************************************************

 Orbital symmetries:
       Occupied  (A) (A) (A) (A) (A) (A) (A) (A) (A) (A) (A) (A)
                 (A) (A) (A) (A) (A) (A) (A) (A) (A) (A) (A) (A)
                 (A) (A) (A) (A) (A) (A)
       Virtual   (A) (A) (A) (A) (A) (A) (A) (A) (A) (A) (A) (A)
                 (A) (A) (A) (A) (A) (A) (A) (A) (A) (A) (A) (A)
                 (A) (A) (A) (A) (A) (A) (A) (A) (A) (A) (A) (A)
                 (A) (A) (A) (A) (A) (A) (A) (A) (A) (A) (A) (A)
                 (A) (A) (A) (A) (A) (A) (A) (A) (A) (A) (A) (A)
                 (A) (A) (A) (A) (A) (A) (A) (A) (A) (A) (A) (A)
                 (A) (A) (A) (A) (A) (A) (A) (A) (A) (A) (A) (A)
                 (A) (A) (A) (A) (A) (A) (A) (A) (A) (A) (A) (A)
                 (A) (A) (A) (A) (A) (A) (A) (A) (A) (A) (A) (A)
                 (A) (A) (A) (A) (A) (A) (A) (A) (A) (A) (A) (A)
                 (A) (A) (A) (A) (A) (A) (A) (A) (A) (A) (A) (A)
                 (A) (A) (A) (A) (A) (A) (A) (A) (A) (A) (A) (A)
                 (A) (A) (A) (A) (A) (A) (A) (A) (A) (A) (A) (A)
                 (A) (A) (A) (A) (A) (A) (A) (A) (A) (A) (A) (A)
                 (A) (A) (A) (A) (A) (A) (A) (A) (A) (A) (A) (A)
                 (A) (A) (A) (A) (A) (A) (A) (A) (A) (A) (A) (A)
                 (A) (A) (A) (A) (A) (A) (A) (A) (A) (A) (A) (A)
                 (A) (A) (A) (A) (A) (A) (A) (A) (A) (A) (A) (A)
                 (A) (A) (A)
 The electronic state is 1-A.
 Alpha  occ. eigenvalues --  -19.23898 -19.22424 -14.47425 -14.37347 -14.30684
 Alpha  occ. eigenvalues --  -10.28250 -10.25782 -10.18739  -1.18656  -1.09736
 Alpha  occ. eigenvalues --   -0.95498  -0.90790  -0.79395  -0.74609  -0.66368
 Alpha  occ. eigenvalues --   -0.61314  -0.58031  -0.51055  -0.50918  -0.47246
 Alpha  occ. eigenvalues --   -0.43627  -0.43179  -0.39503  -0.39400  -0.38677
 Alpha  occ. eigenvalues --   -0.35600  -0.33327  -0.30475  -0.26156  -0.18115
 Alpha virt. eigenvalues --   -0.03953   0.02203   0.05827   0.08530   0.10557
 Alpha virt. eigenvalues --    0.12137   0.13580   0.16952   0.18670   0.18918
 Alpha virt. eigenvalues --    0.24274   0.25794   0.26933   0.33406   0.41042
 Alpha virt. eigenvalues --    0.43998   0.47471   0.48193   0.50030   0.51076
 Alpha virt. eigenvalues --    0.52068   0.53083   0.55462   0.56645   0.59602
 Alpha virt. eigenvalues --    0.60452   0.61295   0.62476   0.66826   0.67314
 Alpha virt. eigenvalues --    0.68463   0.70827   0.70892   0.72677   0.74770
 Alpha virt. eigenvalues --    0.76582   0.77260   0.78508   0.80668   0.83489
 Alpha virt. eigenvalues --    0.83965   0.84645   0.87544   0.87953   0.89514
 Alpha virt. eigenvalues --    0.90971   0.93632   0.95462   0.98507   0.99893
 Alpha virt. eigenvalues --    1.00983   1.04611   1.05257   1.06424   1.14960
 Alpha virt. eigenvalues --    1.20692   1.22941   1.23728   1.25203   1.32417
 Alpha virt. eigenvalues --    1.34729   1.36647   1.37613   1.41002   1.42280
 Alpha virt. eigenvalues --    1.43372   1.47180   1.50019   1.50965   1.52317
 Alpha virt. eigenvalues --    1.54061   1.54780   1.55247   1.59439   1.61687
 Alpha virt. eigenvalues --    1.67734   1.71530   1.74754   1.77415   1.78843
 Alpha virt. eigenvalues --    1.85352   1.91020   1.93010   1.94535   1.97154
 Alpha virt. eigenvalues --    1.97835   1.99342   2.12445   2.15890   2.18672
 Alpha virt. eigenvalues --    2.23114   2.26274   2.31066   2.32314   2.34132
 Alpha virt. eigenvalues --    2.37374   2.45997   2.47862   2.52977   2.64729
 Alpha virt. eigenvalues --    2.67428   2.76989   2.82321   2.86096   2.86506
 Alpha virt. eigenvalues --    2.89750   2.90891   2.92602   2.97890   3.00703
 Alpha virt. eigenvalues --    3.03213   3.04262   3.11187   3.15389   3.20527
 Alpha virt. eigenvalues --    3.24337   3.26013   3.28660   3.32091   3.38900
 Alpha virt. eigenvalues --    3.40364   3.46218   3.46600   3.48313   3.56082
 Alpha virt. eigenvalues --    3.59617   3.60638   3.61851   3.63784   3.67983
 Alpha virt. eigenvalues --    3.68364   3.75088   3.79415   3.82266   3.86226
 Alpha virt. eigenvalues --    3.91786   3.92303   3.93976   3.94486   3.98309
 Alpha virt. eigenvalues --    4.02733   4.03734   4.07346   4.09007   4.11857
 Alpha virt. eigenvalues --    4.17135   4.22890   4.23197   4.25052   4.29343
 Alpha virt. eigenvalues --    4.30890   4.31791   4.32974   4.39359   4.39407
 Alpha virt. eigenvalues --    4.40441   4.40846   4.43766   4.46167   4.47789
 Alpha virt. eigenvalues --    4.48404   4.50546   4.51257   4.53594   4.54995
 Alpha virt. eigenvalues --    4.56752   4.57030   4.62111   4.64177   4.69760
 Alpha virt. eigenvalues --    4.72172   4.73797   4.79212   4.82937   4.84796
 Alpha virt. eigenvalues --    4.87927   4.89646   4.90273   4.96110   5.04409
 Alpha virt. eigenvalues --    5.08408   5.08563   5.18562   5.20592   5.22242
 Alpha virt. eigenvalues --    5.24669   5.30637   5.36021   5.38571   5.42752
 Alpha virt. eigenvalues --    5.49047   5.52879   5.63904   5.65795   5.67249
 Alpha virt. eigenvalues --    5.71845   5.74103   5.80723   5.81786   5.93395
 Alpha virt. eigenvalues --    5.96494   5.99053   6.06951   6.11807   6.17815
 Alpha virt. eigenvalues --    6.77435   7.04015   7.10968  10.30205  10.63443
 Alpha virt. eigenvalues --   11.05548  11.24856  11.41061  11.60797  11.79821
 Alpha virt. eigenvalues --   13.04165  13.52265  13.85620  18.05350
          Condensed to atoms (all electrons):
               1          2          3          4          5          6
     1  C    5.077113   0.371540  -0.038025   0.002389   0.001004   0.000001
     2  C    0.371540   4.291954   0.648669  -0.070890  -0.012332  -0.000248
     3  N   -0.038025   0.648669   6.413160   0.245669  -0.037602   0.001807
     4  O    0.002389  -0.070890   0.245669   8.045007   0.195984  -0.029570
     5  N    0.001004  -0.012332  -0.037602   0.195984   5.953448   0.242369
     6  O    0.000001  -0.000248   0.001807  -0.029570   0.242369   7.922932
     7  C   -0.000455  -0.066802   0.001862  -0.030673   0.463391  -0.027909
     8  N   -0.050825   0.478527  -0.054833  -0.019830  -0.026333   0.002165
     9  H    0.363563  -0.015954   0.002290   0.000003  -0.000012  -0.000000
    10  H    0.364883  -0.016386  -0.000634  -0.000033  -0.000020  -0.000000
    11  H    0.364478  -0.016290  -0.000525  -0.000034  -0.000020  -0.000000
    12  H   -0.000003   0.000004   0.000130   0.009866  -0.060852   0.311945
    13  H   -0.000259   0.005197  -0.000131   0.002171  -0.047056   0.000321
               7          8          9         10         11         12
     1  C   -0.000455  -0.050825   0.363563   0.364883   0.364478  -0.000003
     2  C   -0.066802   0.478527  -0.015954  -0.016386  -0.016290   0.000004
     3  N    0.001862  -0.054833   0.002290  -0.000634  -0.000525   0.000130
     4  O   -0.030673  -0.019830   0.000003  -0.000033  -0.000034   0.009866
     5  N    0.463391  -0.026333  -0.000012  -0.000020  -0.000020  -0.060852
     6  O   -0.027909   0.002165  -0.000000  -0.000000  -0.000000   0.311945
     7  C    4.532992   0.622330  -0.000145   0.000353   0.000344   0.004209
     8  N    0.622330   6.442306   0.002095   0.001830   0.001943  -0.000238
     9  H   -0.000145   0.002095   0.561239  -0.026865  -0.026907   0.000000
    10  H    0.000353   0.001830  -0.026865   0.561025  -0.030361   0.000000
    11  H    0.000344   0.001943  -0.026907  -0.030361   0.561377   0.000000
    12  H    0.004209  -0.000238   0.000000   0.000000   0.000000   0.406070
    13  H    0.353862  -0.019395   0.000004   0.000001   0.000000  -0.000556
              13
     1  C   -0.000259
     2  C    0.005197
     3  N   -0.000131
     4  O    0.002171
     5  N   -0.047056
     6  O    0.000321
     7  C    0.353862
     8  N   -0.019395
     9  H    0.000004
    10  H    0.000001
    11  H    0.000000
    12  H   -0.000556
    13  H    0.554986
 Mulliken charges:
               1
     1  C   -0.455405
     2  C    0.403011
     3  N   -0.181836
     4  O   -0.350059
     5  N    0.328029
     6  O   -0.423813
     7  C    0.146641
     8  N   -0.379742
     9  H    0.140689
    10  H    0.146208
    11  H    0.145995
    12  H    0.329425
    13  H    0.150856
 Sum of Mulliken charges =  -0.00000
 Mulliken charges with hydrogens summed into heavy atoms:
               1
     1  C   -0.022513
     2  C    0.403011
     3  N   -0.181836
     4  O   -0.350059
     5  N    0.328029
     6  O   -0.094388
     7  C    0.297497
     8  N   -0.379742
 Electronic spatial extent (au):  <R**2>=            917.0921
 Charge=             -0.0000 electrons
 Dipole moment (field-independent basis, Debye):
    X=             -1.7765    Y=              0.1762    Z=              0.0021  Tot=              1.7852
 Quadrupole moment (field-independent basis, Debye-Ang):
   XX=            -36.0335   YY=            -48.4876   ZZ=            -45.3485
   XY=              2.0223   XZ=             -0.0040   YZ=             -0.0145
 Traceless Quadrupole moment (field-independent basis, Debye-Ang):
   XX=              7.2564   YY=             -5.1978   ZZ=             -2.0586
   XY=              2.0223   XZ=             -0.0040   YZ=             -0.0145
 Octapole moment (field-independent basis, Debye-Ang**2):
  XXX=            -21.2054  YYY=             -0.2072  ZZZ=              0.0690  XYY=            -18.5026
  XXY=            -15.0919  XXZ=              0.0180  XZZ=             -3.6038  YZZ=             -1.1321
  YYZ=             -0.0186  XYZ=             -0.0162
 Hexadecapole moment (field-independent basis, Debye-Ang**3):
 XXXX=           -753.2763 YYYY=           -252.8307 ZZZZ=            -45.2510 XXXY=             50.1444
 XXXZ=             -0.0523 YYYX=             -6.4048 YYYZ=             -0.0779 ZZZX=             -0.0636
 ZZZY=             -0.0051 XXYY=           -167.7754 XXZZ=           -146.0221 YYZZ=            -50.0682
 XXYZ=             -0.0635 YYXZ=             -0.0668 ZZXY=              3.7640
 N-N= 3.796115990256D+02 E-N=-1.769812582697D+03  KE= 4.291895483047D+02
 PrsmSu:  requested number of processors reduced to:  13 ShMem   1 Linda.
 Calling FoFJK, ICntrl=      2127 FMM=F ISym2X=0 I1Cent= 0 IOpClX= 0 NMat=1 NMatS=1 NMatT=0.
 ***** Axes restored to original set *****
 -------------------------------------------------------------------
 Center     Atomic                   Forces (Hartrees/Bohr)
 Number     Number              X              Y              Z
 -------------------------------------------------------------------
      1        6           0.004066802    0.014686822   -0.000094337
      2        6          -0.000762791    0.019778664    0.000203017
      3        7          -0.039267181   -0.011585160    0.000086099
      4        8           0.034298984    0.054941491    0.001938601
      5        7          -0.038302538   -0.090232861   -0.003320625
      6        8          -0.001301246    0.027556334    0.001553075
      7        6           0.042210691    0.002616391    0.000058823
      8        7          -0.005337990   -0.015859890   -0.000175575
      9        1           0.000088082   -0.001464541   -0.000017657
     10        1           0.000999817   -0.002540170   -0.001154607
     11        1           0.000921492   -0.002564447    0.001092358
     12        1           0.005431663   -0.004266189   -0.000194275
     13        1          -0.003045785    0.008933555    0.000025104
 -------------------------------------------------------------------
 Cartesian Forces:  Max     0.090232861 RMS     0.022134509

 GradGradGradGradGradGradGradGradGradGradGradGradGradGradGradGradGradGrad
 Berny optimization.
 FormGI is forming the generalized inverse of G from B-inverse, IUseBI=4.
 Internal  Forces:  Max     0.037454587 RMS     0.011623063
 Search for a local minimum.
 Step number   1 out of a maximum of   63
 All quantities printed in internal units (Hartrees-Bohrs-Radians)
 Mixed Optimization -- RFO/linear search
 Second derivative matrix not updated -- first step.
 ITU=  0
     Eigenvalues ---    0.00685   0.01539   0.01600   0.01799   0.02021
     Eigenvalues ---    0.02505   0.02602   0.02686   0.07383   0.07392
     Eigenvalues ---    0.16000   0.16000   0.16000   0.16000   0.16000
     Eigenvalues ---    0.23249   0.24966   0.24991   0.24999   0.25000
     Eigenvalues ---    0.31741   0.33382   0.34328   0.34403   0.34418
     Eigenvalues ---    0.43951   0.47673   0.49663   0.50980   0.52468
     Eigenvalues ---    0.53111   0.65519   0.68569
 RFO step:  Lambda=-1.99408977D-02 EMin= 6.84599228D-03
 Linear search not attempted -- first point.
 Iteration  1 RMS(Cart)=  0.04293013 RMS(Int)=  0.00143760
 Iteration  2 RMS(Cart)=  0.00232171 RMS(Int)=  0.00032198
 Iteration  3 RMS(Cart)=  0.00000121 RMS(Int)=  0.00032198
 Iteration  4 RMS(Cart)=  0.00000000 RMS(Int)=  0.00032198
 Variable       Old X    -DE/DX   Delta X   Delta X   Delta X     New X
                                 (Linear)    (Quad)   (Total)
    R1        2.84621  -0.00635   0.00000  -0.01883  -0.01883   2.82738
    R2        2.06780  -0.00139   0.00000  -0.00382  -0.00382   2.06398
    R3        2.06656  -0.00005   0.00000  -0.00014  -0.00014   2.06642
    R4        2.06630   0.00004   0.00000   0.00012   0.00012   2.06642
    R5        2.45139  -0.01062   0.00000  -0.01493  -0.01506   2.43633
    R6        2.58673   0.02476   0.00000   0.04623   0.04589   2.63263
    R7        2.65033   0.02503   0.00000   0.05381   0.05405   2.70438
    R8        2.59113   0.03745   0.00000   0.07134   0.07168   2.66281
    R9        2.60207   0.00313   0.00000   0.00605   0.00605   2.60812
   R10        2.55331  -0.02923   0.00000  -0.05186  -0.05176   2.50155
   R11        1.84154  -0.00283   0.00000  -0.00519  -0.00519   1.83634
   R12        2.43731   0.01395   0.00000   0.01882   0.01859   2.45591
   R13        2.08386  -0.00912   0.00000  -0.02579  -0.02579   2.05807
    A1        1.92257   0.00223   0.00000   0.01839   0.01839   1.94096
    A2        1.91826  -0.00186   0.00000  -0.01331  -0.01348   1.90478
    A3        1.91871  -0.00177   0.00000  -0.01284  -0.01302   1.90569
    A4        1.89881   0.00126   0.00000   0.01289   0.01289   1.91170
    A5        1.89931   0.00122   0.00000   0.01266   0.01266   1.91196
    A6        1.90588  -0.00105   0.00000  -0.01757  -0.01793   1.88794
    A7        2.06442  -0.01307   0.00000  -0.04875  -0.04854   2.01588
    A8        2.01184   0.00314   0.00000   0.01129   0.01149   2.02333
    A9        2.20693   0.00993   0.00000   0.03746   0.03705   2.24398
   A10        2.05426  -0.00349   0.00000  -0.00896  -0.00877   2.04549
   A11        2.05421  -0.02005   0.00000  -0.07028  -0.06938   1.98482
   A12        2.12224  -0.03711   0.00000  -0.13818  -0.13837   1.98387
   A13        2.06272   0.02479   0.00000   0.09216   0.09250   2.15522
   A14        2.09672   0.01228   0.00000   0.04498   0.04471   2.14143
   A15        1.77046   0.01159   0.00000   0.06443   0.06443   1.83489
   A16        2.20273  -0.01144   0.00000  -0.04929  -0.04944   2.15329
   A17        1.98370   0.00320   0.00000   0.01065   0.01073   1.99443
   A18        2.09674   0.00824   0.00000   0.03862   0.03870   2.13544
   A19        1.98497   0.00025   0.00000  -0.00130  -0.00219   1.98278
    D1        0.00211  -0.00004   0.00000  -0.00051  -0.00051   0.00160
    D2        3.14150   0.00004   0.00000   0.00061   0.00061  -3.14107
    D3       -2.08988  -0.00183   0.00000  -0.01960  -0.01945  -2.10933
    D4        1.04951  -0.00175   0.00000  -0.01848  -0.01833   1.03119
    D5        2.09500   0.00175   0.00000   0.01862   0.01846   2.11346
    D6       -1.04879   0.00184   0.00000   0.01973   0.01959  -1.02920
    D7        3.13572   0.00019   0.00000   0.00494   0.00506   3.14078
    D8       -0.00340   0.00011   0.00000   0.00374   0.00382   0.00043
    D9        3.13770  -0.00007   0.00000  -0.00208  -0.00195   3.13576
   D10       -0.00630  -0.00001   0.00000  -0.00099  -0.00078  -0.00708
   D11        0.02550  -0.00059   0.00000  -0.00162  -0.00201   0.02348
   D12       -3.12013  -0.00019   0.00000   0.01162   0.01091  -3.10922
   D13       -0.03737  -0.00034   0.00000  -0.00686  -0.00698  -0.04435
   D14       -0.04235  -0.00021   0.00000  -0.01735  -0.01668  -0.05902
   D15       -3.12398  -0.00042   0.00000   0.00008  -0.00060  -3.12458
   D16        0.02981   0.00073   0.00000   0.01121   0.01143   0.04124
   D17       -3.11961   0.00077   0.00000   0.00994   0.01033  -3.10928
   D18        3.11346  -0.00116   0.00000  -0.01344  -0.01415   3.09931
   D19       -0.03596  -0.00112   0.00000  -0.01471  -0.01524  -0.05120
   D20       -0.00743  -0.00035   0.00000  -0.00618  -0.00616  -0.01359
   D21       -3.14073  -0.00036   0.00000  -0.00469  -0.00482   3.13763
         Item               Value     Threshold  Converged?
 Maximum Force            0.037455     0.000450     NO 
 RMS     Force            0.011623     0.000300     NO 
 Maximum Displacement     0.115316     0.001800     NO 
 RMS     Displacement     0.044039     0.001200     NO 
 Predicted change in Energy=-1.061823D-02
 GradGradGradGradGradGradGradGradGradGradGradGradGradGradGradGradGradGrad

                          Input orientation:                          
 ---------------------------------------------------------------------
 Center     Atomic      Atomic             Coordinates (Angstroms)
 Number     Number       Type             X           Y           Z
 ---------------------------------------------------------------------
      1          6           0        1.125803   -0.064979   -0.059611
      2          6           0        2.621950   -0.054549   -0.058255
      3          7           0        3.168884    1.112936   -0.055409
      4          8           0        4.599021    1.165277   -0.052995
      5          7           0        5.212742   -0.102761   -0.084415
      6          8           0        6.591299   -0.052282   -0.041163
      7          6           0        4.537936   -1.241442   -0.064600
      8          7           0        3.239806   -1.303171   -0.058876
      9          1           0        0.723588    0.950473   -0.059548
     10          1           0        0.770256   -0.599099    0.825855
     11          1           0        0.770916   -0.599020   -0.945389
     12          1           0        6.810963    0.894245   -0.052823
     13          1           0        5.163776   -2.132747   -0.062202
 ---------------------------------------------------------------------
                    Distance matrix (angstroms):
                    1          2          3          4          5
     1  C    0.000000
     2  C    1.496184   0.000000
     3  N    2.358321   1.289250   0.000000
     4  O    3.684673   2.323105   1.431097   0.000000
     5  N    4.087189   2.591373   2.378259   1.409099   0.000000
     6  O    5.465542   3.969387   3.615365   2.334901   1.380159
     7  C    3.609258   2.253832   2.723506   2.407522   1.323764
     8  N    2.449924   1.393127   2.417150   2.817931   2.309570
     9  H    1.092209   2.147987   2.450690   3.881387   4.611119
    10  H    1.093503   2.122959   3.075891   4.306373   4.561867
    11  H    1.093502   2.123625   3.077841   4.308538   4.551634
    12  H    5.765517   4.295121   3.648640   2.228484   1.883966
    13  H    4.536617   3.283261   3.809737   3.346042   2.030699
                    6          7          8          9         10
     6  O    0.000000
     7  C    2.372963   0.000000
     8  N    3.577365   1.299609   0.000000
     9  H    5.952805   4.399292   3.377908   0.000000
    10  H    5.910607   3.924402   2.716090   1.785299   0.000000
    11  H    5.915522   3.921599   2.716091   1.785465   1.771244
    12  H    0.971751   3.118966   4.193069   6.087638   6.284289
    13  H    2.523213   1.089085   2.095201   5.405693   4.737483
                   11         12         13
    11  H    0.000000
    12  H    6.285593   0.000000
    13  H    4.735985   3.446156   0.000000
 Stoichiometry    C3H5N3O2
 Framework group  C1[X(C3H5N3O2)]
 Deg. of freedom    33
 Full point group                 C1      NOp   1
 Largest Abelian subgroup         C1      NOp   1
 Largest concise Abelian subgroup C1      NOp   1
                         Standard orientation:                         
 ---------------------------------------------------------------------
 Center     Atomic      Atomic             Coordinates (Angstroms)
 Number     Number       Type             X           Y           Z
 ---------------------------------------------------------------------
      1          6           0        2.787882   -0.028361    0.001862
      2          6           0        1.291770   -0.013737    0.001828
      3          7           0        0.725363   -1.171902    0.000468
      4          8           0       -0.705452   -1.200293    0.001417
      5          7           0       -1.297825    0.077937   -0.026531
      6          8           0       -2.677075    0.050415    0.015308
      7          6           0       -0.604067    1.205090   -0.002487
      8          7           0        0.694908    1.245052    0.004612
      9          1           0        3.173038   -1.050402   -0.000935
     10          1           0        3.151473    0.496928    0.889344
     11          1           0        3.152513    0.502460   -0.881891
     12          1           0       -2.912545   -0.892258    0.000441
     13          1           0       -1.214897    2.106739    0.002175
 ---------------------------------------------------------------------
 Rotational constants (GHZ):           5.6140210           1.5815898           1.2436443
 Standard basis: 6-31G(2df,p) (6D, 7F)
 There are   273 symmetry adapted cartesian basis functions of A   symmetry.
 There are   249 symmetry adapted basis functions of A   symmetry.
   249 basis functions,   387 primitive gaussians,   273 cartesian basis functions
    30 alpha electrons       30 beta electrons
       nuclear repulsion energy       378.9504332369 Hartrees.
 NAtoms=   13 NActive=   13 NUniq=   13 SFac= 1.00D+00 NAtFMM=   60 NAOKFM=F Big=F
 Integral buffers will be    131072 words long.
 Raffenetti 2 integral format.
 Two-electron integral symmetry is turned on.
 One-electron integrals computed using PRISM.
 PrsmSu:  requested number of processors reduced to:  13 ShMem   1 Linda.
 NBasis=   249 RedAO= T EigKep=  2.22D-04  NBF=   249
 NBsUse=   249 1.00D-06 EigRej= -1.00D+00 NBFU=   249
 Initial guess from the checkpoint file:  "CC1dNONpOpCdN1.chk"
 B after Tr=    -0.000000   -0.000000   -0.000000
         Rot=    1.000000   -0.000283    0.000015   -0.000787 Ang=  -0.10 deg.
 ExpMin= 1.61D-01 ExpMax= 5.48D+03 ExpMxC= 8.25D+02 IAcc=2 IRadAn=         4 AccDes= 0.00D+00
 Harris functional with IExCor=  402 and IRadAn=       4 diagonalized for initial guess.
 HarFok:  IExCor=  402 AccDes= 0.00D+00 IRadAn=         4 IDoV= 1 UseB2=F ITyADJ=14
 ICtDFT=  3500011 ScaDFX=  1.000000  1.000000  1.000000  1.000000
 FoFCou: FMM=F IPFlag=           0 FMFlag=      100000 FMFlg1=           0
         NFxFlg=           0 DoJE=T BraDBF=F KetDBF=T FulRan=T
         wScrn=  0.000000 ICntrl=       500 IOpCl=  0 I1Cent=   200000004 NGrid=           0
         NMat0=    1 NMatS0=      1 NMatT0=    0 NMatD0=    1 NMtDS0=    0 NMtDT0=    0
 Petite list used in FoFCou.
 Requested convergence on RMS density matrix=1.00D-08 within 128 cycles.
 Requested convergence on MAX density matrix=1.00D-06.
 Requested convergence on             energy=1.00D-06.
 No special actions if energy rises.
 Integral accuracy reduced to 1.0D-05 until final iterations.
 Initial convergence to 1.0D-05 achieved.  Increase integral accuracy.
 SCF Done:  E(RB3LYP) =  -431.852509522     A.U. after   14 cycles
            NFock= 14  Conv=0.31D-08     -V/T= 2.0064
 PrsmSu:  requested number of processors reduced to:  13 ShMem   1 Linda.
 Calling FoFJK, ICntrl=      2127 FMM=F ISym2X=0 I1Cent= 0 IOpClX= 0 NMat=1 NMatS=1 NMatT=0.
 ***** Axes restored to original set *****
 -------------------------------------------------------------------
 Center     Atomic                   Forces (Hartrees/Bohr)
 Number     Number              X              Y              Z
 -------------------------------------------------------------------
      1        6          -0.000623268    0.003308557    0.000091965
      2        6           0.005550745    0.001745475   -0.000066592
      3        7          -0.014665145    0.000264817    0.000289894
      4        8           0.012483145    0.006820760    0.000907815
      5        7           0.002425783   -0.018150780   -0.002487734
      6        8          -0.000243350    0.004361519    0.001472419
      7        6           0.010134113    0.010087657    0.000652144
      8        7          -0.010012780   -0.003587162   -0.000212810
      9        1           0.000976995   -0.000954650   -0.000007391
     10        1          -0.000703307   -0.001411865   -0.000385402
     11        1          -0.000631759   -0.001399767    0.000362886
     12        1          -0.004225854   -0.001935725   -0.000610089
     13        1          -0.000465319    0.000851165   -0.000007103
 -------------------------------------------------------------------
 Cartesian Forces:  Max     0.018150780 RMS     0.005487379

 GradGradGradGradGradGradGradGradGradGradGradGradGradGradGradGradGradGrad
 Berny optimization.
 Using GEDIIS/GDIIS optimizer.
 FormGI is forming the generalized inverse of G from B-inverse, IUseBI=4.
 Internal  Forces:  Max     0.011847643 RMS     0.003134087
 Search for a local minimum.
 Step number   2 out of a maximum of   63
 All quantities printed in internal units (Hartrees-Bohrs-Radians)
 Mixed Optimization -- RFO/linear search
 Update second derivatives using D2CorX and points    1    2
 DE= -1.13D-02 DEPred=-1.06D-02 R= 1.07D+00
 TightC=F SS=  1.41D+00  RLast= 2.55D-01 DXNew= 5.0454D-01 7.6593D-01
 Trust test= 1.07D+00 RLast= 2.55D-01 DXMaxT set to 5.05D-01
 ITU=  1  0
 Use linear search instead of GDIIS.
     Eigenvalues ---    0.00685   0.01568   0.01599   0.01825   0.02063
     Eigenvalues ---    0.02497   0.02603   0.02690   0.07258   0.07541
     Eigenvalues ---    0.15953   0.16000   0.16000   0.16000   0.16504
     Eigenvalues ---    0.22110   0.23878   0.24989   0.24999   0.26745
     Eigenvalues ---    0.31908   0.33359   0.34327   0.34407   0.34426
     Eigenvalues ---    0.41029   0.47504   0.49290   0.51248   0.52692
     Eigenvalues ---    0.52879   0.64991   0.68468
 RFO step:  Lambda=-1.57673801D-03 EMin= 6.84599367D-03
 Quartic linear search produced a step of  0.16957.
 Iteration  1 RMS(Cart)=  0.02327236 RMS(Int)=  0.00096639
 Iteration  2 RMS(Cart)=  0.00094752 RMS(Int)=  0.00022074
 Iteration  3 RMS(Cart)=  0.00000172 RMS(Int)=  0.00022073
 Iteration  4 RMS(Cart)=  0.00000000 RMS(Int)=  0.00022073
 Variable       Old X    -DE/DX   Delta X   Delta X   Delta X     New X
                                 (Linear)    (Quad)   (Total)
    R1        2.82738   0.00098  -0.00319   0.00545   0.00226   2.82963
    R2        2.06398  -0.00125  -0.00065  -0.00386  -0.00450   2.05947
    R3        2.06642   0.00061  -0.00002   0.00206   0.00204   2.06846
    R4        2.06642   0.00059   0.00002   0.00200   0.00202   2.06844
    R5        2.43633  -0.00099  -0.00255  -0.00006  -0.00264   2.43369
    R6        2.63263   0.00058   0.00778  -0.00311   0.00459   2.63722
    R7        2.70438   0.01185   0.00917   0.02584   0.03506   2.73944
    R8        2.66281   0.00592   0.01215   0.00686   0.01909   2.68190
    R9        2.60812  -0.00435   0.00103  -0.01078  -0.00975   2.59837
   R10        2.50155  -0.00834  -0.00878  -0.01316  -0.02191   2.47964
   R11        1.83634  -0.00283  -0.00088  -0.00580  -0.00668   1.82966
   R12        2.45591   0.00834   0.00315   0.01181   0.01491   2.47082
   R13        2.05807  -0.00096  -0.00437  -0.00085  -0.00522   2.05285
    A1        1.94096  -0.00067   0.00312  -0.00404  -0.00093   1.94003
    A2        1.90478   0.00066  -0.00229   0.00492   0.00260   1.90738
    A3        1.90569   0.00052  -0.00221   0.00370   0.00146   1.90716
    A4        1.91170   0.00046   0.00219   0.00482   0.00699   1.91869
    A5        1.91196   0.00048   0.00215   0.00467   0.00681   1.91877
    A6        1.88794  -0.00149  -0.00304  -0.01441  -0.01752   1.87043
    A7        2.01588  -0.00104  -0.00823  -0.00018  -0.00837   2.00751
    A8        2.02333  -0.00170   0.00195  -0.00922  -0.00723   2.01610
    A9        2.24398   0.00274   0.00628   0.00939   0.01559   2.25957
   A10        2.04549  -0.00264  -0.00149  -0.00942  -0.01085   2.03464
   A11        1.98482  -0.00136  -0.01177   0.00180  -0.00975   1.97507
   A12        1.98387  -0.00722  -0.02346  -0.02028  -0.04399   1.93988
   A13        2.15522   0.00089   0.01568  -0.00673   0.00879   2.16401
   A14        2.14143   0.00628   0.00758   0.02426   0.03146   2.17288
   A15        1.83489  -0.00679   0.01093  -0.05592  -0.04499   1.78990
   A16        2.15329   0.00183  -0.00838   0.01281   0.00442   2.15771
   A17        1.99443  -0.00103   0.00182  -0.00577  -0.00395   1.99048
   A18        2.13544  -0.00081   0.00656  -0.00708  -0.00052   2.13492
   A19        1.98278  -0.00148  -0.00037  -0.00842  -0.00898   1.97380
    D1        0.00160   0.00004  -0.00009   0.00184   0.00174   0.00334
    D2       -3.14107  -0.00001   0.00010  -0.00246  -0.00234   3.13978
    D3       -2.10933  -0.00055  -0.00330  -0.00485  -0.00814  -2.11747
    D4        1.03119  -0.00059  -0.00311  -0.00915  -0.01222   1.01897
    D5        2.11346   0.00056   0.00313   0.00754   0.01063   2.12410
    D6       -1.02920   0.00052   0.00332   0.00325   0.00656  -1.02265
    D7        3.14078   0.00010   0.00086   0.00166   0.00258  -3.13983
    D8        0.00043   0.00016   0.00065   0.00662   0.00736   0.00779
    D9        3.13576   0.00007  -0.00033   0.00372   0.00348   3.13923
   D10       -0.00708   0.00001  -0.00013  -0.00125  -0.00133  -0.00841
   D11        0.02348  -0.00011  -0.00034   0.00067   0.00000   0.02349
   D12       -3.10922   0.00026   0.00185   0.02501   0.02585  -3.08337
   D13       -0.04435  -0.00023  -0.00118  -0.01336  -0.01436  -0.05872
   D14       -0.05902  -0.00082  -0.00283  -0.04804  -0.05054  -0.10956
   D15       -3.12458  -0.00008  -0.00010  -0.00849  -0.00892  -3.13350
   D16        0.04124   0.00049   0.00194   0.02057   0.02261   0.06384
   D17       -3.10928   0.00041   0.00175   0.01615   0.01813  -3.09114
   D18        3.09931  -0.00063  -0.00240  -0.02326  -0.02630   3.07301
   D19       -0.05120  -0.00071  -0.00258  -0.02767  -0.03077  -0.08198
   D20       -0.01359  -0.00036  -0.00104  -0.01254  -0.01373  -0.02732
   D21        3.13763  -0.00028  -0.00082  -0.00780  -0.00888   3.12875
         Item               Value     Threshold  Converged?
 Maximum Force            0.011848     0.000450     NO 
 RMS     Force            0.003134     0.000300     NO 
 Maximum Displacement     0.129783     0.001800     NO 
 RMS     Displacement     0.023240     0.001200     NO 
 Predicted change in Energy=-1.029944D-03
 GradGradGradGradGradGradGradGradGradGradGradGradGradGradGradGradGradGrad

                          Input orientation:                          
 ---------------------------------------------------------------------
 Center     Atomic      Atomic             Coordinates (Angstroms)
 Number     Number       Type             X           Y           Z
 ---------------------------------------------------------------------
      1          6           0        1.133883   -0.056630   -0.059105
      2          6           0        2.631254   -0.052365   -0.059656
      3          7           0        3.172643    1.116133   -0.051211
      4          8           0        4.621638    1.159607   -0.053744
      5          7           0        5.218673   -0.127208   -0.096064
      6          8           0        6.588981   -0.040931   -0.022370
      7          6           0        4.542106   -1.251102   -0.065913
      8          7           0        3.235943   -1.310109   -0.062718
      9          1           0        0.737668    0.958611   -0.054821
     10          1           0        0.774254   -0.601270    0.819614
     11          1           0        0.773820   -0.594093   -0.942039
     12          1           0        6.742284    0.914136   -0.064625
     13          1           0        5.163793   -2.141898   -0.056778
 ---------------------------------------------------------------------
                    Distance matrix (angstroms):
                    1          2          3          4          5
     1  C    0.000000
     2  C    1.497377   0.000000
     3  N    2.352016   1.287851   0.000000
     4  O    3.693738   2.330352   1.449649   0.000000
     5  N    4.085567   2.588757   2.394608   1.419202   0.000000
     6  O    5.455244   3.957919   3.607075   2.304932   1.374998
     7  C    3.611481   2.255740   2.734858   2.412051   1.312170
     8  N    2.447423   1.395556   2.427094   2.831912   2.309022
     9  H    1.089826   2.146571   2.440068   3.889168   4.610869
    10  H    1.094583   2.126702   3.075723   4.320394   4.562461
    11  H    1.094570   2.126530   3.077791   4.320907   4.548667
    12  H    5.691800   4.223117   3.575377   2.134834   1.845746
    13  H    4.537458   3.283277   3.818308   3.345725   2.015820
                    6          7          8          9         10
     6  O    0.000000
     7  C    2.378258   0.000000
     8  N    3.585430   1.307499   0.000000
     9  H    5.936161   4.399626   3.374690   0.000000
    10  H    5.902030   3.924684   2.709404   1.788632   0.000000
    11  H    5.913364   3.924186   2.710707   1.788673   1.761668
    12  H    0.968214   3.086915   4.152312   6.004789   6.220588
    13  H    2.538978   1.086322   2.099647   5.404049   4.733883
                   11         12         13
    11  H    0.000000
    12  H    6.218294   0.000000
    13  H    4.738275   3.439627   0.000000
 Stoichiometry    C3H5N3O2
 Framework group  C1[X(C3H5N3O2)]
 Deg. of freedom    33
 Full point group                 C1      NOp   1
 Largest Abelian subgroup         C1      NOp   1
 Largest concise Abelian subgroup C1      NOp   1
                         Standard orientation:                         
 ---------------------------------------------------------------------
 Center     Atomic      Atomic             Coordinates (Angstroms)
 Number     Number       Type             X           Y           Z
 ---------------------------------------------------------------------
      1          6           0        2.784360   -0.039495    0.005501
      2          6           0        1.287139   -0.018271    0.001448
      3          7           0        0.725934   -1.177411    0.003475
      4          8           0       -0.723581   -1.196205   -0.002621
      5          7           0       -1.298537    0.100758   -0.040649
      6          8           0       -2.670288    0.037495    0.029475
      7          6           0       -0.603026    1.212832   -0.003964
      8          7           0        0.703941    1.249583    0.002531
      9          1           0        3.163237   -1.061342    0.006224
     10          1           0        3.151090    0.495095    0.887450
     11          1           0        3.155632    0.495618   -0.874212
     12          1           0       -2.839713   -0.914630   -0.017351
     13          1           0       -1.209491    2.114031    0.007657
 ---------------------------------------------------------------------
 Rotational constants (GHZ):           5.5798436           1.5856859           1.2445280
 Standard basis: 6-31G(2df,p) (6D, 7F)
 There are   273 symmetry adapted cartesian basis functions of A   symmetry.
 There are   249 symmetry adapted basis functions of A   symmetry.
   249 basis functions,   387 primitive gaussians,   273 cartesian basis functions
    30 alpha electrons       30 beta electrons
       nuclear repulsion energy       378.8110626974 Hartrees.
 NAtoms=   13 NActive=   13 NUniq=   13 SFac= 1.00D+00 NAtFMM=   60 NAOKFM=F Big=F
 Integral buffers will be    131072 words long.
 Raffenetti 2 integral format.
 Two-electron integral symmetry is turned on.
 One-electron integrals computed using PRISM.
 PrsmSu:  requested number of processors reduced to:  13 ShMem   1 Linda.
 NBasis=   249 RedAO= T EigKep=  2.24D-04  NBF=   249
 NBsUse=   249 1.00D-06 EigRej= -1.00D+00 NBFU=   249
 Initial guess from the checkpoint file:  "CC1dNONpOpCdN1.chk"
 B after Tr=     0.000000    0.000000   -0.000000
         Rot=    1.000000   -0.000072    0.000012    0.000954 Ang=  -0.11 deg.
 ExpMin= 1.61D-01 ExpMax= 5.48D+03 ExpMxC= 8.25D+02 IAcc=2 IRadAn=         4 AccDes= 0.00D+00
 Harris functional with IExCor=  402 and IRadAn=       4 diagonalized for initial guess.
 HarFok:  IExCor=  402 AccDes= 0.00D+00 IRadAn=         4 IDoV= 1 UseB2=F ITyADJ=14
 ICtDFT=  3500011 ScaDFX=  1.000000  1.000000  1.000000  1.000000
 FoFCou: FMM=F IPFlag=           0 FMFlag=      100000 FMFlg1=           0
         NFxFlg=           0 DoJE=T BraDBF=F KetDBF=T FulRan=T
         wScrn=  0.000000 ICntrl=       500 IOpCl=  0 I1Cent=   200000004 NGrid=           0
         NMat0=    1 NMatS0=      1 NMatT0=    0 NMatD0=    1 NMtDS0=    0 NMtDT0=    0
 Petite list used in FoFCou.
 Requested convergence on RMS density matrix=1.00D-08 within 128 cycles.
 Requested convergence on MAX density matrix=1.00D-06.
 Requested convergence on             energy=1.00D-06.
 No special actions if energy rises.
 Integral accuracy reduced to 1.0D-05 until final iterations.
 Initial convergence to 1.0D-05 achieved.  Increase integral accuracy.
 SCF Done:  E(RB3LYP) =  -431.853679429     A.U. after   13 cycles
            NFock= 13  Conv=0.64D-08     -V/T= 2.0064
 PrsmSu:  requested number of processors reduced to:  13 ShMem   1 Linda.
 Calling FoFJK, ICntrl=      2127 FMM=F ISym2X=0 I1Cent= 0 IOpClX= 0 NMat=1 NMatS=1 NMatT=0.
 ***** Axes restored to original set *****
 -------------------------------------------------------------------
 Center     Atomic                   Forces (Hartrees/Bohr)
 Number     Number              X              Y              Z
 -------------------------------------------------------------------
      1        6          -0.000936238    0.000098897    0.000092978
      2        6           0.002830028   -0.003630621    0.000210721
      3        7          -0.006143704    0.002683834    0.000348330
      4        8           0.004353106   -0.003037354    0.000735661
      5        7           0.002440924   -0.000333904   -0.003130255
      6        8          -0.000740434    0.000198384    0.002187807
      7        6           0.000798969    0.002963001    0.000979601
      8        7          -0.004145924    0.001255222   -0.000360608
      9        1          -0.000087911    0.000088446   -0.000016567
     10        1           0.000041297   -0.000085138   -0.000045100
     11        1           0.000055768   -0.000089592   -0.000011596
     12        1           0.001510296    0.001249495   -0.000956896
     13        1           0.000023824   -0.001360669   -0.000034077
 -------------------------------------------------------------------
 Cartesian Forces:  Max     0.006143704 RMS     0.001981184

 GradGradGradGradGradGradGradGradGradGradGradGradGradGradGradGradGradGrad
 Berny optimization.
 Using GEDIIS/GDIIS optimizer.
 FormGI is forming the generalized inverse of G from B-inverse, IUseBI=4.
 Internal  Forces:  Max     0.005493905 RMS     0.001255355
 Search for a local minimum.
 Step number   3 out of a maximum of   63
 All quantities printed in internal units (Hartrees-Bohrs-Radians)
 Mixed Optimization -- RFO/linear search
 Update second derivatives using D2CorX and points    1    2    3
 DE= -1.17D-03 DEPred=-1.03D-03 R= 1.14D+00
 TightC=F SS=  1.41D+00  RLast= 1.24D-01 DXNew= 8.4853D-01 3.7188D-01
 Trust test= 1.14D+00 RLast= 1.24D-01 DXMaxT set to 5.05D-01
 ITU=  1  1  0
 Use linear search instead of GDIIS.
     Eigenvalues ---    0.00685   0.01477   0.01581   0.01826   0.01934
     Eigenvalues ---    0.02493   0.02592   0.02689   0.07219   0.07512
     Eigenvalues ---    0.15925   0.16000   0.16000   0.16011   0.18629
     Eigenvalues ---    0.19614   0.23894   0.24972   0.25250   0.28173
     Eigenvalues ---    0.31968   0.33732   0.34324   0.34405   0.34418
     Eigenvalues ---    0.37337   0.47500   0.50333   0.52663   0.52760
     Eigenvalues ---    0.55874   0.64818   0.68006
 RFO step:  Lambda=-5.19561582D-04 EMin= 6.84593630D-03
 Quartic linear search produced a step of  0.14532.
 Iteration  1 RMS(Cart)=  0.01377388 RMS(Int)=  0.00073452
 Iteration  2 RMS(Cart)=  0.00069394 RMS(Int)=  0.00021061
 Iteration  3 RMS(Cart)=  0.00000163 RMS(Int)=  0.00021061
 Iteration  4 RMS(Cart)=  0.00000000 RMS(Int)=  0.00021061
 Variable       Old X    -DE/DX   Delta X   Delta X   Delta X     New X
                                 (Linear)    (Quad)   (Total)
    R1        2.82963   0.00093   0.00033   0.00283   0.00316   2.83279
    R2        2.05947   0.00011  -0.00065  -0.00008  -0.00074   2.05873
    R3        2.06846  -0.00001   0.00030   0.00012   0.00042   2.06888
    R4        2.06844   0.00003   0.00029   0.00027   0.00056   2.06900
    R5        2.43369   0.00101  -0.00038   0.00094   0.00050   2.43418
    R6        2.63722  -0.00257   0.00067  -0.00400  -0.00339   2.63383
    R7        2.73944   0.00549   0.00509   0.01811   0.02321   2.76265
    R8        2.68190  -0.00105   0.00277   0.00158   0.00441   2.68631
    R9        2.59837   0.00092  -0.00142   0.00154   0.00012   2.59849
   R10        2.47964   0.00053  -0.00318  -0.00218  -0.00531   2.47433
   R11        1.82966   0.00151  -0.00097   0.00256   0.00159   1.83125
   R12        2.47082   0.00289   0.00217   0.00622   0.00838   2.47920
   R13        2.05285   0.00113  -0.00076   0.00257   0.00181   2.05466
    A1        1.94003   0.00014  -0.00013   0.00179   0.00165   1.94169
    A2        1.90738  -0.00007   0.00038  -0.00082  -0.00045   1.90693
    A3        1.90716  -0.00013   0.00021  -0.00148  -0.00127   1.90589
    A4        1.91869   0.00004   0.00102   0.00160   0.00262   1.92131
    A5        1.91877   0.00003   0.00099   0.00128   0.00227   1.92104
    A6        1.87043  -0.00001  -0.00255  -0.00256  -0.00511   1.86531
    A7        2.00751  -0.00016  -0.00122  -0.00271  -0.00390   2.00361
    A8        2.01610  -0.00043  -0.00105  -0.00190  -0.00292   2.01317
    A9        2.25957   0.00060   0.00227   0.00461   0.00682   2.26638
   A10        2.03464  -0.00201  -0.00158  -0.00967  -0.01125   2.02339
   A11        1.97507   0.00201  -0.00142   0.00716   0.00590   1.98098
   A12        1.93988   0.00044  -0.00639  -0.00768  -0.01475   1.92513
   A13        2.16401  -0.00232   0.00128  -0.00816  -0.00735   2.15665
   A14        2.17288   0.00176   0.00457   0.00957   0.01333   2.18621
   A15        1.78990   0.00226  -0.00654   0.01462   0.00808   1.79798
   A16        2.15771   0.00120   0.00064   0.00456   0.00530   2.16301
   A17        1.99048   0.00017  -0.00057   0.00252   0.00189   1.99237
   A18        2.13492  -0.00138  -0.00008  -0.00714  -0.00727   2.12765
   A19        1.97380   0.00050  -0.00130   0.00045  -0.00088   1.97292
    D1        0.00334   0.00002   0.00025   0.00046   0.00072   0.00406
    D2        3.13978   0.00001  -0.00034  -0.00070  -0.00105   3.13873
    D3       -2.11747  -0.00007  -0.00118  -0.00216  -0.00333  -2.12080
    D4        1.01897  -0.00008  -0.00178  -0.00332  -0.00510   1.01387
    D5        2.12410   0.00006   0.00155   0.00224   0.00379   2.12789
    D6       -1.02265   0.00005   0.00095   0.00107   0.00202  -1.02063
    D7       -3.13983   0.00011   0.00037   0.00409   0.00449  -3.13533
    D8        0.00779   0.00013   0.00107   0.00548   0.00662   0.01441
    D9        3.13923   0.00008   0.00051   0.00382   0.00434  -3.13962
   D10       -0.00841   0.00007  -0.00019   0.00242   0.00220  -0.00621
   D11        0.02349   0.00002   0.00000   0.00079   0.00065   0.02413
   D12       -3.08337   0.00068   0.00376   0.04087   0.04385  -3.03952
   D13       -0.05872  -0.00023  -0.00209  -0.01531  -0.01717  -0.07589
   D14       -0.10956  -0.00149  -0.00734  -0.08911  -0.09644  -0.20600
   D15       -3.13350  -0.00025  -0.00130  -0.03116  -0.03246   3.11723
   D16        0.06384   0.00047   0.00329   0.02554   0.02877   0.09261
   D17       -3.09114   0.00036   0.00264   0.02085   0.02347  -3.06767
   D18        3.07301  -0.00070  -0.00382  -0.03943  -0.04356   3.02945
   D19       -0.08198  -0.00081  -0.00447  -0.04412  -0.04886  -0.13083
   D20       -0.02732  -0.00043  -0.00200  -0.01806  -0.02024  -0.04755
   D21        3.12875  -0.00032  -0.00129  -0.01307  -0.01462   3.11413
         Item               Value     Threshold  Converged?
 Maximum Force            0.005494     0.000450     NO 
 RMS     Force            0.001255     0.000300     NO 
 Maximum Displacement     0.066878     0.001800     NO 
 RMS     Displacement     0.013771     0.001200     NO 
 Predicted change in Energy=-2.895088D-04
 GradGradGradGradGradGradGradGradGradGradGradGradGradGradGradGradGradGrad

                          Input orientation:                          
 ---------------------------------------------------------------------
 Center     Atomic      Atomic             Coordinates (Angstroms)
 Number     Number       Type             X           Y           Z
 ---------------------------------------------------------------------
      1          6           0        1.131896   -0.055765   -0.058124
      2          6           0        2.630933   -0.050350   -0.060351
      3          7           0        3.166993    1.120825   -0.045219
      4          8           0        4.628490    1.155148   -0.055225
      5          7           0        5.225414   -0.133739   -0.111919
      6          8           0        6.591074   -0.032949    0.013020
      7          6           0        4.542789   -1.250248   -0.068894
      8          7           0        3.232116   -1.307753   -0.069684
      9          1           0        0.733384    0.958114   -0.047823
     10          1           0        0.774078   -0.609238    0.816079
     11          1           0        0.772465   -0.591735   -0.942590
     12          1           0        6.749983    0.917575   -0.088549
     13          1           0        5.157325   -2.147004   -0.050152
 ---------------------------------------------------------------------
                    Distance matrix (angstroms):
                    1          2          3          4          5
     1  C    0.000000
     2  C    1.499048   0.000000
     3  N    2.350777   1.288115   0.000000
     4  O    3.700336   2.333128   1.461934   0.000000
     5  N    4.094614   2.596333   2.411530   1.421535   0.000000
     6  O    5.459690   3.960859   3.613713   2.295206   1.375063
     7  C    3.614014   2.257215   2.741416   2.406961   1.309358
     8  N    2.445104   1.393762   2.429574   2.831245   2.313726
     9  H    1.089435   2.148917   2.439044   3.900093   4.623265
    10  H    1.094805   2.128003   3.075873   4.327669   4.571835
    11  H    1.094867   2.127286   3.077646   4.325268   4.552859
    12  H    5.701861   4.231341   3.589011   2.135014   1.852058
    13  H    4.536234   3.283096   3.826245   3.344233   2.015362
                    6          7          8          9         10
     6  O    0.000000
     7  C    2.384114   0.000000
     8  N    3.593684   1.311934   0.000000
     9  H    5.941249   4.403279   3.373172   0.000000
    10  H    5.900378   3.923934   2.704525   1.790133   0.000000
    11  H    5.922976   3.925854   2.706387   1.790019   1.758756
    12  H    0.969053   3.093791   4.162671   6.016873   6.233855
    13  H    2.555162   1.087280   2.100274   5.404906   4.725245
                   11         12         13
    11  H    0.000000
    12  H    6.223996   0.000000
    13  H    4.737331   3.453936   0.000000
 Stoichiometry    C3H5N3O2
 Framework group  C1[X(C3H5N3O2)]
 Deg. of freedom    33
 Full point group                 C1      NOp   1
 Largest Abelian subgroup         C1      NOp   1
 Largest concise Abelian subgroup C1      NOp   1
                         Standard orientation:                         
 ---------------------------------------------------------------------
 Center     Atomic      Atomic             Coordinates (Angstroms)
 Number     Number       Type             X           Y           Z
 ---------------------------------------------------------------------
      1          6           0        2.786926   -0.041816    0.012440
      2          6           0        1.288063   -0.020522    0.002396
      3          7           0        0.731198   -1.182038    0.007252
      4          8           0       -0.730604   -1.190266   -0.010561
      5          7           0       -1.304216    0.109378   -0.062106
      6          8           0       -2.672096    0.032138    0.055095
      7          6           0       -0.602092    1.213260   -0.008395
      8          7           0        0.709382    1.247421   -0.002013
      9          1           0        3.167294   -1.062676    0.018322
     10          1           0        3.149883    0.499675    0.892012
     11          1           0        3.160513    0.493234   -0.866701
     12          1           0       -2.847333   -0.914747   -0.053377
     13          1           0       -1.200683    2.120682    0.012894
 ---------------------------------------------------------------------
 Rotational constants (GHZ):           5.5806434           1.5804044           1.2417247
 Standard basis: 6-31G(2df,p) (6D, 7F)
 There are   273 symmetry adapted cartesian basis functions of A   symmetry.
 There are   249 symmetry adapted basis functions of A   symmetry.
   249 basis functions,   387 primitive gaussians,   273 cartesian basis functions
    30 alpha electrons       30 beta electrons
       nuclear repulsion energy       378.3695670437 Hartrees.
 NAtoms=   13 NActive=   13 NUniq=   13 SFac= 1.00D+00 NAtFMM=   60 NAOKFM=F Big=F
 Integral buffers will be    131072 words long.
 Raffenetti 2 integral format.
 Two-electron integral symmetry is turned on.
 One-electron integrals computed using PRISM.
 PrsmSu:  requested number of processors reduced to:  13 ShMem   1 Linda.
 NBasis=   249 RedAO= T EigKep=  2.26D-04  NBF=   249
 NBsUse=   249 1.00D-06 EigRej= -1.00D+00 NBFU=   249
 Initial guess from the checkpoint file:  "CC1dNONpOpCdN1.chk"
 B after Tr=    -0.000000   -0.000000    0.000000
         Rot=    1.000000    0.000013    0.000015    0.000422 Ang=   0.05 deg.
 ExpMin= 1.61D-01 ExpMax= 5.48D+03 ExpMxC= 8.25D+02 IAcc=2 IRadAn=         4 AccDes= 0.00D+00
 Harris functional with IExCor=  402 and IRadAn=       4 diagonalized for initial guess.
 HarFok:  IExCor=  402 AccDes= 0.00D+00 IRadAn=         4 IDoV= 1 UseB2=F ITyADJ=14
 ICtDFT=  3500011 ScaDFX=  1.000000  1.000000  1.000000  1.000000
 FoFCou: FMM=F IPFlag=           0 FMFlag=      100000 FMFlg1=           0
         NFxFlg=           0 DoJE=T BraDBF=F KetDBF=T FulRan=T
         wScrn=  0.000000 ICntrl=       500 IOpCl=  0 I1Cent=   200000004 NGrid=           0
         NMat0=    1 NMatS0=      1 NMatT0=    0 NMatD0=    1 NMtDS0=    0 NMtDT0=    0
 Petite list used in FoFCou.
 Requested convergence on RMS density matrix=1.00D-08 within 128 cycles.
 Requested convergence on MAX density matrix=1.00D-06.
 Requested convergence on             energy=1.00D-06.
 No special actions if energy rises.
 Integral accuracy reduced to 1.0D-05 until final iterations.
 Initial convergence to 1.0D-05 achieved.  Increase integral accuracy.
 SCF Done:  E(RB3LYP) =  -431.854176462     A.U. after   12 cycles
            NFock= 12  Conv=0.88D-08     -V/T= 2.0065
 PrsmSu:  requested number of processors reduced to:  13 ShMem   1 Linda.
 Calling FoFJK, ICntrl=      2127 FMM=F ISym2X=0 I1Cent= 0 IOpClX= 0 NMat=1 NMatS=1 NMatT=0.
 ***** Axes restored to original set *****
 -------------------------------------------------------------------
 Center     Atomic                   Forces (Hartrees/Bohr)
 Number     Number              X              Y              Z
 -------------------------------------------------------------------
      1        6          -0.000531579   -0.000879869    0.000207502
      2        6           0.000318794   -0.002853611    0.000013772
      3        7          -0.001268435    0.001001932    0.000627326
      4        8           0.001003845   -0.003394294    0.000837158
      5        7           0.002201988    0.007850836   -0.004493733
      6        8          -0.000627635   -0.002588422    0.003799128
      7        6          -0.001851913   -0.002144284    0.001537065
      8        7           0.000909584    0.002511354   -0.000437908
      9        1          -0.000209191    0.000221595   -0.000011510
     10        1           0.000130208    0.000335645    0.000099951
     11        1           0.000194399    0.000329935   -0.000154442
     12        1          -0.000080294    0.000375792   -0.001881396
     13        1          -0.000189771   -0.000766609   -0.000142913
 -------------------------------------------------------------------
 Cartesian Forces:  Max     0.007850836 RMS     0.002001517

 GradGradGradGradGradGradGradGradGradGradGradGradGradGradGradGradGradGrad
 Berny optimization.
 Using GEDIIS/GDIIS optimizer.
 FormGI is forming the generalized inverse of G from B-inverse, IUseBI=4.
 Internal  Forces:  Max     0.002940042 RMS     0.001010201
 Search for a local minimum.
 Step number   4 out of a maximum of   63
 All quantities printed in internal units (Hartrees-Bohrs-Radians)
 Mixed Optimization -- RFO/linear search
 Update second derivatives using D2CorX and points    1    2    3    4
 DE= -4.97D-04 DEPred=-2.90D-04 R= 1.72D+00
 TightC=F SS=  1.41D+00  RLast= 1.43D-01 DXNew= 8.4853D-01 4.3020D-01
 Trust test= 1.72D+00 RLast= 1.43D-01 DXMaxT set to 5.05D-01
 ITU=  1  1  1  0
 Use linear search instead of GDIIS.
     Eigenvalues ---    0.00169   0.00685   0.01588   0.01841   0.01863
     Eigenvalues ---    0.02490   0.02594   0.02686   0.07198   0.07699
     Eigenvalues ---    0.15879   0.16000   0.16000   0.16065   0.19560
     Eigenvalues ---    0.23864   0.24828   0.25180   0.26287   0.31649
     Eigenvalues ---    0.33052   0.33776   0.34369   0.34410   0.34555
     Eigenvalues ---    0.44081   0.47523   0.50735   0.52000   0.53570
     Eigenvalues ---    0.58267   0.66206   0.97194
 RFO step:  Lambda=-1.34119382D-03 EMin= 1.68638549D-03
 Quartic linear search produced a step of  1.84079.
 Iteration  1 RMS(Cart)=  0.04972782 RMS(Int)=  0.04340639
 Iteration  2 RMS(Cart)=  0.03305983 RMS(Int)=  0.00740243
 Iteration  3 RMS(Cart)=  0.00567399 RMS(Int)=  0.00504351
 Iteration  4 RMS(Cart)=  0.00008434 RMS(Int)=  0.00504280
 Iteration  5 RMS(Cart)=  0.00000010 RMS(Int)=  0.00504280
 Variable       Old X    -DE/DX   Delta X   Delta X   Delta X     New X
                                 (Linear)    (Quad)   (Total)
    R1        2.83279   0.00042   0.00581   0.00751   0.01332   2.84611
    R2        2.05873   0.00028  -0.00136  -0.00156  -0.00292   2.05581
    R3        2.06888  -0.00013   0.00077   0.00073   0.00150   2.07038
    R4        2.06900  -0.00010   0.00103   0.00114   0.00217   2.07117
    R5        2.43418   0.00073   0.00092   0.00079   0.00016   2.43434
    R6        2.63383  -0.00214  -0.00624  -0.01006  -0.01801   2.61582
    R7        2.76265   0.00167   0.04273   0.06085   0.10369   2.86635
    R8        2.68631  -0.00239   0.00812   0.00959   0.01930   2.70561
    R9        2.59849  -0.00069   0.00022  -0.00585  -0.00562   2.59287
   R10        2.47433   0.00271  -0.00978  -0.00983  -0.01798   2.45635
   R11        1.83125   0.00055   0.00292   0.00176   0.00468   1.83592
   R12        2.47920  -0.00123   0.01543   0.01689   0.03217   2.51137
   R13        2.05466   0.00052   0.00333   0.00262   0.00595   2.06061
    A1        1.94169   0.00013   0.00304   0.00351   0.00653   1.94821
    A2        1.90693  -0.00007  -0.00082  -0.00054  -0.00142   1.90551
    A3        1.90589  -0.00023  -0.00234  -0.00435  -0.00674   1.89915
    A4        1.92131  -0.00011   0.00482   0.00528   0.01006   1.93137
    A5        1.92104  -0.00009   0.00418   0.00429   0.00847   1.92951
    A6        1.86531   0.00038  -0.00941  -0.00877  -0.01827   1.84704
    A7        2.00361   0.00027  -0.00718  -0.00932  -0.01575   1.98786
    A8        2.01317   0.00019  -0.00538  -0.00490  -0.00953   2.00364
    A9        2.26638  -0.00045   0.01255   0.01413   0.02500   2.29138
   A10        2.02339  -0.00044  -0.02071  -0.02590  -0.04698   1.97641
   A11        1.98098   0.00079   0.01087   0.01129   0.02664   2.00762
   A12        1.92513   0.00294  -0.02715  -0.03261  -0.07830   1.84682
   A13        2.15665  -0.00108  -0.01353  -0.01581  -0.04147   2.11518
   A14        2.18621  -0.00214   0.02453   0.01195   0.01330   2.19951
   A15        1.79798  -0.00065   0.01488  -0.00822   0.00666   1.80464
   A16        2.16301  -0.00001   0.00976   0.00860   0.02127   2.18428
   A17        1.99237   0.00060   0.00348   0.00833   0.01006   2.00243
   A18        2.12765  -0.00060  -0.01338  -0.01724  -0.03214   2.09552
   A19        1.97292   0.00114  -0.00162   0.00211  -0.00049   1.97243
    D1        0.00406   0.00006   0.00133   0.00672   0.00819   0.01225
    D2        3.13873  -0.00002  -0.00192  -0.00645  -0.00848   3.13025
    D3       -2.12080   0.00017  -0.00613  -0.00183  -0.00782  -2.12862
    D4        1.01387   0.00009  -0.00939  -0.01500  -0.02449   0.98938
    D5        2.12789  -0.00012   0.00697   0.01146   0.01851   2.14640
    D6       -1.02063  -0.00020   0.00372  -0.00172   0.00184  -1.01879
    D7       -3.13533   0.00007   0.00827   0.01107   0.01937  -3.11597
    D8        0.01441   0.00016   0.01218   0.02669   0.03973   0.05414
    D9       -3.13962   0.00019   0.00798   0.02402   0.03175  -3.10787
   D10       -0.00621   0.00010   0.00405   0.00831   0.01122   0.00501
   D11        0.02413   0.00003   0.00119  -0.00604  -0.00665   0.01748
   D12       -3.03952   0.00146   0.08071   0.16015   0.22776  -2.81176
   D13       -0.07589  -0.00035  -0.03161  -0.05004  -0.07640  -0.15229
   D14       -0.20600  -0.00246  -0.17753  -0.36161  -0.53667  -0.74267
   D15        3.11723  -0.00076  -0.05975  -0.14351  -0.20574   2.91148
   D16        0.09261   0.00065   0.05296   0.09423   0.14438   0.23699
   D17       -3.06767   0.00045   0.04321   0.07496   0.11563  -2.95205
   D18        3.02945  -0.00089  -0.08019  -0.15271  -0.23512   2.79433
   D19       -0.13083  -0.00109  -0.08994  -0.17197  -0.26388  -0.39471
   D20       -0.04755  -0.00051  -0.03725  -0.07014  -0.11071  -0.15826
   D21        3.11413  -0.00031  -0.02692  -0.04972  -0.08100   3.03313
         Item               Value     Threshold  Converged?
 Maximum Force            0.002940     0.000450     NO 
 RMS     Force            0.001010     0.000300     NO 
 Maximum Displacement     0.357408     0.001800     NO 
 RMS     Displacement     0.075960     0.001200     NO 
 Predicted change in Energy=-1.718936D-03
 GradGradGradGradGradGradGradGradGradGradGradGradGradGradGradGradGradGrad

                          Input orientation:                          
 ---------------------------------------------------------------------
 Center     Atomic      Atomic             Coordinates (Angstroms)
 Number     Number       Type             X           Y           Z
 ---------------------------------------------------------------------
      1          6           0        1.121691   -0.058668   -0.051618
      2          6           0        2.627553   -0.038586   -0.069132
      3          7           0        3.134330    1.144405   -0.012903
      4          8           0        4.650159    1.149356   -0.067105
      5          7           0        5.255988   -0.141786   -0.192892
      6          8           0        6.560335    0.017091    0.202152
      7          6           0        4.551837   -1.229113   -0.085738
      8          7           0        3.224405   -1.286771   -0.112726
      9          1           0        0.707847    0.946389   -0.005839
     10          1           0        0.779613   -0.656717    0.800239
     11          1           0        0.764753   -0.581381   -0.946391
     12          1           0        6.821339    0.854940   -0.214685
     13          1           0        5.137091   -2.146279   -0.012792
 ---------------------------------------------------------------------
                    Distance matrix (angstroms):
                    1          2          3          4          5
     1  C    0.000000
     2  C    1.506097   0.000000
     3  N    2.345122   1.288197   0.000000
     4  O    3.729564   2.345665   1.516806   0.000000
     5  N    4.137545   2.633371   2.487593   1.431747   0.000000
     6  O    5.445089   3.942522   3.613115   2.236806   1.372087
     7  C    3.624501   2.262852   2.765541   2.380574   1.299843
     8  N    2.435852   1.384232   2.434890   2.823042   2.333398
     9  H    1.087888   2.158576   2.434559   3.948008   4.680246
    10  H    1.095601   2.133723   3.074074   4.358361   4.614044
    11  H    1.096017   2.129374   3.076464   4.343383   4.575173
    12  H    5.774708   4.290387   3.703855   2.196016   1.855871
    13  H    4.525822   3.277701   3.852227   3.331856   2.016077
                    6          7          8          9         10
     6  O    0.000000
     7  C    2.381170   0.000000
     8  N    3.595502   1.328958   0.000000
     9  H    5.929458   4.417629   3.366227   0.000000
    10  H    5.850511   3.916921   2.684675   1.795789   0.000000
    11  H    5.938527   3.937295   2.691182   1.794980   1.748318
    12  H    0.971528   3.083917   4.187511   6.117741   6.310121
    13  H    2.598460   1.090429   2.099312   5.402114   4.676263
                   11         12         13
    11  H    0.000000
    12  H    6.267427   0.000000
    13  H    4.736862   3.447429   0.000000
 Stoichiometry    C3H5N3O2
 Framework group  C1[X(C3H5N3O2)]
 Deg. of freedom    33
 Full point group                 C1      NOp   1
 Largest Abelian subgroup         C1      NOp   1
 Largest concise Abelian subgroup C1      NOp   1
                         Standard orientation:                         
 ---------------------------------------------------------------------
 Center     Atomic      Atomic             Coordinates (Angstroms)
 Number     Number       Type             X           Y           Z
 ---------------------------------------------------------------------
      1          6           0        2.794326   -0.044039    0.050918
[...]
 ! R4    R(1,11)                 1.0945         -DE/DX =    0.0                 !
 ! R5    R(2,3)                  1.2852         -DE/DX =    0.0                 !
 ! R6    R(2,8)                  1.4018         -DE/DX =    0.0                 !
 ! R7    R(3,4)                  1.4176         -DE/DX =   -0.0001              !
 ! R8    R(4,5)                  1.4119         -DE/DX =    0.0                 !
 ! R9    R(5,6)                  1.4287         -DE/DX =   -0.0001              !
 ! R10   R(5,7)                  1.4241         -DE/DX =    0.0001              !
 ! R11   R(6,12)                 0.9665         -DE/DX =    0.0                 !
 ! R12   R(7,8)                  1.2719         -DE/DX =    0.0                 !
 ! R13   R(7,13)                 1.0869         -DE/DX =    0.0                 !
 ! A1    A(2,1,9)              110.3287         -DE/DX =    0.0                 !
 ! A2    A(2,1,10)             110.2301         -DE/DX =    0.0                 !
 ! A3    A(2,1,11)             109.6666         -DE/DX =    0.0                 !
 ! A4    A(9,1,10)             109.3778         -DE/DX =    0.0                 !
 ! A5    A(9,1,11)             109.9214         -DE/DX =    0.0                 !
 ! A6    A(10,1,11)            107.2635         -DE/DX =    0.0                 !
 ! A7    A(1,2,3)              118.6949         -DE/DX =    0.0                 !
 ! A8    A(1,2,8)              116.4093         -DE/DX =    0.0                 !
 ! A9    A(3,2,8)              124.8832         -DE/DX =    0.0                 !
 ! A10   A(2,3,4)              113.5707         -DE/DX =    0.0                 !
 ! A11   A(3,4,5)              117.2843         -DE/DX =    0.0                 !
 ! A12   A(4,5,6)              110.2658         -DE/DX =    0.0                 !
 ! A13   A(4,5,7)              109.1879         -DE/DX =    0.0                 !
 ! A14   A(6,5,7)              105.7277         -DE/DX =    0.0                 !
 ! A15   A(5,6,12)             102.6241         -DE/DX =    0.0                 !
 ! A16   A(5,7,8)              123.737          -DE/DX =    0.0                 !
 ! A17   A(5,7,13)             114.4777         -DE/DX =    0.0                 !
 ! A18   A(8,7,13)             121.7807         -DE/DX =    0.0                 !
 ! A19   A(2,8,7)              115.5731         -DE/DX =    0.0                 !
 ! D1    D(9,1,2,3)              1.6227         -DE/DX =    0.0                 !
 ! D2    D(9,1,2,8)           -177.1537         -DE/DX =    0.0                 !
 ! D3    D(10,1,2,3)          -119.2832         -DE/DX =    0.0                 !
 ! D4    D(10,1,2,8)            61.9405         -DE/DX =    0.0                 !
 ! D5    D(11,1,2,3)           122.8396         -DE/DX =    0.0                 !
 ! D6    D(11,1,2,8)           -55.9367         -DE/DX =    0.0                 !
 ! D7    D(1,2,3,4)           -179.6639         -DE/DX =    0.0                 !
 ! D8    D(8,2,3,4)             -1.0            -DE/DX =    0.0                 !
 ! D9    D(1,2,8,7)           -160.53           -DE/DX =    0.0                 !
 ! D10   D(3,2,8,7)             20.7785         -DE/DX =    0.0                 !
 ! D11   D(2,3,4,5)            -33.2458         -DE/DX =    0.0                 !
 ! D12   D(3,4,5,6)            -71.2309         -DE/DX =    0.0                 !
 ! D13   D(3,4,5,7)             44.519          -DE/DX =    0.0                 !
 ! D14   D(4,5,6,12)           -89.7595         -DE/DX =    0.0                 !
 ! D15   D(7,5,6,12)           152.3384         -DE/DX =    0.0                 !
 ! D16   D(4,5,7,8)            -24.6721         -DE/DX =    0.0                 !
 ! D17   D(4,5,7,13)           154.5593         -DE/DX =    0.0                 !
 ! D18   D(6,5,7,8)             93.9489         -DE/DX =    0.0                 !
 ! D19   D(6,5,7,13)           -86.8197         -DE/DX =    0.0                 !
 ! D20   D(5,7,8,2)             -5.8234         -DE/DX =    0.0                 !
 ! D21   D(13,7,8,2)           174.9994         -DE/DX =    0.0                 !
 --------------------------------------------------------------------------------
 GradGradGradGradGradGradGradGradGradGradGradGradGradGradGradGradGradGrad


 ----------------------------------------------------------------------

 Electric dipole moment (input orientation):
 (Debye = 10**-18 statcoulomb cm , SI units = C m)
                  (au)            (Debye)         (10**-30 SI)
   Tot        0.692706D+00      0.176068D+01      0.587300D+01
   x          0.323173D+00      0.821425D+00      0.273998D+01
   y         -0.493300D+00     -0.125384D+01     -0.418238D+01
   z          0.363393D+00      0.923654D+00      0.308098D+01

 Dipole polarizability, Alpha (input orientation).
 (esu units = cm**3 , SI units = C**2 m**2 J**-1)
 Alpha(0;0):
               (au)            (10**-24 esu)      (10**-40 SI)
   iso        0.594259D+02      0.880602D+01      0.979801D+01
   aniso      0.328272D+02      0.486448D+01      0.541247D+01
   xx         0.794204D+02      0.117689D+02      0.130947D+02
   yx         0.724005D-01      0.107286D-01      0.119372D-01
   yy         0.570964D+02      0.846081D+01      0.941392D+01
   zx         0.758178D+00      0.112350D+00      0.125007D+00
   zy        -0.100649D-01     -0.149146D-02     -0.165948D-02
   zz         0.417611D+02      0.618835D+01      0.688547D+01

 ----------------------------------------------------------------------

 Dipole orientation:
     6          1.88660716          0.75094742          1.40704058
     6          4.61614699          0.71759458          2.14071339
     7          6.18397818          2.06069603          0.86151279
     8          8.71314222          1.86573360          1.72280980
     7          9.09012439          1.51686867          4.34105102
     8          8.49524609          3.78349875          5.68167614
     6          7.36312782         -0.33917519          5.24375249
     7          5.26996852         -0.84612936          4.17654857
     1          1.60443739          1.94731075         -0.24662197
     1          0.73359536          1.45995673          2.97219184
     1          1.25161619         -1.17489981          1.00018437
     1         10.09412634          4.66607626          5.70281022
     1          7.98466010         -1.33038245          6.93188376

 Electric dipole moment (dipole orientation):
 (Debye = 10**-18 statcoulomb cm , SI units = C m)
                  (au)            (Debye)         (10**-30 SI)
   Tot        0.692706D+00      0.176068D+01      0.587300D+01
   x          0.000000D+00      0.000000D+00      0.000000D+00
   y          0.000000D+00      0.000000D+00      0.000000D+00
   z          0.692706D+00      0.176068D+01      0.587300D+01

 Dipole polarizability, Alpha (dipole orientation).
 (esu units = cm**3 , SI units = C**2 m**2 J**-1)
 Alpha(0;0):
               (au)            (10**-24 esu)      (10**-40 SI)
   iso        0.594259D+02      0.880602D+01      0.979801D+01
   aniso      0.328272D+02      0.486448D+01      0.541247D+01
   xx         0.695861D+02      0.103116D+02      0.114732D+02
   yx         0.969747D+01      0.143702D+01      0.159890D+01
   yy         0.506262D+02      0.750203D+01      0.834713D+01
   zx         0.128160D+02      0.189913D+01      0.211307D+01
   zy        -0.310798D+01     -0.460555D+00     -0.512436D+00
   zz         0.580655D+02      0.860442D+01      0.957371D+01

 ----------------------------------------------------------------------
 1\1\GINC-LEWIS4-Z10PH-HPC3-NODE391\Freq\RB3LYP\6-31G(2df,p)\C3H5N3O2\K
 S29C\03-Jul-2022\0\\#N Geom=AllCheck Guess=TCheck SCRF=Check GenChk RB
 3LYP/6-31G(2df,p) Freq\\Title Card Required\\0,1\C,1.2897905929,-0.047
 4791563,0.2078271312\C,2.7052753534,-0.0209760468,-0.2749415453\N,3.25
 55628995,1.116205006,-0.510981362\O,4.5930228237,1.0144336072,-0.96975
 36648\N,5.3701975046,-0.0519704614,-0.4674514243\O,5.6926999357,0.1746
 891839,0.90574938\C,4.59560605,-1.2467713406,-0.4899355218\N,3.3241531
 694,-1.2650102259,-0.4604801213\H,0.8914932927,0.9656579661,0.26926705
 28\H,1.2349174641,-0.5198732602,1.1941673139\H,0.6792108421,-0.6475025
 149,-0.4740992544\H,6.524993997,0.6627890882,0.8494786968\H,5.18001607
 5,-2.1613118451,-0.5482766808\\Version=ES64L-G16RevA.03\State=1-A\HF=-
 431.8796764\RMSD=1.343e-09\RMSF=3.974e-05\ZeroPoint=0.0928736\Thermal=
 0.1001952\Dipole=0.3231734,-0.4933004,0.3633933\DipoleDeriv=-0.0554973
 ,-0.0152347,0.0487906,-0.0646587,0.062463,0.0189396,0.046415,-0.023067
 5,0.065377,0.8400619,-0.1152335,-0.1735379,-0.0686985,0.3403296,0.0354
 073,-0.2049542,0.055658,0.1893294,-0.0365358,0.326885,-0.1172109,0.005
 5575,-0.3158364,0.0716428,-0.0083248,-0.087511,-0.1703557,-0.5215801,-
 0.2567398,-0.0783762,0.1989074,-0.0926442,0.0567674,-0.0230635,0.03074
 4,-0.2344763,-0.1282722,-0.1550525,0.3424092,-0.1775872,-0.1795304,-0.
 1433622,0.7599186,0.0886098,0.5848015,-0.3558246,0.0600839,-0.1319533,
 -0.0952466,-0.2949978,-0.1098229,-0.699854,-0.0902037,-0.6473238,0.733
 1794,0.0766062,0.0164035,0.0989477,0.6176006,0.1103928,-0.0288685,0.03
 01048,0.0810384,-0.8123414,0.088114,0.0488798,0.0533349,-0.450762,-0.0
 446508,0.0707664,-0.0221507,-0.2455141,0.0333571,0.0089548,0.0099617,0
 .0678362,-0.0428426,-0.0125972,0.0006801,0.0032764,0.0761,0.0045415,0.
 0070397,-0.0047807,0.0011603,0.0590468,0.0641721,0.0376489,0.0606293,-
 0.0489595,-0.0338064,-0.0432784,-0.0149713,-0.0455091,0.0394003,-0.061
 118,-0.0373815,-0.056848,0.0090583,0.3034134,-0.0274721,0.0499012,-0.0
 30012,0.2723426,0.0258854,0.0520963,0.032197,0.2545605,0.0293045,0.045
 3273,0.0044843,0.055968,-0.0145696,-0.0116564,0.0349212,-0.0214384,0.0
 863644\Polar=79.420414,0.0724005,57.0963541,0.7581785,-0.0100649,41.76
 10533\Quadrupole=5.4931087,-3.2403195,-2.2527892,-0.0907056,0.7323261,
 1.4631594\PG=C01 [X(C3H5N3O2)]\NImag=0\\0.49501540,-0.01088765,0.59944
 361,0.01485388,0.00369025,0.53392494,-0.20167608,-0.00133307,0.0432259
 0,0.64511278,0.00084218,-0.07916377,0.00232702,0.09609639,0.70406151,0
 .04521813,-0.00079521,-0.08838254,-0.14890231,-0.06268732,0.24843399,-
 0.02582417,-0.03232496,0.00879016,-0.17679121,-0.15228256,0.04654283,0
 .34556758,-0.01445072,-0.00139412,0.00183875,-0.12777689,-0.42979887,0
 .06679478,0.13994576,0.59817938,0.00736463,0.00908530,-0.00845426,0.03
 571465,0.07144005,-0.07403700,-0.08475712,-0.09293375,0.10307779,0.005
 57145,-0.00636896,0.00074972,-0.06786801,-0.03567816,0.02866295,-0.104
 68816,-0.03509727,0.03318317,0.23837523,0.00004109,-0.00293403,0.00108
 622,-0.04171158,-0.00214055,0.02154528,0.00407866,-0.07808574,0.021838
 87,0.02953425,0.24515561,0.00316491,0.00423099,0.01595287,0.03435490,-
 0.00454057,-0.00975813,0.03222516,0.04385128,-0.06767677,-0.04036707,-
 0.12293492,0.17756952,-0.00014125,0.00184086,0.00335102,0.01700577,-0.
 00508865,-0.00422957,-0.05863947,0.04097838,0.00713618,-0.05728551,-0.
 02633733,0.01008757,0.30183352,0.00036227,-0.00068359,-0.00007832,-0.0
 0429199,-0.02062836,0.00372648,0.06636039,-0.00230929,-0.02595076,0.01
 620953,-0.12440122,0.03491125,0.06295588,0.43045200,0.00039999,0.00086
 419,-0.00102154,-0.00170134,0.01512804,-0.00907396,-0.00869410,-0.0209
 9523,0.01562633,0.00054483,0.03443195,-0.07038874,0.03225658,0.0377724
 6,0.25908467,0.00030995,-0.00045475,-0.00002868,-0.00202485,0.00384774
 ,-0.00118660,0.00498323,-0.00564543,-0.00842534,-0.01103032,0.01338661
 ,-0.02827467,-0.05357210,-0.01360001,-0.01634889,0.45685202,-0.0000166
 2,0.00045056,0.00012479,0.00247415,0.00092895,-0.00501415,-0.00915110,
 0.00575827,0.00545149,0.00396755,0.00928337,0.02808117,-0.01658551,-0.
 07746419,-0.04164985,0.24115361,0.20112399,-0.00024024,-0.00093453,-0.
 00033833,0.00001757,0.00624736,-0.00283344,0.00078498,-0.00105557,0.00
 667781,-0.02512151,0.03198713,-0.03849727,-0.00650995,-0.03528061,-0.1
 5303258,0.00879121,0.00117543,0.24591857,0.00220458,0.00216032,-0.0008
 9280,-0.05962462,0.06015491,0.00408731,-0.01179345,-0.03107204,0.00593
 060,0.01450825,0.02880618,-0.00155168,-0.09788670,-0.06393496,-0.01946
 132,-0.02096479,-0.00767038,-0.00568929,0.86768360,0.00054663,-0.00683
 489,0.00019471,0.04496309,0.00373489,0.00061873,-0.00653322,-0.0089069
 3,-0.00530150,-0.00024278,-0.05125170,0.02132982,-0.01993272,-0.189979
 87,-0.01386070,-0.01951756,-0.00774536,-0.01140564,-0.12726157,0.62632
 371,0.00043704,-0.00125228,0.00190434,0.00470287,-0.01406392,0.0100767
 8,0.00664888,0.00079742,-0.00606085,-0.00210702,0.01057410,0.00259331,
 0.01455723,0.01554525,-0.06269718,-0.03176411,-0.03651285,-0.01503523,
 0.00589758,0.03589183,0.18363917,-0.02018881,0.03741013,0.00644893,-0.
 11776734,0.03961073,0.01665932,0.03115473,0.02746029,0.00456654,-0.013
 29852,-0.00090211,-0.01306257,-0.06097312,-0.04518213,0.01177675,0.005
 53813,0.00105933,0.00554903,-0.56454593,0.00624027,-0.00277442,0.76687
 375,0.00878020,-0.00383307,-0.00364619,0.04001788,-0.17873111,-0.02406
 053,-0.00719005,-0.08237853,0.01422262,0.02442328,0.00844722,-0.005605
 37,-0.04095367,0.01010311,-0.01138937,-0.00425087,-0.00197542,-0.00247
 508,0.01974383,-0.11417836,0.00480311,-0.06973811,0.35679795,0.0065443
 1,-0.01344874,0.00195266,0.02169756,-0.01140590,-0.08811758,-0.0036606
 5,0.00380170,0.03853841,0.00648583,-0.00070708,-0.01297252,-0.02193071
 ,-0.00586284,0.02784133,0.00848014,0.00475027,0.00286038,0.01272789,-0
 .00480474,-0.06212934,-0.03622895,0.02566165,0.08862369,-0.08431483,0.
 08831834,0.00553144,-0.00919264,0.03075795,0.00058353,0.00201598,0.000
 94852,-0.00085869,0.00051682,-0.00050199,-0.00002275,0.00017923,-0.000
 19615,-0.00020003,-0.00005444,-0.00009753,0.00002306,-0.00004482,0.001
 58757,0.00014056,-0.00680031,0.00022821,0.00342224,0.09047497,0.094450
 95,-0.28609124,-0.01480085,-0.00086468,0.00173878,-0.00012444,-0.00159
 536,-0.00059762,0.00072491,0.00054305,0.00035581,-0.00023835,-0.000185
 57,0.00047095,0.00000158,0.00008786,-0.00002725,-0.00001606,-0.0007632
 1,-0.00004698,-0.00001925,0.00037613,0.00016922,0.00044475,-0.10187368
 ,0.30763354,0.00520396,-0.01223718,-0.04811443,0.00211780,-0.01103633,
 -0.00231727,-0.00055769,-0.00030337,-0.00000159,-0.00022170,0.00001385
 ,-0.00034667,-0.00007727,0.00019159,0.00007236,-0.00001468,-0.00002903
 ,-0.00007821,0.00048701,-0.00049206,0.00009248,0.00332283,-0.00027192,
 0.00100224,-0.00809104,0.01524590,0.04742060,-0.04463268,-0.00198694,0
 .01045015,-0.00383224,-0.01718104,0.03179774,-0.00088921,0.00252796,0.
 00195206,-0.00350893,-0.00039767,-0.00188454,0.00021173,-0.00048187,0.
 00113785,-0.00015808,0.00009063,-0.00061047,-0.00046270,-0.00056260,-0
 .00049079,0.00169325,-0.00015901,-0.00173425,-0.00002080,0.00371371,-0
 .01132611,0.05066475,-0.00148245,-0.09401374,0.10283877,-0.00291845,-0
 .00111699,-0.00004146,-0.00039531,0.00043800,0.00137573,0.00019379,0.0
 0012663,-0.00062179,-0.00031066,0.00048889,-0.00016854,-0.00006539,-0.
 00018306,-0.00006574,-0.00074728,-0.00006288,0.00021288,0.00087528,-0.
 00055247,0.00020956,-0.00212468,-0.01061773,0.02678307,0.00586446,0.09
 817550,0.01012400,0.10303883,-0.25915148,0.00185499,0.00479390,-0.0084
 3981,0.00031863,-0.00130559,0.00017185,0.00068195,-0.00018933,-0.00004
 913,-0.00038539,0.00009971,-0.00043375,0.00012253,-0.00008371,0.000215
 99,0.00083735,0.00023492,0.00015702,-0.00061562,0.00004268,0.00113492,
 -0.00077132,-0.00200208,0.00334534,-0.01286895,-0.11383871,0.28171665,
 -0.12639496,-0.07782458,-0.09252584,-0.02051580,-0.01944342,-0.0196358
 4,-0.00262543,0.00119549,-0.00142474,-0.00196586,-0.00001854,0.0037388
 0,0.00144108,-0.00017614,0.00018834,-0.00028238,0.00009894,-0.00059371
 ,-0.00049676,-0.00049924,0.00007225,0.00316365,-0.00057277,0.00089481,
 0.00763647,0.00610504,0.00898330,0.00085945,0.00114703,0.00070952,0.13
 902716,-0.07815251,-0.12532022,-0.09368061,-0.00249272,-0.00160419,0.0
 0131038,-0.00107326,0.00060424,-0.00030114,0.00001524,-0.00012395,0.00
 048732,0.00002636,0.00032611,-0.00017342,0.00005751,-0.00002051,-0.000
 09806,-0.00067450,0.00022398,0.00030829,0.00092830,-0.00057065,-0.0000
 7215,-0.01696329,-0.01299594,-0.01791663,0.00846397,0.00732132,0.00924
 209,0.08987583,0.13217206,-0.09308836,-0.09324259,-0.14830611,0.008275
 63,0.00738870,0.00806577,0.00101093,0.00004757,0.00109802,0.00115980,0
 .00009661,-0.00194342,-0.00040412,0.00010913,-0.00020258,0.00006762,0.
 00003899,0.00015838,-0.00009222,0.00037701,0.00003764,-0.00054048,0.00
 024642,0.00010497,0.00056244,0.00082435,-0.00101330,-0.01648666,-0.016
 68086,-0.01870185,0.09958321,0.10084026,0.16072921,0.00006646,0.000038
 13,0.00008833,-0.00033493,0.00061473,0.00058970,-0.00097112,-0.0003578
 3,-0.00057257,-0.00080628,-0.00029583,0.00101040,-0.00197972,-0.001460
 24,-0.00037209,-0.37875741,-0.21523614,0.02407328,-0.00131384,-0.00291
 861,-0.00178783,0.00236090,0.00064089,-0.00042905,0.00001115,-0.000010
 73,-0.00000191,0.00005086,-0.00001029,-0.00002305,0.00006631,0.0000183
 5,-0.00002090,0.38157336,0.00000803,0.00007156,-0.00008636,-0.00044257
 ,-0.00009595,-0.00064041,0.00088935,-0.00140396,-0.00003460,0.00425053
 ,-0.00062653,0.00169925,-0.00608520,-0.00253450,-0.00177472,-0.2142059
 5,-0.12983211,0.01315770,-0.00401770,0.00153757,-0.00292646,0.00064389
 ,-0.00108713,0.00137835,-0.00000711,0.00001576,0.00001888,0.00004766,0
 .00000973,-0.00001462,0.00001990,-0.00000309,-0.00000825,0.21886642,0.
 13409603,0.00007678,0.00010058,0.00010746,-0.00012919,0.00086950,-0.00
 042322,-0.00059178,-0.00013790,-0.00094789,-0.00157068,0.00209743,-0.0
 0080043,-0.04206718,-0.03003868,-0.01224238,0.07031746,0.04193268,-0.0
 4602208,-0.00404578,-0.00181880,-0.00767030,0.00046889,-0.00175306,0.0
 0155825,-0.00001153,0.00000263,0.00001403,0.00000464,-0.00003851,-0.00
 001038,0.00005339,0.00000557,-0.00001676,-0.02235308,-0.01083529,0.066
 49219,0.00000492,0.00141312,-0.00004220,-0.00249084,-0.00225079,-0.000
 18718,-0.00149931,0.00134378,0.00019062,0.00147983,-0.00568174,0.00058
 155,0.00980654,-0.01656458,0.00047343,-0.00083896,-0.00008693,-0.00047
 395,-0.12726284,0.12413073,0.00646777,-0.02721037,0.02903018,0.0037308
 2,-0.00040679,0.00001649,0.00017549,0.00002460,-0.00002603,0.00001536,
 0.00008706,-0.00002929,-0.00002689,0.00003426,0.00003274,-0.00015194,0
 .14827189,-0.00004141,0.00030294,0.00019182,-0.00171956,0.00281568,-0.
 00063212,-0.00072835,-0.00010482,0.00038279,-0.00175006,-0.00380492,-0
 .00065007,0.00967784,-0.02384004,0.00181361,-0.00079339,-0.00029723,-0
 .00123633,0.12527639,-0.25281318,-0.01335812,0.00121800,0.00778922,0.0
 0005518,-0.00007615,-0.00000730,0.00003323,0.00006075,-0.00001317,-0.0
 0001808,0.00009246,-0.00000914,-0.00003735,0.00011115,-0.00014736,-0.0
 0038614,-0.13132768,0.27012932,-0.00005902,0.00090039,-0.00007357,-0.0
 0122903,-0.00446053,0.01680642,0.00193978,-0.00040009,-0.00801186,-0.0
 0208027,0.00015990,0.00631737,0.00821561,0.00485535,0.00646802,-0.0017
 3598,0.00173476,0.00000602,0.00176534,-0.02096358,-0.04490783,0.004429
 76,0.00422504,-0.00039742,-0.00030790,-0.00004308,-0.00007557,0.000059
 31,0.00003562,0.00004464,-0.00004349,0.00004810,-0.00000998,-0.0002012
 2,0.00006653,-0.00003849,-0.01075288,0.01384159,0.02387226\\-0.0000071
 3,0.00000483,0.00000043,0.00003561,-0.00000792,0.00000055,-0.00007020,
 -0.00000303,0.00001449,0.00006664,-0.00005624,0.00001259,-0.00006895,-
 0.00003171,-0.00013321,0.00000844,0.00000340,0.00008611,0.00007229,0.0
 0009421,0.00002369,-0.00003335,0.00000682,-0.00001159,-0.00000082,-0.0
 0000157,0.00000141,0.00000290,0.00000093,0.00000066,0.00000025,0.00000
 178,-0.00000102,0.00000390,0.00000109,0.00000398,-0.00000959,-0.000012
 59,0.00000191\\\@


 Happiness is a conscious choice, not an automatic response.
 -- Mildred Barthel
 Job cpu time:       0 days  1 hours  6 minutes 22.6 seconds.
 Elapsed time:       0 days  0 hours 16 minutes 36.0 seconds.
 File lengths (MBytes):  RWF=     77 Int=      0 D2E=      0 Chk=      6 Scr=      1
 Normal termination of Gaussian 16 at Sun Jul  3 10:37:30 2022.
### All Done ###
