### Starting Gaussian ###
 Entering Gaussian System, Link 0=g16
 Initial command:
 /cluster/software/gaussian/gaussian-16-A.03/avx2/g16/l1.exe "/local/scratch/ks29c/Gau-30646.inp" -scrdir="/local/scratch/ks29c/"
 Entering Link 1 = /cluster/software/gaussian/gaussian-16-A.03/avx2/g16/l1.exe PID=     30647.
  
 Copyright (c) 1988,1990,1992,1993,1995,1998,2003,2009,2016,
            Gaussian, Inc.  All Rights Reserved.
  
 This is part of the Gaussian(R) 16 program.  It is based on
 the Gaussian(R) 09 system (copyright 2009, Gaussian, Inc.),
 the Gaussian(R) 03 system (copyright 2003, Gaussian, Inc.),
 the Gaussian(R) 98 system (copyright 1998, Gaussian, Inc.),
 the Gaussian(R) 94 system (copyright 1995, Gaussian, Inc.),
 the Gaussian 92(TM) system (copyright 1992, Gaussian, Inc.),
 the Gaussian 90(TM) system (copyright 1990, Gaussian, Inc.),
 the Gaussian 88(TM) system (copyright 1988, Gaussian, Inc.),
 the Gaussian 86(TM) system (copyright 1986, Carnegie Mellon
 University), and the Gaussian 82(TM) system (copyright 1983,
 Carnegie Mellon University). Gaussian is a federally registered
 trademark of Gaussian, Inc.
  
 This software contains proprietary and confidential information,
 including trade secrets, belonging to Gaussian, Inc.
  
 This software is provided under written license and may be
 used, copied, transmitted, or stored only in accord with that
 written license.
  
 The following legend is applicable only to US Government
 contracts under FAR:
  
                    RESTRICTED RIGHTS LEGEND
  
 Use, reproduction and disclosure by the US Government is
 subject to restrictions as set forth in subparagraphs (a)
 and (c) of the Commercial Computer Software - Restricted
 Rights clause in FAR 52.227-19.
  
 Gaussian, Inc.
 340 Quinnipiac St., Bldg. 40, Wallingford CT 06492
  
  
 ---------------------------------------------------------------
 Warning -- This program may not be used in any manner that
 competes with the business of Gaussian, Inc. or will provide
 assistance to any competitor of Gaussian, Inc.  The licensee
 of this program is prohibited from giving any competitor of
 Gaussian, Inc. access to this program.  By using this program,
 the user acknowledges that Gaussian, Inc. is engaged in the
 business of creating and licensing software in the field of
 computational chemistry and represents and warrants to the
 licensee that it is not a competitor of Gaussian, Inc. and that
 it will not use this program in any manner prohibited above.
 ---------------------------------------------------------------
  

 Cite this work as:
 Gaussian 16, Revision A.03,
 M. J. Frisch, G. W. Trucks, H. B. Schlegel, G. E. Scuseria, 
 M. A. Robb, J. R. Cheeseman, G. Scalmani, V. Barone, 
 G. A. Petersson, H. Nakatsuji, X. Li, M. Caricato, A. V. Marenich, 
 J. Bloino, B. G. Janesko, R. Gomperts, B. Mennucci, H. P. Hratchian, 
 J. V. Ortiz, A. F. Izmaylov, J. L. Sonnenberg, D. Williams-Young, 
 F. Ding, F. Lipparini, F. Egidi, J. Goings, B. Peng, A. Petrone, 
 T. Henderson, D. Ranasinghe, V. G. Zakrzewski, J. Gao, N. Rega, 
 G. Zheng, W. Liang, M. Hada, M. Ehara, K. Toyota, R. Fukuda, 
 J. Hasegawa, M. Ishida, T. Nakajima, Y. Honda, O. Kitao, H. Nakai, 
 T. Vreven, K. Throssell, J. A. Montgomery, Jr., J. E. Peralta, 
 F. Ogliaro, M. J. Bearpark, J. J. Heyd, E. N. Brothers, K. N. Kudin, 
 V. N. Staroverov, T. A. Keith, R. Kobayashi, J. Normand, 
 K. Raghavachari, A. P. Rendell, J. C. Burant, S. S. Iyengar, 
 J. Tomasi, M. Cossi, J. M. Millam, M. Klene, C. Adamo, R. Cammi, 
 J. W. Ochterski, R. L. Martin, K. Morokuma, O. Farkas, 
 J. B. Foresman, and D. J. Fox, Gaussian, Inc., Wallingford CT, 2016.
 
 ******************************************
 Gaussian 16:  ES64L-G16RevA.03 25-Dec-2016
                 3-Jul-2022 
 ******************************************
 %chk=CC1dNN2CdCNdC1C2.chk
 %NProcShared=20
 Will use up to   20 processors via shared memory.
 -----------------------------
 # opt freq b3lyp/6-31g(2df,p)
 -----------------------------
 1/18=20,19=15,26=3,38=1/1,3;
 2/9=110,12=2,17=6,18=5,40=1/2;
 3/5=1,6=6,7=104,11=2,25=1,30=1,71=1,74=-5/1,2,3;
 4//1;
 5/5=2,38=5/2;
 6/7=2,8=2,9=2,10=2,28=1/1;
 7//1,2,3,16;
 1/18=20,19=15,26=3/3(2);
 2/9=110/2;
 99//99;
 2/9=110/2;
 3/5=1,6=6,7=104,11=2,25=1,30=1,71=1,74=-5/1,2,3;
 4/5=5,16=3,69=1/1;
 5/5=2,38=5/2;
 7//1,2,3,16;
 1/18=20,19=15,26=3/3(-5);
 2/9=110/2;
 6/7=2,8=2,9=2,10=2,19=2,28=1/1;
 99/9=1/99;
 -------------------
 Title Card Required
 -------------------
 Symbolic Z-matrix:
 Charge =  0 Multiplicity = 1
 C                     1.17737  -0.19362  -0.00518 
 C                     2.60935  -0.65742   0.22762 
 N                     3.24832  -1.13289   1.28127 
 N                     4.6884   -1.6195    0.78633 
 C                     5.73485  -0.67836   0.61446 
 C                     5.50239   0.44772  -0.14552 
 N                     4.28911   0.53051  -0.83196 
 C                     3.64719  -0.6394   -0.82657 
 C                     4.34128  -2.04793  -0.57818 
 H                     0.49985  -1.05499  -0.066 
 H                     1.00863   0.38213  -0.93158 
 H                     0.82543   0.43476   0.81892 
 H                     6.72786  -1.11665   0.48215 
 H                     6.29259   1.16679  -0.32049 
 H                     5.13849  -2.30527  -1.288 
 H                     3.85013  -2.98798  -0.30352 
 

 GradGradGradGradGradGradGradGradGradGradGradGradGradGradGradGradGradGrad
 Berny optimization.
 Initialization pass.
                           ----------------------------
                           !    Initial Parameters    !
                           ! (Angstroms and Degrees)  !
 --------------------------                            --------------------------
 ! Name  Definition              Value          Derivative Info.                !
 --------------------------------------------------------------------------------
 ! R1    R(1,2)                  1.5231         estimate D2E/DX2                !
 ! R2    R(1,10)                 1.0976         estimate D2E/DX2                !
 ! R3    R(1,11)                 1.1037         estimate D2E/DX2                !
 ! R4    R(1,12)                 1.0945         estimate D2E/DX2                !
 ! R5    R(2,3)                  1.3208         estimate D2E/DX2                !
 ! R6    R(2,8)                  1.4794         estimate D2E/DX2                !
 ! R7    R(3,4)                  1.5986         estimate D2E/DX2                !
 ! R8    R(4,5)                  1.4179         estimate D2E/DX2                !
 ! R9    R(4,9)                  1.4717         estimate D2E/DX2                !
 ! R10   R(5,6)                  1.3783         estimate D2E/DX2                !
 ! R11   R(5,13)                 1.0935         estimate D2E/DX2                !
 ! R12   R(6,7)                  1.3965         estimate D2E/DX2                !
 ! R13   R(6,14)                 1.0826         estimate D2E/DX2                !
 ! R14   R(7,8)                  1.3345         estimate D2E/DX2                !
 ! R15   R(8,9)                  1.5898         estimate D2E/DX2                !
 ! R16   R(9,15)                 1.098          estimate D2E/DX2                !
 ! R17   R(9,16)                 1.0956         estimate D2E/DX2                !
 ! A1    A(2,1,10)             110.4778         estimate D2E/DX2                !
 ! A2    A(2,1,11)             115.523          estimate D2E/DX2                !
 ! A3    A(2,1,12)             111.2271         estimate D2E/DX2                !
 ! A4    A(10,1,11)            105.575          estimate D2E/DX2                !
 ! A5    A(10,1,12)            107.0861         estimate D2E/DX2                !
 ! A6    A(11,1,12)            106.4597         estimate D2E/DX2                !
 ! A7    A(1,2,3)              133.3437         estimate D2E/DX2                !
 ! A8    A(1,2,8)              123.1555         estimate D2E/DX2                !
 ! A9    A(3,2,8)              103.5            estimate D2E/DX2                !
 ! A10   A(2,3,4)              107.361          estimate D2E/DX2                !
 ! A11   A(3,4,5)              120.022          estimate D2E/DX2                !
 ! A12   A(3,4,9)               99.3924         estimate D2E/DX2                !
 ! A13   A(5,4,9)              104.7688         estimate D2E/DX2                !
 ! A14   A(4,5,6)              118.9911         estimate D2E/DX2                !
 ! A15   A(4,5,13)             114.7621         estimate D2E/DX2                !
 ! A16   A(6,5,13)             114.4517         estimate D2E/DX2                !
 ! A17   A(5,6,7)              117.776          estimate D2E/DX2                !
 ! A18   A(5,6,14)             120.5749         estimate D2E/DX2                !
 ! A19   A(7,6,14)             121.0192         estimate D2E/DX2                !
 ! A20   A(6,7,8)              111.3444         estimate D2E/DX2                !
 ! A21   A(2,8,7)              110.5488         estimate D2E/DX2                !
 ! A22   A(2,8,9)              100.6116         estimate D2E/DX2                !
 ! A23   A(7,8,9)              124.5659         estimate D2E/DX2                !
 ! A24   A(4,9,8)               89.4222         estimate D2E/DX2                !
 ! A25   A(4,9,15)             119.7591         estimate D2E/DX2                !
 ! A26   A(4,9,16)              97.0699         estimate D2E/DX2                !
 ! A27   A(8,9,15)             115.0644         estimate D2E/DX2                !
 ! A28   A(8,9,16)             127.131          estimate D2E/DX2                !
 ! A29   A(15,9,16)            106.6456         estimate D2E/DX2                !
 ! D1    D(10,1,2,3)           -74.6972         estimate D2E/DX2                !
 ! D2    D(10,1,2,8)           105.6651         estimate D2E/DX2                !
 ! D3    D(11,1,2,3)           165.5728         estimate D2E/DX2                !
 ! D4    D(11,1,2,8)           -14.0649         estimate D2E/DX2                !
 ! D5    D(12,1,2,3)            44.0866         estimate D2E/DX2                !
 ! D6    D(12,1,2,8)          -135.5511         estimate D2E/DX2                !
 ! D7    D(1,2,3,4)            172.0749         estimate D2E/DX2                !
 ! D8    D(8,2,3,4)             -8.237          estimate D2E/DX2                !
 ! D9    D(1,2,8,7)             89.4668         estimate D2E/DX2                !
 ! D10   D(1,2,8,9)           -137.1654         estimate D2E/DX2                !
 ! D11   D(3,2,8,7)            -90.2622         estimate D2E/DX2                !
 ! D12   D(3,2,8,9)             43.1056         estimate D2E/DX2                !
 ! D13   D(2,3,4,5)             81.0969         estimate D2E/DX2                !
 ! D14   D(2,3,4,9)            -32.1072         estimate D2E/DX2                !
 ! D15   D(3,4,5,6)            -51.4075         estimate D2E/DX2                !
 ! D16   D(3,4,5,13)           167.6305         estimate D2E/DX2                !
 ! D17   D(9,4,5,6)             58.9126         estimate D2E/DX2                !
 ! D18   D(9,4,5,13)           -82.0494         estimate D2E/DX2                !
 ! D19   D(3,4,9,8)             51.5869         estimate D2E/DX2                !
 ! D20   D(3,4,9,15)           170.4195         estimate D2E/DX2                !
 ! D21   D(3,4,9,16)           -75.7892         estimate D2E/DX2                !
 ! D22   D(5,4,9,8)            -73.0286         estimate D2E/DX2                !
 ! D23   D(5,4,9,15)            45.804          estimate D2E/DX2                !
 ! D24   D(5,4,9,16)           159.5953         estimate D2E/DX2                !
 ! D25   D(4,5,6,7)             -6.9878         estimate D2E/DX2                !
 ! D26   D(4,5,6,14)          -177.9813         estimate D2E/DX2                !
 ! D27   D(13,5,6,7)           134.0892         estimate D2E/DX2                !
 ! D28   D(13,5,6,14)          -36.9043         estimate D2E/DX2                !
 ! D29   D(5,6,7,8)            -11.6934         estimate D2E/DX2                !
 ! D30   D(14,6,7,8)           159.258          estimate D2E/DX2                !
 ! D31   D(6,7,8,2)             98.6218         estimate D2E/DX2                !
 ! D32   D(6,7,8,9)            -21.1858         estimate D2E/DX2                !
 ! D33   D(2,8,9,4)            -60.1097         estimate D2E/DX2                !
 ! D34   D(2,8,9,15)           176.9841         estimate D2E/DX2                !
 ! D35   D(2,8,9,16)            38.3291         estimate D2E/DX2                !
 ! D36   D(7,8,9,4)             64.1364         estimate D2E/DX2                !
 ! D37   D(7,8,9,15)           -58.7698         estimate D2E/DX2                !
 ! D38   D(7,8,9,16)           162.5752         estimate D2E/DX2                !
 --------------------------------------------------------------------------------
 Trust Radius=3.00D-01 FncErr=1.00D-07 GrdErr=1.00D-06 EigMax=2.50D+02 EigMin=1.00D-04
 Number of steps in this run=     94 maximum allowed number of steps=    100.
 GradGradGradGradGradGradGradGradGradGradGradGradGradGradGradGradGradGrad

                          Input orientation:                          
 ---------------------------------------------------------------------
 Center     Atomic      Atomic             Coordinates (Angstroms)
 Number     Number       Type             X           Y           Z
 ---------------------------------------------------------------------
      1          6           0        1.177370   -0.193620   -0.005180
      2          6           0        2.609350   -0.657420    0.227620
      3          7           0        3.248320   -1.132890    1.281270
      4          7           0        4.688400   -1.619500    0.786330
      5          6           0        5.734850   -0.678360    0.614460
      6          6           0        5.502390    0.447720   -0.145520
      7          7           0        4.289110    0.530510   -0.831960
      8          6           0        3.647190   -0.639400   -0.826570
      9          6           0        4.341280   -2.047930   -0.578180
     10          1           0        0.499850   -1.054990   -0.066000
     11          1           0        1.008630    0.382130   -0.931580
     12          1           0        0.825430    0.434760    0.818920
     13          1           0        6.727860   -1.116650    0.482150
     14          1           0        6.292590    1.166790   -0.320490
     15          1           0        5.138490   -2.305270   -1.288000
     16          1           0        3.850130   -2.987980   -0.303520
 ---------------------------------------------------------------------
                    Distance matrix (angstroms):
                    1          2          3          4          5
     1  C    0.000000
     2  C    1.523113   0.000000
     3  N    2.612664   1.320808   0.000000
     4  N    3.871299   2.358008   1.598620   0.000000
     5  C    4.624884   3.149418   2.614204   1.417865   0.000000
     6  C    4.374564   3.119335   3.100788   2.409216   1.378283
     7  N    3.300130   2.314191   2.883728   2.720448   2.375639
     8  C    2.640722   1.479444   2.201277   2.155495   2.537008
     9  C    3.711754   2.362713   2.342950   1.471711   2.289137
    10  H    1.097584   2.166625   3.061910   4.311507   5.292457
    11  H    1.103711   2.233095   3.494024   4.527521   5.084490
    12  H    1.094470   2.173675   2.922617   4.375338   5.038179
    13  H    5.647780   4.151843   3.570162   2.122447   1.093468
    14  H    5.302416   4.146616   4.137843   3.400278   2.142378
    15  H    4.668529   3.377730   3.398289   2.230629   2.573293
    16  H    3.878286   2.693168   2.512985   1.939899   3.119167
                    6          7          8          9         10
     6  C    0.000000
     7  N    1.396461   0.000000
     8  C    2.255532   1.334459   0.000000
     9  C    2.786331   2.591424   1.589785   0.000000
    10  H    5.223970   4.178396   3.264495   4.000605   0.000000
    11  H    4.562463   3.285345   2.831351   4.139642   1.753111
    12  H    4.775381   3.838183   3.438573   4.525134   1.763077
    13  H    2.083987   3.222968   3.380983   2.772606   6.252390
    14  H    1.082632   2.163420   3.242928   3.769408   6.209421
    15  H    3.002772   2.995174   2.282984   1.098004   4.957163
    16  H    3.815621   3.584930   2.414662   1.095610   3.875209
                   11         12         13         14         15
    11  H    0.000000
    12  H    1.760847   0.000000
    13  H    6.079027   6.112198   0.000000
    14  H    5.376742   5.632403   2.459225   0.000000
    15  H    4.940131   5.527148   2.659388   3.784603   0.000000
    16  H    4.452665   4.703598   3.521432   4.819545   1.759308
                   16
    16  H    0.000000
 Stoichiometry    C6H7N3
 Framework group  C1[X(C6H7N3)]
 Deg. of freedom    42
 Full point group                 C1      NOp   1
 Largest Abelian subgroup         C1      NOp   1
 Largest concise Abelian subgroup C1      NOp   1
                         Standard orientation:                         
 ---------------------------------------------------------------------
 Center     Atomic      Atomic             Coordinates (Angstroms)
 Number     Number       Type             X           Y           Z
 ---------------------------------------------------------------------
      1          6           0        2.718638    0.343821   -0.093376
      2          6           0        1.265796   -0.110136   -0.148572
      3          7           0        0.606799   -0.947960   -0.928512
      4          7           0       -0.857441   -1.122855   -0.311260
      5          6           0       -1.855625   -0.148598   -0.565805
      6          6           0       -1.568952    1.178820   -0.330343
      7          7           0       -0.355082    1.482391    0.289710
      8          6           0        0.227063    0.386480    0.780491
      9          6           0       -0.536406   -0.966893    1.116516
     10          1           0        3.351694   -0.445569    0.331823
     11          1           0        2.913438    1.241598    0.518365
     12          1           0        3.104248    0.560988   -1.094379
     13          1           0       -2.869854   -0.448723   -0.288427
     14          1           0       -2.322417    1.940739   -0.484821
     15          1           0       -1.347675   -0.873410    1.850488
     16          1           0       -0.092453   -1.957620    1.263913
 ---------------------------------------------------------------------
 Rotational constants (GHZ):           3.3135441           1.7185957           1.4486381
 Standard basis: 6-31G(2df,p) (6D, 7F)
 There are   314 symmetry adapted cartesian basis functions of A   symmetry.
 There are   287 symmetry adapted basis functions of A   symmetry.
   287 basis functions,   445 primitive gaussians,   314 cartesian basis functions
    32 alpha electrons       32 beta electrons
       nuclear repulsion energy       433.1122546826 Hartrees.
 NAtoms=   16 NActive=   16 NUniq=   16 SFac= 1.00D+00 NAtFMM=   60 NAOKFM=F Big=F
 Integral buffers will be    131072 words long.
 Raffenetti 2 integral format.
 Two-electron integral symmetry is turned on.
 One-electron integrals computed using PRISM.
 PrsmSu:  requested number of processors reduced to:  13 ShMem   1 Linda.
 NBasis=   287 RedAO= T EigKep=  2.27D-04  NBF=   287
 NBsUse=   287 1.00D-06 EigRej= -1.00D+00 NBFU=   287
 ExpMin= 1.61D-01 ExpMax= 4.17D+03 ExpMxC= 6.27D+02 IAcc=3 IRadAn=         5 AccDes= 0.00D+00
 Harris functional with IExCor=  402 and IRadAn=       5 diagonalized for initial guess.
 HarFok:  IExCor=  402 AccDes= 0.00D+00 IRadAn=         5 IDoV= 1 UseB2=F ITyADJ=14
 ICtDFT=  3500011 ScaDFX=  1.000000  1.000000  1.000000  1.000000
 FoFCou: FMM=F IPFlag=           0 FMFlag=      100000 FMFlg1=           0
         NFxFlg=           0 DoJE=T BraDBF=F KetDBF=T FulRan=T
         wScrn=  0.000000 ICntrl=       500 IOpCl=  0 I1Cent=   200000004 NGrid=           0
         NMat0=    1 NMatS0=      1 NMatT0=    0 NMatD0=    1 NMtDS0=    0 NMtDT0=    0
 Petite list used in FoFCou.
 Requested convergence on RMS density matrix=1.00D-08 within 128 cycles.
 Requested convergence on MAX density matrix=1.00D-06.
 Requested convergence on             energy=1.00D-06.
 No special actions if energy rises.
 Integral accuracy reduced to 1.0D-05 until final iterations.
 Initial convergence to 1.0D-05 achieved.  Increase integral accuracy.
 SCF Done:  E(RB3LYP) =  -396.874135836     A.U. after   18 cycles
            NFock= 18  Conv=0.45D-08     -V/T= 2.0082

 **********************************************************************

            Population analysis using the SCF density.

 **********************************************************************

 Orbital symmetries:
       Occupied  (A) (A) (A) (A) (A) (A) (A) (A) (A) (A) (A) (A)
                 (A) (A) (A) (A) (A) (A) (A) (A) (A) (A) (A) (A)
                 (A) (A) (A) (A) (A) (A) (A) (A)
       Virtual   (A) (A) (A) (A) (A) (A) (A) (A) (A) (A) (A) (A)
                 (A) (A) (A) (A) (A) (A) (A) (A) (A) (A) (A) (A)
                 (A) (A) (A) (A) (A) (A) (A) (A) (A) (A) (A) (A)
                 (A) (A) (A) (A) (A) (A) (A) (A) (A) (A) (A) (A)
                 (A) (A) (A) (A) (A) (A) (A) (A) (A) (A) (A) (A)
                 (A) (A) (A) (A) (A) (A) (A) (A) (A) (A) (A) (A)
                 (A) (A) (A) (A) (A) (A) (A) (A) (A) (A) (A) (A)
                 (A) (A) (A) (A) (A) (A) (A) (A) (A) (A) (A) (A)
                 (A) (A) (A) (A) (A) (A) (A) (A) (A) (A) (A) (A)
                 (A) (A) (A) (A) (A) (A) (A) (A) (A) (A) (A) (A)
                 (A) (A) (A) (A) (A) (A) (A) (A) (A) (A) (A) (A)
                 (A) (A) (A) (A) (A) (A) (A) (A) (A) (A) (A) (A)
                 (A) (A) (A) (A) (A) (A) (A) (A) (A) (A) (A) (A)
                 (A) (A) (A) (A) (A) (A) (A) (A) (A) (A) (A) (A)
                 (A) (A) (A) (A) (A) (A) (A) (A) (A) (A) (A) (A)
                 (A) (A) (A) (A) (A) (A) (A) (A) (A) (A) (A) (A)
                 (A) (A) (A) (A) (A) (A) (A) (A) (A) (A) (A) (A)
                 (A) (A) (A) (A) (A) (A) (A) (A) (A) (A) (A) (A)
                 (A) (A) (A) (A) (A) (A) (A) (A) (A) (A) (A) (A)
                 (A) (A) (A) (A) (A) (A) (A) (A) (A) (A) (A) (A)
                 (A) (A) (A) (A) (A) (A) (A) (A) (A) (A) (A) (A)
                 (A) (A) (A)
 The electronic state is 1-A.
 Alpha  occ. eigenvalues --  -14.37408 -14.36416 -14.33473 -10.27357 -10.26515
 Alpha  occ. eigenvalues --  -10.22317 -10.22306 -10.21578 -10.20717  -1.01187
 Alpha  occ. eigenvalues --   -0.90929  -0.86693  -0.75449  -0.74726  -0.66065
 Alpha  occ. eigenvalues --   -0.64633  -0.55928  -0.53077  -0.50564  -0.46193
 Alpha  occ. eigenvalues --   -0.45865  -0.44739  -0.44586  -0.41817  -0.41442
 Alpha  occ. eigenvalues --   -0.37798  -0.32556  -0.31392  -0.30131  -0.29095
 Alpha  occ. eigenvalues --   -0.25197  -0.17693
 Alpha virt. eigenvalues --   -0.09926  -0.02637   0.00975   0.06074   0.10001
 Alpha virt. eigenvalues --    0.10905   0.13054   0.14198   0.14414   0.16086
 Alpha virt. eigenvalues --    0.16779   0.18374   0.19094   0.20808   0.25297
 Alpha virt. eigenvalues --    0.28240   0.30114   0.33827   0.36051   0.39372
 Alpha virt. eigenvalues --    0.41635   0.43084   0.44835   0.46257   0.47633
 Alpha virt. eigenvalues --    0.48247   0.48597   0.50998   0.51384   0.54653
 Alpha virt. eigenvalues --    0.55782   0.56570   0.58292   0.58399   0.59238
 Alpha virt. eigenvalues --    0.61535   0.63277   0.65525   0.67615   0.69324
 Alpha virt. eigenvalues --    0.70563   0.71875   0.72607   0.73223   0.74841
 Alpha virt. eigenvalues --    0.75901   0.76807   0.77513   0.78960   0.81319
 Alpha virt. eigenvalues --    0.83072   0.83618   0.85174   0.86853   0.88337
 Alpha virt. eigenvalues --    0.89057   0.90595   0.91141   0.97050   0.97776
 Alpha virt. eigenvalues --    1.01608   1.05734   1.07549   1.12611   1.13150
 Alpha virt. eigenvalues --    1.17300   1.18872   1.19866   1.22152   1.29152
 Alpha virt. eigenvalues --    1.30592   1.33182   1.34072   1.36294   1.38731
 Alpha virt. eigenvalues --    1.41263   1.42383   1.43507   1.47324   1.48623
 Alpha virt. eigenvalues --    1.48955   1.50737   1.53934   1.54615   1.54951
 Alpha virt. eigenvalues --    1.55746   1.58893   1.62181   1.64687   1.66524
 Alpha virt. eigenvalues --    1.69322   1.70206   1.74965   1.76270   1.78114
 Alpha virt. eigenvalues --    1.79878   1.80896   1.84458   1.87490   1.88426
 Alpha virt. eigenvalues --    1.92133   1.93173   1.94393   1.96723   2.01335
 Alpha virt. eigenvalues --    2.07467   2.13702   2.14477   2.18886   2.25273
 Alpha virt. eigenvalues --    2.27009   2.32249   2.36092   2.37848   2.40644
 Alpha virt. eigenvalues --    2.43881   2.46321   2.51841   2.53021   2.57304
 Alpha virt. eigenvalues --    2.60519   2.67015   2.70744   2.75504   2.81157
 Alpha virt. eigenvalues --    2.83505   2.85332   2.86601   2.87630   2.88602
 Alpha virt. eigenvalues --    2.91107   2.93068   2.95093   2.96236   2.98885
 Alpha virt. eigenvalues --    3.00679   3.03000   3.04267   3.05708   3.08604
 Alpha virt. eigenvalues --    3.11933   3.15777   3.17855   3.21124   3.23255
 Alpha virt. eigenvalues --    3.24160   3.25870   3.29655   3.31366   3.33096
 Alpha virt. eigenvalues --    3.34686   3.36275   3.38747   3.39945   3.43591
 Alpha virt. eigenvalues --    3.45362   3.49769   3.55445   3.56492   3.58807
 Alpha virt. eigenvalues --    3.61971   3.63816   3.66217   3.68740   3.72045
 Alpha virt. eigenvalues --    3.73999   3.77772   3.79109   3.81668   3.82726
 Alpha virt. eigenvalues --    3.85734   3.89280   3.94009   3.95359   3.98468
 Alpha virt. eigenvalues --    4.00637   4.05115   4.08142   4.10940   4.14800
 Alpha virt. eigenvalues --    4.16619   4.20084   4.22361   4.26631   4.28371
 Alpha virt. eigenvalues --    4.31704   4.32193   4.35273   4.36380   4.38612
 Alpha virt. eigenvalues --    4.42124   4.43807   4.45903   4.46231   4.47406
 Alpha virt. eigenvalues --    4.48998   4.50989   4.54015   4.55029   4.56252
 Alpha virt. eigenvalues --    4.58308   4.60399   4.61463   4.62984   4.65070
 Alpha virt. eigenvalues --    4.69220   4.70716   4.72176   4.72449   4.75806
 Alpha virt. eigenvalues --    4.77376   4.80648   4.81747   4.85635   4.86469
 Alpha virt. eigenvalues --    4.89091   4.93450   4.94029   4.97060   4.98223
 Alpha virt. eigenvalues --    5.02105   5.05442   5.07764   5.09267   5.12767
 Alpha virt. eigenvalues --    5.17115   5.19882   5.23412   5.26734   5.35104
 Alpha virt. eigenvalues --    5.37381   5.38220   5.45346   5.46969   5.50510
 Alpha virt. eigenvalues --    5.53891   5.55659   5.61427   5.64689   5.68879
 Alpha virt. eigenvalues --    5.84225   5.87040   6.09624  10.11927  10.60401
 Alpha virt. eigenvalues --   11.06046  11.25462  11.31562  11.46750  11.55766
 Alpha virt. eigenvalues --   11.78672  12.16616  13.13334  16.24426  19.51409
          Condensed to atoms (all electrons):
               1          2          3          4          5          6
     1  C    5.093521   0.390939  -0.036059   0.003229  -0.000196  -0.000085
     2  C    0.390939   4.458025   0.618754  -0.060326   0.004105   0.009197
     3  N   -0.036059   0.618754   6.559465   0.262104  -0.034606   0.002353
     4  N    0.003229  -0.060326   0.262104   6.411307   0.381674  -0.036976
     5  C   -0.000196   0.004105  -0.034606   0.381674   5.030026   0.568145
     6  C   -0.000085   0.009197   0.002353  -0.036976   0.568145   4.797027
     7  N    0.002190  -0.041903  -0.024244  -0.029989  -0.045608   0.467753
     8  C   -0.054404   0.329504  -0.050845  -0.052538  -0.021795  -0.101507
     9  C    0.004508  -0.053873  -0.058606   0.311832  -0.084370  -0.015427
    10  H    0.364049  -0.016337  -0.002225  -0.000088   0.000008  -0.000001
    11  H    0.376877  -0.013268   0.001488  -0.000089   0.000003  -0.000007
    12  H    0.363621  -0.016875   0.000308  -0.000007   0.000023   0.000045
    13  H    0.000004  -0.000235   0.001797  -0.028809   0.366197  -0.047442
    14  H    0.000008  -0.000602  -0.000123   0.003343  -0.045880   0.358286
    15  H   -0.000123   0.001959   0.005095  -0.016469  -0.001992  -0.000668
    16  H    0.000367   0.002071  -0.001959  -0.040138   0.007471   0.000314
               7          8          9         10         11         12
     1  C    0.002190  -0.054404   0.004508   0.364049   0.376877   0.363621
     2  C   -0.041903   0.329504  -0.053873  -0.016337  -0.013268  -0.016875
     3  N   -0.024244  -0.050845  -0.058606  -0.002225   0.001488   0.000308
     4  N   -0.029989  -0.052538   0.311832  -0.000088  -0.000089  -0.000007
     5  C   -0.045608  -0.021795  -0.084370   0.000008   0.000003   0.000023
     6  C    0.467753  -0.101507  -0.015427  -0.000001  -0.000007   0.000045
     7  N    6.359684   0.597498  -0.035534   0.000215   0.001209  -0.000728
     8  C    0.597498   5.018592   0.296109   0.001611  -0.004288   0.003457
     9  C   -0.035534   0.296109   5.135324   0.000054   0.000402  -0.000145
    10  H    0.000215   0.001611   0.000054   0.548317  -0.030524  -0.025796
    11  H    0.001209  -0.004288   0.000402  -0.030524   0.540478  -0.030938
    12  H   -0.000728   0.003457  -0.000145  -0.025796  -0.030938   0.545885
    13  H    0.003139   0.001300   0.006664  -0.000000  -0.000000  -0.000000
    14  H   -0.027033   0.005710  -0.000269  -0.000000   0.000000  -0.000001
    15  H   -0.000631  -0.020877   0.361291  -0.000006  -0.000005   0.000002
    16  H    0.001525  -0.015438   0.365463   0.000001  -0.000005  -0.000006
              13         14         15         16
     1  C    0.000004   0.000008  -0.000123   0.000367
     2  C   -0.000235  -0.000602   0.001959   0.002071
     3  N    0.001797  -0.000123   0.005095  -0.001959
     4  N   -0.028809   0.003343  -0.016469  -0.040138
     5  C    0.366197  -0.045880  -0.001992   0.007471
     6  C   -0.047442   0.358286  -0.000668   0.000314
     7  N    0.003139  -0.027033  -0.000631   0.001525
     8  C    0.001300   0.005710  -0.020877  -0.015438
     9  C    0.006664  -0.000269   0.361291   0.365463
    10  H   -0.000000  -0.000000  -0.000006   0.000001
    11  H   -0.000000   0.000000  -0.000005  -0.000005
    12  H   -0.000000  -0.000001   0.000002  -0.000006
    13  H    0.567332   0.000791   0.001003  -0.000284
    14  H    0.000791   0.590365  -0.000154   0.000031
    15  H    0.001003  -0.000154   0.590769  -0.043270
    16  H   -0.000284   0.000031  -0.043270   0.584946
 Mulliken charges:
               1
     1  C   -0.508449
     2  C    0.388867
     3  N   -0.242698
     4  N   -0.108062
     5  C   -0.123204
     6  C   -0.001006
     7  N   -0.227541
     8  C    0.067911
     9  C   -0.233420
    10  H    0.160722
    11  H    0.158668
    12  H    0.161155
    13  H    0.128541
    14  H    0.115528
    15  H    0.124077
    16  H    0.138911
 Sum of Mulliken charges =  -0.00000
 Mulliken charges with hydrogens summed into heavy atoms:
               1
     1  C   -0.027904
     2  C    0.388867
     3  N   -0.242698
     4  N   -0.108062
     5  C    0.005337
     6  C    0.114523
     7  N   -0.227541
     8  C    0.067911
     9  C    0.029567
 Electronic spatial extent (au):  <R**2>=            934.0037
 Charge=             -0.0000 electrons
 Dipole moment (field-independent basis, Debye):
    X=              0.8919    Y=              0.3693    Z=              2.3870  Tot=              2.5748
 Quadrupole moment (field-independent basis, Debye-Ang):
   XX=            -42.1084   YY=            -56.5172   ZZ=            -53.7203
   XY=             -0.3064   XZ=             -0.5011   YZ=             -4.0136
 Traceless Quadrupole moment (field-independent basis, Debye-Ang):
   XX=              8.6736   YY=             -5.7352   ZZ=             -2.9383
   XY=             -0.3064   XZ=             -0.5011   YZ=             -4.0136
 Octapole moment (field-independent basis, Debye-Ang**2):
  XXX=              8.5508  YYY=             -2.2073  ZZZ=              5.2046  XYY=             -1.1844
  XXY=              5.8507  XXZ=              2.1895  XZZ=              1.0048  YZZ=              1.0436
  YYZ=              3.7332  XYZ=              1.5674
 Hexadecapole moment (field-independent basis, Debye-Ang**3):
 XXXX=           -664.3726 YYYY=           -334.0266 ZZZZ=           -191.8481 XXXY=              0.0892
 XXXZ=             -5.0726 YYYX=             -9.5650 YYYZ=            -11.8116 ZZZX=             -8.8265
 ZZZY=             -3.9079 XXYY=           -166.8948 XXZZ=           -155.8557 YYZZ=            -86.9614
 XXYZ=             -6.3179 YYXZ=              3.1121 ZZXY=              5.2648
 N-N= 4.331122546826D+02 E-N=-1.788465580752D+03  KE= 3.936349353748D+02
 PrsmSu:  requested number of processors reduced to:  13 ShMem   1 Linda.
 Calling FoFJK, ICntrl=      2127 FMM=F ISym2X=0 I1Cent= 0 IOpClX= 0 NMat=1 NMatS=1 NMatT=0.
 ***** Axes restored to original set *****
 -------------------------------------------------------------------
 Center     Atomic                   Forces (Hartrees/Bohr)
 Number     Number              X              Y              Z
 -------------------------------------------------------------------
      1        6           0.001604811    0.001484677    0.015285581
      2        6          -0.007508298   -0.003175978    0.011273635
      3        7          -0.015455007    0.026332442   -0.029509870
      4        7          -0.001548273   -0.035334602   -0.005706172
      5        6           0.001232581    0.043145489   -0.018626095
      6        6           0.014262356   -0.032998925   -0.027983692
      7        7          -0.028152309   -0.019392252    0.022020307
      8        6           0.026637251    0.001898101    0.006110250
      9        6           0.010293900    0.001661839    0.004175327
     10        1           0.003238014   -0.001635307    0.002159562
     11        1           0.013252018   -0.004687338    0.004542731
     12        1          -0.000461037   -0.002306907    0.002041528
     13        1           0.002784666    0.005852936    0.032343339
     14        1          -0.001439357    0.003473953   -0.003797374
     15        1           0.006596864    0.007740299    0.011411361
     16        1          -0.025338181    0.007941575   -0.025740419
 -------------------------------------------------------------------
 Cartesian Forces:  Max     0.043145489 RMS     0.016644473

 GradGradGradGradGradGradGradGradGradGradGradGradGradGradGradGradGradGrad
 Berny optimization.
 FormGI is forming the generalized inverse of G from B-inverse, IUseBI=4.
 Internal  Forces:  Max     0.041910614 RMS     0.011355108
 Search for a local minimum.
 Step number   1 out of a maximum of   94
 All quantities printed in internal units (Hartrees-Bohrs-Radians)
 Mixed Optimization -- RFO/linear search
 Second derivative matrix not updated -- first step.
 ITU=  0
     Eigenvalues ---    0.00460   0.01024   0.01578   0.02049   0.02194
     Eigenvalues ---    0.02426   0.02762   0.04282   0.04558   0.06487
     Eigenvalues ---    0.06621   0.06835   0.07044   0.08015   0.09558
     Eigenvalues ---    0.10606   0.13331   0.15822   0.15887   0.16000
     Eigenvalues ---    0.16000   0.16000   0.19862   0.21699   0.22847
     Eigenvalues ---    0.24130   0.24999   0.30069   0.30696   0.33038
     Eigenvalues ---    0.33275   0.33904   0.33951   0.34172   0.34301
     Eigenvalues ---    0.34415   0.35678   0.40578   0.43064   0.47271
     Eigenvalues ---    0.56091   0.56763
 RFO step:  Lambda=-5.83474930D-02 EMin= 4.60207760D-03
 Linear search not attempted -- first point.
 Maximum step size (   0.300) exceeded in Quadratic search.
    -- Step size scaled by   0.958
 Iteration  1 RMS(Cart)=  0.08523070 RMS(Int)=  0.01000617
 Iteration  2 RMS(Cart)=  0.00961056 RMS(Int)=  0.00186266
 Iteration  3 RMS(Cart)=  0.00014960 RMS(Int)=  0.00185693
 Iteration  4 RMS(Cart)=  0.00000010 RMS(Int)=  0.00185693
 Variable       Old X    -DE/DX   Delta X   Delta X   Delta X     New X
                                 (Linear)    (Quad)   (Total)
    R1        2.87827  -0.02243   0.00000  -0.05983  -0.05983   2.81843
    R2        2.07413  -0.00083   0.00000  -0.00201  -0.00201   2.07212
    R3        2.08571  -0.00828   0.00000  -0.02029  -0.02029   2.06542
    R4        2.06825   0.00036   0.00000   0.00086   0.00086   2.06911
    R5        2.49596  -0.04191   0.00000  -0.06449  -0.06409   2.43188
    R6        2.79574   0.00832   0.00000   0.01830   0.01869   2.81444
    R7        3.02095  -0.00069   0.00000  -0.00531  -0.00531   3.01564
    R8        2.67938   0.02507   0.00000   0.05780   0.05772   2.73710
    R9        2.78113   0.00496   0.00000   0.02192   0.02091   2.80204
   R10        2.60458  -0.01439   0.00000  -0.01915  -0.01863   2.58595
   R11        2.06636  -0.00373   0.00000  -0.00888  -0.00888   2.05748
   R12        2.63893  -0.00581   0.00000  -0.01272  -0.01222   2.62671
   R13        2.04588   0.00187   0.00000   0.00432   0.00432   2.05019
   R14        2.52176  -0.03482   0.00000  -0.05831  -0.05806   2.46370
   R15        3.00426  -0.01258   0.00000  -0.04535  -0.04614   2.95812
   R16        2.07493  -0.00440   0.00000  -0.01061  -0.01061   2.06432
   R17        2.07040  -0.00191   0.00000  -0.00457  -0.00457   2.06583
    A1        1.92820  -0.00235   0.00000  -0.01066  -0.01103   1.91717
    A2        2.01626  -0.01644   0.00000  -0.07339  -0.07371   1.94255
    A3        1.94128   0.00319   0.00000   0.01555   0.01561   1.95689
    A4        1.84263   0.00903   0.00000   0.03678   0.03604   1.87867
    A5        1.86900   0.00062   0.00000   0.00525   0.00526   1.87427
    A6        1.85807   0.00746   0.00000   0.03316   0.03327   1.89134
    A7        2.32729  -0.01783   0.00000  -0.05387  -0.05396   2.27333
    A8        2.14947   0.02247   0.00000   0.07131   0.07112   2.22059
    A9        1.80642  -0.00465   0.00000  -0.01758  -0.01767   1.78875
   A10        1.87380   0.01238   0.00000   0.03294   0.03233   1.90613
   A11        2.09478  -0.00732   0.00000  -0.04763  -0.04855   2.04623
   A12        1.73472  -0.00254   0.00000   0.00442   0.00419   1.73892
   A13        1.82856   0.00155   0.00000  -0.00843  -0.00996   1.81860
   A14        2.07679  -0.01243   0.00000  -0.01154  -0.01415   2.06263
   A15        2.00298   0.00157   0.00000   0.00022   0.00028   2.00326
   A16        1.99756   0.01347   0.00000   0.05836   0.05850   2.05606
   A17        2.05558   0.00044   0.00000   0.00892   0.00123   2.05680
   A18        2.10443   0.00586   0.00000   0.03074   0.02495   2.12938
   A19        2.11218  -0.00377   0.00000  -0.01068  -0.01624   2.09594
   A20        1.94333   0.00922   0.00000  -0.00206  -0.00407   1.93926
   A21        1.92944  -0.00709   0.00000  -0.01867  -0.01782   1.91162
   A22        1.75600   0.00524   0.00000   0.02796   0.02821   1.78421
   A23        2.17409   0.00466   0.00000   0.00103  -0.00065   2.17343
   A24        1.56071  -0.00573   0.00000   0.00299   0.00257   1.56328
   A25        2.09019  -0.00473   0.00000  -0.05827  -0.05765   2.03254
   A26        1.69419   0.01631   0.00000   0.13463   0.14161   1.83580
   A27        2.00825   0.00627   0.00000   0.02165   0.02031   2.02857
   A28        2.21885  -0.01891   0.00000  -0.13540  -0.13754   2.08131
   A29        1.86132   0.00580   0.00000   0.03822   0.03552   1.89683
    D1       -1.30371  -0.00316   0.00000  -0.03532  -0.03488  -1.33859
    D2        1.84420  -0.00014   0.00000  -0.00041  -0.00025   1.84396
    D3        2.88979  -0.00165   0.00000  -0.02388  -0.02408   2.86571
    D4       -0.24548   0.00137   0.00000   0.01103   0.01055  -0.23493
    D5        0.76946  -0.00186   0.00000  -0.02572  -0.02555   0.74391
    D6       -2.36581   0.00115   0.00000   0.00918   0.00908  -2.35673
    D7        3.00327   0.00121   0.00000   0.01179   0.01025   3.01352
    D8       -0.14376  -0.00130   0.00000  -0.01799  -0.01770  -0.16147
    D9        1.56149  -0.00336   0.00000  -0.02771  -0.02801   1.53348
   D10       -2.39399   0.00167   0.00000  -0.01851  -0.02034  -2.41433
   D11       -1.57537  -0.00103   0.00000  -0.00139  -0.00072  -1.57610
   D12        0.75234   0.00400   0.00000   0.00782   0.00694   0.75928
   D13        1.41541   0.00204   0.00000   0.02141   0.02026   1.43567
   D14       -0.56038   0.00503   0.00000   0.04907   0.04927  -0.51111
   D15       -0.89723  -0.00444   0.00000  -0.10415  -0.10426  -1.00150
   D16        2.92570  -0.01364   0.00000  -0.19433  -0.19414   2.73157
   D17        1.02822  -0.01014   0.00000  -0.12820  -0.12856   0.89966
   D18       -1.43203  -0.01934   0.00000  -0.21838  -0.21843  -1.65047
   D19        0.90036  -0.00814   0.00000  -0.04871  -0.04834   0.85202
   D20        2.97438  -0.00581   0.00000  -0.03866  -0.03957   2.93482
   D21       -1.32277   0.01049   0.00000   0.07669   0.07545  -1.24732
   D22       -1.27459   0.00044   0.00000   0.00512   0.00681  -1.26778
   D23        0.79943   0.00277   0.00000   0.01517   0.01559   0.81502
   D24        2.78546   0.01907   0.00000   0.13052   0.13060   2.91607
   D25       -0.12196   0.01701   0.00000   0.19780   0.19734   0.07538
   D26       -3.10636  -0.00058   0.00000  -0.00674  -0.00926  -3.11563
   D27        2.34030   0.02181   0.00000   0.26627   0.26734   2.60764
   D28       -0.64410   0.00422   0.00000   0.06172   0.06073  -0.58337
   D29       -0.20409  -0.01615   0.00000  -0.16740  -0.16815  -0.37224
   D30        2.77958   0.00244   0.00000   0.04203   0.03821   2.81778
   D31        1.72128   0.00910   0.00000   0.08133   0.07909   1.80036
   D32       -0.36976   0.00470   0.00000   0.05823   0.05623  -0.31353
   D33       -1.04911   0.00393   0.00000   0.02837   0.02895  -1.02016
   D34        3.08896   0.01065   0.00000   0.08695   0.08778  -3.10645
   D35        0.66897   0.01815   0.00000   0.18625   0.18216   0.85113
   D36        1.11939   0.00229   0.00000   0.02983   0.03078   1.15017
   D37       -1.02573   0.00902   0.00000   0.08841   0.08962  -0.93611
   D38        2.83747   0.01651   0.00000   0.18771   0.18400   3.02147
         Item               Value     Threshold  Converged?
 Maximum Force            0.041911     0.000450     NO 
 RMS     Force            0.011355     0.000300     NO 
 Maximum Displacement     0.480190     0.001800     NO 
 RMS     Displacement     0.088806     0.001200     NO 
 Predicted change in Energy=-4.275313D-02
 GradGradGradGradGradGradGradGradGradGradGradGradGradGradGradGradGradGrad

                          Input orientation:                          
 ---------------------------------------------------------------------
 Center     Atomic      Atomic             Coordinates (Angstroms)
 Number     Number       Type             X           Y           Z
 ---------------------------------------------------------------------
      1          6           0        1.188358   -0.197307    0.041320
      2          6           0        2.598699   -0.658359    0.192306
      3          7           0        3.222889   -1.099890    1.227454
      4          7           0        4.661709   -1.630726    0.786300
      5          6           0        5.714599   -0.647119    0.638530
      6          6           0        5.515023    0.386840   -0.235361
      7          7           0        4.276446    0.479648   -0.859376
      8          6           0        3.659950   -0.669096   -0.852563
      9          6           0        4.356682   -2.048522   -0.603314
     10          1           0        0.515835   -1.062567    0.003954
     11          1           0        1.052402    0.368066   -0.884133
     12          1           0        0.867790    0.430321    0.879283
     13          1           0        6.724642   -1.041684    0.736256
     14          1           0        6.271151    1.144563   -0.411909
     15          1           0        5.212948   -2.279154   -1.241228
     16          1           0        3.742116   -2.947113   -0.503768
 ---------------------------------------------------------------------
                    Distance matrix (angstroms):
                    1          2          3          4          5
     1  C    0.000000
     2  C    1.491452   0.000000
     3  N    2.522080   1.286894   0.000000
     4  N    3.830647   2.356765   1.595809   0.000000
     5  C    4.587575   3.147709   2.600086   1.448411   0.000000
     6  C    4.374679   3.127345   3.099044   2.417128   1.368425
     7  N    3.287219   2.283841   2.821309   2.703767   2.362543
     8  C    2.670277   1.489335   2.168658   2.148052   2.538784
     9  C    3.725699   2.378250   2.353105   1.482775   2.313017
    10  H    1.096521   2.130066   2.970941   4.257129   5.253801
    11  H    1.092975   2.145531   3.365220   4.451137   5.008511
    12  H    1.094925   2.157129   2.830063   4.318609   4.970954
    13  H    5.643257   4.179262   3.536515   2.145965   1.088770
    14  H    5.276440   4.135518   4.125164   3.424651   2.150185
    15  H    4.709177   3.393567   3.383104   2.198908   2.539426
    16  H    3.792128   2.651475   2.584368   2.059807   3.238134
                    6          7          8          9         10
     6  C    0.000000
     7  N    1.389994   0.000000
     8  C    2.221989   1.303735   0.000000
     9  C    2.721788   2.542371   1.565369   0.000000
    10  H    5.210560   4.155233   3.282362   4.011607   0.000000
    11  H    4.509572   3.226069   2.806423   4.103295   1.767290
    12  H    4.779236   3.826787   3.464702   4.529362   1.766009
    13  H    2.109004   3.294565   3.472104   2.900931   6.251879
    14  H    1.084916   2.149695   3.209658   3.727951   6.178028
    15  H    2.865404   2.938339   2.270496   1.092390   5.009335
    16  H    3.785563   3.486353   2.306030   1.093191   3.770701
                   11         12         13         14         15
    11  H    0.000000
    12  H    1.774145   0.000000
    13  H    6.065259   6.040693   0.000000
    14  H    5.297290   5.601216   2.510699   0.000000
    15  H    4.944233   5.542402   2.779747   3.678233   0.000000
    16  H    4.285983   4.645604   3.750171   4.811057   1.775772
                   16
    16  H    0.000000
 Stoichiometry    C6H7N3
 Framework group  C1[X(C6H7N3)]
 Deg. of freedom    42
 Full point group                 C1      NOp   1
 Largest Abelian subgroup         C1      NOp   1
 Largest concise Abelian subgroup C1      NOp   1
                         Standard orientation:                         
 ---------------------------------------------------------------------
 Center     Atomic      Atomic             Coordinates (Angstroms)
 Number     Number       Type             X           Y           Z
 ---------------------------------------------------------------------
      1          6           0        2.702364    0.342980   -0.127978
      2          6           0        1.274545   -0.087871   -0.116622
      3          7           0        0.648028   -0.910273   -0.882929
      4          7           0       -0.821742   -1.147647   -0.308441
      5          6           0       -1.829164   -0.159909   -0.636112
      6          6           0       -1.595835    1.142059   -0.285367
      7          7           0       -0.365180    1.451020    0.282183
      8          6           0        0.196143    0.390646    0.792328
      9          6           0       -0.560859   -0.935775    1.135745
     10          1           0        3.332332   -0.444756    0.302101
     11          1           0        2.849033    1.246998    0.468539
     12          1           0        3.066733    0.536054   -1.142286
     13          1           0       -2.854959   -0.522018   -0.590903
     14          1           0       -2.318088    1.928066   -0.479240
     15          1           0       -1.437962   -0.838267    1.779561
     16          1           0        0.012004   -1.810558    1.454574
 ---------------------------------------------------------------------
 Rotational constants (GHZ):           3.3811420           1.7224351           1.4704659
 Standard basis: 6-31G(2df,p) (6D, 7F)
 There are   314 symmetry adapted cartesian basis functions of A   symmetry.
 There are   287 symmetry adapted basis functions of A   symmetry.
   287 basis functions,   445 primitive gaussians,   314 cartesian basis functions
    32 alpha electrons       32 beta electrons
       nuclear repulsion energy       435.6198001839 Hartrees.
 NAtoms=   16 NActive=   16 NUniq=   16 SFac= 1.00D+00 NAtFMM=   60 NAOKFM=F Big=F
 Integral buffers will be    131072 words long.
 Raffenetti 2 integral format.
 Two-electron integral symmetry is turned on.
 One-electron integrals computed using PRISM.
 PrsmSu:  requested number of processors reduced to:  13 ShMem   1 Linda.
 NBasis=   287 RedAO= T EigKep=  2.22D-04  NBF=   287
 NBsUse=   287 1.00D-06 EigRej= -1.00D+00 NBFU=   287
 Initial guess from the checkpoint file:  "CC1dNN2CdCNdC1C2.chk"
 B after Tr=    -0.000000   -0.000000    0.000000
         Rot=    0.999965    0.004833    0.004278   -0.005244 Ang=   0.95 deg.
 ExpMin= 1.61D-01 ExpMax= 4.17D+03 ExpMxC= 6.27D+02 IAcc=2 IRadAn=         4 AccDes= 0.00D+00
 Harris functional with IExCor=  402 and IRadAn=       4 diagonalized for initial guess.
 HarFok:  IExCor=  402 AccDes= 0.00D+00 IRadAn=         4 IDoV= 1 UseB2=F ITyADJ=14
 ICtDFT=  3500011 ScaDFX=  1.000000  1.000000  1.000000  1.000000
 FoFCou: FMM=F IPFlag=           0 FMFlag=      100000 FMFlg1=           0
         NFxFlg=           0 DoJE=T BraDBF=F KetDBF=T FulRan=T
         wScrn=  0.000000 ICntrl=       500 IOpCl=  0 I1Cent=   200000004 NGrid=           0
         NMat0=    1 NMatS0=      1 NMatT0=    0 NMatD0=    1 NMtDS0=    0 NMtDT0=    0
 Petite list used in FoFCou.
 Requested convergence on RMS density matrix=1.00D-08 within 128 cycles.
 Requested convergence on MAX density matrix=1.00D-06.
 Requested convergence on             energy=1.00D-06.
 No special actions if energy rises.
 Integral accuracy reduced to 1.0D-05 until final iterations.
 Initial convergence to 1.0D-05 achieved.  Increase integral accuracy.
 SCF Done:  E(RB3LYP) =  -396.917427893     A.U. after   15 cycles
            NFock= 15  Conv=0.52D-08     -V/T= 2.0077
 PrsmSu:  requested number of processors reduced to:  13 ShMem   1 Linda.
 Calling FoFJK, ICntrl=      2127 FMM=F ISym2X=0 I1Cent= 0 IOpClX= 0 NMat=1 NMatS=1 NMatT=0.
 ***** Axes restored to original set *****
 -------------------------------------------------------------------
 Center     Atomic                   Forces (Hartrees/Bohr)
 Number     Number              X              Y              Z
 -------------------------------------------------------------------
      1        6          -0.002134120    0.003642491    0.008275636
      2        6          -0.000529624   -0.006391169    0.000809400
      3        7          -0.002692501    0.009309086    0.003782219
      4        7           0.000212468   -0.028055884   -0.012223796
      5        6          -0.006314583    0.017528803   -0.019742517
      6        6           0.011521693   -0.014031644   -0.014937238
      7        7          -0.007592021   -0.001147188    0.010798174
      8        6           0.008736864   -0.007874218   -0.003440363
      9        6           0.002399623    0.009127795    0.007854082
     10        1           0.001232858   -0.000370375   -0.000069146
     11        1           0.003269572   -0.000492111    0.000639914
     12        1           0.000549091   -0.001848241    0.000636950
     13        1          -0.001794952    0.008382524    0.025325423
     14        1          -0.000005665   -0.000187682   -0.003295157
     15        1           0.003606408    0.004801413    0.007190276
     16        1          -0.010465111    0.007606398   -0.011603856
 -------------------------------------------------------------------
 Cartesian Forces:  Max     0.028055884 RMS     0.009210186

 GradGradGradGradGradGradGradGradGradGradGradGradGradGradGradGradGradGrad
 Berny optimization.
 Using GEDIIS/GDIIS optimizer.
 FormGI is forming the generalized inverse of G from B-inverse, IUseBI=4.
 Internal  Forces:  Max     0.015757899 RMS     0.005353028
 Search for a local minimum.
 Step number   2 out of a maximum of   94
 All quantities printed in internal units (Hartrees-Bohrs-Radians)
 Mixed Optimization -- RFO/linear search
 Update second derivatives using D2CorX and points    1    2
 DE= -4.33D-02 DEPred=-4.28D-02 R= 1.01D+00
 TightC=F SS=  1.41D+00  RLast= 6.88D-01 DXNew= 5.0454D-01 2.0631D+00
 Trust test= 1.01D+00 RLast= 6.88D-01 DXMaxT set to 5.05D-01
 ITU=  1  0
 Use linear search instead of GDIIS.
     Eigenvalues ---    0.00460   0.00984   0.01528   0.02071   0.02176
     Eigenvalues ---    0.02424   0.02733   0.04107   0.05328   0.06607
     Eigenvalues ---    0.06890   0.07067   0.07215   0.07996   0.09585
     Eigenvalues ---    0.10370   0.13521   0.15897   0.15992   0.16000
     Eigenvalues ---    0.16042   0.16270   0.20470   0.21841   0.22276
     Eigenvalues ---    0.24029   0.24261   0.29990   0.31817   0.32945
     Eigenvalues ---    0.33356   0.33873   0.33950   0.34166   0.34310
     Eigenvalues ---    0.34391   0.35679   0.39305   0.42982   0.47097
     Eigenvalues ---    0.55653   0.56090
 RFO step:  Lambda=-1.79342954D-02 EMin= 4.59865256D-03
 Quartic linear search produced a step of  0.99171.
 Iteration  1 RMS(Cart)=  0.10531224 RMS(Int)=  0.04916430
 Iteration  2 RMS(Cart)=  0.04226612 RMS(Int)=  0.00727469
 Iteration  3 RMS(Cart)=  0.00514715 RMS(Int)=  0.00457431
 Iteration  4 RMS(Cart)=  0.00006664 RMS(Int)=  0.00457366
 Iteration  5 RMS(Cart)=  0.00000021 RMS(Int)=  0.00457366
 Variable       Old X    -DE/DX   Delta X   Delta X   Delta X     New X
                                 (Linear)    (Quad)   (Total)
    R1        2.81843  -0.00343  -0.05934   0.04331  -0.01602   2.80241
    R2        2.07212  -0.00046  -0.00199  -0.00028  -0.00228   2.06985
    R3        2.06542  -0.00120  -0.02012   0.01483  -0.00529   2.06014
    R4        2.06911  -0.00073   0.00085  -0.00463  -0.00377   2.06533
    R5        2.43188  -0.00941  -0.06356   0.03622  -0.02700   2.40487
    R6        2.81444   0.00702   0.01854   0.02932   0.04915   2.86358
    R7        3.01564  -0.00078  -0.00527  -0.01548  -0.02133   2.99431
    R8        2.73710   0.01133   0.05725  -0.00488   0.05221   2.78931
    R9        2.80204  -0.00491   0.02074  -0.04081  -0.02038   2.78166
   R10        2.58595  -0.00508  -0.01847   0.00597  -0.01140   2.57455
   R11        2.05748  -0.00243  -0.00880  -0.00313  -0.01193   2.04555
   R12        2.62671  -0.00268  -0.01212   0.00142  -0.00961   2.61710
   R13        2.05019   0.00040   0.00428  -0.00249   0.00179   2.05198
   R14        2.46370  -0.00765  -0.05758   0.02783  -0.02970   2.43400
   R15        2.95812  -0.01017  -0.04576  -0.03563  -0.08393   2.87419
   R16        2.06432  -0.00239  -0.01052  -0.00126  -0.01178   2.05254
   R17        2.06583  -0.00143  -0.00453  -0.00255  -0.00708   2.05875
    A1        1.91717  -0.00094  -0.01094   0.00244  -0.00896   1.90820
    A2        1.94255  -0.00385  -0.07310   0.04707  -0.02645   1.91610
    A3        1.95689  -0.00029   0.01548  -0.02083  -0.00534   1.95155
    A4        1.87867   0.00227   0.03574  -0.01816   0.01668   1.89536
    A5        1.87427   0.00064   0.00522  -0.00074   0.00445   1.87872
    A6        1.89134   0.00247   0.03299  -0.01160   0.02143   1.91277
    A7        2.27333  -0.01039  -0.05351  -0.02487  -0.07852   2.19480
    A8        2.22059   0.01014   0.07053  -0.01870   0.05098   2.27156
    A9        1.78875   0.00019  -0.01752   0.04264   0.02423   1.81298
   A10        1.90613   0.00050   0.03206  -0.03827  -0.00878   1.89735
   A11        2.04623  -0.00371  -0.04815  -0.03190  -0.08159   1.96464
   A12        1.73892   0.00162   0.00416   0.01925   0.02393   1.76284
   A13        1.81860  -0.00298  -0.00988  -0.01250  -0.02849   1.79010
   A14        2.06263   0.00030  -0.01403   0.05544   0.02774   2.09038
   A15        2.00326  -0.00183   0.00028  -0.00655  -0.01361   1.98964
   A16        2.05606   0.00507   0.05801   0.02571   0.07953   2.13558
   A17        2.05680  -0.00338   0.00122  -0.02578  -0.04401   2.01279
   A18        2.12938   0.00364   0.02475   0.00972   0.02009   2.14948
   A19        2.09594  -0.00065  -0.01611   0.01383  -0.01608   2.07986
   A20        1.93926   0.00313  -0.00404  -0.00117  -0.00975   1.92951
   A21        1.91162  -0.00062  -0.01767   0.02907   0.01256   1.92418
   A22        1.78421  -0.00015   0.02798  -0.02506   0.00256   1.78678
   A23        2.17343  -0.00021  -0.00065  -0.02649  -0.02974   2.14369
   A24        1.56328   0.00236   0.00255   0.04499   0.04560   1.60889
   A25        2.03254  -0.00333  -0.05717  -0.01093  -0.06863   1.96392
   A26        1.83580   0.00504   0.14044  -0.04139   0.11256   1.94837
   A27        2.02857   0.00017   0.02015  -0.01006   0.01033   2.03889
   A28        2.08131  -0.00910  -0.13640  -0.00282  -0.14357   1.93775
   A29        1.89683   0.00451   0.03522   0.01678   0.04638   1.94322
    D1       -1.33859  -0.00197  -0.03459  -0.04388  -0.07759  -1.41618
    D2        1.84396   0.00026  -0.00024  -0.00844  -0.00886   1.83510
    D3        2.86571  -0.00176  -0.02388  -0.05252  -0.07625   2.78945
    D4       -0.23493   0.00047   0.01046  -0.01708  -0.00753  -0.24245
    D5        0.74391  -0.00198  -0.02534  -0.05655  -0.08133   0.66258
    D6       -2.35673   0.00024   0.00901  -0.02111  -0.01260  -2.36933
    D7        3.01352   0.00026   0.01016   0.05542   0.06120   3.07473
    D8       -0.16147  -0.00129  -0.01756   0.02574   0.00831  -0.15316
    D9        1.53348  -0.00182  -0.02777  -0.04802  -0.07732   1.45617
   D10       -2.41433  -0.00258  -0.02017  -0.07976  -0.10439  -2.51871
   D11       -1.57610   0.00021  -0.00072  -0.01935  -0.01770  -1.59379
   D12        0.75928  -0.00056   0.00689  -0.05109  -0.04477   0.71451
   D13        1.43567   0.00055   0.02009  -0.01789  -0.00357   1.43210
   D14       -0.51111   0.00453   0.04886  -0.00267   0.04584  -0.46527
   D15       -1.00150  -0.00666  -0.10340  -0.11385  -0.22042  -1.22192
   D16        2.73157  -0.01419  -0.19253  -0.24415  -0.43444   2.29713
   D17        0.89966  -0.00824  -0.12750  -0.11263  -0.24148   0.65817
   D18       -1.65047  -0.01576  -0.21662  -0.24292  -0.45550  -2.10596
   D19        0.85202  -0.00221  -0.04794   0.01056  -0.03796   0.81406
   D20        2.93482  -0.00158  -0.03924   0.02153  -0.02103   2.91379
   D21       -1.24732   0.00583   0.07482   0.00576   0.07760  -1.16972
   D22       -1.26778   0.00225   0.00676   0.04205   0.05114  -1.21663
   D23        0.81502   0.00288   0.01546   0.05303   0.06807   0.88309
   D24        2.91607   0.01029   0.12952   0.03726   0.16670   3.08277
   D25        0.07538   0.00910   0.19570   0.08756   0.28162   0.35700
   D26       -3.11563  -0.00002  -0.00919   0.03585   0.02381  -3.09182
   D27        2.60764   0.01446   0.26512   0.21138   0.48097   3.08860
   D28       -0.58337   0.00534   0.06023   0.15966   0.22315  -0.36021
   D29       -0.37224  -0.00793  -0.16675  -0.01636  -0.17696  -0.54919
   D30        2.81778   0.00089   0.03789   0.03442   0.06878   2.88656
   D31        1.80036   0.00255   0.07843  -0.05623   0.01860   1.81897
   D32       -0.31353   0.00358   0.05576  -0.02699   0.02679  -0.28674
   D33       -1.02016   0.00386   0.02871   0.04578   0.07421  -0.94595
   D34       -3.10645   0.00631   0.08706   0.03576   0.12425  -2.98219
   D35        0.85113   0.00957   0.18065   0.02366   0.19605   1.04719
   D36        1.15017   0.00268   0.03053   0.04298   0.07288   1.22305
   D37       -0.93611   0.00513   0.08887   0.03296   0.12291  -0.81320
   D38        3.02147   0.00839   0.18247   0.02086   0.19472  -3.06700
         Item               Value     Threshold  Converged?
 Maximum Force            0.015758     0.000450     NO 
 RMS     Force            0.005353     0.000300     NO 
 Maximum Displacement     0.777427     0.001800     NO 
 RMS     Displacement     0.140980     0.001200     NO 
 Predicted change in Energy=-3.075875D-02
 GradGradGradGradGradGradGradGradGradGradGradGradGradGradGradGradGradGrad

                          Input orientation:                          
 ---------------------------------------------------------------------
 Center     Atomic      Atomic             Coordinates (Angstroms)
 Number     Number       Type             X           Y           Z
 ---------------------------------------------------------------------
      1          6           0        1.217409   -0.185078    0.109251
      2          6           0        2.605919   -0.703985    0.153796
      3          7           0        3.203417   -1.141371    1.188790
      4          7           0        4.629621   -1.683512    0.761319
      5          6           0        5.632231   -0.606899    0.641441
      6          6           0        5.541527    0.291380   -0.378847
      7          7           0        4.291296    0.397840   -0.964987
      8          6           0        3.673663   -0.731582   -0.921109
      9          6           0        4.382110   -2.048437   -0.643078
     10          1           0        0.517583   -1.025997    0.056215
     11          1           0        1.083509    0.435090   -0.777287
     12          1           0        0.971599    0.394599    1.002584
     13          1           0        6.565816   -0.816374    1.147652
     14          1           0        6.272729    1.076664   -0.545481
     15          1           0        5.300218   -2.236448   -1.192135
     16          1           0        3.692593   -2.887990   -0.724374
 ---------------------------------------------------------------------
                    Distance matrix (angstroms):
                    1          2          3          4          5
     1  C    0.000000
     2  C    1.482973   0.000000
     3  N    2.454410   1.272605   0.000000
     4  N    3.783344   2.328933   1.584521   0.000000
     5  C    4.466745   3.066886   2.546446   1.476040   0.000000
     6  C    4.377585   3.145196   3.158642   2.455962   1.362395
     7  N    3.307955   2.303517   2.862063   2.725183   2.321253
     8  C    2.719098   1.515342   2.200167   2.156523   2.508605
     9  C    3.748792   2.365886   2.359624   1.471993   2.300179
    10  H    1.095315   2.115269   2.917146   4.223548   5.165052
    11  H    1.090177   2.117107   3.293129   4.408027   4.877438
    12  H    1.092928   2.144371   2.715675   4.214010   4.780681
    13  H    5.484731   4.084259   3.378320   2.156394   1.082456
    14  H    5.251374   4.135843   4.165099   3.467867   2.157175
    15  H    4.750901   3.379234   3.356274   2.138088   2.475412
    16  H    3.758617   2.592667   2.636317   2.129806   3.291052
                    6          7          8          9         10
     6  C    0.000000
     7  N    1.384908   0.000000
     8  C    2.197593   1.288018   0.000000
     9  C    2.624654   2.469037   1.520956   0.000000
    10  H    5.211984   4.160659   3.317030   4.058198   0.000000
    11  H    4.478095   3.213491   2.844417   4.131185   1.774761
    12  H    4.775275   3.858981   3.502860   4.506464   1.766306
    13  H    2.146272   3.333317   3.556897   3.081114   6.149496
    14  H    1.085861   2.136086   3.188415   3.653795   6.156698
    15  H    2.666379   2.830016   2.232433   1.086156   5.088926
    16  H    3.694095   3.348585   2.165447   1.089446   3.762582
                   11         12         13         14         15
    11  H    0.000000
    12  H    1.783845   0.000000
    13  H    5.943673   5.725624   0.000000
    14  H    5.233867   5.564503   2.556598   0.000000
    15  H    5.008977   5.520520   3.015452   3.512925   0.000000
    16  H    4.225279   4.600172   4.006431   4.733665   1.796599
                   16
    16  H    0.000000
 Stoichiometry    C6H7N3
 Framework group  C1[X(C6H7N3)]
 Deg. of freedom    42
 Full point group                 C1      NOp   1
 Largest Abelian subgroup         C1      NOp   1
 Largest concise Abelian subgroup C1      NOp   1
                         Standard orientation:                         
 ---------------------------------------------------------------------
 Center     Atomic      Atomic             Coordinates (Angstroms)
 Number     Number       Type             X           Y           Z
 ---------------------------------------------------------------------
      1          6           0        2.673422    0.376467   -0.193182
      2          6           0        1.268838   -0.080398   -0.060408
      3          7           0        0.708964   -0.978234   -0.767482
      4          7           0       -0.759018   -1.214550   -0.219859
      5          6           0       -1.720998   -0.217815   -0.729572
      6          6           0       -1.646878    1.073814   -0.302585
      7          7           0       -0.425864    1.452513    0.230036
      8          6           0        0.145815    0.452455    0.806280
      9          6           0       -0.601070   -0.816194    1.188376
     10          1           0        3.333986   -0.326673    0.325435
     11          1           0        2.786134    1.360251    0.262834
     12          1           0        2.989721    0.418615   -1.238491
     13          1           0       -2.634557   -0.647354   -1.120236
     14          1           0       -2.352609    1.841136   -0.606318
     15          1           0       -1.553795   -0.690369    1.694556
     16          1           0        0.047779   -1.503684    1.729898
 ---------------------------------------------------------------------
 Rotational constants (GHZ):           3.3559537           1.7446069           1.4961676
 Standard basis: 6-31G(2df,p) (6D, 7F)
 There are   314 symmetry adapted cartesian basis functions of A   symmetry.
 There are   287 symmetry adapted basis functions of A   symmetry.
   287 basis functions,   445 primitive gaussians,   314 cartesian basis functions
    32 alpha electrons       32 beta electrons
       nuclear repulsion energy       437.6206441933 Hartrees.
 NAtoms=   16 NActive=   16 NUniq=   16 SFac= 1.00D+00 NAtFMM=   60 NAOKFM=F Big=F
 Integral buffers will be    131072 words long.
 Raffenetti 2 integral format.
 Two-electron integral symmetry is turned on.
 One-electron integrals computed using PRISM.
 PrsmSu:  requested number of processors reduced to:  13 ShMem   1 Linda.
 NBasis=   287 RedAO= T EigKep=  2.23D-04  NBF=   287
 NBsUse=   287 1.00D-06 EigRej= -1.00D+00 NBFU=   287
 Initial guess from the checkpoint file:  "CC1dNN2CdCNdC1C2.chk"
 B after Tr=    -0.000000    0.000000   -0.000000
         Rot=    0.999201    0.037013    0.009732   -0.011509 Ang=   4.58 deg.
 ExpMin= 1.61D-01 ExpMax= 4.17D+03 ExpMxC= 6.27D+02 IAcc=2 IRadAn=         4 AccDes= 0.00D+00
 Harris functional with IExCor=  402 and IRadAn=       4 diagonalized for initial guess.
 HarFok:  IExCor=  402 AccDes= 0.00D+00 IRadAn=         4 IDoV= 1 UseB2=F ITyADJ=14
 ICtDFT=  3500011 ScaDFX=  1.000000  1.000000  1.000000  1.000000
 FoFCou: FMM=F IPFlag=           0 FMFlag=      100000 FMFlg1=           0
         NFxFlg=           0 DoJE=T BraDBF=F KetDBF=T FulRan=T
         wScrn=  0.000000 ICntrl=       500 IOpCl=  0 I1Cent=   200000004 NGrid=           0
         NMat0=    1 NMatS0=      1 NMatT0=    0 NMatD0=    1 NMtDS0=    0 NMtDT0=    0
 Petite list used in FoFCou.
 Requested convergence on RMS density matrix=1.00D-08 within 128 cycles.
 Requested convergence on MAX density matrix=1.00D-06.
 Requested convergence on             energy=1.00D-06.
 No special actions if energy rises.
 Integral accuracy reduced to 1.0D-05 until final iterations.
 Initial convergence to 1.0D-05 achieved.  Increase integral accuracy.
 SCF Done:  E(RB3LYP) =  -396.947036964     A.U. after   14 cycles
            NFock= 14  Conv=0.97D-08     -V/T= 2.0074
 PrsmSu:  requested number of processors reduced to:  13 ShMem   1 Linda.
 Calling FoFJK, ICntrl=      2127 FMM=F ISym2X=0 I1Cent= 0 IOpClX= 0 NMat=1 NMatS=1 NMatT=0.
 ***** Axes restored to original set *****
 -------------------------------------------------------------------
 Center     Atomic                   Forces (Hartrees/Bohr)
 Number     Number              X              Y              Z
 -------------------------------------------------------------------
      1        6          -0.001949285    0.003386683    0.000526490
      2        6           0.001466401   -0.002899047   -0.006771056
      3        7           0.005779238   -0.000650316    0.013471990
      4        7           0.006504248   -0.003285099   -0.010822119
      5        6           0.001166835   -0.008973896   -0.007390888
      6        6           0.002894401    0.003092286    0.004472262
      7        7           0.000937592    0.009077375   -0.001362305
      8        6          -0.008792892   -0.005767892   -0.003847647
      9        6          -0.005986444    0.001254549    0.001853650
     10        1          -0.000416651    0.000181782   -0.001401544
     11        1          -0.001296692    0.001174711   -0.000362962
     12        1           0.000606906   -0.000772270    0.000424201
     13        1          -0.003992573    0.008668001    0.011689579
     14        1           0.001793450   -0.002980864   -0.002410081
     15        1           0.001291609    0.000622672    0.001015651
     16        1          -0.000006143   -0.002128676    0.000914780
 -------------------------------------------------------------------
 Cartesian Forces:  Max     0.013471990 RMS     0.004881736

 GradGradGradGradGradGradGradGradGradGradGradGradGradGradGradGradGradGrad
 Berny optimization.
 Using GEDIIS/GDIIS optimizer.
 FormGI is forming the generalized inverse of G from B-inverse, IUseBI=4.
 Internal  Forces:  Max     0.008749888 RMS     0.002567074
 Search for a local minimum.
 Step number   3 out of a maximum of   94
 All quantities printed in internal units (Hartrees-Bohrs-Radians)
 Mixed Optimization -- RFO/linear search
 Update second derivatives using D2CorX and points    2    3
 DE= -2.96D-02 DEPred=-3.08D-02 R= 9.63D-01
 TightC=F SS=  1.41D+00  RLast= 1.09D+00 DXNew= 8.4853D-01 3.2776D+00
 Trust test= 9.63D-01 RLast= 1.09D+00 DXMaxT set to 8.49D-01
 ITU=  1  1  0
 Use linear search instead of GDIIS.
     Eigenvalues ---    0.00459   0.00958   0.01498   0.01759   0.02230
     Eigenvalues ---    0.02284   0.02929   0.03899   0.05902   0.06951
     Eigenvalues ---    0.07037   0.07347   0.07560   0.08178   0.09928
     Eigenvalues ---    0.10348   0.14571   0.15520   0.15961   0.16001
     Eigenvalues ---    0.16137   0.16317   0.20579   0.21609   0.22629
     Eigenvalues ---    0.23975   0.24316   0.30101   0.31691   0.33066
     Eigenvalues ---    0.33368   0.33880   0.33950   0.34186   0.34309
     Eigenvalues ---    0.34395   0.35681   0.39298   0.43073   0.46961
     Eigenvalues ---    0.55955   0.57206
 RFO step:  Lambda=-8.03217988D-03 EMin= 4.59213721D-03
 Quartic linear search produced a step of  0.31022.
 Iteration  1 RMS(Cart)=  0.07804531 RMS(Int)=  0.02289455
 Iteration  2 RMS(Cart)=  0.02042289 RMS(Int)=  0.00233955
 Iteration  3 RMS(Cart)=  0.00086718 RMS(Int)=  0.00211555
 Iteration  4 RMS(Cart)=  0.00000110 RMS(Int)=  0.00211555
 Iteration  5 RMS(Cart)=  0.00000001 RMS(Int)=  0.00211555
 Variable       Old X    -DE/DX   Delta X   Delta X   Delta X     New X
                                 (Linear)    (Quad)   (Total)
    R1        2.80241   0.00427  -0.00497   0.01739   0.01242   2.81484
    R2        2.06985   0.00019  -0.00071   0.00106   0.00035   2.07020
    R3        2.06014   0.00112  -0.00164   0.00411   0.00247   2.06261
    R4        2.06533  -0.00020  -0.00117   0.00011  -0.00106   2.06428
    R5        2.40487   0.00875  -0.00838   0.02321   0.01486   2.41973
    R6        2.86358  -0.00179   0.01525  -0.00593   0.00972   2.87330
    R7        2.99431   0.00030  -0.00662  -0.00152  -0.00848   2.98583
    R8        2.78931  -0.00053   0.01620  -0.01485   0.00223   2.79154
    R9        2.78166  -0.00060  -0.00632  -0.00014  -0.00675   2.77491
   R10        2.57455   0.00144  -0.00354   0.00174  -0.00049   2.57406
   R11        2.04555   0.00035  -0.00370   0.00320  -0.00050   2.04505
   R12        2.61710   0.00471  -0.00298   0.01696   0.01453   2.63163
   R13        2.05198  -0.00058   0.00055  -0.00212  -0.00156   2.05042
   R14        2.43400   0.00863  -0.00921   0.02448   0.01421   2.44821
   R15        2.87419   0.00258  -0.02604   0.02314  -0.00432   2.86987
   R16        2.05254   0.00047  -0.00365   0.00355  -0.00011   2.05243
   R17        2.05875   0.00158  -0.00220   0.00684   0.00465   2.06340
    A1        1.90820   0.00056  -0.00278   0.00531   0.00249   1.91070
    A2        1.91610   0.00204  -0.00821   0.01719   0.00896   1.92506
    A3        1.95155  -0.00163  -0.00166  -0.01031  -0.01197   1.93958
    A4        1.89536  -0.00121   0.00518  -0.01027  -0.00516   1.89020
    A5        1.87872   0.00040   0.00138   0.00165   0.00302   1.88173
    A6        1.91277  -0.00020   0.00665  -0.00402   0.00263   1.91540
    A7        2.19480   0.00010  -0.02436   0.00523  -0.01955   2.17525
    A8        2.27156  -0.00028   0.01581  -0.01706  -0.00188   2.26968
    A9        1.81298   0.00011   0.00752   0.00861   0.01523   1.82820
   A10        1.89735  -0.00162  -0.00272  -0.00612  -0.00997   1.88738
   A11        1.96464  -0.00254  -0.02531  -0.02884  -0.05434   1.91029
   A12        1.76284   0.00050   0.00742  -0.00365   0.00461   1.76745
   A13        1.79010   0.00409  -0.00884   0.05350   0.04401   1.83412
   A14        2.09038   0.00079   0.00861  -0.00195  -0.00212   2.08826
   A15        1.98964   0.00047  -0.00422   0.03182   0.01713   2.00677
   A16        2.13558   0.00026   0.02467   0.02467   0.03983   2.17541
   A17        2.01279   0.00021  -0.01365   0.00773  -0.00844   2.00435
   A18        2.14948   0.00029   0.00623   0.00032   0.00316   2.15264
   A19        2.07986  -0.00026  -0.00499   0.00474  -0.00404   2.07582
   A20        1.92951  -0.00016  -0.00303   0.02001   0.01593   1.94544
   A21        1.92418  -0.00140   0.00390  -0.00950  -0.00602   1.91816
   A22        1.78678   0.00007   0.00079  -0.00772  -0.00662   1.78015
   A23        2.14369  -0.00094  -0.00923  -0.00445  -0.01478   2.12891
   A24        1.60889   0.00124   0.01415   0.00232   0.01525   1.62414
   A25        1.96392  -0.00218  -0.02129  -0.00654  -0.02815   1.93577
   A26        1.94837  -0.00005   0.03492  -0.02944   0.00798   1.95635
   A27        2.03889  -0.00082   0.00320  -0.00837  -0.00442   2.03448
   A28        1.93775   0.00145  -0.04454   0.04892   0.00361   1.94136
   A29        1.94322   0.00040   0.01439  -0.00709   0.00636   1.94957
    D1       -1.41618  -0.00119  -0.02407  -0.07770  -0.10150  -1.51767
    D2        1.83510  -0.00020  -0.00275  -0.03244  -0.03542   1.79968
    D3        2.78945  -0.00129  -0.02366  -0.07871  -0.10213   2.68732
    D4       -0.24245  -0.00029  -0.00233  -0.03344  -0.03606  -0.27851
    D5        0.66258  -0.00135  -0.02523  -0.07861  -0.10358   0.55900
    D6       -2.36933  -0.00036  -0.00391  -0.03335  -0.03751  -2.40684
    D7        3.07473   0.00167   0.01899   0.05909   0.07750  -3.13096
    D8       -0.15316   0.00087   0.00258   0.02210   0.02492  -0.12823
    D9        1.45617  -0.00037  -0.02399  -0.03940  -0.06356   1.39261
   D10       -2.51871  -0.00236  -0.03238  -0.05631  -0.08989  -2.60860
   D11       -1.59379   0.00046  -0.00549  -0.00178  -0.00586  -1.59966
   D12        0.71451  -0.00154  -0.01389  -0.01869  -0.03220   0.68232
   D13        1.43210   0.00308  -0.00111   0.02090   0.01866   1.45076
   D14       -0.46527  -0.00095   0.01422  -0.02810  -0.01429  -0.47957
   D15       -1.22192  -0.00453  -0.06838  -0.03586  -0.10517  -1.32709
   D16        2.29713  -0.00862  -0.13477  -0.18712  -0.31970   1.97743
   D17        0.65817  -0.00282  -0.07491  -0.02346  -0.09946   0.55871
   D18       -2.10596  -0.00691  -0.14131  -0.17471  -0.31399  -2.41995
   D19        0.81406   0.00059  -0.01178   0.01650   0.00465   0.81871
   D20        2.91379  -0.00032  -0.00652   0.00642  -0.00084   2.91294
   D21       -1.16972  -0.00155   0.02407  -0.03187  -0.00817  -1.17789
   D22       -1.21663   0.00181   0.01587   0.03127   0.04714  -1.16949
   D23        0.88309   0.00089   0.02112   0.02118   0.04165   0.92474
   D24        3.08277  -0.00033   0.05171  -0.01711   0.03432   3.11709
   D25        0.35700   0.00112   0.08737  -0.01732   0.06961   0.42661
   D26       -3.09182   0.00196   0.00739   0.03016   0.03663  -3.05518
   D27        3.08860   0.00562   0.14921   0.14785   0.29992  -2.89466
   D28       -0.36021   0.00646   0.06923   0.19533   0.26694  -0.09328
   D29       -0.54919   0.00217  -0.05490   0.05501   0.00214  -0.54705
   D30        2.88656   0.00126   0.02134   0.01041   0.03217   2.91873
   D31        1.81897  -0.00318   0.00577  -0.06871  -0.06371   1.75526
   D32       -0.28674  -0.00117   0.00831  -0.04478  -0.03700  -0.32374
   D33       -0.94595  -0.00024   0.02302  -0.00129   0.02116  -0.92479
   D34       -2.98219   0.00180   0.03855   0.00742   0.04618  -2.93601
   D35        1.04719   0.00056   0.06082  -0.02195   0.03754   1.08472
   D36        1.22305  -0.00277   0.02261  -0.02475  -0.00312   1.21993
   D37       -0.81320  -0.00072   0.03813  -0.01605   0.02190  -0.79129
   D38       -3.06700  -0.00197   0.06041  -0.04541   0.01326  -3.05374
         Item               Value     Threshold  Converged?
 Maximum Force            0.008750     0.000450     NO 
 RMS     Force            0.002567     0.000300     NO 
 Maximum Displacement     0.410194     0.001800     NO 
 RMS     Displacement     0.093911     0.001200     NO 
 Predicted change in Energy=-7.368455D-03
 GradGradGradGradGradGradGradGradGradGradGradGradGradGradGradGradGradGrad

                          Input orientation:                          
 ---------------------------------------------------------------------
 Center     Atomic      Atomic             Coordinates (Angstroms)
 Number     Number       Type             X           Y           Z
 ---------------------------------------------------------------------
      1          6           0        1.256519   -0.154538    0.142942
      2          6           0        2.621439   -0.750855    0.130585
      3          7           0        3.230570   -1.195797    1.165273
      4          7           0        4.649657   -1.722433    0.712118
      5          6           0        5.594014   -0.588980    0.636945
      6          6           0        5.528406    0.274111   -0.414807
      7          7           0        4.285328    0.342488   -1.038832
      8          6           0        3.661310   -0.791231   -0.977982
      9          6           0        4.385689   -2.093230   -0.683979
     10          1           0        0.509741   -0.949394    0.039737
     11          1           0        1.138120    0.537563   -0.692713
     12          1           0        1.062729    0.366026    1.083540
     13          1           0        6.394607   -0.612130    1.364718
     14          1           0        6.239189    1.078907   -0.570980
     15          1           0        5.313658   -2.264924   -1.221572
     16          1           0        3.710265   -2.947683   -0.761243
 ---------------------------------------------------------------------
                    Distance matrix (angstroms):
                    1          2          3          4          5
     1  C    0.000000
     2  C    1.489547   0.000000
     3  N    2.454843   1.280466   0.000000
[...]
     6          4.76661388          1.35848929         -1.64148092
     7          5.44649561          1.86430804         -3.91473637
     7          8.28555398          2.91100968         -3.74788731
     6          9.94354087          0.79233576         -3.69662227
     6         10.28977566         -0.49842194         -1.46742956
     7          8.32711157         -0.28749104          0.22028871
     6          7.05799533          1.82905640          0.01195336
     6          8.30331527          4.07009485         -1.25062779
     1          1.22534831          1.40361529          0.27643639
     1          2.70344935         -1.58268296          0.12479621
     1          1.23095509         -0.30575953         -2.63089151
     1         10.66107472          0.13102049         -5.49485851
     1         11.65000339         -2.01144721         -1.22716237
     1         10.22301478          4.46829618         -0.62615809
     1          7.13388828          5.76657554         -1.22940618

 Electric dipole moment (dipole orientation):
 (Debye = 10**-18 statcoulomb cm , SI units = C m)
                  (au)            (Debye)         (10**-30 SI)
   Tot        0.509005D+00      0.129376D+01      0.431553D+01
   x          0.000000D+00      0.000000D+00      0.000000D+00
   y          0.000000D+00      0.000000D+00      0.000000D+00
   z          0.509005D+00      0.129376D+01      0.431553D+01

 Dipole polarizability, Alpha (dipole orientation).
 (esu units = cm**3 , SI units = C**2 m**2 J**-1)
 Alpha(0;0):
               (au)            (10**-24 esu)      (10**-40 SI)
   iso        0.778946D+02      0.115428D+02      0.128431D+02
   aniso      0.283583D+02      0.420227D+01      0.467566D+01
   xx         0.924263D+02      0.136962D+02      0.152390D+02
   yx        -0.552180D+01     -0.818247D+00     -0.910422D+00
   yy         0.680145D+02      0.100787D+02      0.112141D+02
   zx        -0.801699D+01     -0.118799D+01     -0.132182D+01
   zy        -0.284438D+01     -0.421494D+00     -0.468975D+00
   zz         0.732431D+02      0.108535D+02      0.120762D+02

 ----------------------------------------------------------------------
 1\1\GINC-LEWIS4-R630-HPC4-NODE303\Freq\RB3LYP\6-31G(2df,p)\C6H7N3\KS29
 C\03-Jul-2022\0\\#N Geom=AllCheck Guess=TCheck SCRF=Check GenChk RB3LY
 P/6-31G(2df,p) Freq\\Title Card Required\\0,1\C,1.3137663746,-0.122096
 4368,0.1819616425\C,2.6447217459,-0.784697425,0.1530728848\N,3.2731684
 753,-1.1969042624,1.1939028854\N,4.7040853236,-1.7123570747,0.68549714
 99\C,5.5673553316,-0.5836181746,0.5948788477\C,5.4783923181,0.24585080
 72,-0.4986132676\N,4.2573493789,0.2323836218,-1.1292058293\C,3.6136278
 957,-0.9026364231,-1.0067302563\C,4.3932048864,-2.153413914,-0.6678195
 613\H,0.5845241278,-0.7083829289,-0.3873953555\H,1.3874836207,0.860717
 6405,-0.2940783286\H,0.9628561886,-0.0057605166,1.2089707652\H,6.16541
 57721,-0.3511378897,1.4669069228\H,6.1601599639,1.0669708493,-0.689108
 87\H,5.2995731109,-2.3052276819,-1.2517942071\H,3.775555486,-3.0517901
 911,-0.6466954227\\Version=ES64L-G16RevA.03\State=1-A\HF=-396.9602914\
 RMSD=4.788e-09\RMSF=6.402e-05\ZeroPoint=0.1245998\Thermal=0.1317335\Di
 pole=-0.1196831,0.0643874,-0.490527\DipoleDeriv=-0.0197863,0.0736942,-
 0.0228935,0.1066186,0.042979,-0.0143365,-0.0377739,0.0265298,0.0991283
 ,0.7406902,-0.0822536,-0.0121871,-0.2184308,0.1657123,-0.1068652,-0.02
 60192,-0.0703007,0.3183812,-0.2019795,-0.0555286,-0.1002689,0.0224583,
 -0.3283948,0.0848101,0.0553784,0.0263244,-0.2176363,-0.1857858,0.11360
 61,0.1016878,0.0183331,-0.3260668,0.1333838,0.0450613,0.2249937,-0.291
 0532,-0.1813024,0.1166729,0.0145376,0.0720799,-0.0562315,-0.1285366,0.
 1741459,-0.1182905,0.1524712,0.296762,0.1295239,0.1149521,0.2092554,0.
 3299044,-0.2178571,-0.0845309,-0.1604049,-0.0656361,-0.3149323,0.00909
 52,0.1751018,0.1235166,-0.6339379,0.4866943,0.3014429,0.3191011,-0.296
 1742,-0.1416923,-0.2356618,-0.2730006,-0.3106233,0.3838465,-0.3539492,
 -0.5048457,-0.3852512,-0.1879077,-0.0318674,0.1486591,-0.0069067,0.181
 557,0.2750099,0.1221949,-0.0085685,0.2078748,0.1763753,-0.0506896,-0.0
 070182,-0.0323987,-0.0400407,0.0220022,-0.0566685,-0.0400236,-0.059742
 2,0.0356742,0.0245726,-0.0310291,0.0372176,0.0284163,-0.0165017,0.0400
 093,0.0172082,0.0487357,0.0583681,0.0072347,0.0203355,0.0058081,0.0310
 861,0.0710987,0.000207,0.0812649,-0.0259195,-0.0482274,0.040564,-0.058
 3651,-0.0706472,-0.0264803,0.0941919,0.0023607,-0.066539,-0.0165404,0.
 0517639,0.0175772,-0.0719345,-0.0043918,-0.1177309,-0.0038982,0.043740
 4,0.0087431,0.0192583,0.1183087,-0.0220153,0.0430388,0.0804536,-0.0222
 604,0.0474885,-0.00449,0.0655128,-0.0383573,0.0290856,0.0226502,-0.112
 8348,-0.0070643,-0.0577549,-0.0672024,-0.0306975,0.0195434,0.0019891,0
 .0670784\Polar=95.1663768,3.9127878,68.9526674,3.2046256,-4.3193189,69
 .5648076\Quadrupole=4.7149352,-0.7744657,-3.9404695,0.8373389,0.337630
 8,3.093334\PG=C01 [X(C6H7N3)]\NImag=0\\0.49780058,0.02176819,0.5216096
 2,-0.00699227,-0.00184624,0.58316953,-0.19850936,0.06120340,0.01558912
 ,0.61798286,0.05835475,-0.10162515,-0.00302677,-0.21131261,0.30292062,
 0.01254991,0.00017929,-0.08133567,0.09753688,-0.10128935,0.56970452,-0
 .02227733,0.01462726,-0.02814221,-0.19020616,0.08585618,-0.17600669,0.
 25103228,0.01167311,-0.00674344,0.01325200,0.08978258,-0.10599701,0.10
 855577,-0.10337602,0.14087343,-0.01110326,0.00155552,0.00051476,-0.169
 26689,0.10798391,-0.38873237,0.14335775,-0.11365573,0.52409510,0.00613
 111,-0.00372127,-0.00336127,-0.04586461,0.01588055,-0.00755730,-0.0020
 7438,0.00480043,-0.02075051,0.24725632,0.00388368,0.01063714,0.0012544
 8,0.00764367,-0.01107960,0.00089396,0.01355922,-0.04638110,-0.02166524
 ,0.10408165,0.33541832,0.00184345,0.00506727,-0.00123951,-0.01203112,0
 .00949127,0.00822883,0.02904116,-0.03631240,-0.04624984,0.06213068,0.0
 6844414,0.36287264,0.00103086,0.00428279,0.00123055,0.00509964,0.00084
 343,-0.01377962,-0.02840181,-0.01561529,0.01649563,-0.10600663,-0.0701
 7906,-0.01204297,0.37645425,0.00019447,0.00253913,0.00256704,0.0159777
 8,0.00167002,-0.00523120,-0.02590617,0.00477626,0.02224545,-0.06526758
 ,-0.15824131,-0.03646182,0.15048712,0.40235441,-0.00104987,-0.00286855
 ,0.00037816,-0.00303068,0.00102808,-0.00183102,0.01370519,0.01205105,-
 0.01014712,0.00842707,0.00549398,-0.06928672,0.20353978,-0.10710703,0.
 65126872,0.00070930,0.00296839,-0.00129444,-0.00438612,-0.00416335,0.0
 0101914,-0.00934198,0.00017913,0.00027150,0.00380965,-0.00951990,-0.00
 157928,-0.06732228,-0.03951422,-0.00757029,0.50022107,-0.00017383,-0.0
 0126825,0.00040440,-0.00429173,-0.00481629,0.00286242,0.00213942,0.001
 98476,-0.00349651,-0.01824562,-0.03623456,0.02801099,-0.02085239,-0.17
 743292,0.15257718,0.23101909,0.52681510,0.00035550,0.00110308,0.000641
 43,0.01857967,0.00266497,-0.00289291,-0.01126967,-0.00312714,0.0129642
 1,0.02400338,0.03480266,-0.01383256,-0.01872868,0.12153764,-0.26895103
 ,0.06980844,-0.21250693,0.43815893,-0.00065863,-0.00044721,0.00000107,
 -0.03077859,-0.03570091,0.00416921,0.01895507,0.00705087,0.00160541,-0
 .02679307,-0.02470956,0.01644773,-0.03278082,0.05686977,-0.06253151,-0
 .20778556,-0.01982876,-0.06352189,0.41367045,0.00051302,0.00121466,0.0
 0058830,-0.03268796,-0.00623792,0.00572695,0.02556332,0.00242190,-0.01
 326851,-0.01692227,-0.01778825,0.00788591,0.01251439,0.02374301,0.0047
 8699,-0.00831039,-0.07553965,0.00552257,0.16933876,0.45501213,-0.00043
 987,0.00087344,-0.00032537,-0.00128011,0.00734390,-0.01803874,0.010359
 97,0.00805156,-0.00965804,-0.00374338,-0.01100100,0.00025906,-0.033048
 76,0.03814874,-0.03004351,-0.08678033,-0.00842622,-0.08684269,0.089425
 39,-0.04908146,0.16779096,-0.00617955,0.00202468,0.01727618,-0.0974222
 5,0.04314146,0.07986050,-0.00307668,-0.01443793,0.00422408,0.01450416,
 0.01370769,-0.02519683,-0.01867799,-0.03148050,0.00647427,-0.06542984,
 -0.03262210,-0.03998580,-0.13997245,-0.11004808,0.03066440,0.44423392,
 0.00498420,0.00228128,-0.01346323,0.04423969,-0.06360413,-0.01288064,-
 0.01777964,0.01823182,0.03431504,0.02803779,0.00827276,0.00520209,-0.0
 0135923,-0.02583607,0.01290314,-0.04221923,-0.01306591,-0.01981695,-0.
 15318165,-0.33780678,0.01575785,0.07137268,0.56064473,-0.00087926,-0.0
 0396635,0.00443091,0.04985896,-0.01052779,-0.08095819,0.00473723,0.020
 51681,-0.06468978,-0.02581287,0.00962688,-0.03884503,-0.02081867,-0.01
 118635,-0.01124404,0.00740125,-0.00126773,-0.01199420,0.03679519,0.037
 88796,-0.02384079,-0.07188204,-0.06526920,0.25395106,-0.00098594,-0.00
 076201,0.00411640,-0.02485263,0.02586201,0.00839301,-0.01519659,0.0189
 5689,0.03085237,-0.08852129,-0.02526473,-0.03131785,-0.00856340,-0.015
 46131,-0.02907903,0.00608547,-0.00746978,-0.00151770,0.01532626,-0.015
 79280,-0.00398160,-0.11557755,0.05181782,0.01447013,0.61878707,0.00040
 955,0.00076483,-0.00026799,0.01169166,-0.00106005,-0.00418602,0.005099
 41,-0.00816640,-0.00848264,-0.02759395,-0.06430250,-0.02808604,-0.0093
 9858,-0.02012413,-0.02877452,-0.00379637,-0.00253691,0.00218058,0.0037
 1316,-0.04837162,0.00076335,0.04829857,-0.13507194,0.02579279,0.067916
 10,0.56343374,-0.00059050,0.00015608,-0.00492951,0.01185879,-0.0167550
 6,-0.00188636,0.01858921,-0.00670721,-0.01589283,-0.03692326,-0.052851
 35,-0.18616011,-0.00528680,-0.00233961,-0.00967669,0.00476176,0.003445
 10,0.00026644,-0.00647555,0.01182155,0.00287232,0.00270914,0.02703636,
 -0.03875416,-0.12307826,0.04540998,0.41961969,-0.15921172,-0.09497811,
 -0.08891674,-0.02282518,-0.01500235,-0.01790674,-0.00079522,0.00019214
 ,0.00174432,-0.00196344,0.00172369,0.00044517,0.00096790,0.00125577,-0
 .00003300,0.00016365,0.00004124,0.00035404,-0.00024791,-0.00038331,-0.
 00022066,0.00116928,0.00096824,0.00072817,-0.00039739,-0.00033865,-0.0
 0061931,0.17636108,-0.09416606,-0.11955017,-0.07642718,0.01298037,0.00
 939774,0.01040584,0.00112947,-0.00028654,0.00010945,0.00094275,-0.0013
 2922,-0.00056154,-0.00052303,-0.00063142,0.00017184,-0.00014540,0.0001
 2257,-0.00001712,-0.00034623,-0.00006320,0.00006483,-0.00078104,0.0002
 3227,0.00024703,0.00017124,-0.00002392,0.00023672,0.10142935,0.1301001
 5,-0.08786505,-0.07709062,-0.11662366,-0.00141179,0.00346920,-0.001063
 23,-0.00075985,-0.00087643,0.00102239,0.00000451,0.00075655,0.00032358
 ,0.00043747,-0.00006066,-0.00016742,0.00015945,-0.00014035,-0.00011691
 ,0.00046803,-0.00010109,0.00018630,-0.00034277,0.00030694,-0.00029224,
 -0.00029825,-0.00001956,0.00015358,0.09998319,0.08221560,0.12283947,-0
 .04393119,-0.01602596,0.01127194,0.00099348,0.03073415,-0.01738193,-0.
 00214801,0.00146855,0.00203432,-0.00082742,-0.00186806,-0.00109113,-0.
 00066676,-0.00002800,0.00121914,-0.00153094,0.00031798,-0.00097260,0.0
 0080927,-0.00094952,0.00022822,0.00055887,-0.00070289,0.00101085,0.000
 25761,-0.00030368,-0.00035782,-0.00142223,-0.01948767,0.00999889,0.049
 41642,-0.01654649,-0.25934550,0.10390127,0.00074580,-0.01365325,0.0077
 4788,0.00038727,-0.00056543,-0.00172382,0.00040571,0.00074861,0.000242
 75,-0.00007185,-0.00030767,-0.00042943,0.00053309,0.00010928,0.0001552
 0,-0.00055420,0.00067482,0.00010350,0.00003219,-0.00011782,-0.00027023
 ,0.00001195,0.00004239,0.00025967,-0.00130209,-0.01564713,0.00756991,0
 .01646265,0.28266215,0.01209031,0.10350131,-0.09587956,-0.00366396,-0.
 00038618,-0.00121825,0.00047507,0.00047123,0.00113189,-0.00027349,-0.0
 0002943,0.00029929,0.00008379,0.00003306,-0.00019165,0.00015086,-0.000
 16060,-0.00004150,0.00060740,0.00029586,-0.00000367,-0.00050327,0.0000
 7285,-0.00035735,-0.00023536,0.00012205,0.00020036,-0.00079036,-0.0161
 4567,0.00702225,-0.00901277,-0.11488448,0.09971221,-0.07399880,0.00878
 352,0.07787007,-0.01211707,0.00246847,0.03187433,0.00220888,-0.0015245
 0,0.00049327,0.00060987,-0.00028469,-0.00067293,-0.00033855,-0.0005597
 8,-0.00003675,0.00018754,0.00002896,-0.00022545,0.00025735,-0.00002693
 ,0.00011320,-0.00227803,0.00399820,-0.00185313,-0.00112391,-0.00015687
 ,0.00139600,0.00798644,-0.00117309,-0.02033501,-0.00148751,-0.00010028
 ,0.00115848,0.08051758,0.00883412,-0.05019693,-0.02514534,0.00537395,-
 0.00248168,-0.01638498,-0.00158131,-0.00008039,-0.00028708,-0.00034666
 ,0.00007508,0.00033331,0.00020884,0.00027880,0.00006037,0.00004038,0.0
 0006599,-0.00005674,0.00068838,0.00051748,-0.00013488,0.00107479,-0.00
 041793,0.00140079,0.00039716,-0.00000814,-0.00048595,0.00654743,-0.002
 28606,-0.01609499,-0.00946607,0.00524966,0.02705266,-0.01192167,0.0494
 9604,0.08170093,-0.02680968,-0.28985240,0.00109989,-0.00057324,0.00119
 491,-0.00103831,0.00038570,0.00030006,0.00033481,-0.00042166,0.0000163
 6,0.00014592,0.00020625,-0.00000026,-0.00001924,-0.00006887,0.00012340
 ,-0.00002913,0.00005056,-0.00008238,-0.00100859,0.00016282,0.00056962,
 0.00008963,0.00020984,0.00017615,0.00517932,-0.00017496,-0.01337007,0.
 00293079,-0.00262692,-0.01064233,-0.08940760,0.02963046,0.31151568,0.0
 0013162,0.00020729,0.00024429,0.00228229,-0.00031131,0.00025734,-0.001
 74946,-0.00061117,0.00169023,-0.00425581,0.00037215,-0.01677030,-0.126
 03268,-0.04975221,-0.12566059,-0.00103927,0.00641893,-0.00527297,0.012
 34696,-0.00313371,-0.00073420,-0.00613374,-0.00670304,-0.00147728,-0.0
 0306950,0.00018736,-0.00047448,0.00013719,0.00000155,-0.00004089,-0.00
 011453,0.00007466,-0.00007965,-0.00008676,0.00000296,0.00002818,0.1286
 0419,-0.00002748,-0.00005766,-0.00046372,-0.00310539,0.00031198,0.0012
 6975,0.00072343,0.00037602,-0.00259185,-0.01793114,-0.01676828,-0.0198
 0100,-0.04203018,-0.04165081,-0.04524918,0.01304225,0.00082652,0.01713
 980,-0.00554438,0.00204167,0.00206931,0.00616270,0.00219378,0.00443905
 ,-0.00306357,-0.00373338,0.00137632,-0.00014078,0.00001559,0.00002226,
 -0.00001431,0.00003989,0.00003707,0.00009950,-0.00003193,-0.00003079,0
 .05165254,0.05738068,0.00004427,-0.00008698,-0.00019304,-0.00072440,0.
 00003182,0.00037336,0.00041071,0.00038879,-0.00094612,-0.00022363,-0.0
 0363042,0.00751626,-0.13643792,-0.03663543,-0.24832183,-0.01275235,-0.
 01026294,-0.00929090,-0.00533255,0.00188042,-0.00103283,0.00477222,0.0
 0461502,0.00108109,0.00104694,-0.00016656,0.00069438,-0.00009927,0.000
 00702,0.00001493,0.00004074,-0.00001518,0.00001705,0.00002566,-0.00001
 556,-0.00000283,0.14855989,0.04397472,0.24978040,-0.00010754,-0.000092
 01,0.00031508,0.00089464,0.00057429,-0.00298697,0.00188431,0.00102687,
 0.00087034,0.00401040,-0.00356014,-0.00284631,0.00341142,0.00615611,-0
 .00237646,-0.15414126,-0.13550371,0.03032835,-0.02127251,-0.02223437,0
 .00122562,-0.00370253,0.00103209,-0.00153452,-0.00014530,-0.00039135,0
 .00023214,0.00003591,-0.00000703,0.00000698,0.00007678,-0.00006244,0.0
 0000540,-0.00008629,0.00006072,0.00004068,-0.00121808,0.00074240,0.000
 82278,0.17012400,0.00006444,0.00004730,-0.00005784,-0.00081033,-0.0013
 3397,0.00232223,-0.00204343,-0.00105277,-0.00019322,-0.00292001,0.0039
 6422,0.00402508,-0.00911324,-0.01064879,-0.00097927,-0.14102024,-0.218
 18913,0.04999384,0.00124916,0.00241164,-0.00403449,0.00065312,0.003468
 48,0.00209008,0.00028528,0.00144010,0.00036207,-0.00004288,0.00001112,
 -0.00000783,-0.00007505,0.00003808,-0.00002387,0.00000633,-0.00002026,
 -0.00001664,0.00132625,-0.00073802,-0.00009439,0.15252471,0.22044133,0
 .00009660,0.00009931,0.00007439,-0.00121146,-0.00226656,0.00133683,-0.
 00259611,-0.00058406,-0.00021231,-0.00124826,0.00589918,-0.00179506,0.
 01664526,0.01449206,0.00346399,0.02781653,0.04934730,-0.05946749,-0.01
 095462,-0.01559783,-0.00120788,-0.00525396,0.00280101,0.00452481,0.000
 25605,0.00023163,0.00017917,0.00003324,-0.00000052,0.00000328,-0.00004
 659,0.00004986,-0.00002721,-0.00001063,0.00003348,-0.00001786,0.000555
 02,-0.00123582,-0.00004546,-0.02395841,-0.05349921,0.05293007,0.000061
 54,0.00012058,0.00090756,-0.00114860,0.00258945,0.00065508,0.00001757,
 -0.00010349,-0.00284068,0.00766746,-0.00165109,-0.00594461,0.00114799,
 -0.00132531,-0.00060855,0.00107226,-0.00110476,-0.00003019,-0.00001772
 ,-0.00164777,-0.00161928,-0.01303126,0.00048384,0.00951087,-0.24307094
 ,0.03095734,0.12571151,0.00005656,-0.00005538,-0.00002116,0.00002681,-
 0.00001427,-0.00001994,-0.00029812,0.00011431,-0.00004971,0.00020522,0
 .00006363,-0.00012016,0.00007297,-0.00001512,0.00000857,0.25834156,0.0
 0016924,-0.00012153,-0.00130194,0.00313205,-0.00238501,-0.00104438,0.0
 0212407,-0.00059919,-0.00037666,0.00377328,-0.00177607,-0.00248861,-0.
 00011066,-0.00175440,-0.00230892,-0.00109204,-0.00038329,-0.00120954,0
 .00005944,0.00198468,0.00131120,0.01662514,-0.00105978,-0.01344813,0.0
 2640222,-0.05462005,-0.01725861,-0.00004059,-0.00000150,0.00005320,-0.
 00007371,0.00005293,0.00004062,0.00036981,-0.00015870,0.00009280,0.000
 26900,-0.00011218,-0.00008975,-0.00004628,0.00000921,-0.00000503,-0.03
 177256,0.05548886,0.00023752,0.00011346,0.00124944,-0.00230119,0.00357
 552,-0.00380645,0.00027501,-0.00312669,-0.00385796,0.02778213,-0.00717
 311,-0.01840178,0.00134960,0.00213457,0.00029560,0.00132612,-0.0009933
 5,0.00163663,-0.00016809,-0.00142829,-0.00071765,-0.01188793,0.0003953
 7,0.00745151,0.11689571,-0.01878505,-0.11929957,0.00015761,-0.00012299
 ,0.00004492,0.00014777,-0.00008632,-0.00003153,-0.00041382,0.00012570,
 0.00009448,-0.00027613,0.00034231,0.00017970,-0.00006705,0.00002339,0.
 00006566,-0.13302433,0.02471998,0.13415741,-0.00000495,0.00004049,-0.0
 0011533,0.00085767,0.00018579,-0.00069615,0.00116951,0.00053784,0.0003
 2212,-0.00768232,-0.00793452,-0.00041486,0.00067886,-0.00164595,-0.001
 38870,-0.00127170,0.00012707,-0.00190444,-0.00105810,0.00420762,-0.000
 16861,0.01101563,0.01501112,-0.00025488,-0.13895195,-0.12629369,0.0085
 4742,-0.00001493,0.00003018,0.00001624,-0.00001065,-0.00000171,0.00000
 750,0.00004737,-0.00002733,0.00000243,-0.00000765,-0.00062922,-0.00003
 292,0.00016309,-0.00006898,-0.00013123,-0.01110329,-0.01978839,-0.0000
 3294,0.14617342,0.00006510,-0.00018532,0.00003276,-0.00056293,-0.00002
 633,0.00105248,-0.00052248,0.00120809,-0.00046811,-0.00497366,-0.00521
 524,-0.00499141,0.00091696,0.00126588,-0.00135577,0.00199882,-0.000457
 32,0.00163407,0.00134335,-0.00421455,-0.00180963,-0.01372337,-0.018344
 77,0.00393439,-0.12400647,-0.22766201,0.00629392,0.00007092,-0.0000602
 7,-0.00000211,0.00001159,0.00001899,0.00000352,-0.00000699,-0.00000101
 ,-0.00001566,-0.00000125,-0.00009388,0.00009942,-0.00021986,0.00015146
 ,0.00023520,0.00336060,0.00543603,0.00028551,0.13624967,0.24818024,0.0
 0000158,0.00001966,-0.00007991,0.00039829,-0.00076373,0.00092475,-0.00
 113846,0.00071673,0.00035794,-0.02278861,-0.03039962,-0.00370540,0.000
 21543,-0.00234272,-0.00554519,-0.00271912,0.00067612,-0.00036086,-0.00
 050610,0.00303011,0.00068491,0.01008040,0.00786153,-0.00103323,0.01338
 782,0.01405814,-0.04756285,-0.00003898,-0.00000834,0.00002284,-0.00001
 982,0.00000633,0.00000999,0.00002430,-0.00003124,-0.00002252,-0.000548
 46,-0.00129822,0.00017583,-0.00007766,0.00009007,0.00019505,0.00748503
 ,0.01331376,0.00093961,-0.00375564,-0.00492857,0.05499904\\-0.00001439
 ,-0.00003540,0.00001205,-0.00001397,0.00001801,0.00014641,0.00004745,-
 0.00003967,-0.00006528,-0.00016187,-0.00001270,0.00002498,0.00009679,0
 .00007771,0.00008461,-0.00012916,0.00004182,-0.00010700,0.00000132,-0.
 00015772,0.00004531,0.00006098,0.00009986,-0.00017626,0.00007649,-0.00
 001349,0.00001183,0.00001299,0.00000287,-0.00000571,-0.00000335,0.0000
 0865,0.00000355,0.00001390,0.00000903,0.00000484,0.00000407,-0.0000221
 8,-0.00002987,0.00004017,-0.00000498,0.00003335,0.00000423,-0.00000334
 ,0.00002560,-0.00003565,0.00003153,-0.00000842\\\@


 ABOVE ALL I AM AN OPTIMIST FOR NUMBER THEORY,
 AND I HOLD THE HOPE THAT WE MAY NOT BE FAR FROM
 A TIME WHEN IRREFUTABLE ARITHMETIC WILL CELEBRATE
 ITS TRIUMPHS IN PHYSICS AND CHEMISTRY.
   -- HERMANN MINKOWSKI, 1905
 Job cpu time:       0 days  1 hours 35 minutes 23.8 seconds.
 Elapsed time:       0 days  0 hours 23 minutes 51.7 seconds.
 File lengths (MBytes):  RWF=    108 Int=      0 D2E=      0 Chk=      8 Scr=      1
 Normal termination of Gaussian 16 at Sun Jul  3 23:26:31 2022.
### All Done ###
