### Starting Gaussian ###
 Entering Gaussian System, Link 0=g16
 Initial command:
 /cluster/software/gaussian/gaussian-16-A.03/avx2/g16/l1.exe "/local/scratch/ks29c/Gau-31570.inp" -scrdir="/local/scratch/ks29c/"
 Entering Link 1 = /cluster/software/gaussian/gaussian-16-A.03/avx2/g16/l1.exe PID=     31572.
  
 Copyright (c) 1988,1990,1992,1993,1995,1998,2003,2009,2016,
            Gaussian, Inc.  All Rights Reserved.
  
 This is part of the Gaussian(R) 16 program.  It is based on
 the Gaussian(R) 09 system (copyright 2009, Gaussian, Inc.),
 the Gaussian(R) 03 system (copyright 2003, Gaussian, Inc.),
 the Gaussian(R) 98 system (copyright 1998, Gaussian, Inc.),
 the Gaussian(R) 94 system (copyright 1995, Gaussian, Inc.),
 the Gaussian 92(TM) system (copyright 1992, Gaussian, Inc.),
 the Gaussian 90(TM) system (copyright 1990, Gaussian, Inc.),
 the Gaussian 88(TM) system (copyright 1988, Gaussian, Inc.),
 the Gaussian 86(TM) system (copyright 1986, Carnegie Mellon
 University), and the Gaussian 82(TM) system (copyright 1983,
 Carnegie Mellon University). Gaussian is a federally registered
 trademark of Gaussian, Inc.
  
 This software contains proprietary and confidential information,
 including trade secrets, belonging to Gaussian, Inc.
  
 This software is provided under written license and may be
 used, copied, transmitted, or stored only in accord with that
 written license.
  
 The following legend is applicable only to US Government
 contracts under FAR:
  
                    RESTRICTED RIGHTS LEGEND
  
 Use, reproduction and disclosure by the US Government is
 subject to restrictions as set forth in subparagraphs (a)
 and (c) of the Commercial Computer Software - Restricted
 Rights clause in FAR 52.227-19.
  
 Gaussian, Inc.
 340 Quinnipiac St., Bldg. 40, Wallingford CT 06492
  
  
 ---------------------------------------------------------------
 Warning -- This program may not be used in any manner that
 competes with the business of Gaussian, Inc. or will provide
 assistance to any competitor of Gaussian, Inc.  The licensee
 of this program is prohibited from giving any competitor of
 Gaussian, Inc. access to this program.  By using this program,
 the user acknowledges that Gaussian, Inc. is engaged in the
 business of creating and licensing software in the field of
 computational chemistry and represents and warrants to the
 licensee that it is not a competitor of Gaussian, Inc. and that
 it will not use this program in any manner prohibited above.
 ---------------------------------------------------------------
  

 Cite this work as:
 Gaussian 16, Revision A.03,
 M. J. Frisch, G. W. Trucks, H. B. Schlegel, G. E. Scuseria, 
 M. A. Robb, J. R. Cheeseman, G. Scalmani, V. Barone, 
 G. A. Petersson, H. Nakatsuji, X. Li, M. Caricato, A. V. Marenich, 
 J. Bloino, B. G. Janesko, R. Gomperts, B. Mennucci, H. P. Hratchian, 
 J. V. Ortiz, A. F. Izmaylov, J. L. Sonnenberg, D. Williams-Young, 
 F. Ding, F. Lipparini, F. Egidi, J. Goings, B. Peng, A. Petrone, 
 T. Henderson, D. Ranasinghe, V. G. Zakrzewski, J. Gao, N. Rega, 
 G. Zheng, W. Liang, M. Hada, M. Ehara, K. Toyota, R. Fukuda, 
 J. Hasegawa, M. Ishida, T. Nakajima, Y. Honda, O. Kitao, H. Nakai, 
 T. Vreven, K. Throssell, J. A. Montgomery, Jr., J. E. Peralta, 
 F. Ogliaro, M. J. Bearpark, J. J. Heyd, E. N. Brothers, K. N. Kudin, 
 V. N. Staroverov, T. A. Keith, R. Kobayashi, J. Normand, 
 K. Raghavachari, A. P. Rendell, J. C. Burant, S. S. Iyengar, 
 J. Tomasi, M. Cossi, J. M. Millam, M. Klene, C. Adamo, R. Cammi, 
 J. W. Ochterski, R. L. Martin, K. Morokuma, O. Farkas, 
 J. B. Foresman, and D. J. Fox, Gaussian, Inc., Wallingford CT, 2016.
 
 ******************************************
 Gaussian 16:  ES64L-G16RevA.03 25-Dec-2016
                 3-Jul-2022 
 ******************************************
 %chk=Cc1n[nH]ncpNpc1dO.chk
 %NProcShared=20
 Will use up to   20 processors via shared memory.
 -----------------------------
 # opt freq b3lyp/6-31g(2df,p)
 -----------------------------
 1/18=20,19=15,26=3,38=1/1,3;
 2/9=110,12=2,17=6,18=5,40=1/2;
 3/5=1,6=6,7=104,11=2,25=1,30=1,71=1,74=-5/1,2,3;
 4//1;
 5/5=2,38=5/2;
 6/7=2,8=2,9=2,10=2,28=1/1;
 7//1,2,3,16;
 1/18=20,19=15,26=3/3(2);
 2/9=110/2;
 99//99;
 2/9=110/2;
 3/5=1,6=6,7=104,11=2,25=1,30=1,71=1,74=-5/1,2,3;
 4/5=5,16=3,69=1/1;
 5/5=2,38=5/2;
 7//1,2,3,16;
 1/18=20,19=15,26=3/3(-5);
 2/9=110/2;
 6/7=2,8=2,9=2,10=2,19=2,28=1/1;
 99/9=1/99;
 -------------------
 Title Card Required
 -------------------
 Symbolic Z-matrix:
 Charge =  0 Multiplicity = 1
 C                     0.93968   0.11674   0.00009 
 C                     2.43306   0.1458   -0.00034 
 N                     3.10939   1.24923   0.00142 
 N                     4.44942   1.18825  -0.00308 
 N                     5.20628   0.07913   0.00605 
 C                     4.64419  -1.08944   0.00493 
 N                     5.35604  -2.25682   0.01095 
 C                     3.14579  -1.15674  -0.0025 
 O                     2.55901  -2.22707  -0.00796 
 H                     0.53686   1.13242   0.00137 
 H                     0.58667  -0.41011   0.89098 
 H                     0.58636  -0.40773  -0.89213 
 H                     4.94866   2.0823    0.00078 
 H                     6.36542  -2.23455   0.0132 
 H                     4.86712  -3.14531   0.00726 
 

 GradGradGradGradGradGradGradGradGradGradGradGradGradGradGradGradGradGrad
 Berny optimization.
 Initialization pass.
                           ----------------------------
                           !    Initial Parameters    !
                           ! (Angstroms and Degrees)  !
 --------------------------                            --------------------------
 ! Name  Definition              Value          Derivative Info.                !
 --------------------------------------------------------------------------------
 ! R1    R(1,2)                  1.4937         estimate D2E/DX2                !
 ! R2    R(1,10)                 1.0926         estimate D2E/DX2                !
 ! R3    R(1,11)                 1.0936         estimate D2E/DX2                !
 ! R4    R(1,12)                 1.0936         estimate D2E/DX2                !
 ! R5    R(2,3)                  1.2942         estimate D2E/DX2                !
 ! R6    R(2,8)                  1.4848         estimate D2E/DX2                !
 ! R7    R(3,4)                  1.3414         estimate D2E/DX2                !
 ! R8    R(4,5)                  1.3428         estimate D2E/DX2                !
 ! R9    R(4,13)                 1.024          estimate D2E/DX2                !
 ! R10   R(5,6)                  1.2967         estimate D2E/DX2                !
 ! R11   R(6,7)                  1.3673         estimate D2E/DX2                !
 ! R12   R(6,8)                  1.4999         estimate D2E/DX2                !
 ! R13   R(7,14)                 1.0096         estimate D2E/DX2                !
 ! R14   R(7,15)                 1.0141         estimate D2E/DX2                !
 ! R15   R(8,9)                  1.2206         estimate D2E/DX2                !
 ! A1    A(2,1,10)             110.5186         estimate D2E/DX2                !
 ! A2    A(2,1,11)             109.4118         estimate D2E/DX2                !
 ! A3    A(2,1,12)             109.3972         estimate D2E/DX2                !
 ! A4    A(10,1,11)            109.14           estimate D2E/DX2                !
 ! A5    A(10,1,12)            109.1261         estimate D2E/DX2                !
 ! A6    A(11,1,12)            109.2269         estimate D2E/DX2                !
 ! A7    A(1,2,3)              122.6203         estimate D2E/DX2                !
 ! A8    A(1,2,8)              117.572          estimate D2E/DX2                !
 ! A9    A(3,2,8)              119.8077         estimate D2E/DX2                !
 ! A10   A(2,3,4)              118.8995         estimate D2E/DX2                !
 ! A11   A(3,4,5)              126.9122         estimate D2E/DX2                !
 ! A12   A(3,4,13)             116.5724         estimate D2E/DX2                !
 ! A13   A(5,4,13)             116.5089         estimate D2E/DX2                !
 ! A14   A(4,5,6)              120.0015         estimate D2E/DX2                !
 ! A15   A(5,6,7)              122.9373         estimate D2E/DX2                !
 ! A16   A(5,6,8)              118.2594         estimate D2E/DX2                !
 ! A17   A(7,6,8)              118.8032         estimate D2E/DX2                !
 ! A18   A(6,7,14)             120.1105         estimate D2E/DX2                !
 ! A19   A(6,7,15)             119.801          estimate D2E/DX2                !
 ! A20   A(14,7,15)            120.0873         estimate D2E/DX2                !
 ! A21   A(2,8,6)              116.1143         estimate D2E/DX2                !
 ! A22   A(2,8,9)              122.5806         estimate D2E/DX2                !
 ! A23   A(6,8,9)              121.305          estimate D2E/DX2                !
 ! D1    D(10,1,2,3)             0.0376         estimate D2E/DX2                !
 ! D2    D(10,1,2,8)          -179.9801         estimate D2E/DX2                !
 ! D3    D(11,1,2,3)          -120.1657         estimate D2E/DX2                !
 ! D4    D(11,1,2,8)            59.8166         estimate D2E/DX2                !
 ! D5    D(12,1,2,3)           120.2143         estimate D2E/DX2                !
 ! D6    D(12,1,2,8)           -59.8033         estimate D2E/DX2                !
 ! D7    D(1,2,3,4)           -179.8069         estimate D2E/DX2                !
 ! D8    D(8,2,3,4)              0.2111         estimate D2E/DX2                !
 ! D9    D(1,2,8,6)           -179.668          estimate D2E/DX2                !
 ! D10   D(1,2,8,9)              0.226          estimate D2E/DX2                !
 ! D11   D(3,2,8,6)              0.3149         estimate D2E/DX2                !
 ! D12   D(3,2,8,9)           -179.7912         estimate D2E/DX2                !
 ! D13   D(2,3,4,5)             -0.8267         estimate D2E/DX2                !
 ! D14   D(2,3,4,13)          -179.8575         estimate D2E/DX2                !
 ! D15   D(3,4,5,6)              0.8151         estimate D2E/DX2                !
 ! D16   D(13,4,5,6)           179.8464         estimate D2E/DX2                !
 ! D17   D(4,5,6,7)            179.8542         estimate D2E/DX2                !
 ! D18   D(4,5,6,8)             -0.1828         estimate D2E/DX2                !
 ! D19   D(5,6,7,14)            -0.2211         estimate D2E/DX2                !
 ! D20   D(5,6,7,15)          -179.8377         estimate D2E/DX2                !
 ! D21   D(8,6,7,14)           179.8161         estimate D2E/DX2                !
 ! D22   D(8,6,7,15)             0.1995         estimate D2E/DX2                !
 ! D23   D(5,6,8,2)             -0.3283         estimate D2E/DX2                !
 ! D24   D(5,6,8,9)            179.7763         estimate D2E/DX2                !
 ! D25   D(7,6,8,2)            179.6362         estimate D2E/DX2                !
 ! D26   D(7,6,8,9)             -0.2592         estimate D2E/DX2                !
 --------------------------------------------------------------------------------
 Trust Radius=3.00D-01 FncErr=1.00D-07 GrdErr=1.00D-06 EigMax=2.50D+02 EigMin=1.00D-04
 Number of steps in this run=     74 maximum allowed number of steps=    100.
 GradGradGradGradGradGradGradGradGradGradGradGradGradGradGradGradGradGrad

                          Input orientation:                          
 ---------------------------------------------------------------------
 Center     Atomic      Atomic             Coordinates (Angstroms)
 Number     Number       Type             X           Y           Z
 ---------------------------------------------------------------------
      1          6           0        0.939680    0.116740    0.000090
      2          6           0        2.433060    0.145800   -0.000340
      3          7           0        3.109390    1.249230    0.001420
      4          7           0        4.449420    1.188250   -0.003080
      5          7           0        5.206280    0.079130    0.006050
      6          6           0        4.644190   -1.089440    0.004930
      7          7           0        5.356040   -2.256820    0.010950
      8          6           0        3.145790   -1.156740   -0.002500
      9          8           0        2.559010   -2.227070   -0.007960
     10          1           0        0.536860    1.132420    0.001370
     11          1           0        0.586670   -0.410110    0.890980
     12          1           0        0.586360   -0.407730   -0.892130
     13          1           0        4.948660    2.082300    0.000780
     14          1           0        6.365420   -2.234550    0.013200
     15          1           0        4.867120   -3.145310    0.007260
 ---------------------------------------------------------------------
                    Distance matrix (angstroms):
                    1          2          3          4          5
     1  C    0.000000
     2  C    1.493663   0.000000
     3  N    2.447484   1.294211   0.000000
     4  N    3.669662   2.269894   1.341424   0.000000
     5  N    4.266770   2.774029   2.401271   1.342784   0.000000
     6  C    3.895932   2.532773   2.797320   2.286016   1.296728
     7  N    5.013795   3.783718   4.164122   3.562396   2.340751
     8  C    2.547289   1.484789   2.406249   2.682989   2.402721
     9  O    2.848814   2.376223   3.519612   3.903599   3.510953
    10  H    1.092644   2.137521   2.575181   3.912961   4.786745
    11  H    1.093559   2.124298   3.147831   4.274919   4.728980
    12  H    1.093600   2.124144   3.147956   4.273265   4.731535
    13  H    4.464902   3.174630   2.019138   1.024002   2.019675
    14  H    5.913323   4.596706   4.768500   3.922611   2.587812
    15  H    5.105468   4.093423   4.733036   4.353656   3.242228
                    6          7          8          9         10
     6  C    0.000000
     7  N    1.367312   0.000000
     8  C    1.499929   2.468919   0.000000
     9  O    2.375362   2.797252   1.220634   0.000000
    10  H    4.669779   5.891650   3.470848   3.921142   0.000000
    11  H    4.208330   5.189574   2.811558   2.828350   1.781372
    12  H    4.211345   5.194664   2.811252   2.825438   1.781251
    13  H    3.186323   4.358213   3.706984   4.927593   4.512898
    14  H    2.067360   1.009628   3.395282   3.806476   6.731177
    15  H    2.067923   1.014136   2.630111   2.484103   6.086884
                   11         12         13         14         15
    11  H    0.000000
    12  H    1.783112   0.000000
    13  H    5.102109   5.101686   0.000000
    14  H    6.123155   6.128167   4.543408   0.000000
    15  H    5.156019   5.160247   5.228250   1.753403   0.000000
 Stoichiometry    C4H6N4O
 Framework group  C1[X(C4H6N4O)]
 Deg. of freedom    39
 Full point group                 C1      NOp   1
 Largest Abelian subgroup         C1      NOp   1
 Largest concise Abelian subgroup C1      NOp   1
                         Standard orientation:                         
 ---------------------------------------------------------------------
 Center     Atomic      Atomic             Coordinates (Angstroms)
 Number     Number       Type             X           Y           Z
 ---------------------------------------------------------------------
      1          6           0       -2.564172   -0.643829    0.004728
      2          6           0       -1.245180    0.057080    0.000986
      3          7           0       -1.140611    1.347060    0.001427
      4          7           0        0.082278    1.898335   -0.006060
      5          7           0        1.258741    1.251071    0.001205
      6          6           0        1.285520   -0.045380    0.001140
      7          7           0        2.448159   -0.764960    0.005386
      8          6           0       -0.020682   -0.782675   -0.002973
      9          8           0       -0.060339   -2.002657   -0.007307
     10          1           0       -3.382568    0.080114    0.007071
     11          1           0       -2.639104   -1.272585    0.896313
     12          1           0       -2.644122   -1.272129   -0.886792
     13          1           0        0.123520    2.921503   -0.003161
     14          1           0        3.338487   -0.288866    0.005397
     15          1           0        2.413610   -1.778503    0.002634
 ---------------------------------------------------------------------
 Rotational constants (GHZ):           2.5367811           1.7663522           1.0482300
 Standard basis: 6-31G(2df,p) (6D, 7F)
 There are   309 symmetry adapted cartesian basis functions of A   symmetry.
 There are   282 symmetry adapted basis functions of A   symmetry.
   282 basis functions,   438 primitive gaussians,   309 cartesian basis functions
    33 alpha electrons       33 beta electrons
       nuclear repulsion energy       443.0497856582 Hartrees.
 NAtoms=   15 NActive=   15 NUniq=   15 SFac= 1.00D+00 NAtFMM=   60 NAOKFM=F Big=F
 Integral buffers will be    131072 words long.
 Raffenetti 2 integral format.
 Two-electron integral symmetry is turned on.
 One-electron integrals computed using PRISM.
 PrsmSu:  requested number of processors reduced to:  13 ShMem   1 Linda.
 NBasis=   282 RedAO= T EigKep=  1.29D-04  NBF=   282
 NBsUse=   282 1.00D-06 EigRej= -1.00D+00 NBFU=   282
 ExpMin= 1.61D-01 ExpMax= 5.48D+03 ExpMxC= 8.25D+02 IAcc=3 IRadAn=         5 AccDes= 0.00D+00
 Harris functional with IExCor=  402 and IRadAn=       5 diagonalized for initial guess.
 HarFok:  IExCor=  402 AccDes= 0.00D+00 IRadAn=         5 IDoV= 1 UseB2=F ITyADJ=14
 ICtDFT=  3500011 ScaDFX=  1.000000  1.000000  1.000000  1.000000
 FoFCou: FMM=F IPFlag=           0 FMFlag=      100000 FMFlg1=           0
         NFxFlg=           0 DoJE=T BraDBF=F KetDBF=T FulRan=T
         wScrn=  0.000000 ICntrl=       500 IOpCl=  0 I1Cent=   200000004 NGrid=           0
         NMat0=    1 NMatS0=      1 NMatT0=    0 NMatD0=    1 NMtDS0=    0 NMtDT0=    0
 Petite list used in FoFCou.
 Requested convergence on RMS density matrix=1.00D-08 within 128 cycles.
 Requested convergence on MAX density matrix=1.00D-06.
 Requested convergence on             energy=1.00D-06.
 No special actions if energy rises.
 Integral accuracy reduced to 1.0D-05 until final iterations.
 Initial convergence to 1.0D-05 achieved.  Increase integral accuracy.
 SCF Done:  E(RB3LYP) =  -450.253632056     A.U. after   15 cycles
            NFock= 15  Conv=0.98D-08     -V/T= 2.0073

 **********************************************************************

            Population analysis using the SCF density.

 **********************************************************************

 Orbital symmetries:
       Occupied  (A) (A) (A) (A) (A) (A) (A) (A) (A) (A) (A) (A)
                 (A) (A) (A) (A) (A) (A) (A) (A) (A) (A) (A) (A)
                 (A) (A) (A) (A) (A) (A) (A) (A) (A)
       Virtual   (A) (A) (A) (A) (A) (A) (A) (A) (A) (A) (A) (A)
                 (A) (A) (A) (A) (A) (A) (A) (A) (A) (A) (A) (A)
                 (A) (A) (A) (A) (A) (A) (A) (A) (A) (A) (A) (A)
                 (A) (A) (A) (A) (A) (A) (A) (A) (A) (A) (A) (A)
                 (A) (A) (A) (A) (A) (A) (A) (A) (A) (A) (A) (A)
                 (A) (A) (A) (A) (A) (A) (A) (A) (A) (A) (A) (A)
                 (A) (A) (A) (A) (A) (A) (A) (A) (A) (A) (A) (A)
                 (A) (A) (A) (A) (A) (A) (A) (A) (A) (A) (A) (A)
                 (A) (A) (A) (A) (A) (A) (A) (A) (A) (A) (A) (A)
                 (A) (A) (A) (A) (A) (A) (A) (A) (A) (A) (A) (A)
                 (A) (A) (A) (A) (A) (A) (A) (A) (A) (A) (A) (A)
                 (A) (A) (A) (A) (A) (A) (A) (A) (A) (A) (A) (A)
                 (A) (A) (A) (A) (A) (A) (A) (A) (A) (A) (A) (A)
                 (A) (A) (A) (A) (A) (A) (A) (A) (A) (A) (A) (A)
                 (A) (A) (A) (A) (A) (A) (A) (A) (A) (A) (A) (A)
                 (A) (A) (A) (A) (A) (A) (A) (A) (A) (A) (A) (A)
                 (A) (A) (A) (A) (A) (A) (A) (A) (A) (A) (A) (A)
                 (A) (A) (A) (A) (A) (A) (A) (A) (A) (A) (A) (A)
                 (A) (A) (A) (A) (A) (A) (A) (A) (A) (A) (A) (A)
                 (A) (A) (A) (A) (A) (A) (A) (A) (A) (A) (A) (A)
                 (A) (A) (A) (A) (A) (A) (A) (A) (A)
 The electronic state is 1-A.
 Alpha  occ. eigenvalues --  -19.10866 -14.43968 -14.37622 -14.36419 -14.35301
 Alpha  occ. eigenvalues --  -10.26610 -10.25674 -10.22566 -10.18153  -1.07576
 Alpha  occ. eigenvalues --   -1.02187  -0.94850  -0.89784  -0.82066  -0.73043
 Alpha  occ. eigenvalues --   -0.65710  -0.64285  -0.57597  -0.56950  -0.50407
 Alpha  occ. eigenvalues --   -0.48700  -0.47380  -0.42833  -0.41792  -0.40741
 Alpha  occ. eigenvalues --   -0.38770  -0.38562  -0.35001  -0.32838  -0.30721
 Alpha  occ. eigenvalues --   -0.28500  -0.22525  -0.20746
 Alpha virt. eigenvalues --   -0.03968  -0.00486   0.06951   0.08569   0.12495
 Alpha virt. eigenvalues --    0.13343   0.13584   0.15998   0.19418   0.19872
 Alpha virt. eigenvalues --    0.21943   0.23946   0.27344   0.28155   0.31733
 Alpha virt. eigenvalues --    0.32355   0.36317   0.41706   0.46766   0.48673
 Alpha virt. eigenvalues --    0.49346   0.49452   0.50436   0.51711   0.51853
 Alpha virt. eigenvalues --    0.54484   0.55092   0.58317   0.59216   0.59587
 Alpha virt. eigenvalues --    0.61584   0.63422   0.64956   0.65959   0.66661
 Alpha virt. eigenvalues --    0.69171   0.69941   0.71634   0.72657   0.73814
 Alpha virt. eigenvalues --    0.74751   0.75924   0.77746   0.78048   0.78181
 Alpha virt. eigenvalues --    0.83563   0.83699   0.85322   0.85557   0.87795
 Alpha virt. eigenvalues --    0.87882   0.92553   0.93325   0.93680   0.97462
 Alpha virt. eigenvalues --    0.97830   1.01038   1.02015   1.03430   1.07247
 Alpha virt. eigenvalues --    1.09505   1.10815   1.13417   1.16690   1.23254
 Alpha virt. eigenvalues --    1.24930   1.28634   1.29445   1.32012   1.34250
 Alpha virt. eigenvalues --    1.36890   1.37049   1.39493   1.43500   1.45413
 Alpha virt. eigenvalues --    1.45776   1.47700   1.50094   1.50846   1.52283
 Alpha virt. eigenvalues --    1.54002   1.55552   1.59784   1.60744   1.63645
 Alpha virt. eigenvalues --    1.64989   1.69498   1.72315   1.75046   1.77545
 Alpha virt. eigenvalues --    1.79947   1.82618   1.86569   1.87982   1.92290
 Alpha virt. eigenvalues --    1.94802   1.98389   1.99182   2.04712   2.09276
 Alpha virt. eigenvalues --    2.09326   2.10968   2.14879   2.17248   2.28735
 Alpha virt. eigenvalues --    2.29221   2.34022   2.40916   2.41353   2.48082
 Alpha virt. eigenvalues --    2.49286   2.50151   2.61815   2.68545   2.72340
 Alpha virt. eigenvalues --    2.79634   2.81645   2.84658   2.85216   2.86218
 Alpha virt. eigenvalues --    2.87835   2.90397   2.90830   2.94456   2.95627
 Alpha virt. eigenvalues --    3.00214   3.03060   3.07492   3.09260   3.10808
 Alpha virt. eigenvalues --    3.12815   3.16145   3.18768   3.21891   3.23807
 Alpha virt. eigenvalues --    3.26559   3.28567   3.32820   3.36279   3.36543
 Alpha virt. eigenvalues --    3.40379   3.44076   3.44862   3.53613   3.54707
 Alpha virt. eigenvalues --    3.57860   3.62490   3.65467   3.69364   3.72705
 Alpha virt. eigenvalues --    3.73516   3.75841   3.80309   3.80846   3.82826
 Alpha virt. eigenvalues --    3.83872   3.87196   3.90938   3.93369   3.94071
 Alpha virt. eigenvalues --    3.95996   4.03860   4.04546   4.05886   4.06710
 Alpha virt. eigenvalues --    4.08609   4.11059   4.11897   4.13511   4.16061
 Alpha virt. eigenvalues --    4.16686   4.20246   4.20426   4.22863   4.23625
 Alpha virt. eigenvalues --    4.25900   4.33962   4.34102   4.37008   4.37348
 Alpha virt. eigenvalues --    4.37485   4.39972   4.42174   4.43416   4.45834
 Alpha virt. eigenvalues --    4.47905   4.48435   4.50971   4.52385   4.56557
 Alpha virt. eigenvalues --    4.57461   4.60407   4.61231   4.61928   4.64049
 Alpha virt. eigenvalues --    4.64194   4.66053   4.67565   4.70940   4.72728
 Alpha virt. eigenvalues --    4.76152   4.81651   4.82183   4.84074   4.88296
 Alpha virt. eigenvalues --    4.92535   4.96347   4.96426   5.00700   5.04491
 Alpha virt. eigenvalues --    5.05759   5.10074   5.10405   5.18978   5.20576
 Alpha virt. eigenvalues --    5.25102   5.30392   5.30810   5.38170   5.42952
 Alpha virt. eigenvalues --    5.46104   5.53729   5.59739   5.59829   5.66111
 Alpha virt. eigenvalues --    5.71454   5.80207   5.82838   6.01710   6.04977
 Alpha virt. eigenvalues --    6.06155   6.19593   6.28455   6.79870   6.88797
 Alpha virt. eigenvalues --    7.00636   7.68714  10.18789  10.86069  11.27219
 Alpha virt. eigenvalues --   11.29815  11.30997  11.41869  11.59337  12.04339
 Alpha virt. eigenvalues --   13.00367  13.54421  15.76251  24.89720
          Condensed to atoms (all electrons):
               1          2          3          4          5          6
     1  C    5.070771   0.335780  -0.022690   0.003024  -0.000302   0.005799
     2  C    0.335780   4.939585   0.510672  -0.111537  -0.006051  -0.081678
     3  N   -0.022690   0.510672   6.450747   0.430286  -0.087682  -0.006720
     4  N    0.003024  -0.111537   0.430286   6.118157   0.411092  -0.101107
     5  N   -0.000302  -0.006051  -0.087682   0.411092   6.543667   0.484759
     6  C    0.005799  -0.081678  -0.006720  -0.101107   0.484759   4.812106
     7  N   -0.000068   0.003196  -0.000107   0.000729  -0.015444   0.348756
     8  C   -0.036481   0.336588   0.004392  -0.003448  -0.011418   0.355717
     9  O    0.003036  -0.098890   0.002924   0.000365   0.003709  -0.086142
    10  H    0.362157  -0.016745  -0.001015   0.000150   0.000006  -0.000004
    11  H    0.370935  -0.022426  -0.000399  -0.000066  -0.000008   0.000167
    12  H    0.371006  -0.022439  -0.000436  -0.000068  -0.000009   0.000181
    13  H   -0.000222   0.001921  -0.037838   0.371574  -0.041024   0.001933
    14  H    0.000003  -0.000017   0.000034   0.000011  -0.000772  -0.020549
    15  H   -0.000026   0.001287  -0.000041  -0.000118   0.003096  -0.046198
               7          8          9         10         11         12
     1  C   -0.000068  -0.036481   0.003036   0.362157   0.370935   0.371006
     2  C    0.003196   0.336588  -0.098890  -0.016745  -0.022426  -0.022439
     3  N   -0.000107   0.004392   0.002924  -0.001015  -0.000399  -0.000436
     4  N    0.000729  -0.003448   0.000365   0.000150  -0.000066  -0.000068
     5  N   -0.015444  -0.011418   0.003709   0.000006  -0.000008  -0.000009
     6  C    0.348756   0.355717  -0.086142  -0.000004   0.000167   0.000181
     7  N    6.577753  -0.037351  -0.001770   0.000000   0.000002   0.000002
     8  C   -0.037351   4.362290   0.793319   0.002653  -0.000265  -0.000321
     9  O   -0.001770   0.793319   7.739098   0.000347   0.003104   0.003150
    10  H    0.000000   0.002653   0.000347   0.576457  -0.027418  -0.027419
    11  H    0.000002  -0.000265   0.003104  -0.027418   0.561869  -0.030948
    12  H    0.000002  -0.000321   0.003150  -0.027419  -0.030948   0.561664
    13  H   -0.000025   0.000644   0.000002  -0.000006   0.000004   0.000004
    14  H    0.343174   0.004055  -0.000110  -0.000000  -0.000000   0.000000
    15  H    0.352756   0.001120   0.020130  -0.000000  -0.000001  -0.000001
              13         14         15
     1  C   -0.000222   0.000003  -0.000026
     2  C    0.001921  -0.000017   0.001287
     3  N   -0.037838   0.000034  -0.000041
     4  N    0.371574   0.000011  -0.000118
     5  N   -0.041024  -0.000772   0.003096
     6  C    0.001933  -0.020549  -0.046198
     7  N   -0.000025   0.343174   0.352756
     8  C    0.000644   0.004055   0.001120
     9  O    0.000002  -0.000110   0.020130
    10  H   -0.000006  -0.000000  -0.000000
    11  H    0.000004  -0.000000  -0.000001
    12  H    0.000004   0.000000  -0.000001
    13  H    0.404634  -0.000009   0.000003
    14  H   -0.000009   0.435087  -0.026513
    15  H    0.000003  -0.026513   0.411283
 Mulliken charges:
               1
     1  C   -0.462722
     2  C    0.230755
     3  N   -0.242126
     4  N   -0.119046
     5  N   -0.283619
     6  C    0.332978
     7  N   -0.571604
     8  C    0.228505
     9  O   -0.382270
    10  H    0.130836
    11  H    0.145449
    12  H    0.145634
    13  H    0.298404
    14  H    0.265605
    15  H    0.283221
 Sum of Mulliken charges =  -0.00000
 Mulliken charges with hydrogens summed into heavy atoms:
               1
     1  C   -0.040803
     2  C    0.230755
     3  N   -0.242126
     4  N    0.179359
     5  N   -0.283619
     6  C    0.332978
     7  N   -0.022778
     8  C    0.228505
     9  O   -0.382270
 Electronic spatial extent (au):  <R**2>=           1076.3900
 Charge=             -0.0000 electrons
 Dipole moment (field-independent basis, Debye):
    X=              1.5649    Y=              1.7279    Z=              0.0073  Tot=              2.3313
 Quadrupole moment (field-independent basis, Debye-Ang):
   XX=            -43.2118   YY=            -50.6478   ZZ=            -51.4829
   XY=             -1.9028   XZ=             -0.0041   YZ=             -0.0352
 Traceless Quadrupole moment (field-independent basis, Debye-Ang):
   XX=              5.2357   YY=             -2.2003   ZZ=             -3.0354
   XY=             -1.9028   XZ=             -0.0041   YZ=             -0.0352
 Octapole moment (field-independent basis, Debye-Ang**2):
  XXX=             32.2620  YYY=             32.4899  ZZZ=             -0.0385  XYY=             10.1896
  XXY=            -19.1352  XXZ=              0.0032  XZZ=             -1.1137  YZZ=             -2.0330
  YYZ=              0.0371  XYZ=              0.0068
 Hexadecapole moment (field-independent basis, Debye-Ang**3):
 XXXX=           -670.9727 YYYY=           -434.8163 ZZZZ=            -52.4928 XXXY=            -25.7771
 XXXZ=              0.1476 YYYX=            -15.9951 YYYZ=             -0.2307 ZZZX=             -0.0166
 ZZZY=              0.0370 XXYY=           -216.3031 XXZZ=           -147.4673 YYZZ=            -92.7445
 XXYZ=              0.0193 YYXZ=              0.0070 ZZXY=              2.6988
 N-N= 4.430497856582D+02 E-N=-1.937181264258D+03  KE= 4.469859958663D+02
 PrsmSu:  requested number of processors reduced to:  13 ShMem   1 Linda.
 Calling FoFJK, ICntrl=      2127 FMM=F ISym2X=0 I1Cent= 0 IOpClX= 0 NMat=1 NMatS=1 NMatT=0.
 ***** Axes restored to original set *****
 -------------------------------------------------------------------
 Center     Atomic                   Forces (Hartrees/Bohr)
 Number     Number              X              Y              Z
 -------------------------------------------------------------------
      1        6           0.002489953    0.008448753    0.000016877
      2        6           0.022237954   -0.030345970    0.000109487
      3        7           0.016915816    0.026750634   -0.000548472
      4        7          -0.017433822   -0.007577853    0.000660878
      5        7           0.026919254    0.013407290   -0.000316015
      6        6          -0.030900853    0.001336836   -0.000141755
      7        7          -0.002537074    0.006358908    0.000032428
      8        6           0.003601632    0.003987258    0.000138578
      9        8          -0.004426286   -0.013431721   -0.000031841
     10        1           0.000603178   -0.000163774    0.000014659
     11        1          -0.002263640   -0.002423105   -0.002048789
     12        1          -0.002222890   -0.002430218    0.002062003
     13        1          -0.007813810   -0.014601810    0.000094347
     14        1          -0.005117996    0.000254822   -0.000030328
     15        1          -0.000051416    0.010429950   -0.000012057
 -------------------------------------------------------------------
 Cartesian Forces:  Max     0.030900853 RMS     0.010988665

 GradGradGradGradGradGradGradGradGradGradGradGradGradGradGradGradGradGrad
 Berny optimization.
 FormGI is forming the generalized inverse of G from B-inverse, IUseBI=4.
 Internal  Forces:  Max     0.020504963 RMS     0.007928141
 Search for a local minimum.
 Step number   1 out of a maximum of   74
 All quantities printed in internal units (Hartrees-Bohrs-Radians)
 Mixed Optimization -- RFO/linear search
 Second derivative matrix not updated -- first step.
 ITU=  0
     Eigenvalues ---    0.00850   0.00867   0.01113   0.01328   0.01767
     Eigenvalues ---    0.02061   0.02124   0.02124   0.02313   0.02396
     Eigenvalues ---    0.07460   0.07587   0.15999   0.16000   0.16000
     Eigenvalues ---    0.16000   0.16000   0.16000   0.23146   0.25000
     Eigenvalues ---    0.25000   0.25000   0.25000   0.25000   0.31816
     Eigenvalues ---    0.33051   0.33462   0.34400   0.34405   0.34509
     Eigenvalues ---    0.43706   0.45287   0.46035   0.51497   0.53705
     Eigenvalues ---    0.55854   0.64608   0.68488   0.95103
 RFO step:  Lambda=-1.17805990D-02 EMin= 8.49776830D-03
 Linear search not attempted -- first point.
 Iteration  1 RMS(Cart)=  0.04216053 RMS(Int)=  0.00055397
 Iteration  2 RMS(Cart)=  0.00076995 RMS(Int)=  0.00011961
 Iteration  3 RMS(Cart)=  0.00000032 RMS(Int)=  0.00011961
 Variable       Old X    -DE/DX   Delta X   Delta X   Delta X     New X
                                 (Linear)    (Quad)   (Total)
    R1        2.82261   0.00133   0.00000   0.00388   0.00388   2.82649
    R2        2.06480  -0.00037   0.00000  -0.00105  -0.00105   2.06375
    R3        2.06653   0.00023   0.00000   0.00064   0.00064   2.06717
    R4        2.06660   0.00020   0.00000   0.00057   0.00057   2.06717
    R5        2.44571   0.01485   0.00000   0.02128   0.02111   2.46682
    R6        2.80585  -0.01598   0.00000  -0.04392  -0.04411   2.76173
    R7        2.53492  -0.01886   0.00000  -0.03329  -0.03326   2.50167
    R8        2.53749  -0.00840   0.00000  -0.01547  -0.01529   2.52220
    R9        1.93508  -0.01656   0.00000  -0.03689  -0.03689   1.89819
   R10        2.45046   0.00829   0.00000   0.01181   0.01198   2.46244
   R11        2.58385  -0.01856   0.00000  -0.03524  -0.03524   2.54860
   R12        2.83446  -0.01690   0.00000  -0.04903  -0.04903   2.78542
   R13        1.90792  -0.00511   0.00000  -0.01083  -0.01083   1.89710
   R14        1.91644  -0.00911   0.00000  -0.01961  -0.01961   1.89683
   R15        2.30666   0.01391   0.00000   0.01444   0.01444   2.32111
    A1        1.92891  -0.00098   0.00000  -0.00152  -0.00157   1.92734
    A2        1.90960   0.00268   0.00000   0.01353   0.01351   1.92311
    A3        1.90934   0.00263   0.00000   0.01323   0.01322   1.92256
    A4        1.90485   0.00004   0.00000   0.00435   0.00430   1.90916
    A5        1.90461   0.00007   0.00000   0.00454   0.00449   1.90910
    A6        1.90637  -0.00451   0.00000  -0.03470  -0.03469   1.87168
    A7        2.14013  -0.01108   0.00000  -0.04320  -0.04301   2.09711
    A8        2.05202   0.00093   0.00000   0.00267   0.00286   2.05488
    A9        2.09104   0.01015   0.00000   0.04052   0.04015   2.13119
   A10        2.07519  -0.00768   0.00000  -0.03200  -0.03227   2.04292
   A11        2.21504   0.00991   0.00000   0.03845   0.03861   2.25365
   A12        2.03457  -0.00467   0.00000  -0.01753  -0.01761   2.01696
   A13        2.03346  -0.00524   0.00000  -0.02087  -0.02096   2.01251
   A14        2.09442  -0.01787   0.00000  -0.07216  -0.07165   2.02278
   A15        2.14566  -0.00871   0.00000  -0.03369  -0.03378   2.11189
   A16        2.06402   0.02050   0.00000   0.07920   0.07936   2.14338
   A17        2.07351  -0.01180   0.00000  -0.04551  -0.04559   2.02792
   A18        2.09632   0.00277   0.00000   0.01614   0.01614   2.11246
   A19        2.09092  -0.00625   0.00000  -0.03637  -0.03637   2.05455
   A20        2.09592   0.00347   0.00000   0.02023   0.02023   2.11615
   A21        2.02658  -0.01502   0.00000  -0.05392  -0.05415   1.97243
   A22        2.13944   0.01048   0.00000   0.03831   0.03842   2.17786
   A23        2.11717   0.00454   0.00000   0.01561   0.01573   2.13290
    D1        0.00066  -0.00001   0.00000  -0.00005  -0.00004   0.00061
    D2       -3.14124   0.00000   0.00000  -0.00008  -0.00009  -3.14133
    D3       -2.09729  -0.00115   0.00000  -0.01311  -0.01313  -2.11042
    D4        1.04400  -0.00114   0.00000  -0.01314  -0.01317   1.03083
    D5        2.09814   0.00114   0.00000   0.01305   0.01308   2.11121
    D6       -1.04376   0.00115   0.00000   0.01302   0.01304  -1.03073
    D7       -3.13822  -0.00015   0.00000  -0.00265  -0.00254  -3.14076
    D8        0.00369  -0.00017   0.00000  -0.00261  -0.00249   0.00120
    D9       -3.13580  -0.00007   0.00000  -0.00234  -0.00227  -3.13807
   D10        0.00394  -0.00001   0.00000  -0.00062  -0.00060   0.00335
   D11        0.00550  -0.00006   0.00000  -0.00238  -0.00233   0.00316
   D12       -3.13795  -0.00001   0.00000  -0.00066  -0.00066  -3.13860
   D13       -0.01443   0.00018   0.00000   0.00698   0.00709  -0.00734
   D14       -3.13911   0.00010   0.00000   0.00378   0.00379  -3.13532
   D15        0.01423  -0.00018   0.00000  -0.00643  -0.00650   0.00773
   D16        3.13891  -0.00010   0.00000  -0.00320  -0.00318   3.13573
   D17        3.13905   0.00014   0.00000   0.00228   0.00221   3.14126
   D18       -0.00319   0.00011   0.00000   0.00127   0.00116  -0.00203
   D19       -0.00386  -0.00003   0.00000  -0.00123  -0.00122  -0.00507
   D20       -3.13876   0.00001   0.00000   0.00005   0.00006  -3.13870
   D21        3.13838  -0.00002   0.00000  -0.00026  -0.00027   3.13811
   D22        0.00348   0.00003   0.00000   0.00101   0.00100   0.00448
   D23       -0.00573   0.00010   0.00000   0.00306   0.00302  -0.00271
   D24        3.13769   0.00003   0.00000   0.00133   0.00136   3.13905
   D25        3.13524   0.00007   0.00000   0.00209   0.00201   3.13726
   D26       -0.00452   0.00001   0.00000   0.00037   0.00036  -0.00417
         Item               Value     Threshold  Converged?
 Maximum Force            0.020505     0.000450     NO 
 RMS     Force            0.007928     0.000300     NO 
 Maximum Displacement     0.140241     0.001800     NO 
 RMS     Displacement     0.042334     0.001200     NO 
 Predicted change in Energy=-6.127924D-03
 GradGradGradGradGradGradGradGradGradGradGradGradGradGradGradGradGradGrad

                          Input orientation:                          
 ---------------------------------------------------------------------
 Center     Atomic      Atomic             Coordinates (Angstroms)
 Number     Number       Type             X           Y           Z
 ---------------------------------------------------------------------
      1          6           0        0.973178    0.109178   -0.000570
      2          6           0        2.468889    0.111518   -0.000624
      3          7           0        3.122887    1.241259   -0.000404
      4          7           0        4.444879    1.171622   -0.001446
      5          7           0        5.231454    0.093352    0.004883
      6          6           0        4.619841   -1.057261    0.004234
      7          7           0        5.314535   -2.213228    0.009876
      8          6           0        3.151065   -1.180946   -0.000474
      9          8           0        2.585962   -2.271502   -0.003682
     10          1           0        0.590393    1.131984   -0.000961
     11          1           0        0.596567   -0.419137    0.880149
     12          1           0        0.597069   -0.419564   -0.881245
     13          1           0        4.925389    2.053697    0.004435
     14          1           0        6.318435   -2.213772    0.010339
     15          1           0        4.793406   -3.071098    0.006510
 ---------------------------------------------------------------------
                    Distance matrix (angstroms):
                    1          2          3          4          5
     1  C    0.000000
     2  C    1.495714   0.000000
     3  N    2.429580   1.305384   0.000000
     4  N    3.630634   2.242400   1.323825   0.000000
     5  N    4.258310   2.762630   2.400786   1.334693   0.000000
     6  C    3.828676   2.447991   2.743007   2.235747   1.303067
     7  N    4.923522   3.674541   4.091076   3.494801   2.308082
     8  C    2.531326   1.461447   2.422369   2.684871   2.439649
     9  O    2.875538   2.385896   3.553560   3.912886   3.548413
    10  H    1.092089   2.137780   2.534851   3.854691   4.755864
    11  H    1.093900   2.136106   3.148743   4.256434   4.744567
    12  H    1.093899   2.135710   3.148646   4.255769   4.746139
    13  H    4.404675   3.131530   1.977143   1.004481   1.984093
    14  H    5.828206   4.497343   4.706259   3.869269   2.550369
    15  H    4.970749   3.941125   4.624618   4.257018   3.194626
                    6          7          8          9         10
     6  C    0.000000
     7  N    1.348663   0.000000
     8  C    1.473982   2.397148   0.000000
     9  O    2.368777   2.729229   1.228277   0.000000
    10  H    4.585769   5.788617   3.450607   3.945380   0.000000
    11  H    4.166673   5.122047   2.807368   2.858340   1.783919
    12  H    4.168145   5.125019   2.806842   2.855782   1.783885
    13  H    3.125927   4.284637   3.689332   4.917350   4.431905
    14  H    2.054939   1.003900   3.331528   3.732945   6.633602
    15  H    2.021303   1.003757   2.503998   2.347821   5.944011
                   11         12         13         14         15
    11  H    0.000000
    12  H    1.761395   0.000000
    13  H    5.061668   5.063182   0.000000
    14  H    6.059460   6.062024   4.489087   0.000000
    15  H    5.040794   5.042617   5.126494   1.749496   0.000000
 Stoichiometry    C4H6N4O
 Framework group  C1[X(C4H6N4O)]
 Deg. of freedom    39
 Full point group                 C1      NOp   1
 Largest Abelian subgroup         C1      NOp   1
 Largest concise Abelian subgroup C1      NOp   1
                         Standard orientation:                         
 ---------------------------------------------------------------------
 Center     Atomic      Atomic             Coordinates (Angstroms)
 Number     Number       Type             X           Y           Z
 ---------------------------------------------------------------------
      1          6           0       -2.544975   -0.606380    0.003221
      2          6           0       -1.204443    0.057039    0.000312
      3          7           0       -1.117353    1.359515   -0.000003
      4          7           0        0.099185    1.881566   -0.003613
      5          7           0        1.281459    1.262200    0.000533
      6          6           0        1.241613   -0.040258    0.000324
      7          7           0        2.375829   -0.769938    0.003909
      8          6           0       -0.021116   -0.800608   -0.001658
      9          8           0       -0.045804   -2.028633   -0.004476
     10          1           0       -3.340540    0.141774    0.004206
     11          1           0       -2.647428   -1.246520    0.884323
     12          1           0       -2.650298   -1.247170   -0.877070
     13          1           0        0.140182    2.885194    0.001908
     14          1           0        3.276510   -0.326558    0.002455
     15          1           0        2.287701   -1.769815    0.000996
 ---------------------------------------------------------------------
 Rotational constants (GHZ):           2.5221218           1.8287437           1.0670942
 Standard basis: 6-31G(2df,p) (6D, 7F)
 There are   309 symmetry adapted cartesian basis functions of A   symmetry.
 There are   282 symmetry adapted basis functions of A   symmetry.
   282 basis functions,   438 primitive gaussians,   309 cartesian basis functions
    33 alpha electrons       33 beta electrons
       nuclear repulsion energy       446.2273089851 Hartrees.
 NAtoms=   15 NActive=   15 NUniq=   15 SFac= 1.00D+00 NAtFMM=   60 NAOKFM=F Big=F
 Integral buffers will be    131072 words long.
 Raffenetti 2 integral format.
 Two-electron integral symmetry is turned on.
 One-electron integrals computed using PRISM.
 PrsmSu:  requested number of processors reduced to:  13 ShMem   1 Linda.
 NBasis=   282 RedAO= T EigKep=  1.33D-04  NBF=   282
 NBsUse=   282 1.00D-06 EigRej= -1.00D+00 NBFU=   282
 Initial guess from the checkpoint file:  "Cc1n[nH]ncpNpc1dO.chk"
 B after Tr=    -0.000000   -0.000000    0.000000
         Rot=    0.999992    0.000040    0.000032    0.003996 Ang=   0.46 deg.
 ExpMin= 1.61D-01 ExpMax= 5.48D+03 ExpMxC= 8.25D+02 IAcc=2 IRadAn=         4 AccDes= 0.00D+00
 Harris functional with IExCor=  402 and IRadAn=       4 diagonalized for initial guess.
 HarFok:  IExCor=  402 AccDes= 0.00D+00 IRadAn=         4 IDoV= 1 UseB2=F ITyADJ=14
 ICtDFT=  3500011 ScaDFX=  1.000000  1.000000  1.000000  1.000000
 FoFCou: FMM=F IPFlag=           0 FMFlag=      100000 FMFlg1=           0
         NFxFlg=           0 DoJE=T BraDBF=F KetDBF=T FulRan=T
         wScrn=  0.000000 ICntrl=       500 IOpCl=  0 I1Cent=   200000004 NGrid=           0
         NMat0=    1 NMatS0=      1 NMatT0=    0 NMatD0=    1 NMtDS0=    0 NMtDT0=    0
 Petite list used in FoFCou.
 Requested convergence on RMS density matrix=1.00D-08 within 128 cycles.
 Requested convergence on MAX density matrix=1.00D-06.
 Requested convergence on             energy=1.00D-06.
 No special actions if energy rises.
 Integral accuracy reduced to 1.0D-05 until final iterations.
 Initial convergence to 1.0D-05 achieved.  Increase integral accuracy.
 SCF Done:  E(RB3LYP) =  -450.260205498     A.U. after   13 cycles
            NFock= 13  Conv=0.89D-08     -V/T= 2.0068
 PrsmSu:  requested number of processors reduced to:  13 ShMem   1 Linda.
 Calling FoFJK, ICntrl=      2127 FMM=F ISym2X=0 I1Cent= 0 IOpClX= 0 NMat=1 NMatS=1 NMatT=0.
 ***** Axes restored to original set *****
 -------------------------------------------------------------------
 Center     Atomic                   Forces (Hartrees/Bohr)
 Number     Number              X              Y              Z
 -------------------------------------------------------------------
      1        6           0.000223991    0.005218627   -0.000065447
      2        6          -0.001289133   -0.019391529    0.000080201
      3        7           0.011537508    0.007775753   -0.000131516
      4        7          -0.008308358    0.003621260    0.000300921
      5        7           0.006579443    0.006940674   -0.000158822
      6        6          -0.008389485   -0.009148255    0.000086883
      7        7           0.004087834   -0.000140333    0.000030628
      8        6          -0.001334904    0.011454083   -0.000132972
      9        8           0.000190130   -0.004715420    0.000085733
     10        1          -0.000057513   -0.000307553    0.000006312
     11        1          -0.000837232   -0.001008543   -0.000314441
     12        1          -0.000870896   -0.001011668    0.000320516
     13        1           0.001060109    0.001677446   -0.000057500
     14        1          -0.000281650   -0.000298385   -0.000011296
     15        1          -0.002309843   -0.000666157   -0.000039199
 -------------------------------------------------------------------
 Cartesian Forces:  Max     0.019391529 RMS     0.004971203

 GradGradGradGradGradGradGradGradGradGradGradGradGradGradGradGradGradGrad
 Berny optimization.
 Using GEDIIS/GDIIS optimizer.
 FormGI is forming the generalized inverse of G from B-inverse, IUseBI=4.
 Internal  Forces:  Max     0.011629864 RMS     0.002673420
 Search for a local minimum.
 Step number   2 out of a maximum of   74
 All quantities printed in internal units (Hartrees-Bohrs-Radians)
 Mixed Optimization -- RFO/linear search
 Update second derivatives using D2CorX and points    1    2
 DE= -6.57D-03 DEPred=-6.13D-03 R= 1.07D+00
 TightC=F SS=  1.41D+00  RLast= 2.00D-01 DXNew= 5.0454D-01 6.0084D-01
 Trust test= 1.07D+00 RLast= 2.00D-01 DXMaxT set to 5.05D-01
 ITU=  1  0
 Use linear search instead of GDIIS.
     Eigenvalues ---    0.00850   0.00868   0.01135   0.01332   0.01755
     Eigenvalues ---    0.02061   0.02124   0.02124   0.02290   0.02383
     Eigenvalues ---    0.07358   0.07454   0.15412   0.15999   0.16000
     Eigenvalues ---    0.16000   0.16000   0.16009   0.22183   0.23510
     Eigenvalues ---    0.25000   0.25000   0.25000   0.27532   0.30994
     Eigenvalues ---    0.33076   0.33359   0.34402   0.34412   0.34509
     Eigenvalues ---    0.44262   0.45779   0.46041   0.51632   0.52796
     Eigenvalues ---    0.56442   0.64420   0.68500   0.94525
 RFO step:  Lambda=-1.05156778D-03 EMin= 8.49776856D-03
 Quartic linear search produced a step of  0.10696.
 Iteration  1 RMS(Cart)=  0.01378917 RMS(Int)=  0.00010843
 Iteration  2 RMS(Cart)=  0.00014746 RMS(Int)=  0.00001825
 Iteration  3 RMS(Cart)=  0.00000001 RMS(Int)=  0.00001825
 Variable       Old X    -DE/DX   Delta X   Delta X   Delta X     New X
                                 (Linear)    (Quad)   (Total)
    R1        2.82649   0.00154   0.00041   0.00503   0.00545   2.83194
    R2        2.06375  -0.00027  -0.00011  -0.00083  -0.00094   2.06280
    R3        2.06717   0.00052   0.00007   0.00166   0.00173   2.06890
    R4        2.06717   0.00053   0.00006   0.00169   0.00175   2.06892
    R5        2.46682   0.01163   0.00226   0.01799   0.02024   2.48706
    R6        2.76173  -0.00661  -0.00472  -0.02071  -0.02545   2.73628
    R7        2.50167  -0.00633  -0.00356  -0.01159  -0.01514   2.48653
    R8        2.52220   0.00282  -0.00164   0.00605   0.00444   2.52664
    R9        1.89819   0.00198  -0.00395   0.00586   0.00191   1.90011
   R10        2.46244   0.01113   0.00128   0.01804   0.01934   2.48178
   R11        2.54860   0.00172  -0.00377   0.00447   0.00070   2.54930
   R12        2.78542  -0.00140  -0.00524  -0.00341  -0.00866   2.77676
   R13        1.89710  -0.00028  -0.00116  -0.00043  -0.00158   1.89551
   R14        1.89683   0.00177  -0.00210   0.00476   0.00266   1.89949
   R15        2.32111   0.00410   0.00154   0.00448   0.00602   2.32713
    A1        1.92734   0.00021  -0.00017   0.00364   0.00344   1.93079
    A2        1.92311   0.00067   0.00145   0.00308   0.00451   1.92762
    A3        1.92256   0.00074   0.00141   0.00359   0.00499   1.92755
    A4        1.90916  -0.00011   0.00046   0.00106   0.00150   1.91065
    A5        1.90910  -0.00012   0.00048   0.00114   0.00159   1.91069
    A6        1.87168  -0.00144  -0.00371  -0.01298  -0.01668   1.85500
    A7        2.09711  -0.00399  -0.00460  -0.01589  -0.02047   2.07665
    A8        2.05488   0.00412   0.00031   0.01856   0.01888   2.07376
    A9        2.13119  -0.00013   0.00429  -0.00267   0.00158   2.13278
   A10        2.04292   0.00245  -0.00345   0.01084   0.00738   2.05031
   A11        2.25365  -0.00203   0.00413  -0.01071  -0.00656   2.24709
   A12        2.01696   0.00114  -0.00188   0.00617   0.00426   2.02122
   A13        2.01251   0.00089  -0.00224   0.00462   0.00235   2.01486
   A14        2.02278  -0.00100  -0.00766  -0.00050  -0.00811   2.01467
   A15        2.11189   0.00066  -0.00361   0.00338  -0.00023   2.11166
   A16        2.14338   0.00052   0.00849   0.00097   0.00946   2.15284
   A17        2.02792  -0.00117  -0.00488  -0.00436  -0.00923   2.01869
   A18        2.11246   0.00141   0.00173   0.00911   0.01083   2.12330
   A19        2.05455  -0.00225  -0.00389  -0.01420  -0.01809   2.03645
   A20        2.11615   0.00084   0.00216   0.00508   0.00725   2.12339
   A21        1.97243   0.00019  -0.00579   0.00209  -0.00374   1.96869
   A22        2.17786   0.00262   0.00411   0.01060   0.01473   2.19259
   A23        2.13290  -0.00281   0.00168  -0.01269  -0.01099   2.12191
    D1        0.00061  -0.00001  -0.00000  -0.00048  -0.00048   0.00013
    D2       -3.14133  -0.00000  -0.00001   0.00021   0.00019  -3.14114
    D3       -2.11042  -0.00046  -0.00140  -0.00620  -0.00761  -2.11803
    D4        1.03083  -0.00045  -0.00141  -0.00551  -0.00694   1.02389
    D5        2.11121   0.00046   0.00140   0.00566   0.00708   2.11829
    D6       -1.03073   0.00047   0.00139   0.00635   0.00775  -1.02298
    D7       -3.14076  -0.00001  -0.00027  -0.00004  -0.00033  -3.14109
    D8        0.00120  -0.00002  -0.00027  -0.00077  -0.00103   0.00016
    D9       -3.13807  -0.00002  -0.00024  -0.00194  -0.00218  -3.14025
   D10        0.00335  -0.00005  -0.00006  -0.00520  -0.00529  -0.00194
   D11        0.00316  -0.00001  -0.00025  -0.00123  -0.00148   0.00168
   D12       -3.13860  -0.00004  -0.00007  -0.00450  -0.00459   3.13999
   D13       -0.00734   0.00010   0.00076   0.00407   0.00485  -0.00249
   D14       -3.13532  -0.00006   0.00041  -0.00362  -0.00321  -3.13852
   D15        0.00773  -0.00011  -0.00070  -0.00462  -0.00531   0.00242
   D16        3.13573   0.00005  -0.00034   0.00307   0.00274   3.13847
   D17        3.14126   0.00002   0.00024  -0.00013   0.00008   3.14134
   D18       -0.00203   0.00004   0.00012   0.00184   0.00196  -0.00007
   D19       -0.00507   0.00000  -0.00013   0.00038   0.00025  -0.00482
   D20       -3.13870   0.00004   0.00001   0.00195   0.00195  -3.13675
   D21        3.13811  -0.00003  -0.00003  -0.00148  -0.00151   3.13661
   D22        0.00448   0.00001   0.00011   0.00009   0.00020   0.00468
   D23       -0.00271   0.00001   0.00032   0.00066   0.00098  -0.00173
   D24        3.13905   0.00003   0.00015   0.00382   0.00394  -3.14019
   D25        3.13726   0.00003   0.00022   0.00256   0.00277   3.14003
   D26       -0.00417   0.00006   0.00004   0.00572   0.00573   0.00157
         Item               Value     Threshold  Converged?
 Maximum Force            0.011630     0.000450     NO 
 RMS     Force            0.002673     0.000300     NO 
 Maximum Displacement     0.042521     0.001800     NO 
 RMS     Displacement     0.013817     0.001200     NO 
 Predicted change in Energy=-5.996887D-04
 GradGradGradGradGradGradGradGradGradGradGradGradGradGradGradGradGradGrad

                          Input orientation:                          
 ---------------------------------------------------------------------
 Center     Atomic      Atomic             Coordinates (Angstroms)
 Number     Number       Type             X           Y           Z
 ---------------------------------------------------------------------
      1          6           0        0.976265    0.111647   -0.001857
      2          6           0        2.474717    0.090896    0.000104
      3          7           0        3.128313    1.233225    0.000135
      4          7           0        4.443065    1.180357    0.001296
      5          7           0        5.237351    0.104823    0.005084
      6          6           0        4.618329   -1.053438    0.005167
      7          7           0        5.310890   -2.211124    0.008516
      8          6           0        3.155045   -1.187302    0.001491
      9          8           0        2.608464   -2.290818    0.003153
     10          1           0        0.605920    1.138492   -0.003207
     11          1           0        0.585356   -0.416157    0.874060
     12          1           0        0.587694   -0.417660   -0.877921
     13          1           0        4.916821    2.067242    0.004070
     14          1           0        6.313860   -2.224555    0.006917
     15          1           0        4.771861   -3.059527    0.004012
 ---------------------------------------------------------------------
                    Distance matrix (angstroms):
                    1          2          3          4          5
     1  C    0.000000
     2  C    1.498597   0.000000
     3  N    2.426778   1.316094   0.000000
     4  N    3.627790   2.249739   1.315815   0.000000
     5  N    4.261097   2.762674   2.391935   1.337041   0.000000
     6  C    3.823886   2.429938   2.729285   2.240664   1.313299
     7  N    4.917758   3.652841   4.077652   3.500759   2.317116
     8  C    2.536605   1.447977   2.420674   2.695331   2.450632
     9  O    2.904469   2.385469   3.562181   3.926172   3.556705
    10  H    1.091589   2.142398   2.524174   3.837377   4.745387
    11  H    1.094814   2.142565   3.154495   4.265267   4.761050
    12  H    1.094825   2.142525   3.154544   4.265041   4.761512
    13  H    4.399132   3.141629   1.973413   1.005493   1.988424
    14  H    5.826477   4.483345   4.701489   3.885014   2.566101
    15  H    4.946002   3.898982   4.596628   4.252615   3.198405
                    6          7          8          9         10
     6  C    0.000000
     7  N    1.349032   0.000000
     8  C    1.469399   2.386614   0.000000
     9  O    2.360228   2.703606   1.231464   0.000000
    10  H    4.572095   5.775535   3.450707   3.971195   0.000000
    11  H    4.174443   5.128522   2.821231   2.892369   1.785204
    12  H    4.174935   5.129412   2.820817   2.892840   1.785235
    13  H    3.134923   4.296478   3.700799   4.931653   4.409818
    14  H    2.060666   1.003061   3.324761   3.705991   6.625011
    15  H    2.011956   1.005167   2.473728   2.295910   5.914261
                   11         12         13         14         15
    11  H    0.000000
    12  H    1.751983   0.000000
    13  H    5.068110   5.068923   0.000000
    14  H    6.069432   6.069332   4.513452   0.000000
    15  H    5.027049   5.026383   5.128818   1.753552   0.000000
 Stoichiometry    C4H6N4O
 Framework group  C1[X(C4H6N4O)]
 Deg. of freedom    39
 Full point group                 C1      NOp   1
 Largest Abelian subgroup         C1      NOp   1
 Largest concise Abelian subgroup C1      NOp   1
                         Standard orientation:                         
 ---------------------------------------------------------------------
 Center     Atomic      Atomic             Coordinates (Angstroms)
 Number     Number       Type             X           Y           Z
 ---------------------------------------------------------------------
      1          6           0       -2.544591   -0.615477    0.000391
      2          6           0       -1.194714    0.035388   -0.000108
      3          7           0       -1.120300    1.349376    0.000107
      4          7           0        0.079574    1.889441   -0.000928
      5          7           0        1.270687    1.282048    0.000393
      6          6           0        1.234324   -0.030748    0.000218
      7          7           0        2.371128   -0.757084    0.001177
      8          6           0       -0.015019   -0.804229   -0.001223
      9          8           0       -0.011027   -2.035686    0.000122
     10          1           0       -3.334665    0.137749    0.000765
     11          1           0       -2.656824   -1.262539    0.876366
     12          1           0       -2.657465   -1.262401   -0.875617
     13          1           0        0.107216    2.894549    0.002044
     14          1           0        3.274441   -0.321025   -0.002069
     15          1           0        2.267895   -1.756925   -0.003377
 ---------------------------------------------------------------------
 Rotational constants (GHZ):           2.5076927           1.8373044           1.0673188
 Standard basis: 6-31G(2df,p) (6D, 7F)
 There are   309 symmetry adapted cartesian basis functions of A   symmetry.
 There are   282 symmetry adapted basis functions of A   symmetry.
   282 basis functions,   438 primitive gaussians,   309 cartesian basis functions
    33 alpha electrons       33 beta electrons
       nuclear repulsion energy       446.1630756838 Hartrees.
 NAtoms=   15 NActive=   15 NUniq=   15 SFac= 1.00D+00 NAtFMM=   60 NAOKFM=F Big=F
 Integral buffers will be    131072 words long.
 Raffenetti 2 integral format.
 Two-electron integral symmetry is turned on.
 One-electron integrals computed using PRISM.
 PrsmSu:  requested number of processors reduced to:  13 ShMem   1 Linda.
 NBasis=   282 RedAO= T EigKep=  1.34D-04  NBF=   282
 NBsUse=   282 1.00D-06 EigRej= -1.00D+00 NBFU=   282
 Initial guess from the checkpoint file:  "Cc1n[nH]ncpNpc1dO.chk"
 B after Tr=    -0.000000   -0.000000   -0.000000
         Rot=    0.999993   -0.000005    0.000016   -0.003733 Ang=  -0.43 deg.
 ExpMin= 1.61D-01 ExpMax= 5.48D+03 ExpMxC= 8.25D+02 IAcc=2 IRadAn=         4 AccDes= 0.00D+00
 Harris functional with IExCor=  402 and IRadAn=       4 diagonalized for initial guess.
 HarFok:  IExCor=  402 AccDes= 0.00D+00 IRadAn=         4 IDoV= 1 UseB2=F ITyADJ=14
 ICtDFT=  3500011 ScaDFX=  1.000000  1.000000  1.000000  1.000000
 FoFCou: FMM=F IPFlag=           0 FMFlag=      100000 FMFlg1=           0
         NFxFlg=           0 DoJE=T BraDBF=F KetDBF=T FulRan=T
         wScrn=  0.000000 ICntrl=       500 IOpCl=  0 I1Cent=   200000004 NGrid=           0
         NMat0=    1 NMatS0=      1 NMatT0=    0 NMatD0=    1 NMtDS0=    0 NMtDT0=    0
 Petite list used in FoFCou.
 Requested convergence on RMS density matrix=1.00D-08 within 128 cycles.
 Requested convergence on MAX density matrix=1.00D-06.
 Requested convergence on             energy=1.00D-06.
 No special actions if energy rises.
 Integral accuracy reduced to 1.0D-05 until final iterations.
 Initial convergence to 1.0D-05 achieved.  Increase integral accuracy.
 SCF Done:  E(RB3LYP) =  -450.260902155     A.U. after   12 cycles
            NFock= 12  Conv=0.74D-08     -V/T= 2.0069
 PrsmSu:  requested number of processors reduced to:  13 ShMem   1 Linda.
 Calling FoFJK, ICntrl=      2127 FMM=F ISym2X=0 I1Cent= 0 IOpClX= 0 NMat=1 NMatS=1 NMatT=0.
 ***** Axes restored to original set *****
 -------------------------------------------------------------------
 Center     Atomic                   Forces (Hartrees/Bohr)
 Number     Number              X              Y              Z
 -------------------------------------------------------------------
      1        6           0.000320053    0.001559435    0.000005721
      2        6          -0.002872026   -0.005262658   -0.000126985
      3        7           0.003629746    0.002316521   -0.000034464
      4        7          -0.005063366   -0.000912388    0.000121317
      5        7           0.002047325    0.000004623   -0.000036579
      6        6           0.001408436   -0.002434781   -0.000189518
      7        7           0.001501723    0.001193449    0.000073434
      8        6          -0.000942458    0.005628042    0.000399106
      9        8          -0.000318276   -0.002025960   -0.000176896
     10        1           0.000260910   -0.000212164   -0.000000993
     11        1          -0.000033221   -0.000146737    0.000182426
     12        1          -0.000036144   -0.000140014   -0.000177133
     13        1           0.001075443    0.001075052   -0.000032065
     14        1           0.000270780    0.000048613   -0.000018452
     15        1          -0.001248926   -0.000691035    0.000011080
 -------------------------------------------------------------------
 Cartesian Forces:  Max     0.005628042 RMS     0.001769840

 GradGradGradGradGradGradGradGradGradGradGradGradGradGradGradGradGradGrad
 Berny optimization.
 Using GEDIIS/GDIIS optimizer.
 FormGI is forming the generalized inverse of G from B-inverse, IUseBI=4.
 Internal  Forces:  Max     0.002469045 RMS     0.000838893
 Search for a local minimum.
 Step number   3 out of a maximum of   74
 All quantities printed in internal units (Hartrees-Bohrs-Radians)
 Mixed Optimization -- En-DIIS/RFO-DIIS
 Update second derivatives using D2CorX and points    1    2    3
 DE= -6.97D-04 DEPred=-6.00D-04 R= 1.16D+00
 TightC=F SS=  1.41D+00  RLast= 6.77D-02 DXNew= 8.4853D-01 2.0305D-01
 Trust test= 1.16D+00 RLast= 6.77D-02 DXMaxT set to 5.05D-01
 ITU=  1  1  0
 Use linear search instead of GDIIS.
     Eigenvalues ---    0.00850   0.00873   0.01133   0.01321   0.01758
     Eigenvalues ---    0.02060   0.02124   0.02125   0.02293   0.02388
     Eigenvalues ---    0.07285   0.07449   0.13806   0.16000   0.16000
     Eigenvalues ---    0.16000   0.16008   0.16104   0.19736   0.24542
     Eigenvalues ---    0.25000   0.25000   0.25638   0.27944   0.31704
     Eigenvalues ---    0.33039   0.34028   0.34402   0.34421   0.34556
     Eigenvalues ---    0.44427   0.45745   0.46394   0.50694   0.52639
     Eigenvalues ---    0.55829   0.63304   0.68081   0.94085
 RFO step:  Lambda=-1.36616277D-04 EMin= 8.49776821D-03
 Quartic linear search produced a step of  0.21801.
 Iteration  1 RMS(Cart)=  0.00669650 RMS(Int)=  0.00003942
 Iteration  2 RMS(Cart)=  0.00004975 RMS(Int)=  0.00001630
 Iteration  3 RMS(Cart)=  0.00000000 RMS(Int)=  0.00001630
 Variable       Old X    -DE/DX   Delta X   Delta X   Delta X     New X
                                 (Linear)    (Quad)   (Total)
    R1        2.83194  -0.00050   0.00119  -0.00228  -0.00109   2.83085
    R2        2.06280  -0.00029  -0.00021  -0.00093  -0.00114   2.06167
    R3        2.06890   0.00023   0.00038   0.00063   0.00100   2.06990
    R4        2.06892   0.00022   0.00038   0.00060   0.00098   2.06990
    R5        2.48706   0.00247   0.00441   0.00271   0.00712   2.49418
    R6        2.73628  -0.00153  -0.00555  -0.00381  -0.00935   2.72693
    R7        2.48653  -0.00214  -0.00330  -0.00394  -0.00725   2.47928
    R8        2.52664   0.00147   0.00097   0.00211   0.00307   2.52971
    R9        1.90011   0.00145   0.00042   0.00268   0.00310   1.90320
   R10        2.48178   0.00053   0.00422  -0.00080   0.00342   2.48519
   R11        2.54930  -0.00020   0.00015  -0.00160  -0.00145   2.54785
   R12        2.77676   0.00201  -0.00189   0.00708   0.00519   2.78195
   R13        1.89551   0.00027  -0.00035   0.00055   0.00021   1.89572
   R14        1.89949   0.00125   0.00058   0.00244   0.00302   1.90251
   R15        2.32713   0.00196   0.00131   0.00224   0.00356   2.33069
    A1        1.93079  -0.00023   0.00075  -0.00217  -0.00142   1.92937
    A2        1.92762  -0.00003   0.00098  -0.00026   0.00072   1.92834
    A3        1.92755  -0.00002   0.00109  -0.00025   0.00084   1.92839
    A4        1.91065   0.00013   0.00033   0.00086   0.00118   1.91183
    A5        1.91069   0.00012   0.00035   0.00081   0.00115   1.91184
    A6        1.85500   0.00003  -0.00364   0.00117  -0.00246   1.85254
    A7        2.07665  -0.00096  -0.00446  -0.00365  -0.00811   2.06854
    A8        2.07376   0.00227   0.00412   0.00889   0.01301   2.08677
    A9        2.13278  -0.00131   0.00035  -0.00524  -0.00490   2.12788
   A10        2.05031   0.00036   0.00161  -0.00050   0.00111   2.05141
   A11        2.24709   0.00118  -0.00143   0.00783   0.00639   2.25348
   A12        2.02122  -0.00017   0.00093  -0.00082   0.00010   2.02132
   A13        2.01486  -0.00101   0.00051  -0.00699  -0.00648   2.00838
   A14        2.01467  -0.00081  -0.00177  -0.00541  -0.00717   2.00750
   A15        2.11166   0.00008  -0.00005  -0.00066  -0.00072   2.11094
   A16        2.15284  -0.00083   0.00206  -0.00254  -0.00047   2.15237
   A17        2.01869   0.00075  -0.00201   0.00320   0.00118   2.01987
   A18        2.12330   0.00037   0.00236   0.00202   0.00438   2.12768
   A19        2.03645  -0.00083  -0.00394  -0.00530  -0.00925   2.02721
   A20        2.12339   0.00047   0.00158   0.00328   0.00486   2.12825
   A21        1.96869   0.00141  -0.00082   0.00587   0.00502   1.97371
   A22        2.19259   0.00001   0.00321  -0.00055   0.00261   2.19520
   A23        2.12191  -0.00142  -0.00240  -0.00527  -0.00771   2.11419
    D1        0.00013   0.00000  -0.00011   0.00039   0.00028   0.00041
    D2       -3.14114  -0.00000   0.00004  -0.00052  -0.00048   3.14157
    D3       -2.11803   0.00001  -0.00166   0.00093  -0.00073  -2.11876
    D4        1.02389   0.00000  -0.00151   0.00002  -0.00149   1.02240
    D5        2.11829  -0.00000   0.00154  -0.00020   0.00135   2.11964
    D6       -1.02298  -0.00001   0.00169  -0.00111   0.00059  -1.02239
    D7       -3.14109   0.00001  -0.00007   0.00121   0.00116  -3.13993
    D8        0.00016   0.00002  -0.00022   0.00215   0.00194   0.00211
    D9       -3.14025  -0.00006  -0.00047  -0.00532  -0.00580   3.13713
   D10       -0.00194   0.00009  -0.00115   0.01279   0.01168   0.00974
   D11        0.00168  -0.00007  -0.00032  -0.00626  -0.00659  -0.00491
   D12        3.13999   0.00008  -0.00100   0.01185   0.01089  -3.13230
   D13       -0.00249   0.00005   0.00106   0.00335   0.00441   0.00192
   D14       -3.13852  -0.00003  -0.00070  -0.00162  -0.00233  -3.14085
   D15        0.00242  -0.00005  -0.00116  -0.00356  -0.00472  -0.00230
   D16        3.13847   0.00003   0.00060   0.00141   0.00200   3.14047
   D17        3.14134   0.00003   0.00002   0.00125   0.00129  -3.14055
   D18       -0.00007  -0.00001   0.00043  -0.00167  -0.00123  -0.00130
   D19       -0.00482  -0.00003   0.00005  -0.00222  -0.00217  -0.00699
   D20       -3.13675  -0.00003   0.00043  -0.00230  -0.00188  -3.13863
   D21        3.13661  -0.00000  -0.00033   0.00049   0.00016   3.13677
   D22        0.00468   0.00000   0.00004   0.00040   0.00045   0.00513
   D23       -0.00173   0.00006   0.00021   0.00607   0.00628   0.00454
   D24       -3.14019  -0.00008   0.00086  -0.01122  -0.01031   3.13268
   D25        3.14003   0.00003   0.00060   0.00329   0.00388  -3.13928
   D26        0.00157  -0.00011   0.00125  -0.01400  -0.01271  -0.01114
         Item               Value     Threshold  Converged?
 Maximum Force            0.002469     0.000450     NO 
 RMS     Force            0.000839     0.000300     NO 
 Maximum Displacement     0.016647     0.001800     NO 
 RMS     Displacement     0.006686     0.001200     NO 
 Predicted change in Energy=-9.119619D-05
 GradGradGradGradGradGradGradGradGradGradGradGradGradGradGradGradGradGrad

                          Input orientation:                          
 ---------------------------------------------------------------------
 Center     Atomic      Atomic             Coordinates (Angstroms)
 Number     Number       Type             X           Y           Z
 ---------------------------------------------------------------------
      1          6           0        0.974004    0.115032   -0.002335
      2          6           0        2.471662    0.082416    0.002120
      3          7           0        3.126925    1.228131    0.001236
      4          7           0        4.437911    1.177106    0.003257
      5          7           0        5.241412    0.106398    0.004183
      6          6           0        4.622131   -1.053772    0.005609
      7          7           0        5.315723   -2.209947    0.007862
      8          6           0        3.156113   -1.187947    0.007766
      9          8           0        2.617273   -2.297329   -0.000357
     10          1           0        0.613480    1.144722   -0.006323
     11          1           0        0.576555   -0.408892    0.873634
     12          1           0        0.581603   -0.413921   -0.877555
     13          1           0        4.911385    2.066002    0.003190
     14          1           0        6.318744   -2.226554    0.002570
     15          1           0        4.769028   -3.055344    0.006162
 ---------------------------------------------------------------------
                    Distance matrix (angstroms):
                    1          2          3          4          5
     1  C    0.000000
     2  C    1.498020   0.000000
     3  N    2.423649   1.319861   0.000000
     4  N    3.623077   2.250440   1.311980   0.000000
     5  N    4.267422   2.769854   2.393606   1.338667   0.000000
     6  C    3.830797   2.432170   2.728139   2.238472   1.315107
     7  N    4.925055   3.652895   4.075692   3.498957   2.317540
     8  C    2.541547   1.443027   2.416264   2.690075   2.454346
     9  O    2.918873   2.384196   3.562108   3.922554   3.558655
    10  H    1.090988   2.140422   2.514840   3.824580   4.742993
    11  H    1.095346   2.142977   3.153618   4.264155   4.773087
    12  H    1.095345   2.143012   3.153930   4.263602   4.770955
    13  H    4.394234   3.144339   1.971378   1.007132   1.987201
    14  H    5.835178   4.486800   4.703463   3.888757   2.569691
    15  H    4.945055   3.888887   4.587449   4.245383   3.196836
                    6          7          8          9         10
     6  C    0.000000
     7  N    1.348264   0.000000
     8  C    1.472147   2.389226   0.000000
     9  O    2.359221   2.699877   1.233346   0.000000
    10  H    4.571959   5.776253   3.450584   3.982830   0.000000
    11  H    4.187604   5.143256   2.830332   2.914547   1.785891
    12  H    4.185123   5.140191   2.830373   2.908719   1.785898
    13  H    3.133156   4.295027   3.697187   4.929667   4.395547
    14  H    2.062503   1.003172   3.328808   3.702148   6.626886
    15  H    2.006955   1.006764   2.467522   2.281376   5.908408
                   11         12         13         14         15
    11  H    0.000000
    12  H    1.751203   0.000000
    13  H    5.066905   5.066828   0.000000
    14  H    6.085670   6.080710   4.517377   0.000000
    15  H    5.033195   5.029174   5.123325   1.757420   0.000000
 Stoichiometry    C4H6N4O
 Framework group  C1[X(C4H6N4O)]
 Deg. of freedom    39
 Full point group                 C1      NOp   1
 Largest Abelian subgroup         C1      NOp   1
 Largest concise Abelian subgroup C1      NOp   1
                         Standard orientation:                         
 ---------------------------------------------------------------------
 Center     Atomic      Atomic             Coordinates (Angstroms)
 Number     Number       Type             X           Y           Z
 ---------------------------------------------------------------------
      1          6           0       -2.549308   -0.614789   -0.000683
      2          6           0       -1.195418    0.026337    0.001245
      3          7           0       -1.122226    1.344167   -0.000153
      4          7           0        0.072967    1.885282   -0.000355
      5          7           0        1.270707    1.287413   -0.001323
      6          6           0        1.236162   -0.027238    0.000549
      7          7           0        2.373870   -0.750727    0.001049
      8          6           0       -0.014773   -0.803356    0.005095
      9          8           0       -0.000132   -2.036590   -0.002691
     10          1           0       -3.332562    0.144658   -0.003542
     11          1           0       -2.668727   -1.260935    0.875684
     12          1           0       -2.664987   -1.263688   -0.875514
     13          1           0        0.098538    2.892090   -0.000762
     14          1           0        3.278246   -0.316668   -0.005932
     15          1           0        2.263349   -1.751406   -0.000166
 ---------------------------------------------------------------------
 Rotational constants (GHZ):           2.5123137           1.8327692           1.0666164
 Standard basis: 6-31G(2df,p) (6D, 7F)
 There are   309 symmetry adapted cartesian basis functions of A   symmetry.
 There are   282 symmetry adapted basis functions of A   symmetry.
   282 basis functions,   438 primitive gaussians,   309 cartesian basis functions
    33 alpha electrons       33 beta electrons
       nuclear repulsion energy       446.0636582487 Hartrees.
 NAtoms=   15 NActive=   15 NUniq=   15 SFac= 1.00D+00 NAtFMM=   60 NAOKFM=F Big=F
 Integral buffers will be    131072 words long.
 Raffenetti 2 integral format.
 Two-electron integral symmetry is turned on.
 One-electron integrals computed using PRISM.
 PrsmSu:  requested number of processors reduced to:  13 ShMem   1 Linda.
 NBasis=   282 RedAO= T EigKep=  1.34D-04  NBF=   282
 NBsUse=   282 1.00D-06 EigRej= -1.00D+00 NBFU=   282
 Initial guess from the checkpoint file:  "Cc1n[nH]ncpNpc1dO.chk"
 B after Tr=    -0.000000   -0.000000   -0.000000
         Rot=    0.999999    0.000023    0.000025   -0.001039 Ang=   0.12 deg.
 Requested convergence on RMS density matrix=1.00D-08 within 128 cycles.
 Requested convergence on MAX density matrix=1.00D-06.
 Requested convergence on             energy=1.00D-06.
 No special actions if energy rises.
 SCF Done:  E(RB3LYP) =  -450.260988535     A.U. after   11 cycles
            NFock= 11  Conv=0.29D-08     -V/T= 2.0069
 PrsmSu:  requested number of processors reduced to:  13 ShMem   1 Linda.
 Calling FoFJK, ICntrl=      2127 FMM=F ISym2X=0 I1Cent= 0 IOpClX= 0 NMat=1 NMatS=1 NMatT=0.
 ***** Axes restored to original set *****
 -------------------------------------------------------------------
 Center     Atomic                   Forces (Hartrees/Bohr)
 Number     Number              X              Y              Z
 -------------------------------------------------------------------
      1        6           0.000108518   -0.000425120   -0.000001762
      2        6          -0.001511764   -0.000213222    0.000438019
      3        7           0.000837011   -0.000191550    0.000055636
      4        7          -0.000810137    0.001354441    0.000009945
      5        7          -0.000403879   -0.001199345    0.000024734
      6        6           0.001984466   -0.000230472    0.000674884
      7        7          -0.000579028    0.000096084   -0.000030342
      8        6          -0.000032712    0.000899048   -0.001771030
      9        8          -0.000004868   -0.000428365    0.000758947
     10        1           0.000121626    0.000020858    0.000006057
     11        1           0.000037488    0.000145044    0.000078319
     12        1           0.000071945    0.000136899   -0.000080340
     13        1           0.000235232    0.000100515   -0.000061004
     14        1           0.000034672    0.000132507   -0.000019852
     15        1          -0.000088568   -0.000197323   -0.000082212
 -------------------------------------------------------------------
 Cartesian Forces:  Max     0.001984466 RMS     0.000619361

 GradGradGradGradGradGradGradGradGradGradGradGradGradGradGradGradGradGrad
 Berny optimization.
 Using GEDIIS/GDIIS optimizer.
 FormGI is forming the generalized inverse of G from B-inverse, IUseBI=4.
 Internal  Forces:  Max     0.001057421 RMS     0.000299749
 Search for a local minimum.
 Step number   4 out of a maximum of   74
 All quantities printed in internal units (Hartrees-Bohrs-Radians)
 Mixed Optimization -- En-DIIS/RFO-DIIS
 Swapping is turned off.
 Update second derivatives using D2CorX and points    1    2    3    4
 DE= -8.64D-05 DEPred=-9.12D-05 R= 9.47D-01
 TightC=F SS=  1.41D+00  RLast= 4.04D-02 DXNew= 8.4853D-01 1.2122D-01
 Trust test= 9.47D-01 RLast= 4.04D-02 DXMaxT set to 5.05D-01
 ITU=  1  1  1  0
     Eigenvalues ---    0.00850   0.00962   0.01213   0.01348   0.01762
     Eigenvalues ---    0.02054   0.02123   0.02127   0.02293   0.02382
     Eigenvalues ---    0.07287   0.07556   0.12687   0.16000   0.16000
     Eigenvalues ---    0.16001   0.16040   0.16143   0.18825   0.24584
     Eigenvalues ---    0.24998   0.25121   0.25915   0.27893   0.31509
     Eigenvalues ---    0.32305   0.33356   0.34401   0.34404   0.34512
     Eigenvalues ---    0.44079   0.45128   0.46066   0.49443   0.53248
     Eigenvalues ---    0.54943   0.62355   0.69848   0.93803
 En-DIIS/RFO-DIIS/Sim-DIIS IScMMF=       -3 using points:     4    3
 RFO step:  Lambda=-8.96242998D-05.
 DidBck=T Rises=F RFO-DIIS coefs:    0.02983    0.97017
 Iteration  1 RMS(Cart)=  0.00776414 RMS(Int)=  0.00014111
 Iteration  2 RMS(Cart)=  0.00012013 RMS(Int)=  0.00009225
 Iteration  3 RMS(Cart)=  0.00000001 RMS(Int)=  0.00009225
 Variable       Old X    -DE/DX   Delta X   Delta X   Delta X     New X
                                 (Linear)    (Quad)   (Total)
    R1        2.83085  -0.00034   0.00106  -0.00231  -0.00125   2.82960
    R2        2.06167  -0.00002   0.00110  -0.00168  -0.00057   2.06110
    R3        2.06990  -0.00002  -0.00097   0.00140   0.00042   2.07033
    R4        2.06990  -0.00003  -0.00095   0.00135   0.00039   2.07029
[...]
 ! D20   D(5,6,7,15)          -179.3361         -DE/DX =    0.0                 !
 ! D21   D(8,6,7,14)           179.1511         -DE/DX =    0.0                 !
 ! D22   D(8,6,7,15)             0.7096         -DE/DX =    0.0                 !
 ! D23   D(5,6,8,2)             -0.0719         -DE/DX =    0.0                 !
 ! D24   D(5,6,8,9)            179.901          -DE/DX =    0.0                 !
 ! D25   D(7,6,8,2)            179.8813         -DE/DX =    0.0                 !
 ! D26   D(7,6,8,9)             -0.1457         -DE/DX =    0.0                 !
 --------------------------------------------------------------------------------
 GradGradGradGradGradGradGradGradGradGradGradGradGradGradGradGradGradGrad


 ----------------------------------------------------------------------

 Electric dipole moment (input orientation):
 (Debye = 10**-18 statcoulomb cm , SI units = C m)
                  (au)            (Debye)         (10**-30 SI)
   Tot        0.100658D+01      0.255848D+01      0.853418D+01
   x          0.895939D+00      0.227725D+01      0.759609D+01
   y          0.458789D+00      0.116613D+01      0.388977D+01
   z         -0.435695D-02     -0.110743D-01     -0.369398D-01

 Dipole polarizability, Alpha (input orientation).
 (esu units = cm**3 , SI units = C**2 m**2 J**-1)
 Alpha(0;0):
               (au)            (10**-24 esu)      (10**-40 SI)
   iso        0.746014D+02      0.110548D+02      0.123001D+02
   aniso      0.553369D+02      0.820008D+01      0.912382D+01
   xx         0.936389D+02      0.138758D+02      0.154390D+02
   yx        -0.206786D+01     -0.306425D+00     -0.340944D+00
   yy         0.923703D+02      0.136879D+02      0.152298D+02
   zx         0.965263D-01      0.143037D-01      0.159150D-01
   zy        -0.548809D-01     -0.813251D-02     -0.904864D-02
   zz         0.377950D+02      0.560064D+01      0.623155D+01

 ----------------------------------------------------------------------

 Dipole orientation:
     6          0.29127049         -0.57682766          1.73509328
     6          0.88989081         -1.78039286          4.22494325
     7          0.26097081         -0.57235932          6.31595634
     7          0.80120143         -1.65655191          8.47776007
     7          1.93323357         -3.88079540          8.90928046
     6          2.58768292         -5.14111403          6.87164121
     7          3.73886245         -7.40671607          7.03646344
     6          2.12838299         -4.20877249          4.28825867
     8          2.77728814         -5.45662610          2.42884704
     1         -0.63767849          1.24159045          2.02014735
     1         -0.93255746         -1.80918842          0.60931621
     1          2.01822610         -0.30461587          0.62723293
     1          0.30007707         -0.69241681         10.04084037
     1          4.14684851         -8.20225792          8.70832723
     1          4.18545172         -8.24254002          5.38606374

 Electric dipole moment (dipole orientation):
 (Debye = 10**-18 statcoulomb cm , SI units = C m)
                  (au)            (Debye)         (10**-30 SI)
   Tot        0.100658D+01      0.255848D+01      0.853418D+01
   x          0.000000D+00      0.000000D+00      0.000000D+00
   y          0.000000D+00      0.000000D+00      0.000000D+00
   z          0.100658D+01      0.255848D+01      0.853418D+01

 Dipole polarizability, Alpha (dipole orientation).
 (esu units = cm**3 , SI units = C**2 m**2 J**-1)
 Alpha(0;0):
               (au)            (10**-24 esu)      (10**-40 SI)
   iso        0.746014D+02      0.110548D+02      0.123001D+02
   aniso      0.553369D+02      0.820008D+01      0.912382D+01
   xx         0.494559D+02      0.732861D+01      0.815418D+01
   yx        -0.228692D+02     -0.338887D+01     -0.377063D+01
   yy         0.826523D+02      0.122478D+02      0.136275D+02
   zx         0.523413D+00      0.775619D-01      0.862992D-01
   zy        -0.166764D+01     -0.247118D+00     -0.274956D+00
   zz         0.916960D+02      0.135879D+02      0.151186D+02

 ----------------------------------------------------------------------
 1\1\GINC-LEWIS4-Z10PH-HPC3-NODE399\Freq\RB3LYP\6-31G(2df,p)\C4H6N4O1\K
 S29C\03-Jul-2022\0\\#N Geom=AllCheck Guess=TCheck SCRF=Check GenChk RB
 3LYP/6-31G(2df,p) Freq\\Title Card Required\\0,1\C,0.9731084532,0.1141
 332783,-0.0020388307\C,2.4700777294,0.0815825582,0.0005933595\N,3.1264
 968098,1.227406935,0.0006623151\N,4.4369019275,1.1783128321,0.00275620
 55\N,5.2421237228,0.1068717403,0.0050411314\C,4.6248777894,-1.05347899
 98,0.0054361361\N,5.3154700103,-2.2106936855,0.0092887173\C,3.15739658
 2,-1.187106419,0.0028141193\O,2.6208104048,-2.2980546707,0.0024057953\
 H,0.6148583959,1.1446730665,-0.0037370764\H,0.5762505739,-0.4095937319
 ,0.874209852\H,0.5793220283,-0.4114356657,-0.8785683332\H,4.9110649205
 ,2.0671128115,0.0026679536\H,6.3185737834,-2.2285665523,0.0051728366\H
 ,4.7666168688,-3.0550634969,0.0043158186\\Version=ES64L-G16RevA.03\Sta
 te=1-A\HF=-450.2610084\RMSD=7.636e-09\RMSF=5.715e-05\ZeroPoint=0.11347
 29\Thermal=0.1212136\Dipole=0.8959391,0.4587889,-0.004357\DipoleDeriv=
 -0.0495381,-0.0234206,-0.0002118,-0.0668494,0.1162914,-0.0001933,-0.00
 02341,-0.0000774,0.0768671,0.5757251,0.1095994,0.0009089,-0.5807723,-0
 .3835352,-0.0009313,0.0015709,0.0003116,-0.0131465,0.4182654,0.5464709
 ,0.0007005,0.4239594,-0.2096657,0.0009274,0.0005053,0.0011169,-0.15424
 65,-0.3974075,-0.1329923,-0.0005894,-0.3868973,-0.3137703,-0.0004708,0
 .0001466,-0.0002564,-0.1057521,-0.3411952,-0.4603972,0.0005521,0.54502
 23,-0.0300107,0.0012352,-0.0008811,-0.000426,-0.2116398,0.2786747,-0.9
 116173,0.001568,-0.9161488,1.0920055,-0.0038404,0.0025621,-0.0043012,0
 .1969821,-0.5885808,0.6263193,-0.0021589,0.6321063,-1.0021889,0.002988
 4,-0.0070337,0.0089581,-0.546965,0.1305464,0.5666489,-0.0007346,0.6176
 177,1.1782776,0.0006233,-0.0004754,0.0001071,0.2609509,-0.5735553,-0.3
 494991,-0.0000176,-0.3889506,-1.1964043,-0.0002895,-0.0000722,-0.00016
 04,-0.3902541,0.01374,0.013263,-0.0001045,0.0889901,-0.0707321,0.00030
 3,-0.0001957,0.0001855,0.0710367,-0.0292337,0.0152939,0.0241401,-0.017
 7266,0.0389025,0.0675612,0.0648576,0.0508358,-0.0318028,-0.0288996,0.0
 154346,-0.0241488,-0.0176457,0.0386551,-0.0677537,-0.064808,-0.0509232
 ,-0.0318633,0.1800787,0.0848074,-0.0002209,0.095788,0.2874712,0.000156
 9,-0.0001948,0.0000436,0.2774955,0.2431215,-0.0589337,0.000625,-0.0354
 317,0.1524353,0.0000445,0.002857,-0.0024903,0.3153639,0.1682583,-0.040
 9771,-0.0003081,0.0069386,0.3022686,-0.000361,0.0013954,-0.0029237,0.2
 86974\Polar=93.6388684,-2.067861,92.37031,0.0965263,-0.0548809,37.7949
 705\Quadrupole=1.549186,0.4383832,-1.9875692,-3.0228661,-0.0176779,0.0
 166499\PG=C01 [X(C4H6N4O1)]\NImag=1\\0.48550894,-0.00650664,0.59414089
 ,-0.00007882,-0.00006838,0.53141441,-0.21405733,0.02021898,-0.00027090
 ,0.67653465,0.01095088,-0.08639225,0.00002417,0.07320698,0.67261825,-0
 .00025788,0.00004719,-0.06882993,0.00082526,-0.00030835,0.15847481,-0.
 02782996,-0.03548882,0.00000036,-0.18663237,-0.11538979,-0.00013355,0.
 59013231,-0.01376012,-0.00074820,-0.00002623,-0.11037960,-0.34041447,0
 .00007000,0.13473449,0.52357299,-0.00001827,-0.00006932,-0.00901037,-0
 .00013334,0.00007098,-0.05182398,0.00068073,-0.00016531,0.08720530,0.0
 0348322,-0.00724902,-0.00000657,-0.06849723,-0.05250015,-0.00007327,-0
 .32911653,-0.02667592,-0.00041194,0.71546786,0.00210315,-0.00271878,0.
 00001386,-0.06055745,-0.03147858,-0.00006121,0.02491801,-0.11967435,0.
 00011273,0.13657502,0.85640824,-0.00001831,0.00000240,0.01188166,-0.00
 007217,-0.00004357,0.01040888,-0.00046096,0.00002044,-0.04924668,0.000
 88863,-0.00054451,0.06838212,-0.00123606,0.00046393,0.00000039,0.01106
 690,0.02065340,0.00001230,-0.06241031,0.03786533,-0.00017496,-0.163818
 28,0.05120001,-0.00024337,0.39961209,-0.00144260,-0.00251840,0.0000013
 3,-0.01271075,0.01706564,-0.00004502,0.02062844,-0.02617435,0.00007281
 ,0.10733705,-0.23608640,0.00035834,0.04267584,0.68941196,0.00000056,0.
 00000038,-0.00115239,0.00005154,0.00001189,-0.01081429,-0.00015533,0.0
 0010414,0.02612684,-0.00032061,0.00030721,-0.03675401,0.00047898,-0.00
 069153,0.06111159,0.00281663,0.00502490,-0.00001786,-0.01901644,0.0089
 5463,-0.00004637,-0.00794612,0.01221107,-0.00001221,0.03109114,0.00160
 669,0.00006030,-0.22139180,-0.13556925,-0.00010367,0.65328495,0.001873
 07,-0.00710066,0.00001845,0.04520877,-0.00712009,0.00008118,0.00124549
 ,0.02589637,-0.00001349,-0.02772846,-0.09568042,0.00003257,-0.11046726
 ,-0.34656375,0.00016003,-0.00984772,0.87728986,-0.00000739,0.00002797,
 0.00663257,-0.00011287,0.00007210,0.00600612,-0.00005423,-0.00004584,-
 0.00597709,0.00014713,0.00007224,-0.00018603,-0.00020073,0.00014785,-0
 .04784554,0.00085649,-0.00077602,0.15123722,-0.00055775,0.00139626,0.0
 0000301,-0.00551484,-0.00987847,-0.00001154,0.00669907,0.00257176,0.00
 000826,-0.01089885,0.00174830,-0.00001047,0.03234142,-0.02199511,0.000
 04568,-0.21161455,0.11962482,-0.00057971,0.88721777,-0.00004278,0.0020
 0783,-0.00000179,-0.00843434,0.01970074,-0.00002186,-0.01655293,-0.014
 44226,-0.00002632,0.01443597,-0.00413395,0.00004954,0.00946415,-0.0701
 8323,0.00017952,0.11872441,-0.30454145,0.00083484,0.03350763,0.7933705
 6,0.00000111,-0.00001684,-0.00157468,0.00003322,-0.00017156,0.00452926
 ,0.00016197,0.00010948,-0.00180757,-0.00017955,0.00004571,0.00747036,0
 .00016449,0.00014842,0.00360610,-0.00018966,0.00006430,-0.03941821,-0.
 00041293,0.00154809,0.00999529,-0.02019536,0.02681720,-0.00006779,-0.1
 6882366,0.06427172,-0.00021432,0.04915539,-0.01513459,0.00006930,-0.03
 334990,0.01419425,-0.00005059,0.00899318,-0.03694337,0.00002213,-0.194
 85960,0.02162619,-0.00018238,-0.03939920,0.02244466,-0.00018489,0.6039
 3991,0.00636452,0.00293867,0.00002308,0.07588495,-0.16689168,0.0001961
 2,-0.02780060,-0.06359312,0.00001767,0.02607810,0.01720085,0.00001316,
 -0.04818738,-0.01977833,-0.00004389,0.01677810,-0.07464092,0.00000347,
 0.04374680,-0.01883598,0.00021492,0.10991404,0.85631452,-0.00005268,0.
 00004987,0.00718368,-0.00022222,0.00018665,-0.07641474,0.00009028,0.00
 004208,0.01434206,-0.00006343,-0.00001006,-0.01160178,0.00004483,-0.00
 001079,0.01604560,-0.00022669,0.00000828,-0.08550635,-0.00018845,0.000
 07069,0.00968069,0.00075177,-0.00022184,0.18569779,0.00090567,0.001226
 67,0.00000252,0.02219521,-0.00037647,0.00001036,-0.00437712,0.00859944
 ,-0.00002323,0.00459637,-0.00469393,0.00001149,-0.01324199,0.00653860,
 -0.00003174,-0.03889765,-0.05458041,-0.00007776,0.00045465,-0.00411211
 ,0.00002838,-0.19691646,-0.20687455,-0.00012735,0.21793395,-0.00320196
 ,0.00288103,-0.00001116,-0.01910793,-0.08294244,0.00003337,0.01799526,
 0.00654954,0.00003092,-0.00529199,-0.01394801,0.00000782,0.00195400,0.
 02121288,-0.00001644,-0.04255891,-0.04260562,-0.00001540,0.00386895,0.
 01275279,-0.00009234,-0.20914505,-0.51977027,-0.00015016,0.25947597,0.
 60966792,0.00000913,-0.00000270,-0.00364830,0.00001989,0.00006739,0.01
 698722,-0.00002612,0.00001067,0.00412062,0.00000742,0.00001221,0.00125
 268,-0.00003655,-0.00001176,0.00169655,-0.00006534,-0.00006984,0.01888
 791,0.00000625,-0.00000953,-0.00063160,-0.00013024,-0.00013696,-0.0676
 4221,0.00020332,0.00015037,0.03361284,-0.07525945,0.07995799,-0.000132
 21,-0.01303816,0.03415946,-0.00005433,0.00475151,0.00158045,0.00000767
 ,-0.00060396,-0.00085436,0.00000064,0.00050559,0.00003049,0.00000048,-
 0.00032601,0.00205275,-0.00000293,-0.00079567,-0.00009120,-0.00000118,
 -0.00613333,-0.00270083,-0.00001118,0.00107409,-0.00062783,0.00000176,
 0.08264403,0.08523088,-0.29146605,0.00040253,-0.00070879,0.00011793,-0
 .00000326,-0.00173726,0.00015471,-0.00000333,0.00026995,0.00068507,-0.
 00000075,-0.00011487,-0.00001367,-0.00000022,-0.00024412,-0.00003116,-
 0.00000017,0.00017203,-0.00007551,0.00000105,-0.00055758,-0.00054853,0
 .00000062,0.00076763,0.00049626,0.00000130,-0.09157737,0.31451228,-0.0
 0013782,0.00039418,-0.04758307,-0.00001909,0.00005739,-0.00146472,0.00
 001098,0.00000233,-0.00043279,-0.00000128,-0.00000238,-0.00026424,0.00
 000100,-0.00000009,0.00012102,-0.00000101,0.00000449,0.00037760,-0.000
 00091,0.00000031,-0.00014046,-0.00001282,-0.00000392,0.00123026,0.0000
 0183,-0.00000148,0.00031791,0.00015925,-0.00044025,0.04552194,-0.07703
 008,-0.04249979,0.07567767,-0.01434573,-0.01668947,0.02610722,-0.00218
 628,0.00143324,0.00323049,-0.00317364,-0.00034054,-0.00212402,0.000463
 46,-0.00098350,0.00025212,0.00160334,-0.00073004,-0.00111196,-0.000344
 56,0.00081633,0.00025438,-0.00180722,-0.00302639,-0.00072665,0.0018676
 3,0.00193309,-0.00028858,0.00361321,0.00426253,-0.00992996,0.08752053,
 -0.04091023,-0.10521237,0.10242527,-0.00321545,-0.00021249,-0.00211485
 ,-0.00080051,0.00028036,0.00037436,0.00044702,-0.00024179,-0.00005349,
 -0.00031943,0.00081811,-0.00026131,-0.00128298,-0.00013395,0.00052856,
 0.00020259,-0.00035329,-0.00012441,0.00202987,0.00024047,-0.00014008,-
 0.00094664,-0.00003051,0.00017274,-0.01110732,-0.01187142,0.02418955,0
 .05014301,0.10993692,0.07523414,0.10229104,-0.21345992,0.00059303,-0.0
 0185872,0.00298745,-0.00086598,-0.00059996,0.00022287,0.00020057,-0.00
 021556,-0.00060847,-0.00023469,0.00017977,0.00014892,-0.00029872,-0.00
 001656,-0.00022162,0.00007533,-0.00019040,0.00003586,0.00093171,0.0018
 1050,0.00045158,-0.00137244,-0.00065230,0.00012799,-0.00153285,-0.0015
 6321,0.00116951,-0.08187901,-0.11209583,0.23199047,-0.07650581,-0.0423
 0018,-0.07511093,-0.01425030,-0.01675424,-0.02613248,-0.00218064,0.001
 42617,-0.00324257,-0.00317946,-0.00033818,0.00211683,0.00046402,-0.000
 98317,-0.00025001,0.00159662,-0.00072634,0.00112366,-0.00034251,0.0008
 1556,-0.00027069,-0.00180640,-0.00301815,0.00072299,0.00186288,0.00193
 170,0.00029351,0.00357295,0.00427778,0.00992980,0.00414241,0.00565490,
 0.00913074,0.08694947,-0.04071042,-0.10564308,-0.10279704,-0.00322583,
 -0.00020412,0.00210921,-0.00079624,0.00028111,-0.00037678,0.00044671,-
 0.00024192,0.00005342,-0.00031999,0.00081914,0.00026015,-0.00128041,-0
 .00013548,-0.00053631,0.00020226,-0.00035210,0.00013236,0.00202742,0.0
 0023713,0.00014735,-0.00094235,-0.00003179,-0.00017503,-0.01101969,-0.
 01191773,-0.02419957,0.00559041,0.00678427,0.01295436,0.04992449,0.110
 40858,-0.07467121,-0.10266690,-0.21355785,-0.00064686,0.00180609,0.002
 88535,0.00085949,0.00060498,0.00021381,-0.00021092,0.00021388,-0.00060
 221,0.00023663,-0.00018481,0.00014852,0.00030813,0.00001382,-0.0002147
 3,-0.00007632,0.00019448,0.00003110,-0.00094430,-0.00182169,0.00045344
 ,0.00138178,0.00065911,0.00013237,0.00156477,0.00160612,0.00125756,-0.
 00904853,-0.01299675,-0.02278144,0.08126769,0.11252838,0.23209324,0.00
 004096,-0.00127514,-0.00000215,-0.00498210,0.00468920,-0.00002151,-0.0
 3107070,-0.03582343,0.00000544,-0.14122477,-0.16479764,-0.00005763,0.0
 1104818,0.02711329,0.00000569,-0.00083662,0.00478392,-0.00001027,0.000
 41504,0.00145346,-0.00000738,-0.00129430,-0.00072991,-0.00000440,0.000
 77271,0.00087852,0.00000294,0.00008400,0.00003485,0.00000021,-0.000257
 70,-0.00000227,-0.00004907,-0.00025966,-0.00000187,0.00004837,0.167619
 04,-0.00000451,0.00027249,0.00000201,0.00186568,0.00599865,0.00000370,
 -0.00057368,0.00713919,-0.00002176,-0.16437590,-0.36813980,0.00008521,
 -0.00737244,-0.03026121,0.00000970,0.00672943,-0.00092817,0.00001575,-
 0.00171146,-0.00070797,-0.00000761,0.00067505,-0.00236187,0.00000516,0
 .00042753,0.00203357,-0.00000224,0.00008432,-0.00008547,0.00000018,0.0
 0013191,-0.00001148,-0.00004205,0.00013281,-0.00001149,0.00004249,0.16
 345101,0.38728561,-0.00000352,0.00000051,0.00209822,-0.00002016,0.0000
 0537,0.00648359,-0.00002607,-0.00007325,-0.01406402,-0.00005694,0.0000
 7761,-0.00254809,0.00003720,0.00007117,-0.00984613,-0.00001397,0.00000
 422,0.00328867,0.00000072,0.00000474,0.00111090,-0.00000363,0.00000271
 ,0.00184461,0.00000258,-0.00000214,-0.00158150,0.00000014,0.00000015,-
 0.00005641,-0.00053002,0.00007630,-0.00004728,0.00052959,-0.00007659,-
 0.00004506,0.00008754,-0.00009632,0.01292913,0.00010221,0.00041912,0.0
 0000266,-0.00118487,0.00094558,-0.00000655,-0.00114485,-0.00126914,-0.
 00000129,0.00136620,-0.00047394,-0.00002095,0.00004770,-0.00255784,0.0
 0001987,-0.01457628,0.00194187,0.00007819,-0.47072115,0.00265436,0.001
 63426,0.00137657,0.00075939,0.00001060,0.00071590,0.00097845,-0.000001
 42,-0.00006259,-0.00001498,0.00000011,0.00008793,-0.00003852,-0.000009
 57,0.00008900,-0.00003856,0.00000985,0.00015129,-0.00000809,0.00000027
 ,0.48971328,0.00006830,-0.00051240,-0.00000408,0.00203878,0.00124333,0
 .00001551,-0.00090503,0.00053788,-0.00000743,-0.00009942,-0.00153864,0
 .00001238,-0.00177076,0.00393450,-0.00000151,0.03491030,0.00575946,-0.
 00015944,0.00241617,-0.07192104,-0.00013762,-0.00043023,-0.00826108,0.
 00001453,-0.00207375,0.00274291,-0.00001288,0.00018578,0.00001004,-0.0
 0000018,0.00000864,-0.00001569,-0.00001817,0.00000667,-0.00001455,0.00
 001858,0.00004580,0.00003077,0.00000172,-0.01009652,0.05875819,0.00000
 221,0.00000782,-0.00086175,-0.00002402,0.00004779,0.00100451,-0.000047
 91,-0.00003120,0.00061947,0.00004749,-0.00002499,-0.00085843,-0.000031
 80,-0.00004786,-0.00208907,-0.00029447,0.00020042,-0.00313136,0.002393
 69,-0.00028903,0.00346384,0.00000021,-0.00000575,0.00481399,-0.0000117
 9,0.00003288,-0.00003892,-0.00000068,-0.00000031,-0.00010766,0.0001846
 9,-0.00002273,-0.00000784,-0.00017954,0.00001991,-0.00000751,0.0000032
 8,0.00000068,-0.00022613,-0.00183025,0.00006633,0.00382782,-0.00018584
 ,-0.00020547,0.00000062,0.00054627,-0.00624326,-0.00000333,0.00415659,
 0.00262085,0.00001592,-0.00214216,-0.00028937,-0.00001942,-0.00244410,
 0.00886187,-0.00001570,0.01907239,0.00572337,0.00013477,-0.18693887,-0
 .17508319,-0.00103152,0.00112041,0.01281190,0.00000259,0.00105416,-0.0
 0908226,0.00000404,-0.00002620,-0.00006068,-0.00000029,-0.00015331,0.0
 0014596,0.00007680,-0.00015255,0.00014407,-0.00007858,-0.00020538,0.00
 054834,-0.00000374,-0.00596035,-0.02430472,-0.00021110,0.17225894,-0.0
 0001156,0.00007129,-0.00000201,-0.00008399,-0.00108841,-0.00000173,0.0
 0052316,0.00063462,0.00000427,-0.00166896,-0.00041152,0.00000705,0.004
 27548,-0.00168287,-0.00001812,-0.01415613,-0.02946402,-0.00016959,-0.1
 7587252,-0.34228513,-0.00171396,-0.00178957,-0.00224985,0.00000768,-0.
 00243564,0.00099176,0.00000624,-0.00007264,0.00003324,-0.00000056,-0.0
 0004942,0.00002285,0.00001710,-0.00004981,0.00002202,-0.00001777,0.000
 18021,-0.00025284,0.00000379,0.00679881,0.00924633,0.00004605,0.184412
 57,0.36641254,-0.00000125,0.00000277,0.00046773,-0.00000130,0.00003238
 ,-0.00041953,-0.00003367,-0.00002234,-0.00048845,0.00003328,0.00000327
 ,0.00327424,-0.00005370,0.00001217,-0.00050373,0.00004505,0.00028815,-
 0.00392914,-0.00125261,-0.00234328,0.00364912,0.00001584,-0.00004759,-
 0.00057862,0.00000205,0.00002696,-0.00359356,0.00000064,-0.00000027,0.
 00005355,-0.00006784,0.00004266,-0.00000808,0.00007142,-0.00004380,-0.
 00000657,-0.00000106,0.00000509,0.00065950,0.00011422,0.00021226,-0.00
 640096,0.00112894,0.00183157,0.00782450\\-0.00001373,0.00003050,-0.000
 00281,-0.00015380,-0.00009232,0.00000755,-0.00001175,0.00009153,-0.000
 00501,0.00012327,-0.00008102,0.00000788,-0.00004337,0.00014458,0.00000
 197,0.00001106,-0.00017591,-0.00002867,0.00002743,0.00001972,-0.000031
 00,0.00006102,0.00010724,0.00001149,-0.00003663,-0.00005867,-0.0000016
 4,0.00000398,-0.00000321,-0.00000018,0.00000183,-0.00000582,0.00000173
 ,0.00000110,-0.00000563,-0.00000146,0.00002100,0.00005645,0.00000289,0
 .00002307,0.00000600,0.00001877,-0.00001446,-0.00003343,0.00001852\\\@


 EVERYTHING'S GOT A MORAL, IF ONLY YOU CAN FIND IT.

                                    -- LEWIS CARROL, ALICE IN WONDERLAND
 Job cpu time:       0 days  1 hours 37 minutes 33.0 seconds.
 Elapsed time:       0 days  0 hours 24 minutes 24.4 seconds.
 File lengths (MBytes):  RWF=    104 Int=      0 D2E=      0 Chk=      8 Scr=      1
 Normal termination of Gaussian 16 at Sun Jul  3 09:38:45 2022.
### All Done ###
