### Starting Gaussian ###
 Entering Gaussian System, Link 0=g16
 Initial command:
 /cluster/software/gaussian/gaussian-16-A.03/avx2/g16/l1.exe "/local/scratch/ks29c/Gau-3419.inp" -scrdir="/local/scratch/ks29c/"
 Entering Link 1 = /cluster/software/gaussian/gaussian-16-A.03/avx2/g16/l1.exe PID=      3420.
  
 Copyright (c) 1988,1990,1992,1993,1995,1998,2003,2009,2016,
            Gaussian, Inc.  All Rights Reserved.
  
 This is part of the Gaussian(R) 16 program.  It is based on
 the Gaussian(R) 09 system (copyright 2009, Gaussian, Inc.),
 the Gaussian(R) 03 system (copyright 2003, Gaussian, Inc.),
 the Gaussian(R) 98 system (copyright 1998, Gaussian, Inc.),
 the Gaussian(R) 94 system (copyright 1995, Gaussian, Inc.),
 the Gaussian 92(TM) system (copyright 1992, Gaussian, Inc.),
 the Gaussian 90(TM) system (copyright 1990, Gaussian, Inc.),
 the Gaussian 88(TM) system (copyright 1988, Gaussian, Inc.),
 the Gaussian 86(TM) system (copyright 1986, Carnegie Mellon
 University), and the Gaussian 82(TM) system (copyright 1983,
 Carnegie Mellon University). Gaussian is a federally registered
 trademark of Gaussian, Inc.
  
 This software contains proprietary and confidential information,
 including trade secrets, belonging to Gaussian, Inc.
  
 This software is provided under written license and may be
 used, copied, transmitted, or stored only in accord with that
 written license.
  
 The following legend is applicable only to US Government
 contracts under FAR:
  
                    RESTRICTED RIGHTS LEGEND
  
 Use, reproduction and disclosure by the US Government is
 subject to restrictions as set forth in subparagraphs (a)
 and (c) of the Commercial Computer Software - Restricted
 Rights clause in FAR 52.227-19.
  
 Gaussian, Inc.
 340 Quinnipiac St., Bldg. 40, Wallingford CT 06492
  
  
 ---------------------------------------------------------------
 Warning -- This program may not be used in any manner that
 competes with the business of Gaussian, Inc. or will provide
 assistance to any competitor of Gaussian, Inc.  The licensee
 of this program is prohibited from giving any competitor of
 Gaussian, Inc. access to this program.  By using this program,
 the user acknowledges that Gaussian, Inc. is engaged in the
 business of creating and licensing software in the field of
 computational chemistry and represents and warrants to the
 licensee that it is not a competitor of Gaussian, Inc. and that
 it will not use this program in any manner prohibited above.
 ---------------------------------------------------------------
  

 Cite this work as:
 Gaussian 16, Revision A.03,
 M. J. Frisch, G. W. Trucks, H. B. Schlegel, G. E. Scuseria, 
 M. A. Robb, J. R. Cheeseman, G. Scalmani, V. Barone, 
 G. A. Petersson, H. Nakatsuji, X. Li, M. Caricato, A. V. Marenich, 
 J. Bloino, B. G. Janesko, R. Gomperts, B. Mennucci, H. P. Hratchian, 
 J. V. Ortiz, A. F. Izmaylov, J. L. Sonnenberg, D. Williams-Young, 
 F. Ding, F. Lipparini, F. Egidi, J. Goings, B. Peng, A. Petrone, 
 T. Henderson, D. Ranasinghe, V. G. Zakrzewski, J. Gao, N. Rega, 
 G. Zheng, W. Liang, M. Hada, M. Ehara, K. Toyota, R. Fukuda, 
 J. Hasegawa, M. Ishida, T. Nakajima, Y. Honda, O. Kitao, H. Nakai, 
 T. Vreven, K. Throssell, J. A. Montgomery, Jr., J. E. Peralta, 
 F. Ogliaro, M. J. Bearpark, J. J. Heyd, E. N. Brothers, K. N. Kudin, 
 V. N. Staroverov, T. A. Keith, R. Kobayashi, J. Normand, 
 K. Raghavachari, A. P. Rendell, J. C. Burant, S. S. Iyengar, 
 J. Tomasi, M. Cossi, J. M. Millam, M. Klene, C. Adamo, R. Cammi, 
 J. W. Ochterski, R. L. Martin, K. Morokuma, O. Farkas, 
 J. B. Foresman, and D. J. Fox, Gaussian, Inc., Wallingford CT, 2016.
 
 ******************************************
 Gaussian 16:  ES64L-G16RevA.03 25-Dec-2016
                 3-Jul-2022 
 ******************************************
 %chk=CC1NdNCdNNdN1.chk
 %NProcShared=20
 Will use up to   20 processors via shared memory.
 -----------------------------
 # opt freq b3lyp/6-31g(2df,p)
 -----------------------------
 1/18=20,19=15,26=3,38=1/1,3;
 2/9=110,12=2,17=6,18=5,40=1/2;
 3/5=1,6=6,7=104,11=2,25=1,30=1,71=1,74=-5/1,2,3;
 4//1;
 5/5=2,38=5/2;
 6/7=2,8=2,9=2,10=2,28=1/1;
 7//1,2,3,16;
 1/18=20,19=15,26=3/3(2);
 2/9=110/2;
 99//99;
 2/9=110/2;
 3/5=1,6=6,7=104,11=2,25=1,30=1,71=1,74=-5/1,2,3;
 4/5=5,16=3,69=1/1;
 5/5=2,38=5/2;
 7//1,2,3,16;
 1/18=20,19=15,26=3/3(-5);
 2/9=110/2;
 6/7=2,8=2,9=2,10=2,19=2,28=1/1;
 99/9=1/99;
 -------------------
 Title Card Required
 -------------------
 Symbolic Z-matrix:
 Charge =  0 Multiplicity = 1
 C                     0.97119  -0.01415   0.07398 
 C                     2.50151   0.00036  -0.00757 
 N                     2.8599    1.28045  -0.58254 
 N                     3.57613   1.51318  -1.55264 
 C                     4.1495    0.58705  -2.35355 
 N                     4.17488  -0.69765  -2.38169 
 N                     3.57112  -1.5498   -1.52626 
 N                     2.884    -1.28028  -0.5501 
 H                     0.57885   0.92475   0.47986 
 H                     0.61684  -0.83527   0.7067 
 H                     0.53687  -0.1534   -0.92306 
 H                     2.87963   0.0193    1.02184 
 H                     4.7233    1.05941  -3.16956 
 

 GradGradGradGradGradGradGradGradGradGradGradGradGradGradGradGradGradGrad
 Berny optimization.
 Initialization pass.
                           ----------------------------
                           !    Initial Parameters    !
                           ! (Angstroms and Degrees)  !
 --------------------------                            --------------------------
 ! Name  Definition              Value          Derivative Info.                !
 --------------------------------------------------------------------------------
 ! R1    R(1,2)                  1.5326         estimate D2E/DX2                !
 ! R2    R(1,9)                  1.0955         estimate D2E/DX2                !
 ! R3    R(1,10)                 1.0955         estimate D2E/DX2                !
 ! R4    R(1,11)                 1.0964         estimate D2E/DX2                !
 ! R5    R(2,3)                  1.4483         estimate D2E/DX2                !
 ! R6    R(2,8)                  1.4425         estimate D2E/DX2                !
 ! R7    R(2,12)                 1.0968         estimate D2E/DX2                !
 ! R8    R(3,4)                  1.2281         estimate D2E/DX2                !
 ! R9    R(4,5)                  1.352          estimate D2E/DX2                !
 ! R10   R(5,6)                  1.2853         estimate D2E/DX2                !
 ! R11   R(5,13)                 1.1037         estimate D2E/DX2                !
 ! R12   R(6,7)                  1.35           estimate D2E/DX2                !
 ! R13   R(7,8)                  1.2238         estimate D2E/DX2                !
 ! A1    A(2,1,9)              111.6664         estimate D2E/DX2                !
 ! A2    A(2,1,10)             111.1502         estimate D2E/DX2                !
 ! A3    A(2,1,11)             110.3873         estimate D2E/DX2                !
 ! A4    A(9,1,10)             108.2131         estimate D2E/DX2                !
 ! A5    A(9,1,11)             107.6914         estimate D2E/DX2                !
 ! A6    A(10,1,11)            107.571          estimate D2E/DX2                !
 ! A7    A(1,2,3)              106.0563         estimate D2E/DX2                !
 ! A8    A(1,2,8)              106.0447         estimate D2E/DX2                !
 ! A9    A(1,2,12)             107.1252         estimate D2E/DX2                !
 ! A10   A(3,2,8)              124.7335         estimate D2E/DX2                !
 ! A11   A(3,2,12)             105.7845         estimate D2E/DX2                !
 ! A12   A(8,2,12)             106.0763         estimate D2E/DX2                !
 ! A13   A(2,3,4)              128.7108         estimate D2E/DX2                !
 ! A14   A(3,4,5)              125.8349         estimate D2E/DX2                !
 ! A15   A(4,5,6)              134.9144         estimate D2E/DX2                !
 ! A16   A(4,5,13)             111.4243         estimate D2E/DX2                !
 ! A17   A(6,5,13)             113.661          estimate D2E/DX2                !
 ! A18   A(5,6,7)              127.4632         estimate D2E/DX2                !
 ! A19   A(6,7,8)              128.1362         estimate D2E/DX2                !
 ! A20   A(2,8,7)              130.1222         estimate D2E/DX2                !
 ! D1    D(9,1,2,3)            -45.6879         estimate D2E/DX2                !
 ! D2    D(9,1,2,8)            179.91           estimate D2E/DX2                !
 ! D3    D(9,1,2,12)            66.948          estimate D2E/DX2                !
 ! D4    D(10,1,2,3)          -166.6384         estimate D2E/DX2                !
 ! D5    D(10,1,2,8)            58.9595         estimate D2E/DX2                !
 ! D6    D(10,1,2,12)          -54.0025         estimate D2E/DX2                !
 ! D7    D(11,1,2,3)            74.0799         estimate D2E/DX2                !
 ! D8    D(11,1,2,8)           -60.3222         estimate D2E/DX2                !
 ! D9    D(11,1,2,12)         -173.2842         estimate D2E/DX2                !
 ! D10   D(1,2,3,4)           -127.1837         estimate D2E/DX2                !
 ! D11   D(8,2,3,4)             -3.8508         estimate D2E/DX2                !
 ! D12   D(12,2,3,4)           119.252          estimate D2E/DX2                !
 ! D13   D(1,2,8,7)            125.132          estimate D2E/DX2                !
 ! D14   D(3,2,8,7)              1.794          estimate D2E/DX2                !
 ! D15   D(12,2,8,7)          -121.1808         estimate D2E/DX2                !
 ! D16   D(2,3,4,5)              3.4522         estimate D2E/DX2                !
 ! D17   D(3,4,5,6)             -1.2851         estimate D2E/DX2                !
 ! D18   D(3,4,5,13)           178.5122         estimate D2E/DX2                !
 ! D19   D(4,5,6,7)             -0.0411         estimate D2E/DX2                !
 ! D20   D(13,5,6,7)          -179.8351         estimate D2E/DX2                !
 ! D21   D(5,6,7,8)             -0.3432         estimate D2E/DX2                !
 ! D22   D(6,7,8,2)              0.0972         estimate D2E/DX2                !
 --------------------------------------------------------------------------------
 Trust Radius=3.00D-01 FncErr=1.00D-07 GrdErr=1.00D-06 EigMax=2.50D+02 EigMin=1.00D-04
 Number of steps in this run=     65 maximum allowed number of steps=    100.
 GradGradGradGradGradGradGradGradGradGradGradGradGradGradGradGradGradGrad

                          Input orientation:                          
 ---------------------------------------------------------------------
 Center     Atomic      Atomic             Coordinates (Angstroms)
 Number     Number       Type             X           Y           Z
 ---------------------------------------------------------------------
      1          6           0        0.971190   -0.014150    0.073980
      2          6           0        2.501510    0.000360   -0.007570
      3          7           0        2.859900    1.280450   -0.582540
      4          7           0        3.576130    1.513180   -1.552640
      5          6           0        4.149500    0.587050   -2.353550
      6          7           0        4.174880   -0.697650   -2.381690
      7          7           0        3.571120   -1.549800   -1.526260
      8          7           0        2.884000   -1.280280   -0.550100
      9          1           0        0.578850    0.924750    0.479860
     10          1           0        0.616840   -0.835270    0.706700
     11          1           0        0.536870   -0.153400   -0.923060
     12          1           0        2.879630    0.019300    1.021840
     13          1           0        4.723300    1.059410   -3.169560
 ---------------------------------------------------------------------
                    Distance matrix (angstroms):
                    1          2          3          4          5
     1  C    0.000000
     2  C    1.532560   0.000000
     3  N    2.382065   1.448332   0.000000
     4  N    3.429919   2.414679   1.228105   0.000000
     5  C    4.044255   2.926380   2.297901   1.352008   0.000000
     6  N    4.094034   2.987278   2.979764   2.435897   1.285259
     7  N    3.417400   2.419397   3.067044   3.063098   2.363273
     8  N    2.377268   1.442455   2.561049   3.047548   2.888052
     9  H    1.095538   2.188311   2.541339   3.668923   4.570754
    10  H    1.095507   2.181843   3.342114   4.401958   4.885469
    11  H    1.096409   2.172918   2.751063   3.522919   3.955460
    12  H    2.131127   1.096822   2.040814   3.056916   3.650776
    13  H    5.074585   4.007009   3.195902   2.033799   1.103740
                    6          7          8          9         10
     6  N    0.000000
     7  N    1.349980   0.000000
     8  N    2.315286   1.223791   0.000000
     9  H    4.873611   4.370537   3.352117   0.000000
    10  H    4.713464   3.771529   2.630132   1.774985   0.000000
    11  H    3.957136   3.394180   2.630205   1.769846   1.768462
    12  H    3.711564   3.071327   2.039589   2.531239   2.439226
    13  H    2.002190   3.291797   3.964687   5.523845   5.956359
                   11         12         13
    11  H    0.000000
    12  H    3.049752   0.000000
    13  H    4.903455   4.695613   0.000000
 Stoichiometry    C3H5N5
 Framework group  C1[X(C3H5N5)]
 Deg. of freedom    33
 Full point group                 C1      NOp   1
 Largest Abelian subgroup         C1      NOp   1
 Largest concise Abelian subgroup C1      NOp   1
                         Standard orientation:                         
 ---------------------------------------------------------------------
 Center     Atomic      Atomic             Coordinates (Angstroms)
 Number     Number       Type             X           Y           Z
 ---------------------------------------------------------------------
      1          6           0       -2.277180   -0.033548    0.513317
      2          6           0       -1.083705   -0.021704   -0.448045
      3          7           0       -0.415969   -1.294999   -0.273364
      4          7           0        0.768013   -1.514633   -0.032141
      5          6           0        1.717268   -0.578165    0.191175
      6          7           0        1.737852    0.706803    0.209164
      7          7           0        0.705907    1.547788   -0.015070
      8          7           0       -0.453776    1.265741   -0.285713
      9          1           0       -2.827724   -0.979366    0.462992
     10          1           0       -2.974371    0.780870    0.287958
     11          1           0       -1.936361    0.099000    1.546945
     12          1           0       -1.489566   -0.034950   -1.466926
     13          1           0        2.695537   -1.039961    0.410212
 ---------------------------------------------------------------------
 Rotational constants (GHZ):           3.6343331           2.3138671           1.5324636
 Standard basis: 6-31G(2df,p) (6D, 7F)
 There are   273 symmetry adapted cartesian basis functions of A   symmetry.
 There are   249 symmetry adapted basis functions of A   symmetry.
   249 basis functions,   387 primitive gaussians,   273 cartesian basis functions
    29 alpha electrons       29 beta electrons
       nuclear repulsion energy       362.1722059756 Hartrees.
 NAtoms=   13 NActive=   13 NUniq=   13 SFac= 1.00D+00 NAtFMM=   60 NAOKFM=F Big=F
 Integral buffers will be    131072 words long.
 Raffenetti 2 integral format.
 Two-electron integral symmetry is turned on.
 One-electron integrals computed using PRISM.
 PrsmSu:  requested number of processors reduced to:  13 ShMem   1 Linda.
 NBasis=   249 RedAO= T EigKep=  1.72D-04  NBF=   249
 NBsUse=   249 1.00D-06 EigRej= -1.00D+00 NBFU=   249
 ExpMin= 1.61D-01 ExpMax= 4.17D+03 ExpMxC= 6.27D+02 IAcc=3 IRadAn=         5 AccDes= 0.00D+00
 Harris functional with IExCor=  402 and IRadAn=       5 diagonalized for initial guess.
 HarFok:  IExCor=  402 AccDes= 0.00D+00 IRadAn=         5 IDoV= 1 UseB2=F ITyADJ=14
 ICtDFT=  3500011 ScaDFX=  1.000000  1.000000  1.000000  1.000000
 FoFCou: FMM=F IPFlag=           0 FMFlag=      100000 FMFlg1=           0
         NFxFlg=           0 DoJE=T BraDBF=F KetDBF=T FulRan=T
         wScrn=  0.000000 ICntrl=       500 IOpCl=  0 I1Cent=   200000004 NGrid=           0
         NMat0=    1 NMatS0=      1 NMatT0=    0 NMatD0=    1 NMtDS0=    0 NMtDT0=    0
 Petite list used in FoFCou.
 Requested convergence on RMS density matrix=1.00D-08 within 128 cycles.
 Requested convergence on MAX density matrix=1.00D-06.
 Requested convergence on             energy=1.00D-06.
 No special actions if energy rises.
 Integral accuracy reduced to 1.0D-05 until final iterations.
 Initial convergence to 1.0D-05 achieved.  Increase integral accuracy.
 SCF Done:  E(RB3LYP) =  -390.900098510     A.U. after   17 cycles
            NFock= 17  Conv=0.28D-08     -V/T= 2.0060

 **********************************************************************

            Population analysis using the SCF density.

 **********************************************************************

 Orbital symmetries:
       Occupied  (A) (A) (A) (A) (A) (A) (A) (A) (A) (A) (A) (A)
                 (A) (A) (A) (A) (A) (A) (A) (A) (A) (A) (A) (A)
                 (A) (A) (A) (A) (A)
       Virtual   (A) (A) (A) (A) (A) (A) (A) (A) (A) (A) (A) (A)
                 (A) (A) (A) (A) (A) (A) (A) (A) (A) (A) (A) (A)
                 (A) (A) (A) (A) (A) (A) (A) (A) (A) (A) (A) (A)
                 (A) (A) (A) (A) (A) (A) (A) (A) (A) (A) (A) (A)
                 (A) (A) (A) (A) (A) (A) (A) (A) (A) (A) (A) (A)
                 (A) (A) (A) (A) (A) (A) (A) (A) (A) (A) (A) (A)
                 (A) (A) (A) (A) (A) (A) (A) (A) (A) (A) (A) (A)
                 (A) (A) (A) (A) (A) (A) (A) (A) (A) (A) (A) (A)
                 (A) (A) (A) (A) (A) (A) (A) (A) (A) (A) (A) (A)
                 (A) (A) (A) (A) (A) (A) (A) (A) (A) (A) (A) (A)
                 (A) (A) (A) (A) (A) (A) (A) (A) (A) (A) (A) (A)
                 (A) (A) (A) (A) (A) (A) (A) (A) (A) (A) (A) (A)
                 (A) (A) (A) (A) (A) (A) (A) (A) (A) (A) (A) (A)
                 (A) (A) (A) (A) (A) (A) (A) (A) (A) (A) (A) (A)
                 (A) (A) (A) (A) (A) (A) (A) (A) (A) (A) (A) (A)
                 (A) (A) (A) (A) (A) (A) (A) (A) (A) (A) (A) (A)
                 (A) (A) (A) (A) (A) (A) (A) (A) (A) (A) (A) (A)
                 (A) (A) (A) (A) (A) (A) (A) (A) (A) (A) (A) (A)
                 (A) (A) (A) (A)
 The electronic state is 1-A.
 Alpha  occ. eigenvalues --  -14.41867 -14.41690 -14.40476 -14.39709 -14.37837
 Alpha  occ. eigenvalues --  -10.28667 -10.27525 -10.20594  -1.10389  -1.06460
 Alpha  occ. eigenvalues --   -0.94874  -0.83947  -0.79845  -0.70624  -0.65297
 Alpha  occ. eigenvalues --   -0.64109  -0.54083  -0.51625  -0.47825  -0.43994
 Alpha  occ. eigenvalues --   -0.43255  -0.42006  -0.40541  -0.39750  -0.38184
 Alpha  occ. eigenvalues --   -0.31406  -0.30621  -0.24974  -0.22538
 Alpha virt. eigenvalues --   -0.14705  -0.03675   0.05875   0.09331   0.11255
 Alpha virt. eigenvalues --    0.12047   0.14667   0.15577   0.15889   0.18736
 Alpha virt. eigenvalues --    0.19289   0.24202   0.26708   0.35161   0.37423
 Alpha virt. eigenvalues --    0.40436   0.41381   0.42952   0.45802   0.47639
 Alpha virt. eigenvalues --    0.49133   0.50347   0.50577   0.52674   0.54031
 Alpha virt. eigenvalues --    0.55610   0.58537   0.60253   0.62398   0.63559
 Alpha virt. eigenvalues --    0.64994   0.66061   0.67564   0.68055   0.69420
 Alpha virt. eigenvalues --    0.71795   0.72553   0.74013   0.75351   0.76192
 Alpha virt. eigenvalues --    0.76995   0.78119   0.80186   0.80811   0.82073
 Alpha virt. eigenvalues --    0.82932   0.86733   0.88623   0.91301   0.96012
 Alpha virt. eigenvalues --    1.01889   1.03309   1.03709   1.08128   1.09214
 Alpha virt. eigenvalues --    1.10756   1.14938   1.15968   1.18406   1.19356
 Alpha virt. eigenvalues --    1.22883   1.27011   1.30572   1.33447   1.37195
 Alpha virt. eigenvalues --    1.38856   1.41119   1.43269   1.44768   1.50319
 Alpha virt. eigenvalues --    1.51885   1.55645   1.57419   1.59838   1.60961
 Alpha virt. eigenvalues --    1.63418   1.67742   1.69860   1.71444   1.74670
 Alpha virt. eigenvalues --    1.76727   1.77858   1.85507   1.86964   1.89258
 Alpha virt. eigenvalues --    1.93480   1.98535   2.03111   2.06843   2.10051
 Alpha virt. eigenvalues --    2.19689   2.21353   2.26101   2.28050   2.30016
 Alpha virt. eigenvalues --    2.35398   2.37164   2.44219   2.50329   2.59892
 Alpha virt. eigenvalues --    2.66235   2.72729   2.76635   2.77864   2.80515
 Alpha virt. eigenvalues --    2.82217   2.84180   2.88094   2.90695   2.92196
 Alpha virt. eigenvalues --    2.99499   3.03207   3.07772   3.10502   3.13057
 Alpha virt. eigenvalues --    3.14096   3.15887   3.20135   3.21496   3.23895
 Alpha virt. eigenvalues --    3.25247   3.27283   3.28604   3.30659   3.34275
 Alpha virt. eigenvalues --    3.36026   3.37964   3.40502   3.46566   3.49787
 Alpha virt. eigenvalues --    3.55508   3.60368   3.63096   3.65612   3.66681
 Alpha virt. eigenvalues --    3.68113   3.73878   3.76019   3.78408   3.80856
 Alpha virt. eigenvalues --    3.82996   3.85697   3.89812   3.91685   3.92765
 Alpha virt. eigenvalues --    3.96938   3.99513   4.01648   4.04126   4.05385
 Alpha virt. eigenvalues --    4.07467   4.08849   4.14644   4.15018   4.17071
 Alpha virt. eigenvalues --    4.18504   4.19958   4.20419   4.24837   4.27259
 Alpha virt. eigenvalues --    4.28823   4.32014   4.35227   4.36086   4.38431
 Alpha virt. eigenvalues --    4.41304   4.42683   4.44192   4.45810   4.49566
 Alpha virt. eigenvalues --    4.50771   4.53588   4.55238   4.59571   4.60181
 Alpha virt. eigenvalues --    4.61297   4.62819   4.68352   4.72535   4.75101
 Alpha virt. eigenvalues --    4.78139   4.80159   4.83253   4.84801   4.88192
 Alpha virt. eigenvalues --    4.91198   5.00524   5.02493   5.07373   5.13656
 Alpha virt. eigenvalues --    5.17321   5.19907   5.21333   5.26009   5.28681
 Alpha virt. eigenvalues --    5.32230   5.37045   5.46946   5.48647   5.49594
 Alpha virt. eigenvalues --    5.61021   5.62399   5.78838   5.80675   5.94301
 Alpha virt. eigenvalues --    6.09204   6.41635   6.60869   7.81160  10.26119
 Alpha virt. eigenvalues --   10.88979  11.23723  11.24579  11.32203  11.44726
 Alpha virt. eigenvalues --   11.50796  11.80613  12.21901  20.99780  21.82618
          Condensed to atoms (all electrons):
               1          2          3          4          5          6
     1  C    5.003057   0.360220  -0.035283   0.001587  -0.000004   0.000254
     2  C    0.360220   4.879562   0.311592  -0.104701   0.007915   0.008383
     3  N   -0.035283   0.311592   6.378418   0.614684  -0.107874  -0.000309
     4  N    0.001587  -0.104701   0.614684   6.271139   0.422322  -0.044360
     5  C   -0.000004   0.007915  -0.107874   0.422322   4.669524   0.576287
     6  N    0.000254   0.008383  -0.000309  -0.044360   0.576287   6.425294
     7  N    0.000522  -0.091417   0.006811  -0.005490  -0.082392   0.357343
     8  N   -0.033254   0.284493  -0.039844   0.011037   0.016654  -0.117062
     9  H    0.370894  -0.022565   0.004132   0.000475   0.000027   0.000001
    10  H    0.373555  -0.019386   0.002713  -0.000089   0.000007  -0.000002
    11  H    0.374063  -0.026683  -0.002629   0.000995  -0.000005  -0.000068
    12  H   -0.038605   0.353204  -0.028272   0.000786  -0.000186   0.000255
    13  H    0.000004  -0.000460   0.002881  -0.043950   0.360884  -0.027985
               7          8          9         10         11         12
     1  C    0.000522  -0.033254   0.370894   0.373555   0.374063  -0.038605
     2  C   -0.091417   0.284493  -0.022565  -0.019386  -0.026683   0.353204
     3  N    0.006811  -0.039844   0.004132   0.002713  -0.002629  -0.028272
     4  N   -0.005490   0.011037   0.000475  -0.000089   0.000995   0.000786
     5  C   -0.082392   0.016654   0.000027   0.000007  -0.000005  -0.000186
     6  N    0.357343  -0.117062   0.000001  -0.000002  -0.000068   0.000255
     7  N    6.270533   0.593359  -0.000090   0.000075   0.001497   0.001504
     8  N    0.593359   6.401606   0.002635   0.002592  -0.002572  -0.026496
     9  H   -0.000090   0.002635   0.550360  -0.026503  -0.027208  -0.000894
    10  H    0.000075   0.002592  -0.026503   0.548895  -0.027850  -0.003713
    11  H    0.001497  -0.002572  -0.027208  -0.027850   0.566720   0.005258
    12  H    0.001504  -0.026496  -0.000894  -0.003713   0.005258   0.590487
    13  H    0.003762  -0.000672  -0.000000  -0.000000   0.000002   0.000010
              13
     1  C    0.000004
     2  C   -0.000460
     3  N    0.002881
     4  N   -0.043950
     5  C    0.360884
     6  N   -0.027985
     7  N    0.003762
     8  N   -0.000672
     9  H   -0.000000
    10  H   -0.000000
    11  H    0.000002
    12  H    0.000010
    13  H    0.550804
 Mulliken charges:
               1
     1  C   -0.377011
     2  C    0.059843
     3  N   -0.107022
     4  N   -0.124433
     5  C    0.136841
     6  N   -0.178031
     7  N   -0.056017
     8  N   -0.092476
     9  H    0.148737
    10  H    0.149706
    11  H    0.138480
    12  H    0.146662
    13  H    0.154721
 Sum of Mulliken charges =  -0.00000
 Mulliken charges with hydrogens summed into heavy atoms:
               1
     1  C    0.059912
     2  C    0.206505
     3  N   -0.107022
     4  N   -0.124433
     5  C    0.291562
     6  N   -0.178031
     7  N   -0.056017
     8  N   -0.092476
 Electronic spatial extent (au):  <R**2>=            786.3462
 Charge=             -0.0000 electrons
 Dipole moment (field-independent basis, Debye):
    X=             -1.4909    Y=             -1.4011    Z=             -0.1539  Tot=              2.0518
 Quadrupole moment (field-independent basis, Debye-Ang):
   XX=            -42.2187   YY=            -56.5259   ZZ=            -42.8405
   XY=             -3.5156   XZ=             -0.1309   YZ=             -0.6087
 Traceless Quadrupole moment (field-independent basis, Debye-Ang):
   XX=              4.9763   YY=             -9.3309   ZZ=              4.3546
   XY=             -3.5156   XZ=             -0.1309   YZ=             -0.6087
 Octapole moment (field-independent basis, Debye-Ang**2):
  XXX=             -6.3326  YYY=             -0.1691  ZZZ=             -2.1518  XYY=             -2.2666
  XXY=             -9.5444  XXZ=             -0.5333  XZZ=             -0.9278  YZZ=             -0.0748
  YYZ=              1.3736  XYZ=             -1.4656
 Hexadecapole moment (field-independent basis, Debye-Ang**3):
 XXXX=           -571.1504 YYYY=           -395.0854 ZZZZ=            -77.7344 XXXY=            -25.8794
 XXXZ=              1.9884 YYYX=             -0.8543 YYYZ=             -0.9221 ZZZX=              2.3231
 ZZZY=              0.3397 XXYY=           -161.3144 XXZZ=           -111.5109 YYZZ=            -70.4276
 XXYZ=             -4.5357 YYXZ=             -2.2317 ZZXY=             -0.5967
 N-N= 3.621722059756D+02 E-N=-1.634804632717D+03  KE= 3.885746017394D+02
 PrsmSu:  requested number of processors reduced to:  13 ShMem   1 Linda.
 Calling FoFJK, ICntrl=      2127 FMM=F ISym2X=0 I1Cent= 0 IOpClX= 0 NMat=1 NMatS=1 NMatT=0.
 ***** Axes restored to original set *****
 -------------------------------------------------------------------
 Center     Atomic                   Forces (Hartrees/Bohr)
 Number     Number              X              Y              Z
 -------------------------------------------------------------------
      1        6          -0.013355220   -0.000594151    0.001355124
      2        6          -0.009192993    0.001891979   -0.000878330
      3        7          -0.005569510    0.021142651    0.021416721
      4        7          -0.015077010    0.042685355    0.011952091
      5        6           0.026958033   -0.036338489   -0.033859057
      6        7           0.020835272    0.032047313   -0.027905582
      7        7          -0.009180398   -0.046782206    0.008343170
      8        7          -0.003376628   -0.012769317    0.014682283
      9        1           0.004093784   -0.000776934   -0.000568195
     10        1           0.003422586    0.000693587   -0.001595797
     11        1           0.001621359    0.000260770    0.000508834
     12        1           0.003019590    0.001753780    0.000188426
     13        1          -0.004198865   -0.003214338    0.006360312
 -------------------------------------------------------------------
 Cartesian Forces:  Max     0.046782206 RMS     0.017305967

 GradGradGradGradGradGradGradGradGradGradGradGradGradGradGradGradGradGrad
 Berny optimization.
 FormGI is forming the generalized inverse of G from B-inverse, IUseBI=4.
 Internal  Forces:  Max     0.055842884 RMS     0.012008266
 Search for a local minimum.
 Step number   1 out of a maximum of   65
 All quantities printed in internal units (Hartrees-Bohrs-Radians)
 Mixed Optimization -- RFO/linear search
 Second derivative matrix not updated -- first step.
 ITU=  0
     Eigenvalues ---    0.00335   0.01176   0.02274   0.02543   0.02771
     Eigenvalues ---    0.02908   0.05410   0.05534   0.05568   0.06507
     Eigenvalues ---    0.08656   0.16000   0.16000   0.16000   0.16000
     Eigenvalues ---    0.19232   0.21213   0.23039   0.24984   0.25000
     Eigenvalues ---    0.29188   0.33272   0.34036   0.34082   0.34180
     Eigenvalues ---    0.34184   0.37584   0.38763   0.53382   0.53959
     Eigenvalues ---    0.69626   0.88929   0.92788
 RFO step:  Lambda=-1.66846160D-02 EMin= 3.35240753D-03
 Linear search not attempted -- first point.
 Iteration  1 RMS(Cart)=  0.03341419 RMS(Int)=  0.00079429
 Iteration  2 RMS(Cart)=  0.00101817 RMS(Int)=  0.00036018
 Iteration  3 RMS(Cart)=  0.00000046 RMS(Int)=  0.00036018
 Variable       Old X    -DE/DX   Delta X   Delta X   Delta X     New X
                                 (Linear)    (Quad)   (Total)
    R1        2.89612   0.00420   0.00000   0.01361   0.01361   2.90973
    R2        2.07027  -0.00234   0.00000  -0.00653  -0.00653   2.06373
    R3        2.07021  -0.00255   0.00000  -0.00711  -0.00711   2.06310
    R4        2.07191  -0.00114   0.00000  -0.00318  -0.00318   2.06873
    R5        2.73695   0.01934   0.00000   0.04484   0.04490   2.78185
    R6        2.72584   0.02594   0.00000   0.06012   0.06021   2.78606
    R7        2.07269   0.00125   0.00000   0.00350   0.00350   2.07619
    R8        2.32078   0.01935   0.00000   0.02037   0.02036   2.34114
    R9        2.55493   0.05584   0.00000   0.10109   0.10101   2.65593
   R10        2.42879   0.00167   0.00000   0.00436   0.00427   2.43306
   R11        2.08577  -0.00826   0.00000  -0.02364  -0.02364   2.06212
   R12        2.55109   0.04642   0.00000   0.08357   0.08354   2.63463
   R13        2.31263   0.02275   0.00000   0.02350   0.02355   2.33618
    A1        1.94895  -0.00407   0.00000  -0.02361  -0.02375   1.92519
    A2        1.93994  -0.00286   0.00000  -0.01632  -0.01645   1.92349
    A3        1.92662  -0.00042   0.00000  -0.00168  -0.00170   1.92492
    A4        1.88867   0.00356   0.00000   0.01886   0.01863   1.90730
    A5        1.87957   0.00238   0.00000   0.01371   0.01367   1.89324
    A6        1.87747   0.00185   0.00000   0.01155   0.01154   1.88901
    A7        1.85103  -0.00282   0.00000   0.00334   0.00250   1.85353
    A8        1.85083  -0.00281   0.00000   0.00497   0.00395   1.85478
    A9        1.86969   0.00270   0.00000   0.00515   0.00507   1.87476
   A10        2.17701   0.00982   0.00000   0.05177   0.05159   2.22860
   A11        1.84629  -0.00422   0.00000  -0.04183  -0.04150   1.80479
   A12        1.85138  -0.00301   0.00000  -0.02729  -0.02678   1.82460
   A13        2.24643  -0.00727   0.00000  -0.04164  -0.04172   2.20471
   A14        2.19623  -0.00235   0.00000  -0.01022  -0.01050   2.18573
   A15        2.35470   0.00492   0.00000   0.02769   0.02743   2.38213
   A16        1.94472  -0.00283   0.00000  -0.01594  -0.01582   1.92890
   A17        1.98376  -0.00209   0.00000  -0.01177  -0.01165   1.97211
   A18        2.22465   0.00143   0.00000   0.01498   0.01467   2.23932
   A19        2.23640  -0.01287   0.00000  -0.04988  -0.04994   2.18646
   A20        2.27106   0.00639   0.00000   0.00951   0.00960   2.28066
    D1       -0.79740   0.00413   0.00000   0.02709   0.02712  -0.77028
    D2        3.14002  -0.00425   0.00000  -0.04308  -0.04299   3.09704
    D3        1.16846  -0.00075   0.00000  -0.01662  -0.01659   1.15187
    D4       -2.90839   0.00438   0.00000   0.03061   0.03054  -2.87785
    D5        1.02904  -0.00400   0.00000  -0.03956  -0.03957   0.98947
    D6       -0.94252  -0.00050   0.00000  -0.01309  -0.01317  -0.95570
    D7        1.29294   0.00417   0.00000   0.02777   0.02775   1.32069
    D8       -1.05282  -0.00420   0.00000  -0.04240  -0.04235  -1.09517
    D9       -3.02438  -0.00070   0.00000  -0.01594  -0.01596  -3.04034
   D10       -2.21977   0.00036   0.00000  -0.00226  -0.00276  -2.22254
   D11       -0.06721   0.00125   0.00000   0.04983   0.05043  -0.01678
   D12        2.08134   0.00038   0.00000   0.00878   0.00825   2.08959
   D13        2.18396   0.00014   0.00000   0.01626   0.01641   2.20037
   D14        0.03131  -0.00075   0.00000  -0.03511  -0.03620  -0.00489
   D15       -2.11500   0.00063   0.00000   0.01224   0.01213  -2.10287
   D16        0.06025  -0.00204   0.00000  -0.05117  -0.05054   0.00972
   D17       -0.02243   0.00139   0.00000   0.02843   0.02910   0.00667
   D18        3.11562   0.00085   0.00000   0.02045   0.02102   3.13665
   D19       -0.00072  -0.00015   0.00000  -0.00066  -0.00020  -0.00092
   D20       -3.13871   0.00039   0.00000   0.00745   0.00801  -3.13070
   D21       -0.00599  -0.00094   0.00000  -0.01685  -0.01672  -0.02271
   D22        0.00170   0.00121   0.00000   0.02640   0.02556   0.02726
         Item               Value     Threshold  Converged?
 Maximum Force            0.055843     0.000450     NO 
 RMS     Force            0.012008     0.000300     NO 
 Maximum Displacement     0.118747     0.001800     NO 
 RMS     Displacement     0.033357     0.001200     NO 
 Predicted change in Energy=-8.808730D-03
 GradGradGradGradGradGradGradGradGradGradGradGradGradGradGradGradGradGrad

                          Input orientation:                          
 ---------------------------------------------------------------------
 Center     Atomic      Atomic             Coordinates (Angstroms)
 Number     Number       Type             X           Y           Z
 ---------------------------------------------------------------------
      1          6           0        0.952505   -0.014116    0.077102
      2          6           0        2.488377    0.009247   -0.029786
      3          7           0        2.842754    1.334354   -0.564166
      4          7           0        3.558877    1.560686   -1.549437
      5          6           0        4.163387    0.580243   -2.354806
      6          7           0        4.202178   -0.706237   -2.388994
      7          7           0        3.580296   -1.612638   -1.531405
      8          7           0        2.886064   -1.309978   -0.554285
      9          1           0        0.588061    0.922451    0.504489
     10          1           0        0.630858   -0.846585    0.705949
     11          1           0        0.504882   -0.140582   -0.913889
     12          1           0        2.888889    0.031620    0.993038
     13          1           0        4.736593    1.045486   -3.158401
 ---------------------------------------------------------------------
                    Distance matrix (angstroms):
                    1          2          3          4          5
     1  C    0.000000
     2  C    1.539764   0.000000
     3  N    2.408867   1.472091   0.000000
     4  N    3.452363   2.421213   1.238878   0.000000
     5  C    4.071511   2.921885   2.349286   1.405460   0.000000
     6  N    4.137757   3.002481   3.056475   2.501525   1.287519
     7  N    3.471002   2.465291   3.188147   3.173448   2.413859
     8  N    2.411754   1.474317   2.644705   3.111867   2.906263
     9  H    1.092080   2.174992   2.528899   3.667657   4.590820
    10  H    1.091745   2.173506   3.355915   4.410784   4.887005
    11  H    1.094726   2.176773   2.786286   3.553185   3.997561
    12  H    2.142572   1.098671   2.030795   3.041563   3.624002
    13  H    5.090242   3.989548   3.224922   2.059419   1.091229
                    6          7          8          9         10
     6  N    0.000000
     7  N    1.394188   0.000000
     8  N    2.337267   1.236254   0.000000
     9  H    4.907821   4.418711   3.374250   0.000000
    10  H    4.727863   3.780446   2.624667   1.780985   0.000000
    11  H    4.020684   3.465032   2.677094   1.774473   1.771492
    12  H    3.702337   3.091025   2.047951   2.515168   2.439747
    13  H    1.986484   3.324119   3.969142   5.535541   5.947284
                   11         12         13
    11  H    0.000000
    12  H    3.057698   0.000000
    13  H    4.934772   4.655789   0.000000
 Stoichiometry    C3H5N5
 Framework group  C1[X(C3H5N5)]
 Deg. of freedom    33
 Full point group                 C1      NOp   1
 Largest Abelian subgroup         C1      NOp   1
 Largest concise Abelian subgroup C1      NOp   1
                         Standard orientation:                         
 ---------------------------------------------------------------------
 Center     Atomic      Atomic             Coordinates (Angstroms)
 Number     Number       Type             X           Y           Z
 ---------------------------------------------------------------------
      1          6           0       -2.296041    0.013451    0.509962
      2          6           0       -1.076720   -0.008832   -0.430057
      3          7           0       -0.466278   -1.339889   -0.279393
      4          7           0        0.721754   -1.577267   -0.020455
      5          6           0        1.715383   -0.605914    0.190478
      6          7           0        1.776146    0.680104    0.203518
      7          7           0        0.748141    1.596067   -0.015522
      8          7           0       -0.421833    1.304428   -0.288339
      9          1           0       -2.858902   -0.918329    0.422723
     10          1           0       -2.948190    0.853127    0.261865
     11          1           0       -1.971975    0.126953    1.549444
     12          1           0       -1.456416   -0.017929   -1.460992
     13          1           0        2.674247   -1.080161    0.406000
 ---------------------------------------------------------------------
 Rotational constants (GHZ):           3.4475943           2.2876402           1.4848666
 Standard basis: 6-31G(2df,p) (6D, 7F)
 There are   273 symmetry adapted cartesian basis functions of A   symmetry.
 There are   249 symmetry adapted basis functions of A   symmetry.
   249 basis functions,   387 primitive gaussians,   273 cartesian basis functions
    29 alpha electrons       29 beta electrons
       nuclear repulsion energy       356.9202997109 Hartrees.
 NAtoms=   13 NActive=   13 NUniq=   13 SFac= 1.00D+00 NAtFMM=   60 NAOKFM=F Big=F
 Integral buffers will be    131072 words long.
 Raffenetti 2 integral format.
 Two-electron integral symmetry is turned on.
 One-electron integrals computed using PRISM.
 PrsmSu:  requested number of processors reduced to:  13 ShMem   1 Linda.
 NBasis=   249 RedAO= T EigKep=  1.87D-04  NBF=   249
 NBsUse=   249 1.00D-06 EigRej= -1.00D+00 NBFU=   249
 Initial guess from the checkpoint file:  "CC1NdNCdNNdN1.chk"
 B after Tr=     0.000000   -0.000000    0.000000
         Rot=    0.999941    0.001387    0.000824    0.010758 Ang=   1.25 deg.
 ExpMin= 1.61D-01 ExpMax= 4.17D+03 ExpMxC= 6.27D+02 IAcc=2 IRadAn=         4 AccDes= 0.00D+00
 Harris functional with IExCor=  402 and IRadAn=       4 diagonalized for initial guess.
 HarFok:  IExCor=  402 AccDes= 0.00D+00 IRadAn=         4 IDoV= 1 UseB2=F ITyADJ=14
 ICtDFT=  3500011 ScaDFX=  1.000000  1.000000  1.000000  1.000000
 FoFCou: FMM=F IPFlag=           0 FMFlag=      100000 FMFlg1=           0
         NFxFlg=           0 DoJE=T BraDBF=F KetDBF=T FulRan=T
         wScrn=  0.000000 ICntrl=       500 IOpCl=  0 I1Cent=   200000004 NGrid=           0
         NMat0=    1 NMatS0=      1 NMatT0=    0 NMatD0=    1 NMtDS0=    0 NMtDT0=    0
 Petite list used in FoFCou.
 Requested convergence on RMS density matrix=1.00D-08 within 128 cycles.
 Requested convergence on MAX density matrix=1.00D-06.
 Requested convergence on             energy=1.00D-06.
 No special actions if energy rises.
 Integral accuracy reduced to 1.0D-05 until final iterations.
 Initial convergence to 1.0D-05 achieved.  Increase integral accuracy.
 SCF Done:  E(RB3LYP) =  -390.910351203     A.U. after   15 cycles
            NFock= 15  Conv=0.44D-08     -V/T= 2.0070
 PrsmSu:  requested number of processors reduced to:  13 ShMem   1 Linda.
 Calling FoFJK, ICntrl=      2127 FMM=F ISym2X=0 I1Cent= 0 IOpClX= 0 NMat=1 NMatS=1 NMatT=0.
 ***** Axes restored to original set *****
 -------------------------------------------------------------------
 Center     Atomic                   Forces (Hartrees/Bohr)
 Number     Number              X              Y              Z
 -------------------------------------------------------------------
      1        6          -0.002379849   -0.001236678   -0.000977762
      2        6          -0.004336267    0.000149309    0.000967512
      3        7           0.005095998    0.003870539   -0.001423138
      4        7          -0.009087267    0.016692672    0.008666645
      5        6           0.005509508   -0.025129611   -0.009314671
      6        7           0.009379962    0.019758810   -0.012597210
      7        7          -0.011081817   -0.010551018    0.014283673
      8        7           0.003269036   -0.005350399   -0.001091806
      9        1           0.001445371    0.000052602    0.000010978
     10        1           0.000986799   -0.000165627   -0.000449911
     11        1           0.000602453    0.000352729    0.000103224
     12        1           0.000761330   -0.000416935   -0.000057369
     13        1          -0.000165256    0.001973606    0.001879834
 -------------------------------------------------------------------
 Cartesian Forces:  Max     0.025129611 RMS     0.007817774

 GradGradGradGradGradGradGradGradGradGradGradGradGradGradGradGradGradGrad
 Berny optimization.
 Using GEDIIS/GDIIS optimizer.
 FormGI is forming the generalized inverse of G from B-inverse, IUseBI=4.
 Internal  Forces:  Max     0.018741302 RMS     0.003959025
 Search for a local minimum.
 Step number   2 out of a maximum of   65
 All quantities printed in internal units (Hartrees-Bohrs-Radians)
 Mixed Optimization -- RFO/linear search
 Update second derivatives using D2CorX and points    1    2
 DE= -1.03D-02 DEPred=-8.81D-03 R= 1.16D+00
 TightC=F SS=  1.41D+00  RLast= 2.34D-01 DXNew= 5.0454D-01 7.0132D-01
 Trust test= 1.16D+00 RLast= 2.34D-01 DXMaxT set to 5.05D-01
 ITU=  1  0
 Use linear search instead of GDIIS.
     Eigenvalues ---    0.00335   0.01164   0.02247   0.02531   0.02779
     Eigenvalues ---    0.02927   0.05229   0.05614   0.05660   0.06584
     Eigenvalues ---    0.08677   0.15576   0.16000   0.16000   0.16088
     Eigenvalues ---    0.19104   0.21693   0.22656   0.24926   0.25912
     Eigenvalues ---    0.29286   0.33274   0.34016   0.34059   0.34140
     Eigenvalues ---    0.34182   0.35280   0.39030   0.41890   0.54011
     Eigenvalues ---    0.70250   0.89122   0.96951
 RFO step:  Lambda=-1.88217327D-03 EMin= 3.35154505D-03
 Quartic linear search produced a step of  0.39426.
 Iteration  1 RMS(Cart)=  0.03815700 RMS(Int)=  0.00095985
 Iteration  2 RMS(Cart)=  0.00104909 RMS(Int)=  0.00028670
 Iteration  3 RMS(Cart)=  0.00000065 RMS(Int)=  0.00028670
 Variable       Old X    -DE/DX   Delta X   Delta X   Delta X     New X
                                 (Linear)    (Quad)   (Total)
    R1        2.90973  -0.00073   0.00537  -0.00723  -0.00186   2.90787
    R2        2.06373  -0.00043  -0.00258   0.00008  -0.00250   2.06123
    R3        2.06310  -0.00042  -0.00280   0.00028  -0.00252   2.06057
    R4        2.06873  -0.00038  -0.00125  -0.00065  -0.00190   2.06683
    R5        2.78185   0.00582   0.01770   0.00704   0.02461   2.80646
    R6        2.78606   0.00363   0.02374  -0.00548   0.01815   2.80421
    R7        2.07619   0.00022   0.00138  -0.00010   0.00127   2.07746
    R8        2.34114  -0.00189   0.00803  -0.00889  -0.00092   2.34022
    R9        2.65593   0.01772   0.03982   0.01668   0.05658   2.71251
   R10        2.43306  -0.00811   0.00168  -0.01626  -0.01444   2.41862
   R11        2.06212  -0.00063  -0.00932   0.00400  -0.00532   2.05681
   R12        2.63463   0.01874   0.03294   0.02383   0.05688   2.69152
   R13        2.33618  -0.00348   0.00929  -0.01217  -0.00288   2.33330
    A1        1.92519  -0.00170  -0.00936  -0.00933  -0.01883   1.90636
    A2        1.92349  -0.00088  -0.00648  -0.00275  -0.00934   1.91415
    A3        1.92492  -0.00022  -0.00067  -0.00101  -0.00171   1.92321
    A4        1.90730   0.00130   0.00735   0.00559   0.01273   1.92004
    A5        1.89324   0.00090   0.00539   0.00327   0.00860   1.90184
    A6        1.88901   0.00069   0.00455   0.00466   0.00921   1.89821
    A7        1.85353  -0.00027   0.00098   0.00357   0.00424   1.85777
    A8        1.85478  -0.00158   0.00156  -0.00772  -0.00646   1.84832
    A9        1.87476   0.00132   0.00200   0.01043   0.01230   1.88706
   A10        2.22860   0.00221   0.02034   0.00166   0.02153   2.25014
   A11        1.80479  -0.00056  -0.01636   0.00541  -0.01065   1.79413
   A12        1.82460  -0.00097  -0.01056  -0.01071  -0.02092   1.80367
   A13        2.20471   0.00138  -0.01645   0.01398  -0.00318   2.20152
   A14        2.18573  -0.00357  -0.00414  -0.01693  -0.02149   2.16424
   A15        2.38213   0.00245   0.01081   0.01098   0.02128   2.40341
   A16        1.92890  -0.00376  -0.00624  -0.02654  -0.03320   1.89570
   A17        1.97211   0.00132  -0.00459   0.01610   0.01108   1.98319
   A18        2.23932  -0.00200   0.00578  -0.01125  -0.00547   2.23385
   A19        2.18646   0.00002  -0.01969   0.01320  -0.00671   2.17975
   A20        2.28066  -0.00048   0.00378  -0.01079  -0.00755   2.27310
    D1       -0.77028   0.00038   0.01069  -0.05977  -0.04921  -0.81949
    D2        3.09704  -0.00106  -0.01695  -0.05874  -0.07550   3.02154
    D3        1.15187   0.00019  -0.00654  -0.04765  -0.05413   1.09775
    D4       -2.87785   0.00044   0.01204  -0.05891  -0.04709  -2.92495
    D5        0.98947  -0.00100  -0.01560  -0.05787  -0.07338   0.91608
    D6       -0.95570   0.00025  -0.00519  -0.04679  -0.05201  -1.00770
    D7        1.32069   0.00028   0.01094  -0.06231  -0.05152   1.26917
    D8       -1.09517  -0.00116  -0.01670  -0.06128  -0.07781  -1.17298
    D9       -3.04034   0.00008  -0.00629  -0.05019  -0.05644  -3.09677
   D10       -2.22254   0.00138  -0.00109   0.07555   0.07426  -2.14827
   D11       -0.01678   0.00064   0.01988   0.06918   0.08970   0.07293
   D12        2.08959   0.00025   0.00325   0.06037   0.06347   2.15307
   D13        2.20037  -0.00057   0.00647  -0.04821  -0.04159   2.15878
   D14       -0.00489  -0.00035  -0.01427  -0.04631  -0.06111  -0.06600
   D15       -2.10287  -0.00016   0.00478  -0.04431  -0.03929  -2.14216
   D16        0.00972  -0.00045  -0.01992  -0.03428  -0.05357  -0.04385
   D17        0.00667  -0.00015   0.01147  -0.01789  -0.00581   0.00085
   D18        3.13665   0.00109   0.00829   0.04810   0.05629  -3.09025
   D19       -0.00092   0.00040  -0.00008   0.02420   0.02436   0.02344
   D20       -3.13070  -0.00083   0.00316  -0.04275  -0.03968   3.11281
   D21       -0.02271  -0.00015  -0.00659   0.00474  -0.00212  -0.02483
   D22        0.02726   0.00003   0.01008   0.00159   0.01126   0.03852
         Item               Value     Threshold  Converged?
 Maximum Force            0.018741     0.000450     NO 
 RMS     Force            0.003959     0.000300     NO 
 Maximum Displacement     0.131657     0.001800     NO 
 RMS     Displacement     0.038223     0.001200     NO 
 Predicted change in Energy=-1.540607D-03
 GradGradGradGradGradGradGradGradGradGradGradGradGradGradGradGradGradGrad

                          Input orientation:                          
 ---------------------------------------------------------------------
 Center     Atomic      Atomic             Coordinates (Angstroms)
 Number     Number       Type             X           Y           Z
 ---------------------------------------------------------------------
      1          6           0        0.957635   -0.013660    0.058032
      2          6           0        2.494186    0.016383   -0.019107
      3          7           0        2.862686    1.356480   -0.542468
      4          7           0        3.538842    1.584629   -1.554578
      5          6           0        4.129287    0.563459   -2.372477
      6          7           0        4.189844   -0.714799   -2.394294
      7          7           0        3.581952   -1.636748   -1.494807
      8          7           0        2.902713   -1.322010   -0.512908
      9          1           0        0.603765    0.903085    0.531434
     10          1           0        0.635996   -0.880361    0.636279
     11          1           0        0.530497   -0.082793   -0.946454
     12          1           0        2.887676    0.039142    1.007153
     13          1           0        4.708641    1.041143   -3.160395
 ---------------------------------------------------------------------
                    Distance matrix (angstroms):
                    1          2          3          4          5
     1  C    0.000000
     2  C    1.538779   0.000000
     3  N    2.422210   1.485113   0.000000
     4  N    3.437684   2.430715   1.238388   0.000000
     5  C    4.037304   2.917397   2.362645   1.435400   0.000000
     6  N    4.117363   3.008554   3.079091   2.533041   1.279878
     7  N    3.454383   2.468555   3.222376   3.222220   2.431212
     8  N    2.412691   1.483923   2.678952   3.152505   2.918472
     9  H    1.090759   2.159405   2.541959   3.664782   4.580104
    10  H    1.090409   2.164844   3.369132   4.393467   4.831182
    11  H    1.093718   2.173910   2.770166   3.492887   3.924599
    12  H    2.151435   1.099345   2.034043   3.061865   3.638463
    13  H    5.053804   3.977642   3.218778   2.059722   1.088415
                    6          7          8          9         10
     6  N    0.000000
     7  N    1.424289   0.000000
     8  N    2.359031   1.234727   0.000000
     9  H    4.902795   4.407494   3.365540   0.000000
    10  H    4.673502   3.713799   2.579474   1.786816   0.000000
    11  H    3.985787   3.467974   2.711278   1.778054   1.775469
    12  H    3.719397   3.090377   2.040476   2.487761   2.460303
    13  H    1.984790   3.348837   3.981841   5.522560   5.890106
                   11         12         13
    11  H    0.000000
    12  H    3.063942   0.000000
    13  H    4.860212   4.657079   0.000000
 Stoichiometry    C3H5N5
 Framework group  C1[X(C3H5N5)]
 Deg. of freedom    33
 Full point group                 C1      NOp   1
 Largest Abelian subgroup         C1      NOp   1
 Largest concise Abelian subgroup C1      NOp   1
                         Standard orientation:                         
 ---------------------------------------------------------------------
 Center     Atomic      Atomic             Coordinates (Angstroms)
 Number     Number       Type             X           Y           Z
 ---------------------------------------------------------------------
      1          6           0       -2.270046    0.014872    0.541350
      2          6           0       -1.076967   -0.008015   -0.430185
      3          7           0       -0.467511   -1.357471   -0.315765
      4          7           0        0.709663   -1.604577   -0.021137
      5          6           0        1.706769   -0.598801    0.212458
      6          7           0        1.780251    0.678963    0.214616
      7          7           0        0.736696    1.617523   -0.027665
      8          7           0       -0.428452    1.321187   -0.309033
      9          1           0       -2.859717   -0.892944    0.407510
     10          1           0       -2.886546    0.892577    0.344998
     11          1           0       -1.914588    0.058753    1.574764
     12          1           0       -1.471494   -0.005236   -1.456294
     13          1           0        2.659291   -1.090854    0.400161
 ---------------------------------------------------------------------
 Rotational constants (GHZ):           3.3447822           2.3022181           1.4813224
 Standard basis: 6-31G(2df,p) (6D, 7F)
 There are   273 symmetry adapted cartesian basis functions of A   symmetry.
 There are   249 symmetry adapted basis functions of A   symmetry.
   249 basis functions,   387 primitive gaussians,   273 cartesian basis functions
    29 alpha electrons       29 beta electrons
       nuclear repulsion energy       355.3464566732 Hartrees.
 NAtoms=   13 NActive=   13 NUniq=   13 SFac= 1.00D+00 NAtFMM=   60 NAOKFM=F Big=F
 Integral buffers will be    131072 words long.
 Raffenetti 2 integral format.
 Two-electron integral symmetry is turned on.
 One-electron integrals computed using PRISM.
 PrsmSu:  requested number of processors reduced to:  13 ShMem   1 Linda.
 NBasis=   249 RedAO= T EigKep=  1.93D-04  NBF=   249
 NBsUse=   249 1.00D-06 EigRej= -1.00D+00 NBFU=   249
 Initial guess from the checkpoint file:  "CC1NdNCdNNdN1.chk"
 B after Tr=    -0.000000   -0.000000   -0.000000
         Rot=    0.999998   -0.001216   -0.001743    0.000460 Ang=  -0.25 deg.
 ExpMin= 1.61D-01 ExpMax= 4.17D+03 ExpMxC= 6.27D+02 IAcc=2 IRadAn=         4 AccDes= 0.00D+00
 Harris functional with IExCor=  402 and IRadAn=       4 diagonalized for initial guess.
 HarFok:  IExCor=  402 AccDes= 0.00D+00 IRadAn=         4 IDoV= 1 UseB2=F ITyADJ=14
 ICtDFT=  3500011 ScaDFX=  1.000000  1.000000  1.000000  1.000000
 FoFCou: FMM=F IPFlag=           0 FMFlag=      100000 FMFlg1=           0
         NFxFlg=           0 DoJE=T BraDBF=F KetDBF=T FulRan=T
         wScrn=  0.000000 ICntrl=       500 IOpCl=  0 I1Cent=   200000004 NGrid=           0
         NMat0=    1 NMatS0=      1 NMatT0=    0 NMatD0=    1 NMtDS0=    0 NMtDT0=    0
 Petite list used in FoFCou.
 Requested convergence on RMS density matrix=1.00D-08 within 128 cycles.
 Requested convergence on MAX density matrix=1.00D-06.
 Requested convergence on             energy=1.00D-06.
 No special actions if energy rises.
 Integral accuracy reduced to 1.0D-05 until final iterations.
 Initial convergence to 1.0D-05 achieved.  Increase integral accuracy.
 SCF Done:  E(RB3LYP) =  -390.912392297     A.U. after   15 cycles
            NFock= 15  Conv=0.38D-08     -V/T= 2.0072
 PrsmSu:  requested number of processors reduced to:  13 ShMem   1 Linda.
 Calling FoFJK, ICntrl=      2127 FMM=F ISym2X=0 I1Cent= 0 IOpClX= 0 NMat=1 NMatS=1 NMatT=0.
 ***** Axes restored to original set *****
 -------------------------------------------------------------------
 Center     Atomic                   Forces (Hartrees/Bohr)
 Number     Number              X              Y              Z
 -------------------------------------------------------------------
      1        6           0.001761105    0.001069724   -0.000881964
      2        6          -0.002079500   -0.000538249    0.000718358
      3        7           0.003550673   -0.002139024   -0.002634010
      4        7          -0.004759226    0.002593832    0.005412483
      5        6           0.002552192   -0.008032082   -0.001758262
      6        7           0.001503205    0.007178112   -0.003550273
      7        7          -0.006792715   -0.002679824    0.008480581
      8        7           0.006196316    0.000843350   -0.004477260
      9        1          -0.000944404    0.000131113    0.000206569
     10        1          -0.000154624   -0.000195754    0.000148220
     11        1          -0.000108070    0.000216030   -0.000049726
     12        1          -0.000976072   -0.000081291   -0.000135859
     13        1           0.000251121    0.001634063   -0.001478858
 -------------------------------------------------------------------
 Cartesian Forces:  Max     0.008480581 RMS     0.003300526

 GradGradGradGradGradGradGradGradGradGradGradGradGradGradGradGradGradGrad
 Berny optimization.
 Using GEDIIS/GDIIS optimizer.
 FormGI is forming the generalized inverse of G from B-inverse, IUseBI=4.
 Internal  Forces:  Max     0.006132615 RMS     0.001656839
 Search for a local minimum.
 Step number   3 out of a maximum of   65
 All quantities printed in internal units (Hartrees-Bohrs-Radians)
 Mixed Optimization -- RFO/linear search
 Update second derivatives using D2CorX and points    1    2    3
 DE= -2.04D-03 DEPred=-1.54D-03 R= 1.32D+00
 TightC=F SS=  1.41D+00  RLast= 2.80D-01 DXNew= 8.4853D-01 8.3858D-01
 Trust test= 1.32D+00 RLast= 2.80D-01 DXMaxT set to 8.39D-01
 ITU=  1  1  0
 Use linear search instead of GDIIS.
     Eigenvalues ---    0.00326   0.00948   0.02240   0.02588   0.02778
     Eigenvalues ---    0.02989   0.05060   0.05723   0.05765   0.06589
     Eigenvalues ---    0.08655   0.15313   0.16000   0.16031   0.16192
     Eigenvalues ---    0.20000   0.21848   0.22919   0.24849   0.25996
     Eigenvalues ---    0.29253   0.31446   0.33688   0.34074   0.34098
     Eigenvalues ---    0.34193   0.34238   0.38832   0.39908   0.54105
     Eigenvalues ---    0.70111   0.89197   1.00168
 RFO step:  Lambda=-9.19313837D-04 EMin= 3.26344419D-03
 Quartic linear search produced a step of  0.28996.
 Iteration  1 RMS(Cart)=  0.05948796 RMS(Int)=  0.00145490
 Iteration  2 RMS(Cart)=  0.00225772 RMS(Int)=  0.00035598
 Iteration  3 RMS(Cart)=  0.00000094 RMS(Int)=  0.00035598
 Variable       Old X    -DE/DX   Delta X   Delta X   Delta X     New X
                                 (Linear)    (Quad)   (Total)
    R1        2.90787  -0.00060  -0.00054  -0.00132  -0.00186   2.90601
    R2        2.06123   0.00051  -0.00072   0.00141   0.00068   2.06192
    R3        2.06057   0.00028  -0.00073   0.00054  -0.00019   2.06038
    R4        2.06683   0.00007  -0.00055   0.00010  -0.00045   2.06638
    R5        2.80646  -0.00189   0.00714  -0.00389   0.00295   2.80941
    R6        2.80421  -0.00098   0.00526   0.00062   0.00560   2.80981
    R7        2.07746  -0.00048   0.00037  -0.00150  -0.00114   2.07633
    R8        2.34022  -0.00378  -0.00027  -0.00346  -0.00380   2.33641
    R9        2.71251   0.00427   0.01641   0.01524   0.03186   2.74437
   R10        2.41862  -0.00373  -0.00419  -0.00518  -0.00905   2.40957
   R11        2.05681   0.00192  -0.00154   0.00542   0.00388   2.06068
   R12        2.69152   0.00586   0.01649   0.01724   0.03396   2.72547
   R13        2.33330  -0.00613  -0.00084  -0.00616  -0.00706   2.32624
    A1        1.90636   0.00120  -0.00546   0.00845   0.00297   1.90933
    A2        1.91415  -0.00010  -0.00271  -0.00203  -0.00475   1.90940
    A3        1.92321  -0.00009  -0.00050  -0.00109  -0.00160   1.92161
    A4        1.92004  -0.00050   0.00369  -0.00223   0.00143   1.92147
    A5        1.90184  -0.00052   0.00249  -0.00272  -0.00024   1.90160
    A6        1.89821  -0.00000   0.00267  -0.00046   0.00220   1.90042
    A7        1.85777  -0.00069   0.00123  -0.00575  -0.00421   1.85356
    A8        1.84832   0.00138  -0.00187   0.00666   0.00510   1.85342
    A9        1.88706  -0.00009   0.00357   0.00232   0.00576   1.89282
   A10        2.25014  -0.00109   0.00624  -0.00756  -0.00215   2.24799
   A11        1.79413   0.00058  -0.00309   0.00320   0.00029   1.79442
   A12        1.80367  -0.00002  -0.00607   0.00276  -0.00316   1.80052
   A13        2.20152   0.00146  -0.00092   0.00329   0.00091   2.20243
   A14        2.16424   0.00017  -0.00623   0.00187  -0.00510   2.15914
   A15        2.40341  -0.00132   0.00617  -0.00449   0.00148   2.40489
   A16        1.89570  -0.00024  -0.00963  -0.00338  -0.01311   1.88259
   A17        1.98319   0.00158   0.00321   0.00885   0.01196   1.99514
   A18        2.23385  -0.00098  -0.00159  -0.00166  -0.00326   2.23059
   A19        2.17975   0.00005  -0.00195  -0.00342  -0.00601   2.17374
   A20        2.27310   0.00168  -0.00219   0.00856   0.00500   2.27811
    D1       -0.81949  -0.00045  -0.01427  -0.02601  -0.04055  -0.86005
    D2        3.02154   0.00042  -0.02189  -0.01685  -0.03846   2.98308
    D3        1.09775  -0.00014  -0.01569  -0.02398  -0.03967   1.05807
    D4       -2.92495  -0.00052  -0.01366  -0.02728  -0.04122  -2.96616
    D5        0.91608   0.00035  -0.02128  -0.01812  -0.03912   0.87696
    D6       -1.00770  -0.00021  -0.01508  -0.02525  -0.04034  -1.04804
    D7        1.26917  -0.00040  -0.01494  -0.02476  -0.03998   1.22919
    D8       -1.17298   0.00047  -0.02256  -0.01560  -0.03788  -1.21086
    D9       -3.09677  -0.00009  -0.01636  -0.02273  -0.03910  -3.13587
   D10       -2.14827   0.00063   0.02153   0.08895   0.11042  -2.03785
   D11        0.07293   0.00094   0.02601   0.08516   0.11136   0.18428
   D12        2.15307   0.00075   0.01841   0.08720   0.10551   2.25858
   D13        2.15878  -0.00123  -0.01206  -0.09058  -0.10257   2.05621
   D14       -0.06600  -0.00076  -0.01772  -0.08212  -0.09996  -0.16597
   D15       -2.14216  -0.00082  -0.01139  -0.08431  -0.09554  -2.23770
   D16       -0.04385  -0.00031  -0.01553  -0.02236  -0.03773  -0.08158
   D17        0.00085  -0.00023  -0.00169  -0.01750  -0.01908  -0.01823
   D18       -3.09025  -0.00085   0.01632  -0.04577  -0.02949  -3.11974
   D19        0.02344  -0.00020   0.00706  -0.01302  -0.00595   0.01749
   D20        3.11281   0.00040  -0.01150   0.01596   0.00442   3.11723
   D21       -0.02483   0.00064  -0.00062   0.04023   0.03951   0.01467
   D22        0.03852  -0.00013   0.00327   0.00733   0.01054   0.04906
         Item               Value     Threshold  Converged?
 Maximum Force            0.006133     0.000450     NO 
 RMS     Force            0.001657     0.000300     NO 
 Maximum Displacement     0.190310     0.001800     NO 
 RMS     Displacement     0.060072     0.001200     NO 
 Predicted change in Energy=-5.653892D-04
 GradGradGradGradGradGradGradGradGradGradGradGradGradGradGradGradGradGrad

                          Input orientation:                          
 ---------------------------------------------------------------------
 Center     Atomic      Atomic             Coordinates (Angstroms)
 Number     Number       Type             X           Y           Z
 ---------------------------------------------------------------------
      1          6           0        0.977378   -0.005861    0.021747
      2          6           0        2.515017    0.015857    0.018967
      3          7           0        2.910002    1.356440   -0.488008
      4          7           0        3.540049    1.587722   -1.526362
      5          6           0        4.087901    0.551957   -2.384329
      6          7           0        4.148372   -0.721494   -2.407004
      7          7           0        3.592979   -1.650027   -1.453339
      8          7           0        2.947796   -1.324767   -0.456702
      9          1           0        0.603161    0.893337    0.513627
     10          1           0        0.628676   -0.894050    0.549289
     11          1           0        0.600073   -0.032626   -1.004226
     12          1           0        2.864383    0.036582    1.060482
     13          1           0        4.607933    1.040879   -3.208730
 ---------------------------------------------------------------------
                    Distance matrix (angstroms):
                    1          2          3          4          5
     1  C    0.000000
     2  C    1.537795   0.000000
     3  N    2.418833   1.486675   0.000000
     4  N    3.391670   2.430944   1.236377   0.000000
     5  C    3.971865   2.921848   2.372903   1.452260   0.000000
     6  N    4.057852   3.016101   3.087704   2.545204   1.275088
     7  N    3.423525   2.470800   3.230660   3.239004   2.441398
     8  N    2.418878   1.486886   2.681656   3.158722   2.921931
     9  H    1.091119   2.160985   2.557197   3.642668   4.545118
    10  H    1.090309   2.160429   3.368255   4.352426   4.760598
    11  H    1.093479   2.171701   2.744405   3.397295   3.796231
    12  H    2.154428   1.098745   2.035173   3.091006   3.691792
    13  H    4.971175   3.981080   3.222557   2.066344   1.090466
                    6          7          8          9         10
     6  N    0.000000
     7  N    1.442259   0.000000
     8  N    2.368333   1.230992   0.000000
     9  H    4.868910   4.390520   3.370287   0.000000
    10  H    4.599751   3.656380   2.564343   1.787924   0.000000
    11  H    3.877209   3.431497   2.735181   1.778003   1.776592
    12  H    3.774489   3.113647   2.040117   2.479154   2.475031
    13  H    1.989955   3.369348   3.990739   5.469544   5.805269
                   11         12         13
    11  H    0.000000
    12  H    3.065112   0.000000
    13  H    4.698425   4.719613   0.000000
 Stoichiometry    C3H5N5
 Framework group  C1[X(C3H5N5)]
 Deg. of freedom    33
 Full point group                 C1      NOp   1
 Largest Abelian subgroup         C1      NOp   1
 Largest concise Abelian subgroup C1      NOp   1
                         Standard orientation:                         
 ---------------------------------------------------------------------
 Center     Atomic      Atomic             Coordinates (Angstroms)
 Number     Number       Type             X           Y           Z
 ---------------------------------------------------------------------
      1          6           0       -2.216384    0.019735    0.603640
      2          6           0       -1.087278    0.002190   -0.440211
      3          7           0       -0.479609   -1.352867   -0.371207
      4          7           0        0.683483   -1.615588   -0.044370
      5          6           0        1.688773   -0.606362    0.238317
      6          7           0        1.773715    0.665869    0.246170
      7          7           0        0.736711    1.622970   -0.051639
      8          7           0       -0.420139    1.328060   -0.351748
      9          1           0       -2.842862   -0.864256    0.474694
     10          1           0       -2.813035    0.923419    0.476607
     11          1           0       -1.795356    0.012539    1.612788
     12          1           0       -1.539238    0.015844   -1.441602
     13          1           0        2.620698   -1.120033    0.476591
 ---------------------------------------------------------------------
 Rotational constants (GHZ):           3.2729228           2.3284533           1.5003213
 Standard basis: 6-31G(2df,p) (6D, 7F)
 There are   273 symmetry adapted cartesian basis functions of A   symmetry.
 There are   249 symmetry adapted basis functions of A   symmetry.
   249 basis functions,   387 primitive gaussians,   273 cartesian basis functions
    29 alpha electrons       29 beta electrons
       nuclear repulsion energy       355.1294302769 Hartrees.
 NAtoms=   13 NActive=   13 NUniq=   13 SFac= 1.00D+00 NAtFMM=   60 NAOKFM=F Big=F
 Integral buffers will be    131072 words long.
 Raffenetti 2 integral format.
 Two-electron integral symmetry is turned on.
 One-electron integrals computed using PRISM.
 PrsmSu:  requested number of processors reduced to:  13 ShMem   1 Linda.
 NBasis=   249 RedAO= T EigKep=  1.94D-04  NBF=   249
 NBsUse=   249 1.00D-06 EigRej= -1.00D+00 NBFU=   249
 Initial guess from the checkpoint file:  "CC1NdNCdNNdN1.chk"
 B after Tr=    -0.000000   -0.000000    0.000000
         Rot=    0.999984   -0.001977   -0.003973    0.003375 Ang=  -0.64 deg.
 ExpMin= 1.61D-01 ExpMax= 4.17D+03 ExpMxC= 6.27D+02 IAcc=2 IRadAn=         4 AccDes= 0.00D+00
 Harris functional with IExCor=  402 and IRadAn=       4 diagonalized for initial guess.
 HarFok:  IExCor=  402 AccDes= 0.00D+00 IRadAn=         4 IDoV= 1 UseB2=F ITyADJ=14
 ICtDFT=  3500011 ScaDFX=  1.000000  1.000000  1.000000  1.000000
 FoFCou: FMM=F IPFlag=           0 FMFlag=      100000 FMFlg1=           0
         NFxFlg=           0 DoJE=T BraDBF=F KetDBF=T FulRan=T
         wScrn=  0.000000 ICntrl=       500 IOpCl=  0 I1Cent=   200000004 NGrid=           0
         NMat0=    1 NMatS0=      1 NMatT0=    0 NMatD0=    1 NMtDS0=    0 NMtDT0=    0
 Petite list used in FoFCou.
 Requested convergence on RMS density matrix=1.00D-08 within 128 cycles.
 Requested convergence on MAX density matrix=1.00D-06.
 Requested convergence on             energy=1.00D-06.
 No special actions if energy rises.
 Integral accuracy reduced to 1.0D-05 until final iterations.
 Initial convergence to 1.0D-05 achieved.  Increase integral accuracy.
 SCF Done:  E(RB3LYP) =  -390.913328865     A.U. after   15 cycles
            NFock= 15  Conv=0.41D-08     -V/T= 2.0073
 PrsmSu:  requested number of processors reduced to:  13 ShMem   1 Linda.
 Calling FoFJK, ICntrl=      2127 FMM=F ISym2X=0 I1Cent= 0 IOpClX= 0 NMat=1 NMatS=1 NMatT=0.
 ***** Axes restored to original set *****
 -------------------------------------------------------------------
 Center     Atomic                   Forces (Hartrees/Bohr)
 Number     Number              X              Y              Z
 -------------------------------------------------------------------
      1        6           0.001937945    0.000614065   -0.000826696
      2        6          -0.001679479    0.000026289   -0.001437336
      3        7           0.002416048   -0.003531796   -0.000870617
      4        7           0.000667654   -0.002957396    0.001770245
      5        6          -0.002556318    0.001643316   -0.000134660
      6        7          -0.001327721   -0.000095682   -0.000890576
      7        7          -0.001529402    0.001750785    0.004110728
      8        7           0.004199173    0.002744774   -0.001411305
      9        1          -0.000694134   -0.000067726    0.000163946
     10        1          -0.000618880   -0.000249941    0.000383992
     11        1          -0.000291632    0.000041021   -0.000145845
     12        1          -0.001240580   -0.000357578   -0.000418481
     13        1           0.000717325    0.000439870   -0.000293395
 -------------------------------------------------------------------
 Cartesian Forces:  Max     0.004199173 RMS     0.001650391

 GradGradGradGradGradGradGradGradGradGradGradGradGradGradGradGradGradGrad
 Berny optimization.
 Using GEDIIS/GDIIS optimizer.
 FormGI is forming the generalized inverse of G from B-inverse, IUseBI=4.
 Internal  Forces:  Max     0.003906634 RMS     0.001262747
 Search for a local minimum.
 Step number   4 out of a maximum of   65
 All quantities printed in internal units (Hartrees-Bohrs-Radians)
 Mixed Optimization -- RFO/linear search
 Update second derivatives using D2CorX and points    2    3    4
 DE= -9.37D-04 DEPred=-5.65D-04 R= 1.66D+00
 TightC=F SS=  1.41D+00  RLast= 2.95D-01 DXNew= 1.4103D+00 8.8380D-01
 Trust test= 1.66D+00 RLast= 2.95D-01 DXMaxT set to 8.84D-01
 ITU=  1  1  1  0
 Use linear search instead of GDIIS.
     Eigenvalues ---    0.00128   0.00392   0.02240   0.02582   0.02792
     Eigenvalues ---    0.03729   0.05157   0.05746   0.05772   0.06563
     Eigenvalues ---    0.08639   0.16000   0.16016   0.16120   0.16330
     Eigenvalues ---    0.19695   0.21983   0.23327   0.25221   0.26021
     Eigenvalues ---    0.29294   0.33600   0.33955   0.34085   0.34183
     Eigenvalues ---    0.34211   0.37472   0.39087   0.52813   0.65148
     Eigenvalues ---    0.73935   0.89245   0.96796
 RFO step:  Lambda=-2.10473133D-03 EMin= 1.28145062D-03
 Quartic linear search produced a step of  1.67772.
 Iteration  1 RMS(Cart)=  0.12959924 RMS(Int)=  0.05302958
 Iteration  2 RMS(Cart)=  0.08904389 RMS(Int)=  0.00552369
 Iteration  3 RMS(Cart)=  0.00417450 RMS(Int)=  0.00496618
 Iteration  4 RMS(Cart)=  0.00000613 RMS(Int)=  0.00496618
 Iteration  5 RMS(Cart)=  0.00000002 RMS(Int)=  0.00496618
 Variable       Old X    -DE/DX   Delta X   Delta X   Delta X     New X
                                 (Linear)    (Quad)   (Total)
    R1        2.90601  -0.00034  -0.00312  -0.00212  -0.00524   2.90077
    R2        2.06192   0.00026   0.00114   0.00015   0.00129   2.06321
    R3        2.06038   0.00059  -0.00032   0.00125   0.00093   2.06131
    R4        2.06638   0.00024  -0.00076   0.00002  -0.00074   2.06564
    R5        2.80941  -0.00344   0.00495  -0.00199  -0.00057   2.80884
    R6        2.80981  -0.00339   0.00939  -0.00104   0.00487   2.81468
    R7        2.07633  -0.00080  -0.00190  -0.00359  -0.00550   2.07083
    R8        2.33641  -0.00225  -0.00638  -0.00441  -0.01168   2.32473
    R9        2.74437  -0.00272   0.05345   0.03431   0.09050   2.83487
   R10        2.40957  -0.00065  -0.01519  -0.00940  -0.02069   2.38888
   R11        2.06068   0.00076   0.00650   0.00170   0.00820   2.06888
   R12        2.72547  -0.00001   0.05697   0.04182   0.10132   2.82679
   R13        2.32624  -0.00391  -0.01184  -0.00915  -0.02204   2.30420
    A1        1.90933   0.00078   0.00498   0.00079   0.00578   1.91512
    A2        1.90940   0.00046  -0.00797  -0.00241  -0.01038   1.89901
    A3        1.92161   0.00012  -0.00268   0.00004  -0.00265   1.91896
    A4        1.92147  -0.00068   0.00240  -0.00110   0.00133   1.92279
    A5        1.90160  -0.00042  -0.00040   0.00022  -0.00017   1.90143
    A6        1.90042  -0.00027   0.00370   0.00246   0.00613   1.90654
    A7        1.85356   0.00044  -0.00707   0.00586   0.00305   1.85661
    A8        1.85342   0.00114   0.00856   0.01133   0.02396   1.87738
    A9        1.89282  -0.00031   0.00966   0.00770   0.01578   1.90860
   A10        2.24799  -0.00156  -0.00360  -0.00832  -0.02288   2.22511
   A11        1.79442   0.00037   0.00048  -0.00246   0.00006   1.79448
   A12        1.80052  -0.00008  -0.00530  -0.01275  -0.01612   1.78439
   A13        2.20243   0.00114   0.00152  -0.00122  -0.01914   2.18329
   A14        2.15914   0.00100  -0.00856  -0.00514  -0.02496   2.13417
   A15        2.40489  -0.00154   0.00249  -0.00108  -0.00115   2.40374
   A16        1.88259   0.00066  -0.02200  -0.01454  -0.03613   1.84645
   A17        1.99514   0.00084   0.02006   0.01315   0.03365   2.02879
   A18        2.23059  -0.00123  -0.00546  -0.00893  -0.01686   2.21374
   A19        2.17374   0.00111  -0.01009  -0.00406  -0.02523   2.14850
   A20        2.27811   0.00083   0.00839   0.00163  -0.00938   2.26873
    D1       -0.86005  -0.00047  -0.06804  -0.01484  -0.08667  -0.94672
    D2        2.98308   0.00033  -0.06452  -0.01759  -0.07826   2.90482
    D3        1.05807   0.00002  -0.06656  -0.01164  -0.07827   0.97981
    D4       -2.96616  -0.00041  -0.06915  -0.01249  -0.08542  -3.05158
    D5        0.87696   0.00039  -0.06563  -0.01525  -0.07701   0.79996
    D6       -1.04804   0.00009  -0.06768  -0.00929  -0.07702  -1.12506
    D7        1.22919  -0.00043  -0.06707  -0.01405  -0.08492   1.14428
    D8       -1.21086   0.00037  -0.06355  -0.01680  -0.07651  -1.28737
    D9       -3.13587   0.00007  -0.06559  -0.01085  -0.07652   3.07080
   D10       -2.03785   0.00081   0.18526   0.18813   0.37232  -1.66553
   D11        0.18428   0.00165   0.18682   0.20550   0.39207   0.57636
   D12        2.25858   0.00082   0.17702   0.17842   0.35362   2.61220
   D13        2.05621  -0.00109  -0.17208  -0.17930  -0.35033   1.70588
   D14       -0.16597  -0.00166  -0.16771  -0.19459  -0.36198  -0.52795
   D15       -2.23770  -0.00102  -0.16029  -0.17177  -0.33053  -2.56824
   D16       -0.08158   0.00049  -0.06331  -0.01231  -0.07307  -0.15465
   D17       -0.01823  -0.00192  -0.03201  -0.12032  -0.14987  -0.16810
   D18       -3.11974  -0.00051  -0.04948  -0.03290  -0.08202   3.08142
   D19        0.01749   0.00012  -0.00998   0.00929  -0.00079   0.01670
   D20        3.11723  -0.00136   0.00741  -0.08246  -0.07475   3.04248
   D21        0.01467   0.00176   0.06628   0.12239   0.18586   0.20053
   D22        0.04906  -0.00058   0.01768  -0.01808  -0.00180   0.04726
         Item               Value     Threshold  Converged?
 Maximum Force            0.003907     0.000450     NO 
 RMS     Force            0.001263     0.000300     NO 
 Maximum Displacement     0.706218     0.001800     NO 
 RMS     Displacement     0.213790     0.001200     NO 
 Predicted change in Energy=-2.152205D-03
 GradGradGradGradGradGradGradGradGradGradGradGradGradGradGradGradGradGrad

                          Input orientation:                          
 ---------------------------------------------------------------------
 Center     Atomic      Atomic             Coordinates (Angstroms)
 Number     Number       Type             X           Y           Z
 ---------------------------------------------------------------------
      1          6           0        1.072077    0.018989   -0.121987
      2          6           0        2.586241    0.012037    0.130118
      3          7           0        3.088960    1.342728   -0.300974
      4          7           0        3.568784    1.593595   -1.405607
      5          6           0        3.884510    0.519853   -2.404527
      6          7           0        3.937048   -0.742818   -2.435367
      7          7           0        3.635282   -1.680760   -1.309827
      8          7           0        3.102754   -1.325902   -0.271920
      9          1           0        0.619500    0.878808    0.375931
     10          1           0        0.646700   -0.907343    0.266349
     11          1           0        0.872925    0.084799   -1.194762
     12          1           0        2.774721    0.019022    1.209600
     13          1           0        4.234219    1.040943   -3.301617
 ---------------------------------------------------------------------
                    Distance matrix (angstroms):
                    1          2          3          4          5
     1  C    0.000000
     2  C    1.535023   0.000000
     3  N    2.419119   1.486374   0.000000
     4  N    3.218790   2.413539   1.230195   0.000000
     5  C    3.656587   2.892716   2.394777   1.500148   0.000000
     6  N    3.760337   2.996030   3.102320   2.579699   1.264140
     7  N    3.296988   2.457537   3.233842   3.276430   2.470462
     8  N    2.440258   1.489463   2.668824   3.166369   2.926767
     9  H    1.091804   2.163281   2.602240   3.518959   4.303496
    10  H    1.090799   2.150730   3.368874   4.193889   4.433270
    11  H    1.093087   2.167038   2.700380   3.096543   3.274515
    12  H    2.161509   1.095836   2.032924   3.154223   3.813709
    13  H    4.599302   3.943512   3.225918   2.084006   1.094807
                    6          7          8          9         10
     6  N    0.000000
     7  N    1.495874   0.000000
     8  N    2.390928   1.219328   0.000000
     9  H    4.641033   4.299779   3.383343   0.000000
    10  H    4.260602   3.466140   2.548947   1.789716   0.000000
    11  H    3.407771   3.280405   2.795327   1.778131   1.780554
    12  H    3.900922   3.158692   2.027642   2.465607   2.505265
    13  H    2.005120   3.425437   4.007647   5.159151   5.421854
                   11         12         13
    11  H    0.000000
    12  H    3.066287   0.000000
    13  H    4.080606   4.850313   0.000000
 Stoichiometry    C3H5N5
 Framework group  C1[X(C3H5N5)]
 Deg. of freedom    33
 Full point group                 C1      NOp   1
[...]
 ! R7    R(2,12)                 1.0905         -DE/DX =    0.0                 !
 ! R8    R(3,4)                  1.2483         -DE/DX =    0.0002              !
 ! R9    R(4,5)                  1.3917         -DE/DX =    0.0                 !
 ! R10   R(5,6)                  1.2944         -DE/DX =    0.0                 !
 ! R11   R(5,13)                 1.088          -DE/DX =    0.0                 !
 ! R12   R(6,7)                  1.3797         -DE/DX =    0.0                 !
 ! R13   R(7,8)                  1.2388         -DE/DX =    0.0                 !
 ! A1    A(2,1,9)              108.4999         -DE/DX =    0.0                 !
 ! A2    A(2,1,10)             108.1537         -DE/DX =    0.0                 !
 ! A3    A(2,1,11)             114.996          -DE/DX =    0.0                 !
 ! A4    A(9,1,10)             107.9492         -DE/DX =    0.0                 !
 ! A5    A(9,1,11)             108.8781         -DE/DX =    0.0                 !
 ! A6    A(10,1,11)            108.1562         -DE/DX =    0.0                 !
 ! A7    A(1,2,3)              117.8636         -DE/DX =    0.0                 !
 ! A8    A(1,2,8)              117.2747         -DE/DX =    0.0                 !
 ! A9    A(1,2,12)             108.0737         -DE/DX =    0.0                 !
 ! A10   A(3,2,8)              103.6255         -DE/DX =    0.0                 !
 ! A11   A(3,2,12)             104.3997         -DE/DX =    0.0                 !
 ! A12   A(8,2,12)             104.0898         -DE/DX =    0.0                 !
 ! A13   A(2,3,4)              118.8345         -DE/DX =    0.0                 !
 ! A14   A(3,4,5)              123.3718         -DE/DX =    0.0                 !
 ! A15   A(4,5,6)              128.7642         -DE/DX =    0.0                 !
 ! A16   A(4,5,13)             113.5576         -DE/DX =    0.0                 !
 ! A17   A(6,5,13)             116.8636         -DE/DX =    0.0                 !
 ! A18   A(5,6,7)              119.9427         -DE/DX =    0.0                 !
 ! A19   A(6,7,8)              125.4647         -DE/DX =    0.0                 !
 ! A20   A(2,8,7)              120.4996         -DE/DX =    0.0                 !
 ! D1    D(9,1,2,3)            -60.0783         -DE/DX =    0.0                 !
 ! D2    D(9,1,2,8)            175.0064         -DE/DX =    0.0                 !
 ! D3    D(9,1,2,12)            57.8536         -DE/DX =    0.0                 !
 ! D4    D(10,1,2,3)          -176.9311         -DE/DX =    0.0                 !
 ! D5    D(10,1,2,8)            58.1536         -DE/DX =    0.0                 !
 ! D6    D(10,1,2,12)          -58.9992         -DE/DX =    0.0                 !
 ! D7    D(11,1,2,3)            62.0923         -DE/DX =    0.0                 !
 ! D8    D(11,1,2,8)           -62.823          -DE/DX =    0.0                 !
 ! D9    D(11,1,2,12)         -179.9758         -DE/DX =    0.0                 !
 ! D10   D(1,2,3,4)            -60.633          -DE/DX =    0.0                 !
 ! D11   D(8,2,3,4)             70.782          -DE/DX =    0.0                 !
 ! D12   D(12,2,3,4)           179.4965         -DE/DX =    0.0                 !
 ! D13   D(1,2,8,7)             62.5694         -DE/DX =    0.0                 !
 ! D14   D(3,2,8,7)            -69.192          -DE/DX =    0.0                 !
 ! D15   D(12,2,8,7)          -178.1373         -DE/DX =    0.0                 !
 ! D16   D(2,3,4,5)             -7.5669         -DE/DX =    0.0                 !
 ! D17   D(3,4,5,6)            -37.056          -DE/DX =    0.0                 !
 ! D18   D(3,4,5,13)           153.7337         -DE/DX =    0.0                 !
 ! D19   D(4,5,6,7)             -1.0103         -DE/DX =    0.0                 !
 ! D20   D(13,5,6,7)           167.899          -DE/DX =    0.0                 !
 ! D21   D(5,6,7,8)             42.0231         -DE/DX =    0.0                 !
 ! D22   D(6,7,8,2)              0.1634         -DE/DX =    0.0                 !
 --------------------------------------------------------------------------------
 GradGradGradGradGradGradGradGradGradGradGradGradGradGradGradGradGradGrad


 ----------------------------------------------------------------------

 Electric dipole moment (input orientation):
 (Debye = 10**-18 statcoulomb cm , SI units = C m)
                  (au)            (Debye)         (10**-30 SI)
   Tot        0.122621D+01      0.311671D+01      0.103962D+02
   x         -0.111472D+01     -0.283333D+01     -0.945096D+01
   y          0.504660D+00      0.128272D+01      0.427868D+01
   z         -0.794852D-01     -0.202031D+00     -0.673904D+00

 Dipole polarizability, Alpha (input orientation).
 (esu units = cm**3 , SI units = C**2 m**2 J**-1)
 Alpha(0;0):
               (au)            (10**-24 esu)      (10**-40 SI)
   iso        0.615741D+02      0.912434D+01      0.101522D+02
   aniso      0.216593D+02      0.320958D+01      0.357114D+01
   xx         0.501229D+02      0.742745D+01      0.826415D+01
   yx         0.123589D+00      0.183141D-01      0.203771D-01
   yy         0.654577D+02      0.969983D+01      0.107925D+02
   zx        -0.705029D+01     -0.104474D+01     -0.116244D+01
   zy        -0.221648D+01     -0.328448D+00     -0.365448D+00
   zz         0.691417D+02      0.102457D+02      0.113999D+02

 ----------------------------------------------------------------------

 Dipole orientation:
     6         -0.37173083          1.28744439         -2.01350257
     6          0.97674006          1.79727411         -4.52063614
     7          1.55731418          4.46943265         -5.17955830
     7         -0.22468782          5.99735357         -5.40703190
     6         -2.75621047          5.28592606         -5.36031451
     7         -3.79836045          3.27339810         -6.28064614
     7         -2.34281521          1.51252399         -7.53694305
     7         -0.22255633          0.77798794         -6.86914185
     1          0.81503540          1.99177048         -0.47531744
     1         -0.56023120         -0.75765852         -1.78692692
     1         -2.24099078          2.12459317         -1.84750838
     1          2.81800408          0.87407254         -4.45649652
     1         -4.01877075          6.78222324         -4.73260690

 Electric dipole moment (dipole orientation):
 (Debye = 10**-18 statcoulomb cm , SI units = C m)
                  (au)            (Debye)         (10**-30 SI)
   Tot        0.122621D+01      0.311671D+01      0.103962D+02
   x          0.000000D+00      0.000000D+00      0.000000D+00
   y          0.000000D+00      0.000000D+00      0.000000D+00
   z          0.122621D+01      0.311671D+01      0.103962D+02

 Dipole polarizability, Alpha (dipole orientation).
 (esu units = cm**3 , SI units = C**2 m**2 J**-1)
 Alpha(0;0):
               (au)            (10**-24 esu)      (10**-40 SI)
   iso        0.615741D+02      0.912434D+01      0.101522D+02
   aniso      0.216593D+02      0.320958D+01      0.357114D+01
   xx         0.652033D+02      0.966213D+01      0.107506D+02
   yx        -0.557203D+01     -0.825690D+00     -0.918704D+00
   yy         0.675239D+02      0.100060D+02      0.111332D+02
   zx         0.647300D+01      0.959199D+00      0.106725D+01
   zy         0.364198D+01      0.539685D+00      0.600481D+00
   zz         0.519951D+02      0.770488D+01      0.857284D+01

 ----------------------------------------------------------------------
 1\1\GINC-LEWIS4-R630-HPC4-NODE303\Freq\RB3LYP\6-31G(2df,p)\C3H5N5\KS29
 C\03-Jul-2022\0\\#N Geom=AllCheck Guess=TCheck SCRF=Check GenChk RB3LY
 P/6-31G(2df,p) Freq\\Title Card Required\\0,1\C,1.21830453,0.040673092
 7,-0.3901482584\C,2.6153154256,0.0010571296,0.233514274\N,3.5337490541
 ,1.1383938188,-0.046556865\N,3.8569816527,1.3736819105,-1.228769951\C,
 3.528092243,0.5396258138,-2.2932494732\N,3.4806193893,-0.7535356705,-2
 .3247126403\N,3.8017616923,-1.4820317426,-1.197914084\N,3.4554890954,-
 1.2060110641,-0.0408730212\H,0.7004936452,0.9321280166,-0.0253982283\H
 ,0.6647393546,-0.8360953266,-0.043200638\H,1.2006418866,0.0438475697,-
 1.4773923701\H,2.5023284281,0.0047867984,1.3181378257\H,3.465203603,1.
 0574296537,-3.2480265703\\Version=ES64L-G16RevA.03\State=1-A\HF=-390.9
 402853\RMSD=5.648e-09\RMSF=7.553e-05\ZeroPoint=0.0946421\Thermal=0.101
 4538\Dipole=-1.1147159,0.5046598,-0.0794852\DipoleDeriv=-0.000481,-0.0
 008832,-0.0331935,-0.0103354,0.0483601,0.0005411,0.0214189,0.0152975,-
 0.0397719,0.4259094,-0.0346049,-0.1145694,-0.0388557,-0.1553148,0.0115
 438,-0.1565589,-0.0076521,0.4997118,-0.1496387,0.4214648,0.1292724,0.2
 274034,0.2725557,-0.1114061,-0.0872734,-0.4379172,-0.1947501,-0.123629
 7,-0.1600758,-0.1901614,-0.0508463,-0.4951834,0.0939035,0.1120002,0.45
 16189,-0.2239578,0.1574148,-0.1536612,0.015802,0.0858719,0.4795414,-0.
 1235309,0.0246997,-0.0721017,0.5197212,-0.1781907,0.2432848,-0.0446177
 ,-0.1236821,-0.1361887,0.2442361,0.1302513,-0.1292239,-0.5563911,-0.09
 55276,0.1608298,-0.1082636,0.0800655,-0.4172093,-0.2775011,-0.0556749,
 -0.320528,0.4747086,-0.1836264,-0.4060456,0.1968649,-0.1829124,0.26676
 08,0.1024537,0.0104039,0.4455894,-0.4565239,-0.0063379,0.0382843,0.029
 2709,0.0775009,-0.0247634,-0.0503999,0.0090995,-0.0409657,0.0697405,-0
 .0033418,-0.0382347,0.0258498,-0.0697289,-0.0152027,0.0448956,0.010386
 5,0.0361117,0.0708799,0.0672163,0.0035413,0.0290619,0.0000829,0.060787
 2,0.0053331,-0.0332403,-0.00023,-0.0567761,0.0055226,-0.0005965,0.0034
 219,0.0000515,0.0634688,-0.0001032,0.0204596,0.0001089,-0.0879303,0.08
 47106,-0.073303,0.0612618,0.0053847,0.0523883,0.0600343,-0.0059722,0.0
 598921,-0.0186609\Polar=50.1228972,0.1235894,65.4577248,-7.0502854,-2.
 216478,69.1417387\Quadrupole=1.945611,-3.7374504,1.7918394,0.0647156,-
 1.7245129,-2.4070025\PG=C01 [X(C3H5N5)]\NImag=0\\0.45058651,0.00224704
 ,0.56391223,-0.03228869,0.00196774,0.58532149,-0.14765477,0.00136372,-
 0.03723853,0.41472591,0.00302298,-0.06705669,0.00269905,0.00217135,0.2
 8862304,-0.04231099,0.00236527,-0.10674805,-0.01608024,-0.00312066,0.6
 3868816,-0.02287339,-0.02669760,0.00680052,-0.08174669,-0.02032901,-0.
 01378156,0.17905150,-0.00723517,-0.00671680,-0.00463694,-0.04972200,-0
 .06445851,-0.01561237,0.09989638,0.19793637,-0.00370782,-0.00631437,0.
 00686969,0.00928692,-0.02186809,-0.08963583,-0.12109628,-0.03342741,0.
 69325962,0.00417838,0.00235976,0.00004483,-0.00884565,-0.02494324,0.04
 357182,-0.09907264,-0.04520813,0.10867278,0.15998215,-0.00004676,-0.00
 098201,0.00153445,-0.03564826,-0.01571551,0.03959766,-0.00684497,-0.09
 551983,0.04320487,0.08743824,0.26624805,-0.00233855,-0.00566011,-0.000
 36386,0.01109494,0.05177229,-0.02509871,0.14147511,0.06700969,-0.51727
 657,-0.13210644,-0.01732176,0.72249697,-0.00383100,0.00076997,0.002090
 02,-0.01147969,0.00052289,0.00238307,0.03551988,0.00123905,-0.01168961
 ,-0.08957038,-0.03038653,-0.00433828,0.16622986,0.00233292,0.00377734,
 0.00160929,0.02719721,-0.01000694,0.00764108,-0.03471520,0.04331476,-0
 .02444927,-0.00061545,-0.12960973,-0.02793096,0.02777813,0.73361425,0.
 00214063,-0.00269440,0.00140784,0.00137064,-0.00946625,0.00209963,-0.0
 0337754,-0.01711739,-0.09185820,-0.01401178,-0.03792116,-0.16043674,0.
 04316554,-0.09751478,0.63466168,-0.00411879,-0.00022318,-0.00152839,0.
 00141069,-0.00660388,-0.00014769,-0.01940653,-0.00192350,0.00459359,0.
 03923435,0.00073210,-0.01527079,-0.05129905,-0.03379995,-0.00759167,0.
 08848128,-0.00214803,0.00563498,-0.00093554,-0.02159923,0.00827803,-0.
 00717775,0.00029333,-0.02406510,0.02536927,-0.02069000,-0.05229586,-0.
 06575430,-0.02222569,-0.45848131,0.01011146,0.01874908,0.62131795,0.00
 247782,0.00020863,-0.00077012,0.00384923,0.00632881,0.01294119,-0.0021
 2811,0.01181139,-0.00222483,-0.01868917,-0.03520467,0.02663810,-0.0053
 7676,-0.00325830,-0.12245049,0.02095621,-0.03294197,0.29512377,0.00433
 322,-0.00469939,-0.00037895,-0.00319995,0.03662574,0.03929185,0.004858
 52,-0.01193277,0.01248330,-0.01748325,-0.00347717,-0.01163067,0.012798
 94,0.03139307,0.00452697,-0.08812159,-0.00148100,-0.00671986,0.1887347
 0,0.00073550,-0.00230006,-0.00120520,0.03329069,-0.03213231,-0.0381617
 9,0.01597640,0.02044794,-0.01633403,-0.00169694,-0.00002078,0.02302734
 ,0.00268493,-0.06382639,0.04147687,0.03781317,-0.08838696,-0.00601993,
 -0.10693897,0.26802715,-0.00150900,0.00794402,0.00181775,0.00383700,-0
 .04531915,-0.02821822,0.01211949,-0.00405387,-0.00121500,0.00517120,-0
 .01315879,-0.01723925,-0.01759448,0.05395840,0.00679912,0.00552208,0.0
 3707184,-0.10790361,-0.16096589,0.06575321,0.63103692,-0.01995464,0.02
 995858,0.00894312,-0.08185760,0.00944916,-0.01312364,0.00890890,0.0137
 7016,-0.02063383,0.00812243,-0.00467188,0.02101590,-0.00914427,-0.0162
 9375,-0.01447306,0.03955453,0.03860103,-0.00505490,-0.11870945,0.01765
 436,0.16033803,0.18557525,0.00705547,-0.00654890,0.00243796,0.04480415
 ,-0.06400310,0.01524339,-0.02076159,-0.06129330,0.00591784,0.00967019,
 0.01869437,-0.00554521,0.01411393,-0.01245172,-0.00121259,-0.01879654,
 0.02021920,0.02745505,0.06036172,-0.09855823,-0.09826425,-0.09924781,0
 .21156036,-0.00438919,0.00586408,0.00579189,0.01359972,0.01830184,-0.0
 8276860,-0.01782028,-0.00166422,0.01170065,0.00440756,0.00980755,-0.00
 335598,0.01003383,-0.02359167,-0.00391989,-0.01362746,0.03142774,-0.10
 522051,0.12578904,-0.06705112,-0.49037951,-0.13946343,0.05820859,0.674
 55344,-0.10189180,0.10217262,0.04245823,-0.01933035,0.02492773,0.01024
 168,0.00264276,0.00172293,-0.00114685,-0.00026732,-0.00052912,0.001853
 72,-0.00068217,0.00005434,0.00040456,0.00058880,-0.00177825,0.00033755
 ,0.00121753,0.00130555,-0.00220655,-0.00513228,-0.00060048,-0.00208657
 ,0.11367153,0.10292948,-0.22461796,-0.07455252,-0.00075873,0.00016018,
 0.00036653,-0.00014608,0.00050739,0.00049573,0.00016053,-0.00008236,-0
 .00052393,-0.00001066,0.00024544,0.00020573,-0.00027301,-0.00025947,0.
 00003540,-0.00020021,0.00058033,0.00079746,-0.00046385,0.00040839,-0.0
 0043209,-0.11257444,0.24166151,0.04233769,-0.07586635,-0.07854641,-0.0
 0631388,0.01200044,0.00352951,0.00072112,0.00004169,0.00041213,-0.0001
 0857,-0.00002146,-0.00005944,0.00026859,-0.00082749,-0.00002455,0.0009
 9225,-0.00005213,0.00024810,-0.00026084,0.00120117,-0.00161089,-0.0033
 2751,-0.00023070,0.00030232,-0.04367280,0.08170168,0.08092535,-0.11054
 970,-0.10809743,0.04336274,-0.02087707,-0.02465728,0.01008250,-0.00429
 362,0.00055515,-0.00270853,0.00093364,-0.00071505,-0.00088311,0.000109
 32,0.00095575,-0.00110804,-0.00057656,0.00077382,0.00055973,-0.0004741
 4,0.00018164,0.00216076,0.00289835,-0.00130150,-0.00112243,0.00852770,
 0.01263515,-0.00572594,0.12320832,-0.10903199,-0.21941014,0.07018344,0
 .00159335,0.00135670,-0.00089533,0.00094032,0.00044103,0.00049076,0.00
 025012,0.00060449,-0.00073110,0.00012199,-0.00022893,0.00010014,0.0001
 4954,-0.00008300,-0.00008369,-0.00012277,0.00010726,0.00024580,-0.0000
 3589,0.00044433,-0.00036968,-0.01362017,-0.02007106,0.00901158,0.11874
 677,0.23577449,0.04396562,0.07129014,-0.07440157,-0.00798427,-0.011796
 49,0.00333267,-0.00236513,0.00052903,-0.00081190,-0.00010690,-0.000991
 37,-0.00025300,-0.00025663,0.00003487,-0.00003771,0.00065073,0.0003400
 2,-0.00027396,-0.00027035,0.00022763,0.00041001,0.00113355,-0.00018004
 ,0.00020005,-0.00643958,-0.00939798,0.00280171,-0.04488904,-0.07672770
 ,0.07744169,-0.04738129,0.00008973,0.00052103,0.00359509,0.00024263,-0
 .03412385,0.00160139,-0.00006402,0.00120315,0.00017849,-0.00038468,-0.
 00017281,-0.00354893,-0.00023521,0.00212253,-0.00211585,-0.00003499,0.
 00203849,-0.00016924,0.00087709,-0.00120012,0.00146478,-0.00017125,0.0
 0204957,-0.00041561,-0.00158545,0.01459484,-0.00024618,0.00135413,0.01
 609842,0.05290780,0.00039117,-0.04780314,0.00011199,-0.00051562,-0.001
 79436,0.00114355,0.00036461,-0.00010251,-0.00090436,0.00005105,0.00016
 649,-0.00030037,-0.00034626,0.00089935,0.00041678,0.00016464,-0.000006
 34,-0.00055852,0.00007981,0.00025418,0.00038671,-0.00023029,-0.0002124
 7,0.00079287,-0.00062468,0.00127365,-0.02729501,0.00063586,0.00086388,
 0.02704310,-0.00004951,0.04556680,-0.00296801,0.00104449,-0.32637096,-
 0.00076072,-0.00026289,-0.01115978,0.00089053,0.00033090,0.00008274,-0
 .00071111,-0.00046615,-0.00021157,0.00300339,-0.00115463,-0.00000666,0
 .00389850,0.00062082,-0.00088833,-0.00120777,0.00036337,-0.00073900,0.
 00051486,0.00010576,0.00068294,0.00028530,0.00093011,-0.00851215,0.000
 30916,-0.00080870,-0.00900673,-0.00086947,-0.00105793,0.35527912,-0.00
 108300,0.00014744,-0.03302474,-0.04840279,-0.00043505,0.01590637,-0.00
 604177,-0.00432816,0.02434137,-0.00216916,-0.00465163,0.00177192,-0.00
 025185,-0.00111736,-0.00112224,0.00025105,0.00065587,-0.00061995,-0.00
 184870,0.00387722,0.00083847,-0.00511559,0.00561758,0.02169128,0.00126
 747,0.00024920,0.00050191,0.00126129,-0.00029285,0.00048903,-0.0058674
 1,0.00022924,-0.00226796,0.06807513,-0.00014070,0.00179362,0.00062035,
 -0.00005083,-0.04379236,-0.00108908,-0.00805022,-0.00586573,0.03153958
 ,-0.00483950,-0.00307026,0.00392079,-0.00064942,-0.00166039,-0.0012034
 6,0.00023019,-0.00062457,0.00146621,0.00446847,-0.00404591,-0.00318390
 ,0.00892731,-0.00739610,-0.03319832,-0.00030152,0.00020792,0.00042622,
 0.00024099,0.00021242,-0.00036631,-0.00000375,0.00094926,0.00028589,-0
 .00002985,0.06319340,-0.00121655,0.00000826,-0.01374074,0.02641699,-0.
 00047982,-0.31801531,0.00242154,0.00184083,-0.00695997,0.00093537,0.00
 151519,0.00134649,-0.00035653,0.00020615,0.00127042,-0.00017943,-0.000
 13615,0.00081007,0.00049816,-0.00112917,0.00162768,0.00267004,-0.00267
 437,-0.00635746,-0.00008105,0.00041333,0.00054937,-0.00010854,-0.00039
 849,0.00049529,-0.00235586,0.00008821,0.00084449,-0.02868495,0.0007437
 4,0.33815752,0.00024027,0.00060875,0.00023880,0.00366286,0.00000599,-0
 .00190932,0.00085170,0.00323008,0.00040181,0.00477897,-0.00081429,-0.0
 1047094,-0.04485065,-0.00293450,-0.01204654,-0.00388234,0.01088406,0.0
 0836972,0.01806341,-0.00576064,-0.00651100,-0.00661041,-0.00074387,0.0
 0093835,-0.00019627,0.00003805,-0.00000685,0.00007866,-0.00005255,-0.0
 0002545,-0.00000305,-0.00015001,-0.00011670,-0.00007467,0.00019883,0.0
 0004081,0.02794152,-0.00011192,0.00031754,0.00016593,-0.00212580,0.000
 54183,-0.00030051,0.00007363,-0.00462571,-0.00372053,-0.00193665,0.011
 58295,-0.02196237,0.00638767,-0.10558572,0.11481906,0.00378134,-0.0312
 4759,0.03076161,-0.00407653,-0.00014621,-0.00217747,0.00258286,-0.0008
 6283,0.00190445,-0.00015451,-0.00001396,-0.00008965,0.00004615,-0.0000
 1147,-0.00000490,-0.00003471,-0.00005479,0.00006895,0.00007836,0.00009
 870,0.00000228,-0.00450988,0.13000726,-0.00019294,-0.00015740,-0.00026
 696,-0.00107781,0.00121093,0.00105334,-0.00385940,-0.00505135,-0.00234
 254,0.00293041,0.00942565,-0.02618644,-0.02133215,0.11527732,-0.267504
 46,0.00173207,0.00205671,0.00397062,-0.00115501,-0.00214835,0.00561400
 ,0.00146086,-0.00126143,-0.00122935,0.00005236,-0.00003946,-0.00001505
 ,0.00007074,-0.00001703,0.00010345,0.00009410,0.00013297,0.00000587,0.
 00017948,0.00003829,-0.00002787,0.02109729,-0.11946685,0.28682539\\0.0
 0009979,0.00000632,0.00007360,-0.00010949,-0.00016646,-0.00002746,0.00
 008231,0.00010740,-0.00025125,-0.00003800,-0.00007625,0.00021211,-0.00
 000098,0.00007688,-0.00003725,0.00002305,-0.00006940,0.00003939,-0.000
 00495,0.00001307,-0.00000096,-0.00005301,0.00010795,-0.00002023,-0.000
 01165,-0.00000170,-0.00000505,-0.00001600,0.00000959,-0.00002421,0.000
 00424,-0.00000152,-0.00000928,0.00003141,-0.00000028,0.00001813,-0.000
 00672,-0.00000559,0.00003245\\\@


 REFRAIN FROM ILLUSIONS, INSIST ON WORK AND NOT WORDS,
 PATIENTLY SEEK DIVINE AND SCIENTIFIC TRUTH.
 LAST WORDS OF MARIA MENDELEEVA TO HER SON DMITRI, C. 1850
 Job cpu time:       0 days  1 hours  3 minutes 36.1 seconds.
 Elapsed time:       0 days  0 hours 15 minutes 54.2 seconds.
 File lengths (MBytes):  RWF=     75 Int=      0 D2E=      0 Chk=      6 Scr=      1
 Normal termination of Gaussian 16 at Sun Jul  3 23:49:51 2022.
### All Done ###
