### Starting Gaussian ###
 Entering Gaussian System, Link 0=g16
 Initial command:
 /cluster/software/gaussian/gaussian-16-A.03/avx2/g16/l1.exe "/local/scratch/ks29c/Gau-27879.inp" -scrdir="/local/scratch/ks29c/"
 Entering Link 1 = /cluster/software/gaussian/gaussian-16-A.03/avx2/g16/l1.exe PID=     27880.
  
 Copyright (c) 1988,1990,1992,1993,1995,1998,2003,2009,2016,
            Gaussian, Inc.  All Rights Reserved.
  
 This is part of the Gaussian(R) 16 program.  It is based on
 the Gaussian(R) 09 system (copyright 2009, Gaussian, Inc.),
 the Gaussian(R) 03 system (copyright 2003, Gaussian, Inc.),
 the Gaussian(R) 98 system (copyright 1998, Gaussian, Inc.),
 the Gaussian(R) 94 system (copyright 1995, Gaussian, Inc.),
 the Gaussian 92(TM) system (copyright 1992, Gaussian, Inc.),
 the Gaussian 90(TM) system (copyright 1990, Gaussian, Inc.),
 the Gaussian 88(TM) system (copyright 1988, Gaussian, Inc.),
 the Gaussian 86(TM) system (copyright 1986, Carnegie Mellon
 University), and the Gaussian 82(TM) system (copyright 1983,
 Carnegie Mellon University). Gaussian is a federally registered
 trademark of Gaussian, Inc.
  
 This software contains proprietary and confidential information,
 including trade secrets, belonging to Gaussian, Inc.
  
 This software is provided under written license and may be
 used, copied, transmitted, or stored only in accord with that
 written license.
  
 The following legend is applicable only to US Government
 contracts under FAR:
  
                    RESTRICTED RIGHTS LEGEND
  
 Use, reproduction and disclosure by the US Government is
 subject to restrictions as set forth in subparagraphs (a)
 and (c) of the Commercial Computer Software - Restricted
 Rights clause in FAR 52.227-19.
  
 Gaussian, Inc.
 340 Quinnipiac St., Bldg. 40, Wallingford CT 06492
  
  
 ---------------------------------------------------------------
 Warning -- This program may not be used in any manner that
 competes with the business of Gaussian, Inc. or will provide
 assistance to any competitor of Gaussian, Inc.  The licensee
 of this program is prohibited from giving any competitor of
 Gaussian, Inc. access to this program.  By using this program,
 the user acknowledges that Gaussian, Inc. is engaged in the
 business of creating and licensing software in the field of
 computational chemistry and represents and warrants to the
 licensee that it is not a competitor of Gaussian, Inc. and that
 it will not use this program in any manner prohibited above.
 ---------------------------------------------------------------
  

 Cite this work as:
 Gaussian 16, Revision A.03,
 M. J. Frisch, G. W. Trucks, H. B. Schlegel, G. E. Scuseria, 
 M. A. Robb, J. R. Cheeseman, G. Scalmani, V. Barone, 
 G. A. Petersson, H. Nakatsuji, X. Li, M. Caricato, A. V. Marenich, 
 J. Bloino, B. G. Janesko, R. Gomperts, B. Mennucci, H. P. Hratchian, 
 J. V. Ortiz, A. F. Izmaylov, J. L. Sonnenberg, D. Williams-Young, 
 F. Ding, F. Lipparini, F. Egidi, J. Goings, B. Peng, A. Petrone, 
 T. Henderson, D. Ranasinghe, V. G. Zakrzewski, J. Gao, N. Rega, 
 G. Zheng, W. Liang, M. Hada, M. Ehara, K. Toyota, R. Fukuda, 
 J. Hasegawa, M. Ishida, T. Nakajima, Y. Honda, O. Kitao, H. Nakai, 
 T. Vreven, K. Throssell, J. A. Montgomery, Jr., J. E. Peralta, 
 F. Ogliaro, M. J. Bearpark, J. J. Heyd, E. N. Brothers, K. N. Kudin, 
 V. N. Staroverov, T. A. Keith, R. Kobayashi, J. Normand, 
 K. Raghavachari, A. P. Rendell, J. C. Burant, S. S. Iyengar, 
 J. Tomasi, M. Cossi, J. M. Millam, M. Klene, C. Adamo, R. Cammi, 
 J. W. Ochterski, R. L. Martin, K. Morokuma, O. Farkas, 
 J. B. Foresman, and D. J. Fox, Gaussian, Inc., Wallingford CT, 2016.
 
 ******************************************
 Gaussian 16:  ES64L-G16RevA.03 25-Dec-2016
                 4-Aug-2022 
 ******************************************
 %chk=CC1NdCCdCNdN1.chk
 %NProcShared=20
 Will use up to   20 processors via shared memory.
 -----------------------------
 # opt freq b3lyp/6-31g(2df,p)
 -----------------------------
 1/18=20,19=15,26=3,38=1/1,3;
 2/9=110,12=2,17=6,18=5,40=1/2;
 3/5=1,6=6,7=104,11=2,25=1,30=1,71=1,74=-5/1,2,3;
 4//1;
 5/5=2,38=5/2;
 6/7=2,8=2,9=2,10=2,28=1/1;
 7//1,2,3,16;
 1/18=20,19=15,26=3/3(2);
 2/9=110/2;
 99//99;
 2/9=110/2;
 3/5=1,6=6,7=104,11=2,25=1,30=1,71=1,74=-5/1,2,3;
 4/5=5,16=3,69=1/1;
 5/5=2,38=5/2;
 7//1,2,3,16;
 1/18=20,19=15,26=3/3(-5);
 2/9=110/2;
 6/7=2,8=2,9=2,10=2,19=2,28=1/1;
 99/9=1/99;
 -------------------
 Title Card Required
 -------------------
 Symbolic Z-matrix:
 Charge =  0 Multiplicity = 1
 C                     1.10117   0.05669  -0.02707 
 C                     2.63073   0.07756  -0.08558 
 N                     2.99916   1.36519  -0.62872 
 C                     3.71569   1.59242  -1.64719 
 C                     4.37333   0.68627  -2.57597 
 C                     4.32345  -0.63887  -2.50168 
 N                     3.71449  -1.47744  -1.63481 
 N                     3.02797  -1.20981  -0.64604 
 H                     0.69967   0.99326   0.37452 
 H                     0.74276  -0.76793   0.59843 
 H                     0.68254  -0.08303  -1.03074 
 H                     3.00124   0.07333   0.94654 
 H                     3.88208   2.65607  -1.89386 
 H                     4.93163   1.16209  -3.37359 
 H                     4.86633  -1.18289  -3.27175 
 

 GradGradGradGradGradGradGradGradGradGradGradGradGradGradGradGradGradGrad
 Berny optimization.
 Initialization pass.
                           ----------------------------
                           !    Initial Parameters    !
                           ! (Angstroms and Degrees)  !
 --------------------------                            --------------------------
 ! Name  Definition              Value          Derivative Info.                !
 --------------------------------------------------------------------------------
 ! R1    R(1,2)                  1.5308         estimate D2E/DX2                !
 ! R2    R(1,9)                  1.0953         estimate D2E/DX2                !
 ! R3    R(1,10)                 1.0953         estimate D2E/DX2                !
 ! R4    R(1,11)                 1.0964         estimate D2E/DX2                !
 ! R5    R(2,3)                  1.4452         estimate D2E/DX2                !
 ! R6    R(2,8)                  1.4592         estimate D2E/DX2                !
 ! R7    R(2,12)                 1.0966         estimate D2E/DX2                !
 ! R8    R(3,4)                  1.2658         estimate D2E/DX2                !
 ! R9    R(4,5)                  1.4547         estimate D2E/DX2                !
 ! R10   R(4,13)                 1.1045         estimate D2E/DX2                !
 ! R11   R(5,6)                  1.3282         estimate D2E/DX2                !
 ! R12   R(5,14)                 1.0837         estimate D2E/DX2                !
 ! R13   R(6,7)                  1.3511         estimate D2E/DX2                !
 ! R14   R(6,15)                 1.088          estimate D2E/DX2                !
 ! R15   R(7,8)                  1.2331         estimate D2E/DX2                !
 ! A1    A(2,1,9)              111.631          estimate D2E/DX2                !
 ! A2    A(2,1,10)             111.0415         estimate D2E/DX2                !
 ! A3    A(2,1,11)             110.3804         estimate D2E/DX2                !
 ! A4    A(9,1,10)             108.3267         estimate D2E/DX2                !
 ! A5    A(9,1,11)             107.7367         estimate D2E/DX2                !
 ! A6    A(10,1,11)            107.5709         estimate D2E/DX2                !
 ! A7    A(1,2,3)              106.3334         estimate D2E/DX2                !
 ! A8    A(1,2,8)              105.9418         estimate D2E/DX2                !
 ! A9    A(1,2,12)             107.5515         estimate D2E/DX2                !
 ! A10   A(3,2,8)              124.91           estimate D2E/DX2                !
 ! A11   A(3,2,12)             105.7246         estimate D2E/DX2                !
 ! A12   A(8,2,12)             105.4334         estimate D2E/DX2                !
 ! A13   A(2,3,4)              127.3446         estimate D2E/DX2                !
 ! A14   A(3,4,5)              131.1302         estimate D2E/DX2                !
 ! A15   A(3,4,13)             115.9663         estimate D2E/DX2                !
 ! A16   A(5,4,13)             112.9033         estimate D2E/DX2                !
 ! A17   A(4,5,6)              124.6663         estimate D2E/DX2                !
 ! A18   A(4,5,14)             115.4253         estimate D2E/DX2                !
 ! A19   A(6,5,14)             119.9082         estimate D2E/DX2                !
 ! A20   A(5,6,7)              132.226          estimate D2E/DX2                !
 ! A21   A(5,6,15)             116.1399         estimate D2E/DX2                !
 ! A22   A(7,6,15)             111.634          estimate D2E/DX2                !
 ! A23   A(6,7,8)              129.1004         estimate D2E/DX2                !
 ! A24   A(2,8,7)              130.6183         estimate D2E/DX2                !
 ! D1    D(9,1,2,3)            -44.6826         estimate D2E/DX2                !
 ! D2    D(9,1,2,8)           -179.4249         estimate D2E/DX2                !
 ! D3    D(9,1,2,12)            68.2028         estimate D2E/DX2                !
 ! D4    D(10,1,2,3)          -165.6783         estimate D2E/DX2                !
 ! D5    D(10,1,2,8)            59.5794         estimate D2E/DX2                !
 ! D6    D(10,1,2,12)          -52.7928         estimate D2E/DX2                !
 ! D7    D(11,1,2,3)            75.1145         estimate D2E/DX2                !
 ! D8    D(11,1,2,8)           -59.6278         estimate D2E/DX2                !
 ! D9    D(11,1,2,12)         -172.0            estimate D2E/DX2                !
 ! D10   D(1,2,3,4)           -124.143          estimate D2E/DX2                !
 ! D11   D(8,2,3,4)             -0.5334         estimate D2E/DX2                !
 ! D12   D(12,2,3,4)           121.7168         estimate D2E/DX2                !
 ! D13   D(1,2,8,7)            123.7177         estimate D2E/DX2                !
 ! D14   D(3,2,8,7)             -0.0618         estimate D2E/DX2                !
 ! D15   D(12,2,8,7)          -122.4403         estimate D2E/DX2                !
 ! D16   D(2,3,4,5)              0.3782         estimate D2E/DX2                !
 ! D17   D(2,3,4,13)          -179.7792         estimate D2E/DX2                !
 ! D18   D(3,4,5,6)              0.1099         estimate D2E/DX2                !
 ! D19   D(3,4,5,14)           179.9173         estimate D2E/DX2                !
 ! D20   D(13,4,5,6)          -179.7365         estimate D2E/DX2                !
 ! D21   D(13,4,5,14)            0.0709         estimate D2E/DX2                !
 ! D22   D(4,5,6,7)             -0.0731         estimate D2E/DX2                !
 ! D23   D(4,5,6,15)           179.9052         estimate D2E/DX2                !
 ! D24   D(14,5,6,7)          -179.8724         estimate D2E/DX2                !
 ! D25   D(14,5,6,15)            0.1058         estimate D2E/DX2                !
 ! D26   D(5,6,7,8)             -0.5055         estimate D2E/DX2                !
 ! D27   D(15,6,7,8)           179.5155         estimate D2E/DX2                !
 ! D28   D(6,7,8,2)              0.662          estimate D2E/DX2                !
 --------------------------------------------------------------------------------
 Trust Radius=3.00D-01 FncErr=1.00D-07 GrdErr=1.00D-06 EigMax=2.50D+02 EigMin=1.00D-04
 Number of steps in this run=     77 maximum allowed number of steps=    100.
 GradGradGradGradGradGradGradGradGradGradGradGradGradGradGradGradGradGrad

                          Input orientation:                          
 ---------------------------------------------------------------------
 Center     Atomic      Atomic             Coordinates (Angstroms)
 Number     Number       Type             X           Y           Z
 ---------------------------------------------------------------------
      1          6           0        1.101170    0.056690   -0.027070
      2          6           0        2.630730    0.077560   -0.085580
      3          7           0        2.999160    1.365190   -0.628720
      4          6           0        3.715690    1.592420   -1.647190
      5          6           0        4.373330    0.686270   -2.575970
      6          6           0        4.323450   -0.638870   -2.501680
      7          7           0        3.714490   -1.477440   -1.634810
      8          7           0        3.027970   -1.209810   -0.646040
      9          1           0        0.699670    0.993260    0.374520
     10          1           0        0.742760   -0.767930    0.598430
     11          1           0        0.682540   -0.083030   -1.030740
     12          1           0        3.001240    0.073330    0.946540
     13          1           0        3.882080    2.656070   -1.893860
     14          1           0        4.931630    1.162090   -3.373590
     15          1           0        4.866330   -1.182890   -3.271750
 ---------------------------------------------------------------------
                    Distance matrix (angstroms):
                    1          2          3          4          5
     1  C    0.000000
     2  C    1.530821   0.000000
     3  N    2.382545   1.445245   0.000000
     4  C    3.437873   2.431165   1.265832   0.000000
     5  C    4.195270   3.099875   2.478116   1.454727   0.000000
     6  C    4.121964   3.035805   3.045978   2.465397   1.328158
     7  N    3.430426   2.447994   3.099106   3.069885   2.449795
     8  N    2.387405   1.459190   2.575219   3.054137   3.021546
     9  H    1.095281   2.186136   2.536233   3.680038   4.721802
    10  H    1.095311   2.178796   3.338778   4.410485   5.037117
    11  H    1.096415   2.171304   2.761465   3.519537   4.074492
    12  H    2.135055   1.096616   2.037241   3.089581   3.829674
    13  H    4.239710   3.388874   2.011591   1.104483   2.141661
    14  H    5.205144   4.157085   3.363035   2.155029   1.083652
    15  H    5.122591   4.091249   4.118816   3.415481   2.054487
                    6          7          8          9         10
     6  C    0.000000
     7  N    1.351109   0.000000
     8  N    2.334018   1.233127   0.000000
     9  H    4.905931   4.385306   3.363932   0.000000
    10  H    4.738004   3.784435   2.639346   1.775889   0.000000
    11  H    3.965961   3.391460   2.630336   1.770155   1.768307
    12  H    3.761076   3.094670   2.045354   2.543758   2.435083
    13  H    3.379480   4.145009   4.151095   4.247142   5.271681
    14  H    2.091307   3.387020   4.085261   5.655645   6.086752
    15  H    1.087973   2.023133   3.205409   5.949115   5.670477
                   11         12         13         14         15
    11  H    0.000000
    12  H    3.051304   0.000000
    13  H    4.299384   3.938819   0.000000
    14  H    5.009395   4.855443   2.350135   0.000000
    15  H    4.871952   4.780232   4.195824   2.348099   0.000000
 Stoichiometry    C5H7N3
 Framework group  C1[X(C5H7N3)]
 Deg. of freedom    39
 Full point group                 C1      NOp   1
 Largest Abelian subgroup         C1      NOp   1
 Largest concise Abelian subgroup C1      NOp   1
                         Standard orientation:                         
 ---------------------------------------------------------------------
 Center     Atomic      Atomic             Coordinates (Angstroms)
 Number     Number       Type             X           Y           Z
 ---------------------------------------------------------------------
      1          6           0        2.308451    0.003582    0.552217
      2          6           0        1.146319    0.013054   -0.444163
      3          7           0        0.496381    1.295651   -0.298359
      4          6           0       -0.723187    1.513334   -0.038365
      5          6           0       -1.829285    0.598486    0.197924
      6          6           0       -1.731310   -0.725928    0.179750
      7          7           0       -0.688638   -1.556356   -0.040976
      8          7           0        0.484662   -1.279541   -0.300481
      9          1           0        2.868176    0.944747    0.528641
     10          1           0        3.003188   -0.815745    0.338324
     11          1           0        1.934801   -0.137335    1.573321
     12          1           0        1.575789    0.010498   -1.453180
     13          1           0       -1.021615    2.574688    0.027604
     14          1           0       -2.784753    1.066840    0.402930
     15          1           0       -2.648355   -1.277150    0.376899
 ---------------------------------------------------------------------
 Rotational constants (GHZ):           3.5060786           2.1992197           1.4670485
 Standard basis: 6-31G(2df,p) (6D, 7F)
 There are   283 symmetry adapted cartesian basis functions of A   symmetry.
 There are   259 symmetry adapted basis functions of A   symmetry.
   259 basis functions,   401 primitive gaussians,   283 cartesian basis functions
    29 alpha electrons       29 beta electrons
       nuclear repulsion energy       355.0133695213 Hartrees.
 NAtoms=   15 NActive=   15 NUniq=   15 SFac= 1.00D+00 NAtFMM=   60 NAOKFM=F Big=F
 Integral buffers will be    131072 words long.
 Raffenetti 2 integral format.
 Two-electron integral symmetry is turned on.
 One-electron integrals computed using PRISM.
 PrsmSu:  requested number of processors reduced to:  13 ShMem   1 Linda.
 NBasis=   259 RedAO= T EigKep=  1.77D-04  NBF=   259
 NBsUse=   259 1.00D-06 EigRej= -1.00D+00 NBFU=   259
 ExpMin= 1.61D-01 ExpMax= 4.17D+03 ExpMxC= 6.27D+02 IAcc=3 IRadAn=         5 AccDes= 0.00D+00
 Harris functional with IExCor=  402 and IRadAn=       5 diagonalized for initial guess.
 HarFok:  IExCor=  402 AccDes= 0.00D+00 IRadAn=         5 IDoV= 1 UseB2=F ITyADJ=14
 ICtDFT=  3500011 ScaDFX=  1.000000  1.000000  1.000000  1.000000
 FoFCou: FMM=F IPFlag=           0 FMFlag=      100000 FMFlg1=           0
         NFxFlg=           0 DoJE=T BraDBF=F KetDBF=T FulRan=T
         wScrn=  0.000000 ICntrl=       500 IOpCl=  0 I1Cent=   200000004 NGrid=           0
         NMat0=    1 NMatS0=      1 NMatT0=    0 NMatD0=    1 NMtDS0=    0 NMtDT0=    0
 Petite list used in FoFCou.
 Requested convergence on RMS density matrix=1.00D-08 within 128 cycles.
 Requested convergence on MAX density matrix=1.00D-06.
 Requested convergence on             energy=1.00D-06.
 No special actions if energy rises.
 Integral accuracy reduced to 1.0D-05 until final iterations.
 Initial convergence to 1.0D-05 achieved.  Increase integral accuracy.
 SCF Done:  E(RB3LYP) =  -358.898302101     A.U. after   15 cycles
            NFock= 15  Conv=0.81D-08     -V/T= 2.0068

 **********************************************************************

            Population analysis using the SCF density.

 **********************************************************************

 Orbital symmetries:
       Occupied  (A) (A) (A) (A) (A) (A) (A) (A) (A) (A) (A) (A)
                 (A) (A) (A) (A) (A) (A) (A) (A) (A) (A) (A) (A)
                 (A) (A) (A) (A) (A)
       Virtual   (A) (A) (A) (A) (A) (A) (A) (A) (A) (A) (A) (A)
                 (A) (A) (A) (A) (A) (A) (A) (A) (A) (A) (A) (A)
                 (A) (A) (A) (A) (A) (A) (A) (A) (A) (A) (A) (A)
                 (A) (A) (A) (A) (A) (A) (A) (A) (A) (A) (A) (A)
                 (A) (A) (A) (A) (A) (A) (A) (A) (A) (A) (A) (A)
                 (A) (A) (A) (A) (A) (A) (A) (A) (A) (A) (A) (A)
                 (A) (A) (A) (A) (A) (A) (A) (A) (A) (A) (A) (A)
                 (A) (A) (A) (A) (A) (A) (A) (A) (A) (A) (A) (A)
                 (A) (A) (A) (A) (A) (A) (A) (A) (A) (A) (A) (A)
                 (A) (A) (A) (A) (A) (A) (A) (A) (A) (A) (A) (A)
                 (A) (A) (A) (A) (A) (A) (A) (A) (A) (A) (A) (A)
                 (A) (A) (A) (A) (A) (A) (A) (A) (A) (A) (A) (A)
                 (A) (A) (A) (A) (A) (A) (A) (A) (A) (A) (A) (A)
                 (A) (A) (A) (A) (A) (A) (A) (A) (A) (A) (A) (A)
                 (A) (A) (A) (A) (A) (A) (A) (A) (A) (A) (A) (A)
                 (A) (A) (A) (A) (A) (A) (A) (A) (A) (A) (A) (A)
                 (A) (A) (A) (A) (A) (A) (A) (A) (A) (A) (A) (A)
                 (A) (A) (A) (A) (A) (A) (A) (A) (A) (A) (A) (A)
                 (A) (A) (A) (A) (A) (A) (A) (A) (A) (A) (A) (A)
                 (A) (A)
 The electronic state is 1-A.
 Alpha  occ. eigenvalues --  -14.37818 -14.37620 -14.33454 -10.24932 -10.24010
 Alpha  occ. eigenvalues --  -10.22850 -10.21423 -10.18150  -1.04126  -0.93150
 Alpha  occ. eigenvalues --   -0.84455  -0.76740  -0.72896  -0.66391  -0.59621
 Alpha  occ. eigenvalues --   -0.57196  -0.52504  -0.48646  -0.44758  -0.42981
 Alpha  occ. eigenvalues --   -0.42876  -0.39491  -0.39107  -0.37188  -0.35405
 Alpha  occ. eigenvalues --   -0.34175  -0.27697  -0.25637  -0.20208
 Alpha virt. eigenvalues --   -0.10669   0.00444   0.08600   0.09853   0.11808
 Alpha virt. eigenvalues --    0.13916   0.14634   0.16522   0.17489   0.18134
 Alpha virt. eigenvalues --    0.18544   0.21345   0.22419   0.25893   0.31455
 Alpha virt. eigenvalues --    0.33915   0.39647   0.40672   0.44424   0.44817
 Alpha virt. eigenvalues --    0.46491   0.47400   0.48860   0.51519   0.51616
 Alpha virt. eigenvalues --    0.51866   0.52611   0.54948   0.55275   0.60719
 Alpha virt. eigenvalues --    0.62029   0.62607   0.64274   0.65714   0.69244
 Alpha virt. eigenvalues --    0.71284   0.71613   0.72860   0.74309   0.74519
 Alpha virt. eigenvalues --    0.75508   0.77012   0.77122   0.78512   0.79523
 Alpha virt. eigenvalues --    0.80136   0.80720   0.82714   0.84613   0.88763
 Alpha virt. eigenvalues --    0.90124   0.92469   0.96951   1.00281   1.01641
 Alpha virt. eigenvalues --    1.01808   1.06107   1.08020   1.10299   1.11063
 Alpha virt. eigenvalues --    1.14429   1.18620   1.19956   1.22587   1.29638
 Alpha virt. eigenvalues --    1.30670   1.33443   1.35036   1.37969   1.39151
 Alpha virt. eigenvalues --    1.42749   1.44534   1.45740   1.48689   1.52278
 Alpha virt. eigenvalues --    1.54989   1.57182   1.58639   1.60063   1.63204
 Alpha virt. eigenvalues --    1.67771   1.70147   1.71069   1.72383   1.77969
 Alpha virt. eigenvalues --    1.80515   1.84858   1.86407   1.91401   1.95047
 Alpha virt. eigenvalues --    1.98042   2.01485   2.04177   2.07078   2.09399
 Alpha virt. eigenvalues --    2.11313   2.19000   2.21341   2.27715   2.30353
 Alpha virt. eigenvalues --    2.32375   2.34719   2.42876   2.43246   2.46956
 Alpha virt. eigenvalues --    2.51217   2.53827   2.62606   2.70335   2.72361
 Alpha virt. eigenvalues --    2.74694   2.77871   2.79161   2.81554   2.83561
 Alpha virt. eigenvalues --    2.88482   2.91705   2.92922   2.93850   2.95936
 Alpha virt. eigenvalues --    2.99506   3.03895   3.06820   3.10815   3.13183
 Alpha virt. eigenvalues --    3.14498   3.15135   3.16171   3.17678   3.21875
 Alpha virt. eigenvalues --    3.23349   3.23835   3.27079   3.29957   3.32140
 Alpha virt. eigenvalues --    3.35597   3.35612   3.37769   3.41081   3.42453
 Alpha virt. eigenvalues --    3.45827   3.49245   3.53234   3.59311   3.61068
 Alpha virt. eigenvalues --    3.63229   3.65791   3.68927   3.73752   3.74434
 Alpha virt. eigenvalues --    3.76985   3.78398   3.79796   3.81245   3.83313
 Alpha virt. eigenvalues --    3.88357   3.93044   3.95427   3.98409   4.01797
 Alpha virt. eigenvalues --    4.03756   4.06653   4.09484   4.11219   4.14838
 Alpha virt. eigenvalues --    4.15681   4.21047   4.23561   4.24727   4.26261
 Alpha virt. eigenvalues --    4.28321   4.30020   4.33564   4.36895   4.38750
 Alpha virt. eigenvalues --    4.39396   4.42330   4.43382   4.46007   4.48806
 Alpha virt. eigenvalues --    4.49170   4.52341   4.55233   4.56067   4.60931
 Alpha virt. eigenvalues --    4.62080   4.63896   4.68514   4.71819   4.75539
 Alpha virt. eigenvalues --    4.76350   4.81341   4.83105   4.84081   4.87862
 Alpha virt. eigenvalues --    4.89303   4.91032   4.98142   5.00281   5.05041
 Alpha virt. eigenvalues --    5.11797   5.13145   5.20463   5.21907   5.27599
 Alpha virt. eigenvalues --    5.29733   5.32019   5.34929   5.36540   5.40524
 Alpha virt. eigenvalues --    5.48130   5.59392   5.68461   5.75176   5.80316
 Alpha virt. eigenvalues --    5.91174   5.97282   6.15118   6.35242   7.81155
 Alpha virt. eigenvalues --   10.00150  10.80677  11.25183  11.29250  11.43259
 Alpha virt. eigenvalues --   11.50494  11.62970  12.15219  16.15271  21.04943
          Condensed to atoms (all electrons):
               1          2          3          4          5          6
     1  C    5.019190   0.360981  -0.042451   0.000222   0.000746   0.000203
     2  C    0.360981   4.802995   0.388866  -0.086708  -0.009387  -0.000709
     3  N   -0.042451   0.388866   6.326038   0.669624  -0.038638  -0.016701
     4  C    0.000222  -0.086708   0.669624   4.694924   0.408908  -0.006407
     5  C    0.000746  -0.009387  -0.038638   0.408908   4.944515   0.610487
     6  C    0.000203  -0.000709  -0.016701  -0.006407   0.610487   4.692657
     7  N    0.000052  -0.092739   0.014981  -0.020098  -0.016825   0.428423
     8  N   -0.033479   0.283118  -0.050210   0.006774  -0.001222  -0.099384
     9  H    0.369031  -0.020640   0.003940   0.000551  -0.000003   0.000017
    10  H    0.365768  -0.021519   0.002984  -0.000177  -0.000008   0.000013
    11  H    0.370185  -0.027206  -0.001177   0.001802  -0.000177   0.000045
    12  H   -0.044296   0.356799  -0.031230   0.000989   0.000676  -0.000211
    13  H   -0.000211   0.007407  -0.022588   0.357221  -0.078856   0.002443
    14  H    0.000007  -0.000320   0.005410  -0.038470   0.332372  -0.025610
    15  H    0.000006  -0.000513  -0.000076   0.003799  -0.055670   0.374863
               7          8          9         10         11         12
     1  C    0.000052  -0.033479   0.369031   0.365768   0.370185  -0.044296
     2  C   -0.092739   0.283118  -0.020640  -0.021519  -0.027206   0.356799
     3  N    0.014981  -0.050210   0.003940   0.002984  -0.001177  -0.031230
     4  C   -0.020098   0.006774   0.000551  -0.000177   0.001802   0.000989
     5  C   -0.016825  -0.001222  -0.000003  -0.000008  -0.000177   0.000676
     6  C    0.428423  -0.099384   0.000017   0.000013   0.000045  -0.000211
     7  N    6.254824   0.607689  -0.000087   0.000281   0.001751   0.001415
     8  N    0.607689   6.449424   0.002897   0.004611  -0.003118  -0.035124
     9  H   -0.000087   0.002897   0.566186  -0.027575  -0.028888  -0.001097
    10  H    0.000281   0.004611  -0.027575   0.574274  -0.028359  -0.002998
    11  H    0.001751  -0.003118  -0.028888  -0.028359   0.584782   0.005674
    12  H    0.001415  -0.035124  -0.001097  -0.002998   0.005674   0.627449
    13  H    0.000248  -0.000514  -0.000036   0.000005  -0.000029  -0.000249
    14  H    0.005370  -0.000554  -0.000001  -0.000000   0.000001   0.000013
    15  H   -0.035289   0.004490  -0.000000  -0.000000   0.000002   0.000010
              13         14         15
     1  C   -0.000211   0.000007   0.000006
     2  C    0.007407  -0.000320  -0.000513
     3  N   -0.022588   0.005410  -0.000076
     4  C    0.357221  -0.038470   0.003799
     5  C   -0.078856   0.332372  -0.055670
     6  C    0.002443  -0.025610   0.374863
     7  N    0.000248   0.005370  -0.035289
     8  N   -0.000514  -0.000554   0.004490
     9  H   -0.000036  -0.000001  -0.000000
    10  H    0.000005  -0.000000  -0.000000
    11  H   -0.000029   0.000001   0.000002
    12  H   -0.000249   0.000013   0.000010
    13  H    0.630580  -0.001051  -0.000277
    14  H   -0.001051   0.620780  -0.008018
    15  H   -0.000277  -0.008018   0.597408
 Mulliken charges:
               1
     1  C   -0.365954
     2  C    0.059575
     3  N   -0.208770
     4  C    0.007045
     5  C   -0.096916
     6  C    0.039870
     7  N   -0.149997
     8  N   -0.135398
     9  H    0.135706
    10  H    0.132701
    11  H    0.124713
    12  H    0.122181
    13  H    0.105907
    14  H    0.110071
    15  H    0.119267
 Sum of Mulliken charges =  -0.00000
 Mulliken charges with hydrogens summed into heavy atoms:
               1
     1  C    0.027165
     2  C    0.181756
     3  N   -0.208770
     4  C    0.112952
     5  C    0.013155
     6  C    0.159138
     7  N   -0.149997
     8  N   -0.135398
 Electronic spatial extent (au):  <R**2>=            843.4927
 Charge=             -0.0000 electrons
 Dipole moment (field-independent basis, Debye):
    X=             -1.3692    Y=              1.6709    Z=              0.4297  Tot=              2.2026
 Quadrupole moment (field-independent basis, Debye-Ang):
   XX=            -40.1711   YY=            -52.9857   ZZ=            -45.9965
   XY=             -2.1508   XZ=             -0.7627   YZ=              0.1869
 Traceless Quadrupole moment (field-independent basis, Debye-Ang):
   XX=              6.2133   YY=             -6.6012   ZZ=              0.3879
   XY=             -2.1508   XZ=             -0.7627   YZ=              0.1869
 Octapole moment (field-independent basis, Debye-Ang**2):
  XXX=             -5.9918  YYY=             11.9290  ZZZ=             -2.2661  XYY=             -7.2131
  XXY=              0.5437  XXZ=              1.7096  XZZ=              2.5531  YZZ=             -1.7084
  YYZ=              2.8956  XYZ=              0.1527
 Hexadecapole moment (field-independent basis, Debye-Ang**3):
 XXXX=           -610.7408 YYYY=           -404.5594 ZZZZ=            -87.8928 XXXY=              1.4036
 XXXZ=             -9.8493 YYYX=            -12.3542 YYYZ=              0.8826 ZZZX=             -1.6936
 ZZZY=              0.1145 XXYY=           -165.7608 XXZZ=           -126.4419 YYZZ=            -80.3732
 XXYZ=              0.6710 YYXZ=              0.8700 ZZXY=              0.7441
 N-N= 3.550133695213D+02 E-N=-1.544433445042D+03  KE= 3.564867925750D+02
 PrsmSu:  requested number of processors reduced to:  13 ShMem   1 Linda.
 Calling FoFJK, ICntrl=      2127 FMM=F ISym2X=0 I1Cent= 0 IOpClX= 0 NMat=1 NMatS=1 NMatT=0.
 ***** Axes restored to original set *****
 -------------------------------------------------------------------
 Center     Atomic                   Forces (Hartrees/Bohr)
 Number     Number              X              Y              Z
 -------------------------------------------------------------------
      1        6          -0.012182505   -0.005920528    0.002149759
      2        6          -0.004847956    0.017432911   -0.005399236
      3        7           0.006757004    0.010378439    0.000898721
      4        6          -0.001536657    0.015842061   -0.000610991
      5        6          -0.003778658    0.010671803    0.004882931
      6        6           0.025266625    0.015866394   -0.036009870
      7        7          -0.013150260   -0.036617802    0.016479264
      8        7          -0.005793686   -0.016665349    0.016846056
      9        1           0.004712480   -0.000641844   -0.000410418
     10        1           0.001616715    0.000190450   -0.001475210
     11        1           0.001365343    0.000583615    0.000322366
     12        1           0.001857431   -0.003090715    0.001086293
     13        1          -0.002146062   -0.004097587    0.002889578
     14        1           0.002074160   -0.001146303   -0.002312622
     15        1          -0.000213975   -0.002785545    0.000663379
 -------------------------------------------------------------------
 Cartesian Forces:  Max     0.036617802 RMS     0.011318524

 GradGradGradGradGradGradGradGradGradGradGradGradGradGradGradGradGradGrad
 Berny optimization.
 FormGI is forming the generalized inverse of G from B-inverse, IUseBI=4.
 Internal  Forces:  Max     0.048429109 RMS     0.007818057
 Search for a local minimum.
 Step number   1 out of a maximum of   77
 All quantities printed in internal units (Hartrees-Bohrs-Radians)
 Mixed Optimization -- RFO/linear search
 Second derivative matrix not updated -- first step.
 ITU=  0
     Eigenvalues ---    0.00358   0.01085   0.01883   0.01981   0.02265
     Eigenvalues ---    0.02512   0.02830   0.02876   0.05435   0.05436
     Eigenvalues ---    0.05593   0.06475   0.08612   0.16000   0.16000
     Eigenvalues ---    0.16000   0.16000   0.16000   0.16000   0.19096
     Eigenvalues ---    0.21102   0.22057   0.22884   0.24759   0.29348
     Eigenvalues ---    0.33191   0.34059   0.34082   0.34206   0.34209
     Eigenvalues ---    0.35048   0.35557   0.35937   0.37384   0.38276
     Eigenvalues ---    0.53496   0.58583   0.75798   0.87911
 RFO step:  Lambda=-9.93770927D-03 EMin= 3.58245490D-03
 Linear search not attempted -- first point.
 Iteration  1 RMS(Cart)=  0.02640908 RMS(Int)=  0.00058032
 Iteration  2 RMS(Cart)=  0.00079968 RMS(Int)=  0.00031218
 Iteration  3 RMS(Cart)=  0.00000033 RMS(Int)=  0.00031218
 Variable       Old X    -DE/DX   Delta X   Delta X   Delta X     New X
                                 (Linear)    (Quad)   (Total)
    R1        2.89283   0.00459   0.00000   0.01512   0.01512   2.90795
    R2        2.06978  -0.00243   0.00000  -0.00690  -0.00690   2.06289
    R3        2.06984  -0.00151   0.00000  -0.00430  -0.00430   2.06553
    R4        2.07192  -0.00089   0.00000  -0.00254  -0.00254   2.06939
    R5        2.73112   0.01278   0.00000   0.02765   0.02761   2.75873
    R6        2.75747   0.01827   0.00000   0.04590   0.04594   2.80341
    R7        2.07230   0.00166   0.00000   0.00474   0.00474   2.07704
    R8        2.39208   0.00011   0.00000  -0.00148  -0.00156   2.39051
    R9        2.74904   0.00854   0.00000   0.02236   0.02230   2.77133
   R10        2.08717  -0.00491   0.00000  -0.01438  -0.01438   2.07279
   R11        2.50985   0.01819   0.00000   0.03234   0.03235   2.54220
   R12        2.04781   0.00227   0.00000   0.00620   0.00620   2.05401
   R13        2.55323   0.04843   0.00000   0.08988   0.08995   2.64317
   R14        2.05597   0.00082   0.00000   0.00226   0.00226   2.05824
   R15        2.33027   0.01626   0.00000   0.01867   0.01875   2.34903
    A1        1.94833  -0.00548   0.00000  -0.03427  -0.03440   1.91393
    A2        1.93804  -0.00034   0.00000  -0.00014  -0.00018   1.93786
    A3        1.92650  -0.00045   0.00000  -0.00252  -0.00261   1.92389
    A4        1.89066   0.00310   0.00000   0.01798   0.01790   1.90856
    A5        1.88036   0.00260   0.00000   0.01174   0.01155   1.89191
    A6        1.87747   0.00094   0.00000   0.00943   0.00943   1.88690
    A7        1.85587   0.00202   0.00000   0.02951   0.02881   1.88468
    A8        1.84903  -0.00625   0.00000  -0.01494  -0.01614   1.83289
    A9        1.87713   0.00139   0.00000  -0.00463  -0.00513   1.87199
   A10        2.18009   0.00816   0.00000   0.04540   0.04508   2.22517
   A11        1.84524  -0.00215   0.00000  -0.01009  -0.00956   1.83568
   A12        1.84016  -0.00361   0.00000  -0.05112  -0.05114   1.78902
   A13        2.22258   0.00469   0.00000  -0.00640  -0.00678   2.21581
   A14        2.28865  -0.00270   0.00000  -0.02154  -0.02182   2.26683
   A15        2.02399  -0.00111   0.00000  -0.00373  -0.00361   2.02039
   A16        1.97053   0.00382   0.00000   0.02529   0.02542   1.99595
   A17        2.17584   0.00627   0.00000   0.03167   0.03148   2.20731
   A18        2.01455  -0.00070   0.00000  -0.00146  -0.00139   2.01316
   A19        2.09279  -0.00558   0.00000  -0.03018  -0.03011   2.06268
   A20        2.30778  -0.00352   0.00000  -0.00418  -0.00422   2.30356
   A21        2.02702   0.00458   0.00000   0.01869   0.01870   2.04572
   A22        1.94838  -0.00106   0.00000  -0.01451  -0.01451   1.93387
   A23        2.25323  -0.00803   0.00000  -0.02105  -0.02095   2.23227
   A24        2.27972  -0.00488   0.00000  -0.02367  -0.02361   2.25611
    D1       -0.77986   0.00256   0.00000  -0.00030  -0.00042  -0.78028
    D2       -3.13156  -0.00470   0.00000  -0.06716  -0.06703   3.08460
    D3        1.19036   0.00167   0.00000  -0.00013  -0.00023   1.19013
    D4       -2.89163   0.00261   0.00000   0.00039   0.00028  -2.89135
    D5        1.03986  -0.00465   0.00000  -0.06646  -0.06633   0.97353
    D6       -0.92141   0.00172   0.00000   0.00056   0.00047  -0.92094
    D7        1.31100   0.00195   0.00000  -0.00965  -0.00969   1.30131
    D8       -1.04070  -0.00531   0.00000  -0.07651  -0.07630  -1.11700
    D9       -3.00197   0.00106   0.00000  -0.00948  -0.00950  -3.01147
   D10       -2.16670   0.00145   0.00000   0.00780   0.00706  -2.15965
   D11       -0.00931   0.00101   0.00000   0.05340   0.05444   0.04513
   D12        2.12436  -0.00005   0.00000   0.00458   0.00458   2.12894
   D13        2.15928   0.00172   0.00000   0.01222   0.01184   2.17113
   D14       -0.00108  -0.00140   0.00000  -0.05240  -0.05300  -0.05408
   D15       -2.13699  -0.00096   0.00000  -0.02159  -0.02085  -2.15783
   D16        0.00660  -0.00032   0.00000  -0.02182  -0.02143  -0.01483
   D17       -3.13774  -0.00025   0.00000  -0.01330  -0.01301   3.13244
   D18        0.00192  -0.00006   0.00000  -0.00576  -0.00560  -0.00368
   D19        3.14015   0.00016   0.00000   0.00608   0.00623  -3.13681
   D20       -3.13699  -0.00012   0.00000  -0.01404  -0.01389   3.13230
   D21        0.00124   0.00010   0.00000  -0.00220  -0.00206  -0.00082
   D22       -0.00128  -0.00012   0.00000   0.00057   0.00055  -0.00073
   D23        3.13994   0.00018   0.00000   0.01007   0.00994  -3.13331
   D24       -3.13937  -0.00036   0.00000  -0.01183  -0.01163   3.13218
   D25        0.00185  -0.00006   0.00000  -0.00233  -0.00224  -0.00040
   D26       -0.00882   0.00003   0.00000   0.00715   0.00686  -0.00196
   D27        3.13314  -0.00026   0.00000  -0.00203  -0.00208   3.13106
   D28        0.01155   0.00072   0.00000   0.01771   0.01721   0.02876
         Item               Value     Threshold  Converged?
 Maximum Force            0.048429     0.000450     NO 
 RMS     Force            0.007818     0.000300     NO 
 Maximum Displacement     0.088208     0.001800     NO 
 RMS     Displacement     0.026422     0.001200     NO 
 Predicted change in Energy=-5.208296D-03
 GradGradGradGradGradGradGradGradGradGradGradGradGradGradGradGradGradGrad

                          Input orientation:                          
 ---------------------------------------------------------------------
 Center     Atomic      Atomic             Coordinates (Angstroms)
 Number     Number       Type             X           Y           Z
 ---------------------------------------------------------------------
      1          6           0        1.086542    0.048217   -0.028471
      2          6           0        2.622724    0.094959   -0.105500
      3          7           0        3.008157    1.401482   -0.630496
      4          6           0        3.720157    1.631348   -1.650522
      5          6           0        4.367826    0.695551   -2.575461
      6          6           0        4.329958   -0.647638   -2.510860
      7          7           0        3.711631   -1.524118   -1.613177
      8          7           0        3.022585   -1.238206   -0.618871
      9          1           0        0.711707    0.980231    0.398740
     10          1           0        0.749883   -0.792165    0.584016
     11          1           0        0.660523   -0.068648   -1.030487
     12          1           0        3.001654    0.076168    0.926068
     13          1           0        3.889111    2.689389   -1.885343
     14          1           0        4.935170    1.154970   -3.380744
     15          1           0        4.874612   -1.198631   -3.276401
 ---------------------------------------------------------------------
                    Distance matrix (angstroms):
                    1          2          3          4          5
     1  C    0.000000
     2  C    1.538822   0.000000
     3  N    2.426183   1.459856   0.000000
     4  C    3.474663   2.439661   1.265005   0.000000
     5  C    4.203929   3.083309   2.475868   1.466527   0.000000
     6  C    4.143213   3.041686   3.079256   2.511138   1.345274
     7  N    3.445958   2.465810   3.165387   3.155698   2.506693
     8  N    2.398274   1.483499   2.639753   3.128139   3.062243
     9  H    1.091632   2.165629   2.551560   3.697864   4.721664
    10  H    1.093034   2.184023   3.374453   4.437242   5.028430
    11  H    1.095073   2.175453   2.798689   3.554686   4.088402
    12  H    2.139995   1.099125   2.044356   3.094132   3.809300
    13  H    4.275296   3.391554   2.002355   1.096875   2.163520
    14  H    5.222507   4.147078   3.367197   2.167224   1.086935
    15  H    5.143263   4.098657   4.152716   3.461940   2.082325
                    6          7          8          9         10
     6  C    0.000000
     7  N    1.398707   0.000000
     8  N    2.374367   1.243051   0.000000
     9  H    4.920108   4.395352   3.361123   0.000000
    10  H    4.734563   3.759703   2.609802   1.782463   0.000000
    11  H    3.998935   3.430332   2.667701   1.773543   1.771463
    12  H    3.755098   3.084274   2.028510   2.517789   2.437514
    13  H    3.423647   4.226016   4.216731   4.270146   5.298463
    14  H    2.091022   3.434945   4.124708   5.670333   6.085005
    15  H    1.089171   2.055426   3.239450   5.965222   5.664046
                   11         12         13         14         15
    11  H    0.000000
    12  H    3.054500   0.000000
    13  H    4.331434   3.939612   0.000000
    14  H    5.029270   4.842616   2.384304   0.000000
    15  H    4.907090   4.774288   4.245345   2.356691   0.000000
 Stoichiometry    C5H7N3
 Framework group  C1[X(C5H7N3)]
 Deg. of freedom    39
 Full point group                 C1      NOp   1
 Largest Abelian subgroup         C1      NOp   1
 Largest concise Abelian subgroup C1      NOp   1
                         Standard orientation:                         
 ---------------------------------------------------------------------
 Center     Atomic      Atomic             Coordinates (Angstroms)
 Number     Number       Type             X           Y           Z
 ---------------------------------------------------------------------
      1          6           0        2.317211    0.013964    0.558227
      2          6           0        1.134866    0.038239   -0.426376
      3          7           0        0.474875    1.334842   -0.306319
      4          6           0       -0.743490    1.546269   -0.039631
      5          6           0       -1.831517    0.593875    0.204998
      6          6           0       -1.738464   -0.748070    0.188071
      7          7           0       -0.661557   -1.608350   -0.049773
      8          7           0        0.514272   -1.304603   -0.314991
      9          1           0        2.867421    0.954652    0.494705
     10          1           0        2.993194   -0.816544    0.339077
     11          1           0        1.953255   -0.104974    1.584178
     12          1           0        1.555633    0.022447   -1.441649
     13          1           0       -1.043719    2.599858    0.014670
     14          1           0       -2.801672    1.038624    0.410974
     15          1           0       -2.648879   -1.312953    0.383896
 ---------------------------------------------------------------------
 Rotational constants (GHZ):           3.3539438           2.1918845           1.4377899
 Standard basis: 6-31G(2df,p) (6D, 7F)
 There are   283 symmetry adapted cartesian basis functions of A   symmetry.
 There are   259 symmetry adapted basis functions of A   symmetry.
   259 basis functions,   401 primitive gaussians,   283 cartesian basis functions
    29 alpha electrons       29 beta electrons
       nuclear repulsion energy       351.4517380062 Hartrees.
 NAtoms=   15 NActive=   15 NUniq=   15 SFac= 1.00D+00 NAtFMM=   60 NAOKFM=F Big=F
 Integral buffers will be    131072 words long.
 Raffenetti 2 integral format.
 Two-electron integral symmetry is turned on.
 One-electron integrals computed using PRISM.
 PrsmSu:  requested number of processors reduced to:  13 ShMem   1 Linda.
 NBasis=   259 RedAO= T EigKep=  1.92D-04  NBF=   259
 NBsUse=   259 1.00D-06 EigRej= -1.00D+00 NBFU=   259
 Initial guess from the checkpoint file:  "CC1NdCCdCNdN1.chk"
 B after Tr=    -0.000000   -0.000000   -0.000000
         Rot=    0.999987   -0.000823   -0.000535   -0.005021 Ang=  -0.59 deg.
 ExpMin= 1.61D-01 ExpMax= 4.17D+03 ExpMxC= 6.27D+02 IAcc=2 IRadAn=         4 AccDes= 0.00D+00
 Harris functional with IExCor=  402 and IRadAn=       4 diagonalized for initial guess.
 HarFok:  IExCor=  402 AccDes= 0.00D+00 IRadAn=         4 IDoV= 1 UseB2=F ITyADJ=14
 ICtDFT=  3500011 ScaDFX=  1.000000  1.000000  1.000000  1.000000
 FoFCou: FMM=F IPFlag=           0 FMFlag=      100000 FMFlg1=           0
         NFxFlg=           0 DoJE=T BraDBF=F KetDBF=T FulRan=T
         wScrn=  0.000000 ICntrl=       500 IOpCl=  0 I1Cent=   200000004 NGrid=           0
         NMat0=    1 NMatS0=      1 NMatT0=    0 NMatD0=    1 NMtDS0=    0 NMtDT0=    0
 Petite list used in FoFCou.
 Requested convergence on RMS density matrix=1.00D-08 within 128 cycles.
 Requested convergence on MAX density matrix=1.00D-06.
 Requested convergence on             energy=1.00D-06.
 No special actions if energy rises.
 Integral accuracy reduced to 1.0D-05 until final iterations.
 Initial convergence to 1.0D-05 achieved.  Increase integral accuracy.
 SCF Done:  E(RB3LYP) =  -358.904212901     A.U. after   14 cycles
            NFock= 14  Conv=0.30D-08     -V/T= 2.0076
 PrsmSu:  requested number of processors reduced to:  13 ShMem   1 Linda.
 Calling FoFJK, ICntrl=      2127 FMM=F ISym2X=0 I1Cent= 0 IOpClX= 0 NMat=1 NMatS=1 NMatT=0.
 ***** Axes restored to original set *****
 -------------------------------------------------------------------
 Center     Atomic                   Forces (Hartrees/Bohr)
 Number     Number              X              Y              Z
 -------------------------------------------------------------------
      1        6          -0.002180658   -0.000542172   -0.000984241
      2        6          -0.002320427    0.008268910    0.000413795
      3        7          -0.000764150   -0.000904637    0.003508436
      4        6           0.000433296    0.001471687   -0.002855508
      5        6          -0.003132018   -0.003093496    0.003953645
      6        6           0.007147946    0.015473039   -0.012330675
      7        7          -0.006370435   -0.013310731    0.009829936
      8        7           0.004839500   -0.005063534   -0.003014414
      9        1           0.000661006    0.000333277    0.000234065
     10        1           0.001537049    0.000109552   -0.000682406
     11        1           0.000370925    0.000582844   -0.000013862
     12        1           0.000050613   -0.000325322    0.000270473
     13        1           0.000191784   -0.001241611    0.000420816
     14        1           0.000944824   -0.000940798   -0.000720872
     15        1          -0.001409255   -0.000817007    0.001970812
 -------------------------------------------------------------------
 Cartesian Forces:  Max     0.015473039 RMS     0.004640298

 GradGradGradGradGradGradGradGradGradGradGradGradGradGradGradGradGradGrad
 Berny optimization.
 Using GEDIIS/GDIIS optimizer.
 FormGI is forming the generalized inverse of G from B-inverse, IUseBI=4.
 Internal  Forces:  Max     0.013868273 RMS     0.002300823
 Search for a local minimum.
 Step number   2 out of a maximum of   77
 All quantities printed in internal units (Hartrees-Bohrs-Radians)
 Mixed Optimization -- RFO/linear search
 Update second derivatives using D2CorX and points    1    2
 DE= -5.91D-03 DEPred=-5.21D-03 R= 1.13D+00
 TightC=F SS=  1.41D+00  RLast= 2.20D-01 DXNew= 5.0454D-01 6.6053D-01
 Trust test= 1.13D+00 RLast= 2.20D-01 DXMaxT set to 5.05D-01
 ITU=  1  0
 Use linear search instead of GDIIS.
     Eigenvalues ---    0.00358   0.01058   0.01872   0.01967   0.02255
     Eigenvalues ---    0.02498   0.02831   0.02877   0.05182   0.05576
     Eigenvalues ---    0.05719   0.06520   0.08680   0.15118   0.16000
     Eigenvalues ---    0.16000   0.16000   0.16000   0.16166   0.18672
     Eigenvalues ---    0.21700   0.21833   0.22843   0.24696   0.29457
     Eigenvalues ---    0.32672   0.33690   0.34071   0.34094   0.34231
     Eigenvalues ---    0.34306   0.35134   0.35565   0.37110   0.39118
     Eigenvalues ---    0.46962   0.61376   0.75995   0.89883
 RFO step:  Lambda=-1.54777156D-03 EMin= 3.58430479D-03
 Quartic linear search produced a step of  0.29534.
 Iteration  1 RMS(Cart)=  0.05461818 RMS(Int)=  0.00149339
 Iteration  2 RMS(Cart)=  0.00204377 RMS(Int)=  0.00026285
 Iteration  3 RMS(Cart)=  0.00000261 RMS(Int)=  0.00026285
 Iteration  4 RMS(Cart)=  0.00000000 RMS(Int)=  0.00026285
 Variable       Old X    -DE/DX   Delta X   Delta X   Delta X     New X
                                 (Linear)    (Quad)   (Total)
    R1        2.90795  -0.00047   0.00447  -0.00461  -0.00014   2.90781
    R2        2.06289   0.00015  -0.00204   0.00172  -0.00032   2.06257
    R3        2.06553  -0.00094  -0.00127  -0.00280  -0.00407   2.06146
    R4        2.06939  -0.00019  -0.00075  -0.00030  -0.00105   2.06834
    R5        2.75873  -0.00185   0.00816  -0.01144  -0.00346   2.75527
    R6        2.80341   0.00772   0.01357   0.01888   0.03232   2.83573
    R7        2.07704   0.00028   0.00140   0.00024   0.00164   2.07869
    R8        2.39051   0.00125  -0.00046   0.00201   0.00146   2.39197
    R9        2.77133  -0.00055   0.00659  -0.00587   0.00077   2.77211
   R10        2.07279  -0.00126  -0.00425  -0.00244  -0.00669   2.06611
   R11        2.54220  -0.00379   0.00955  -0.01338  -0.00365   2.53855
   R12        2.05401   0.00063   0.00183   0.00122   0.00306   2.05707
   R13        2.64317   0.01387   0.02657   0.01766   0.04439   2.68756
   R14        2.05824  -0.00168   0.00067  -0.00653  -0.00586   2.05238
   R15        2.34903  -0.00218   0.00554  -0.00614  -0.00058   2.34845
    A1        1.91393  -0.00071  -0.01016  -0.00034  -0.01058   1.90335
    A2        1.93786  -0.00166  -0.00005  -0.01329  -0.01340   1.92447
    A3        1.92389  -0.00004  -0.00077   0.00043  -0.00038   1.92351
    A4        1.90856   0.00118   0.00529   0.00599   0.01117   1.91973
    A5        1.89191   0.00041   0.00341   0.00164   0.00499   1.89690
    A6        1.88690   0.00089   0.00279   0.00603   0.00881   1.89571
    A7        1.88468  -0.00119   0.00851  -0.01050  -0.00196   1.88272
    A8        1.83289  -0.00043  -0.00477  -0.00047  -0.00538   1.82750
    A9        1.87199   0.00085  -0.00152   0.00733   0.00555   1.87755
   A10        2.22517   0.00167   0.01331   0.00330   0.01599   2.24116
   A11        1.83568  -0.00000  -0.00282   0.00477   0.00219   1.83787
   A12        1.78902  -0.00082  -0.01510  -0.00225  -0.01725   1.77177
   A13        2.21581  -0.00113  -0.00200  -0.00968  -0.01276   2.20304
   A14        2.26683  -0.00003  -0.00645   0.00058  -0.00637   2.26046
   A15        2.02039   0.00012  -0.00107   0.00286   0.00201   2.02240
   A16        1.99595  -0.00009   0.00751  -0.00349   0.00424   2.00020
   A17        2.20731   0.00275   0.00930   0.01011   0.01916   2.22647
   A18        2.01316  -0.00001  -0.00041   0.00348   0.00306   2.01623
   A19        2.06268  -0.00274  -0.00889  -0.01372  -0.02261   2.04007
   A20        2.30356   0.00049  -0.00125   0.00440   0.00300   2.30656
   A21        2.04572   0.00174   0.00552   0.01087   0.01633   2.06206
   A22        1.93387  -0.00223  -0.00428  -0.01542  -0.01976   1.91411
   A23        2.23227  -0.00520  -0.00619  -0.02193  -0.02847   2.20380
   A24        2.25611   0.00144  -0.00697   0.01069   0.00294   2.25905
    D1       -0.78028   0.00008  -0.00012  -0.07184  -0.07215  -0.85242
    D2        3.08460  -0.00084  -0.01980  -0.06765  -0.08722   2.99738
    D3        1.19013  -0.00008  -0.00007  -0.06778  -0.06786   1.12227
    D4       -2.89135   0.00014   0.00008  -0.07051  -0.07065  -2.96200
    D5        0.97353  -0.00078  -0.01959  -0.06632  -0.08572   0.88781
    D6       -0.92094  -0.00002   0.00014  -0.06645  -0.06636  -0.98730
    D7        1.30131   0.00012  -0.00286  -0.06976  -0.07280   1.22851
    D8       -1.11700  -0.00080  -0.02253  -0.06557  -0.08788  -1.20488
    D9       -3.01147  -0.00004  -0.00281  -0.06571  -0.06852  -3.07998
   D10       -2.15965   0.00098   0.00208   0.07890   0.08069  -2.07895
   D11        0.04513   0.00049   0.01608   0.06883   0.08535   0.13048
   D12        2.12894   0.00054   0.00135   0.07292   0.07418   2.20312
   D13        2.17113  -0.00125   0.00350  -0.08688  -0.08357   2.08756
   D14       -0.05408  -0.00044  -0.01565  -0.07295  -0.08906  -0.14314
   D15       -2.15783  -0.00078  -0.00616  -0.07990  -0.08574  -2.24358
   D16       -0.01483  -0.00002  -0.00633  -0.00506  -0.01114  -0.02597
   D17        3.13244   0.00021  -0.00384   0.00501   0.00139   3.13383
   D18       -0.00368  -0.00022  -0.00165  -0.02813  -0.02970  -0.03338
   D19       -3.13681   0.00012   0.00184  -0.00791  -0.00589   3.14048
   D20        3.13230  -0.00044  -0.00410  -0.03807  -0.04210   3.09020
   D21       -0.00082  -0.00011  -0.00061  -0.01785  -0.01830  -0.01912
   D22       -0.00073  -0.00021   0.00016  -0.00969  -0.00965  -0.01038
   D23       -3.13331   0.00024   0.00294   0.01494   0.01775  -3.11556
   D24        3.13218  -0.00054  -0.00344  -0.03034  -0.03362   3.09857
   D25       -0.00040  -0.00009  -0.00066  -0.00572  -0.00622  -0.00661
   D26       -0.00196   0.00063   0.00203   0.03927   0.04089   0.03893
   D27        3.13106   0.00021  -0.00061   0.01594   0.01537  -3.13676
   D28        0.02876  -0.00033   0.00508   0.00603   0.01054   0.03931
         Item               Value     Threshold  Converged?
 Maximum Force            0.013868     0.000450     NO 
 RMS     Force            0.002301     0.000300     NO 
 Maximum Displacement     0.207550     0.001800     NO 
 RMS     Displacement     0.055218     0.001200     NO 
 Predicted change in Energy=-9.805589D-04
 GradGradGradGradGradGradGradGradGradGradGradGradGradGradGradGradGradGrad

                          Input orientation:                          
 ---------------------------------------------------------------------
 Center     Atomic      Atomic             Coordinates (Angstroms)
 Number     Number       Type             X           Y           Z
 ---------------------------------------------------------------------
      1          6           0        1.103622    0.049579   -0.068680
      2          6           0        2.641015    0.112664   -0.082255
      3          7           0        3.030668    1.420593   -0.595411
      4          6           0        3.715433    1.641909   -1.636711
      5          6           0        4.318574    0.690930   -2.576797
      6          6           0        4.299665   -0.650610   -2.509879
      7          7           0        3.737235   -1.551280   -1.563781
      8          7           0        3.073754   -1.242687   -0.559303
      9          1           0        0.714213    0.951032    0.407804
     10          1           0        0.766543   -0.834556    0.474185
     11          1           0        0.718215   -0.000626   -1.091867
     12          1           0        2.983332    0.097172    0.963003
     13          1           0        3.903196    2.693495   -1.869733
     14          1           0        4.866236    1.134783   -3.406260
     15          1           0        4.820539   -1.209486   -3.281826
 ---------------------------------------------------------------------
                    Distance matrix (angstroms):
                    1          2          3          4          5
     1  C    0.000000
     2  C    1.538747   0.000000
     3  N    2.422939   1.458025   0.000000
     4  C    3.437411   2.430905   1.265776   0.000000
     5  C    4.127700   3.061264   2.473257   1.466937   0.000000
     6  C    4.082207   3.037608   3.092802   2.521784   1.343342
     7  N    3.425491   2.483007   3.204529   3.194096   2.528174
     8  N    2.406674   1.500604   2.663873   3.145386   3.059206
     9  H    1.091464   2.157681   2.567663   3.696577   4.686889
    10  H    1.090880   2.172670   3.369866   4.391437   4.924686
    11  H    1.094519   2.174698   2.759306   3.460939   3.955485
    12  H    2.144749   1.099994   2.045077   3.111382   3.829570
    13  H    4.251082   3.383617   2.001370   1.093337   2.163965
    14  H    5.145325   4.128601   3.369253   2.170905   1.088552
    15  H    5.071984   4.090923   4.163865   3.472480   2.088209
                    6          7          8          9         10
     6  C    0.000000
     7  N    1.422194   0.000000
     8  N    2.378689   1.242744   0.000000
     9  H    4.892198   4.391739   3.363797   0.000000
    10  H    4.628329   3.673147   2.560838   1.787587   0.000000
    11  H    3.906408   3.426618   2.715678   1.776143   1.774907
    12  H    3.788511   3.109726   2.029978   2.487213   2.453816
    13  H    3.427829   4.259021   4.230689   4.288702   5.270644
    14  H    2.076567   3.447363   4.119529   5.640935   5.978598
    15  H    1.086072   2.059624   3.234886   5.928163   5.539230
                   11         12         13         14         15
    11  H    0.000000
    12  H    3.059871   0.000000
    13  H    4.243521   3.951131   0.000000
    14  H    4.883815   4.869540   2.391222   0.000000
    15  H    4.804823   4.806376   4.250739   2.348014   0.000000
 Stoichiometry    C5H7N3
 Framework group  C1[X(C5H7N3)]
 Deg. of freedom    39
 Full point group                 C1      NOp   1
 Largest Abelian subgroup         C1      NOp   1
 Largest concise Abelian subgroup C1      NOp   1
                         Standard orientation:                         
 ---------------------------------------------------------------------
 Center     Atomic      Atomic             Coordinates (Angstroms)
 Number     Number       Type             X           Y           Z
 ---------------------------------------------------------------------
      1          6           0        2.266344    0.002070    0.612367
      2          6           0        1.135975    0.040414   -0.430963
      3          7           0        0.490996    1.345137   -0.344158
      4          6           0       -0.722618    1.562025   -0.057292
      5          6           0       -1.798783    0.607464    0.230084
      6          6           0       -1.729275   -0.733997    0.215327
      7          7           0       -0.664984   -1.631501   -0.075201
      8          7           0        0.503991   -1.318668   -0.358120
      9          1           0        2.869715    0.906626    0.517410
     10          1           0        2.890210   -0.879962    0.461264
     11          1           0        1.847188   -0.035363    1.622752
     12          1           0        1.602135    0.012714   -1.426912
     13          1           0       -1.026771    2.611911   -0.032472
     14          1           0       -2.769087    1.047713    0.452880
     15          1           0       -2.633268   -1.296261    0.430289
 ---------------------------------------------------------------------
 Rotational constants (GHZ):           3.2529758           2.2285110           1.4519385
 Standard basis: 6-31G(2df,p) (6D, 7F)
 There are   283 symmetry adapted cartesian basis functions of A   symmetry.
 There are   259 symmetry adapted basis functions of A   symmetry.
   259 basis functions,   401 primitive gaussians,   283 cartesian basis functions
    29 alpha electrons       29 beta electrons
       nuclear repulsion energy       351.0202540159 Hartrees.
 NAtoms=   15 NActive=   15 NUniq=   15 SFac= 1.00D+00 NAtFMM=   60 NAOKFM=F Big=F
 Integral buffers will be    131072 words long.
 Raffenetti 2 integral format.
 Two-electron integral symmetry is turned on.
 One-electron integrals computed using PRISM.
 PrsmSu:  requested number of processors reduced to:  13 ShMem   1 Linda.
 NBasis=   259 RedAO= T EigKep=  1.97D-04  NBF=   259
 NBsUse=   259 1.00D-06 EigRej= -1.00D+00 NBFU=   259
 Initial guess from the checkpoint file:  "CC1NdCCdCNdN1.chk"
 B after Tr=     0.000000    0.000000    0.000000
         Rot=    0.999989    0.001052    0.002945    0.003553 Ang=   0.54 deg.
 ExpMin= 1.61D-01 ExpMax= 4.17D+03 ExpMxC= 6.27D+02 IAcc=2 IRadAn=         4 AccDes= 0.00D+00
 Harris functional with IExCor=  402 and IRadAn=       4 diagonalized for initial guess.
 HarFok:  IExCor=  402 AccDes= 0.00D+00 IRadAn=         4 IDoV= 1 UseB2=F ITyADJ=14
 ICtDFT=  3500011 ScaDFX=  1.000000  1.000000  1.000000  1.000000
 FoFCou: FMM=F IPFlag=           0 FMFlag=      100000 FMFlg1=           0
         NFxFlg=           0 DoJE=T BraDBF=F KetDBF=T FulRan=T
         wScrn=  0.000000 ICntrl=       500 IOpCl=  0 I1Cent=   200000004 NGrid=           0
         NMat0=    1 NMatS0=      1 NMatT0=    0 NMatD0=    1 NMtDS0=    0 NMtDT0=    0
 Petite list used in FoFCou.
 Requested convergence on RMS density matrix=1.00D-08 within 128 cycles.
 Requested convergence on MAX density matrix=1.00D-06.
 Requested convergence on             energy=1.00D-06.
 No special actions if energy rises.
 Integral accuracy reduced to 1.0D-05 until final iterations.
 Initial convergence to 1.0D-05 achieved.  Increase integral accuracy.
 SCF Done:  E(RB3LYP) =  -358.905643479     A.U. after   14 cycles
            NFock= 14  Conv=0.67D-08     -V/T= 2.0077
 PrsmSu:  requested number of processors reduced to:  13 ShMem   1 Linda.
 Calling FoFJK, ICntrl=      2127 FMM=F ISym2X=0 I1Cent= 0 IOpClX= 0 NMat=1 NMatS=1 NMatT=0.
 ***** Axes restored to original set *****
 -------------------------------------------------------------------
 Center     Atomic                   Forces (Hartrees/Bohr)
 Number     Number              X              Y              Z
 -------------------------------------------------------------------
      1        6           0.001070064    0.000680663   -0.000749794
      2        6          -0.003739395    0.002855373   -0.000943870
      3        7           0.001372946   -0.002700751    0.003304284
      4        6           0.000471288   -0.001882771   -0.002304192
      5        6          -0.000395812   -0.001993936    0.001763087
      6        6           0.000212766    0.004810045   -0.003242370
      7        7          -0.002990547   -0.000501517    0.005345438
      8        7           0.005781067   -0.001480401   -0.002481508
      9        1          -0.000736395   -0.000078904    0.000218981
     10        1          -0.000163105   -0.000389161    0.000233156
     11        1           0.000077572    0.000348281   -0.000012949
     12        1          -0.000670024    0.000007346   -0.000720779
     13        1           0.000225924    0.000482222   -0.000401750
     14        1          -0.000076129    0.000046223    0.000132509
     15        1          -0.000440221   -0.000202712   -0.000140241
 -------------------------------------------------------------------
 Cartesian Forces:  Max     0.005781067 RMS     0.001986038

 GradGradGradGradGradGradGradGradGradGradGradGradGradGradGradGradGradGrad
 Berny optimization.
 Using GEDIIS/GDIIS optimizer.
 FormGI is forming the generalized inverse of G from B-inverse, IUseBI=4.
 Internal  Forces:  Max     0.004088866 RMS     0.000996216
 Search for a local minimum.
 Step number   3 out of a maximum of   77
 All quantities printed in internal units (Hartrees-Bohrs-Radians)
 Mixed Optimization -- En-DIIS/RFO-DIIS
 Update second derivatives using D2CorX and points    1    2    3
 DE= -1.43D-03 DEPred=-9.81D-04 R= 1.46D+00
 TightC=F SS=  1.41D+00  RLast= 3.27D-01 DXNew= 8.4853D-01 9.8170D-01
 Trust test= 1.46D+00 RLast= 3.27D-01 DXMaxT set to 8.49D-01
 ITU=  1  1  0
 Use linear search instead of GDIIS.
     Eigenvalues ---    0.00289   0.00648   0.01871   0.01978   0.02250
     Eigenvalues ---    0.02487   0.02787   0.02879   0.05027   0.05677
     Eigenvalues ---    0.05790   0.06474   0.08696   0.15837   0.15996
     Eigenvalues ---    0.15999   0.16000   0.16098   0.16396   0.20281
     Eigenvalues ---    0.21723   0.21935   0.23106   0.25613   0.29460
     Eigenvalues ---    0.33264   0.33383   0.34085   0.34181   0.34231
     Eigenvalues ---    0.34580   0.35245   0.35572   0.37302   0.39181
     Eigenvalues ---    0.48908   0.62509   0.76167   0.92268
 RFO step:  Lambda=-1.21023953D-03 EMin= 2.88847753D-03
 Quartic linear search produced a step of  0.67375.
 Iteration  1 RMS(Cart)=  0.10208392 RMS(Int)=  0.00427823
 Iteration  2 RMS(Cart)=  0.00701025 RMS(Int)=  0.00121369
 Iteration  3 RMS(Cart)=  0.00001483 RMS(Int)=  0.00121363
 Iteration  4 RMS(Cart)=  0.00000001 RMS(Int)=  0.00121363
 Variable       Old X    -DE/DX   Delta X   Delta X   Delta X     New X
                                 (Linear)    (Quad)   (Total)
    R1        2.90781  -0.00027  -0.00010   0.00098   0.00088   2.90869
    R2        2.06257   0.00029  -0.00021   0.00023   0.00002   2.06259
    R3        2.06146   0.00048  -0.00274   0.00179  -0.00096   2.06051
    R4        2.06834  -0.00003  -0.00071  -0.00043  -0.00114   2.06720
    R5        2.75527  -0.00259  -0.00233  -0.00559  -0.00877   2.74649
    R6        2.83573   0.00136   0.02178   0.00930   0.03025   2.86598
    R7        2.07869  -0.00089   0.00111  -0.00331  -0.00220   2.07649
    R8        2.39197   0.00141   0.00098   0.00236   0.00311   2.39508
    R9        2.77211  -0.00186   0.00052  -0.00363  -0.00257   2.76954
   R10        2.06611   0.00059  -0.00450   0.00100  -0.00350   2.06261
   R11        2.53855  -0.00342  -0.00246  -0.00302  -0.00456   2.53399
   R12        2.05707  -0.00012   0.00206   0.00018   0.00224   2.05931
   R13        2.68756   0.00243   0.02990   0.01646   0.04702   2.73457
   R14        2.05238  -0.00001  -0.00395   0.00083  -0.00311   2.04926
   R15        2.34845  -0.00409  -0.00039  -0.00400  -0.00457   2.34388
    A1        1.90335   0.00101  -0.00713   0.00503  -0.00214   1.90121
    A2        1.92447  -0.00011  -0.00903   0.00005  -0.00902   1.91545
    A3        1.92351  -0.00028  -0.00025  -0.00319  -0.00346   1.92005
    A4        1.91973  -0.00043   0.00752  -0.00171   0.00574   1.92547
    A5        1.89690  -0.00035   0.00336  -0.00170   0.00165   1.89855
    A6        1.89571   0.00014   0.00594   0.00145   0.00737   1.90308
    A7        1.88272   0.00041  -0.00132   0.01107   0.01092   1.89365
    A8        1.82750   0.00089  -0.00363   0.00725   0.00480   1.83230
    A9        1.87755   0.00010   0.00374   0.00346   0.00676   1.88431
   A10        2.24116  -0.00108   0.01077  -0.00502   0.00258   2.24374
   A11        1.83787  -0.00001   0.00147  -0.00363  -0.00176   1.83611
   A12        1.77177  -0.00023  -0.01162  -0.01347  -0.02450   1.74726
   A13        2.20304  -0.00015  -0.00860  -0.00325  -0.01722   2.18582
   A14        2.26046   0.00054  -0.00429  -0.00004  -0.00657   2.25389
   A15        2.02240   0.00006   0.00135   0.00096   0.00336   2.02576
   A16        2.00020  -0.00059   0.00286  -0.00056   0.00334   2.00354
   A17        2.22647   0.00013   0.01291   0.00359   0.01562   2.24209
   A18        2.01623  -0.00016   0.00206  -0.00163   0.00071   2.01694
   A19        2.04007   0.00003  -0.01523  -0.00209  -0.01703   2.02304
   A20        2.30656  -0.00062   0.00202  -0.00623  -0.00515   2.30141
   A21        2.06206   0.00053   0.01101   0.00589   0.01695   2.07900
   A22        1.91411   0.00008  -0.01332  -0.00032  -0.01360   1.90052
   A23        2.20380   0.00028  -0.01918  -0.00178  -0.02389   2.17992
   A24        2.25905   0.00070   0.00198  -0.00338  -0.00643   2.25262
    D1       -0.85242  -0.00032  -0.04861  -0.02870  -0.07825  -0.93067
    D2        2.99738   0.00006  -0.05877  -0.03658  -0.09437   2.90300
    D3        1.12227  -0.00009  -0.04572  -0.02587  -0.07158   1.05069
    D4       -2.96200  -0.00036  -0.04760  -0.02981  -0.07838  -3.04038
    D5        0.88781   0.00002  -0.05776  -0.03769  -0.09451   0.79330
    D6       -0.98730  -0.00013  -0.04471  -0.02699  -0.07171  -1.05901
    D7        1.22851  -0.00029  -0.04905  -0.02961  -0.07962   1.14889
    D8       -1.20488   0.00009  -0.05921  -0.03749  -0.09574  -1.30062
    D9       -3.07998  -0.00006  -0.04616  -0.02679  -0.07295   3.13025
   D10       -2.07895   0.00067   0.05437   0.10689   0.16092  -1.91803
   D11        0.13048   0.00154   0.05750   0.12721   0.18503   0.31551
   D12        2.20312   0.00038   0.04998   0.09970   0.14908   2.35219
   D13        2.08756  -0.00101  -0.05630  -0.12575  -0.18198   1.90558
   D14       -0.14314  -0.00171  -0.06000  -0.14734  -0.20792  -0.35106
   D15       -2.24358  -0.00070  -0.05777  -0.12455  -0.18206  -2.42563
   D16       -0.02597  -0.00014  -0.00751  -0.00249  -0.00971  -0.03567
   D17        3.13383  -0.00047   0.00094  -0.02822  -0.02695   3.10689
   D18       -0.03338  -0.00055  -0.02001  -0.05239  -0.07215  -0.10553
   D19        3.14048  -0.00049  -0.00397  -0.04740  -0.05118   3.08930
   D20        3.09020  -0.00022  -0.02837  -0.02691  -0.05509   3.03511
   D21       -0.01912  -0.00016  -0.01233  -0.02193  -0.03412  -0.05324
   D22       -0.01038  -0.00050  -0.00650  -0.02483  -0.03158  -0.04195
   D23       -3.11556  -0.00003   0.01196   0.00138   0.01304  -3.10252
   D24        3.09857  -0.00056  -0.02265  -0.02986  -0.05232   3.04625
   D25       -0.00661  -0.00010  -0.00419  -0.00365  -0.00771  -0.01432
   D26        0.03893   0.00116   0.02755   0.07086   0.09730   0.13624
   D27       -3.13676   0.00073   0.01036   0.04643   0.05660  -3.08016
   D28        0.03931   0.00010   0.00710   0.02374   0.02942   0.06872
         Item               Value     Threshold  Converged?
 Maximum Force            0.004089     0.000450     NO 
 RMS     Force            0.000996     0.000300     NO 
 Maximum Displacement     0.323980     0.001800     NO 
 RMS     Displacement     0.104413     0.001200     NO 
 Predicted change in Energy=-9.783611D-04
 GradGradGradGradGradGradGradGradGradGradGradGradGradGradGradGradGradGrad

                          Input orientation:                          
 ---------------------------------------------------------------------
 Center     Atomic      Atomic             Coordinates (Angstroms)
 Number     Number       Type             X           Y           Z
 ---------------------------------------------------------------------
      1          6           0        1.142713    0.045911   -0.150230
      2          6           0        2.674757    0.138068   -0.033933
      3          7           0        3.096435    1.441628   -0.518946
      4          6           0        3.734205    1.650617   -1.594087
      5          6           0        4.235016    0.684102   -2.575391
      6          6           0        4.228495   -0.654989   -2.505480
      7          7           0        3.790301   -1.565785   -1.469883
      8          7           0        3.182052   -1.231739   -0.441846
      9          1           0        0.696954    0.904755    0.354750
     10          1           0        0.794057   -0.882621    0.302742
     11          1           0        0.845500    0.063035   -1.202858
     12          1           0        2.934669    0.129975    1.033684
     13          1           0        3.945912    2.694852   -1.830925
     14          1           0        4.715234    1.112711   -3.454719
     15          1           0        4.675938   -1.227610   -3.310387
 ---------------------------------------------------------------------
                    Distance matrix (angstroms):
                    1          2          3          4          5
     1  C    0.000000
     2  C    1.539213   0.000000
     3  N    2.429199   1.453382   0.000000
     4  C    3.372779   2.417502   1.267421   0.000000
     5  C    3.981336   3.031761   2.469651   1.465578   0.000000
     6  C    3.944682   3.025159   3.102206   2.527999   1.340931
     7  N    3.368794   2.491888   3.229592   3.219288   2.545960
     8  N    2.424115   1.516612   2.675849   3.152857   3.054701
     9  H    1.091476   2.156523   2.609423   3.684994   4.599164
    10  H    1.090374   2.166146   3.373166   4.319691   4.751681
    11  H    1.093917   2.172141   2.726712   3.319351   3.709230
    12  H    2.149378   1.098829   2.038937   3.139553   3.876001
    13  H    4.207083   3.373745   2.003364   1.091484   2.163544
    14  H    4.982030   4.100640   3.368598   2.171108   1.089739
    15  H    4.908373   4.074917   4.172745   3.480910   2.095060
                    6          7          8          9         10
     6  C    0.000000
     7  N    1.447075   0.000000
     8  N    2.384590   1.240328   0.000000
     9  H    4.804738   4.359088   3.372667   0.000000
    10  H    4.442217   3.547730   2.525632   1.790767   0.000000
    11  H    3.695543   3.375827   2.777599   1.776711   1.778692
    12  H    3.849135   3.142539   2.023031   2.463454   2.478275
    13  H    3.428748   4.278737   4.234517   4.305503   5.223508
    14  H    2.064639   3.459684   4.113939   5.540928   5.785801
    15  H    1.084424   2.070307   3.234229   5.814854   5.314388
                   11         12         13         14         15
    11  H    0.000000
    12  H    3.061246   0.000000
    13  H    4.115030   3.975825   0.000000
    14  H    4.598645   4.927671   2.394103   0.000000
    15  H    4.558475   4.872987   4.255285   2.345097   0.000000
 Stoichiometry    C5H7N3
 Framework group  C1[X(C5H7N3)]
 Deg. of freedom    39
 Full point group                 C1      NOp   1
 Largest Abelian subgroup         C1      NOp   1
 Largest concise Abelian subgroup C1      NOp   1
                         Standard orientation:                         
 ---------------------------------------------------------------------
 Center     Atomic      Atomic             Coordinates (Angstroms)
 Number     Number       Type             X           Y           Z
 ---------------------------------------------------------------------
      1          6           0        2.159603   -0.006637    0.724450
      2          6           0        1.145536    0.048938   -0.432165
      3          7           0        0.503345    1.352688   -0.420125
      4          6           0       -0.704617    1.569963   -0.103934
      5          6           0       -1.747609    0.613362    0.276857
      6          6           0       -1.692419   -0.726426    0.272398
      7          7           0       -0.653924   -1.648790   -0.133555
      8          7           0        0.499329   -1.322951   -0.453320
      9          1           0        2.830316    0.851121    0.648858
     10          1           0        2.726726   -0.936486    0.672809
     11          1           0        1.636045    0.039199    1.683846
     12          1           0        1.706230    0.012645   -1.376480
     13          1           0       -1.022851    2.613970   -0.114571
     14          1           0       -2.706288    1.049548    0.556513
     15          1           0       -2.574401   -1.291834    0.552390
 ---------------------------------------------------------------------
 Rotational constants (GHZ):           3.1176809           2.2935483           1.4957376
 Standard basis: 6-31G(2df,p) (6D, 7F)
 There are   283 symmetry adapted cartesian basis functions of A   symmetry.
 There are   259 symmetry adapted basis functions of A   symmetry.
   259 basis functions,   401 primitive gaussians,   283 cartesian basis functions
    29 alpha electrons       29 beta electrons
       nuclear repulsion energy       351.2866520815 Hartrees.
 NAtoms=   15 NActive=   15 NUniq=   15 SFac= 1.00D+00 NAtFMM=   60 NAOKFM=F Big=F
 Integral buffers will be    131072 words long.
 Raffenetti 2 integral format.
 Two-electron integral symmetry is turned on.
 One-electron integrals computed using PRISM.
 PrsmSu:  requested number of processors reduced to:  13 ShMem   1 Linda.
 NBasis=   259 RedAO= T EigKep=  2.02D-04  NBF=   259
 NBsUse=   259 1.00D-06 EigRej= -1.00D+00 NBFU=   259
 Initial guess from the checkpoint file:  "CC1NdCCdCNdN1.chk"
 B after Tr=    -0.000000   -0.000000    0.000000
         Rot=    0.999975    0.000294    0.006833    0.001774 Ang=   0.81 deg.
 ExpMin= 1.61D-01 ExpMax= 4.17D+03 ExpMxC= 6.27D+02 IAcc=2 IRadAn=         4 AccDes= 0.00D+00
 Harris functional with IExCor=  402 and IRadAn=       4 diagonalized for initial guess.
 HarFok:  IExCor=  402 AccDes= 0.00D+00 IRadAn=         4 IDoV= 1 UseB2=F ITyADJ=14
 ICtDFT=  3500011 ScaDFX=  1.000000  1.000000  1.000000  1.000000
 FoFCou: FMM=F IPFlag=           0 FMFlag=      100000 FMFlg1=           0
         NFxFlg=           0 DoJE=T BraDBF=F KetDBF=T FulRan=T
         wScrn=  0.000000 ICntrl=       500 IOpCl=  0 I1Cent=   200000004 NGrid=           0
         NMat0=    1 NMatS0=      1 NMatT0=    0 NMatD0=    1 NMtDS0=    0 NMtDT0=    0
 Petite list used in FoFCou.
 Requested convergence on RMS density matrix=1.00D-08 within 128 cycles.
 Requested convergence on MAX density matrix=1.00D-06.
 Requested convergence on             energy=1.00D-06.
 No special actions if energy rises.
 Integral accuracy reduced to 1.0D-05 until final iterations.
 Initial convergence to 1.0D-05 achieved.  Increase integral accuracy.
 SCF Done:  E(RB3LYP) =  -358.907152130     A.U. after   15 cycles
            NFock= 15  Conv=0.33D-08     -V/T= 2.0078
 PrsmSu:  requested number of processors reduced to:  13 ShMem   1 Linda.
 Calling FoFJK, ICntrl=      2127 FMM=F ISym2X=0 I1Cent= 0 IOpClX= 0 NMat=1 NMatS=1 NMatT=0.
 ***** Axes restored to original set *****
 -------------------------------------------------------------------
 Center     Atomic                   Forces (Hartrees/Bohr)
 Number     Number              X              Y              Z
 -------------------------------------------------------------------
      1        6           0.003927682    0.001710525   -0.001038008
      2        6          -0.005116276   -0.002107321    0.000233418
      3        7           0.003321570   -0.003879438    0.002601924
      4        6          -0.001270943   -0.003896445   -0.002963430
      5        6           0.002296823    0.000394235   -0.000354956
      6        6          -0.005434456   -0.006976977    0.005729821
      7        7           0.001093051    0.011248813   -0.001813078
      8        7           0.005219997    0.001634539   -0.001747178
      9        1          -0.001389556   -0.000338741    0.000194211
     10        1          -0.001039962   -0.000550486    0.000689680
     11        1          -0.000405398   -0.000133246   -0.000179383
     12        1          -0.001513511    0.000487968   -0.000693619
     13        1           0.000986316    0.001201959   -0.000164091
     14        1          -0.000536343    0.000806489    0.000781191
     15        1          -0.000138993    0.000398127   -0.001276502
 -------------------------------------------------------------------
 Cartesian Forces:  Max     0.011248813 RMS     0.002989208

 GradGradGradGradGradGradGradGradGradGradGradGradGradGradGradGradGradGrad
 Berny optimization.
 Using GEDIIS/GDIIS optimizer.
 FormGI is forming the generalized inverse of G from B-inverse, IUseBI=4.
 Internal  Forces:  Max     0.009111297 RMS     0.001893721
 Search for a local minimum.
 Step number   4 out of a maximum of   77
 All quantities printed in internal units (Hartrees-Bohrs-Radians)
 Mixed Optimization -- RFO/linear search
 Update second derivatives using D2CorX and points    3    4
 DE= -1.51D-03 DEPred=-9.78D-04 R= 1.54D+00
 TightC=F SS=  1.41D+00  RLast= 5.38D-01 DXNew= 1.4270D+00 1.6147D+00
 Trust test= 1.54D+00 RLast= 5.38D-01 DXMaxT set to 1.43D+00
 ITU=  1  1  1  0
 Use linear search instead of GDIIS.
[...]
 ! D23   D(4,5,6,15)          -178.1296         -DE/DX =    0.0                 !
 ! D24   D(14,5,6,7)           156.4617         -DE/DX =    0.0                 !
 ! D25   D(14,5,6,15)           -5.5825         -DE/DX =    0.0                 !
 ! D26   D(5,6,7,8)             36.3935         -DE/DX =    0.0                 !
 ! D27   D(15,6,7,8)          -160.2011         -DE/DX =    0.0                 !
 ! D28   D(6,7,8,2)             13.0318         -DE/DX =    0.0                 !
 --------------------------------------------------------------------------------
 GradGradGradGradGradGradGradGradGradGradGradGradGradGradGradGradGradGrad


 ----------------------------------------------------------------------

 Electric dipole moment (input orientation):
 (Debye = 10**-18 statcoulomb cm , SI units = C m)
                  (au)            (Debye)         (10**-30 SI)
   Tot        0.116315D+01      0.295643D+01      0.986159D+01
   x         -0.524047D+00     -0.133199D+01     -0.444305D+01
   y          0.260147D+00      0.661227D+00      0.220561D+01
   z         -0.100529D+01     -0.255520D+01     -0.852323D+01

 Dipole polarizability, Alpha (input orientation).
 (esu units = cm**3 , SI units = C**2 m**2 J**-1)
 Alpha(0;0):
               (au)            (10**-24 esu)      (10**-40 SI)
   iso        0.701983D+02      0.104023D+02      0.115741D+02
   aniso      0.319731D+02      0.473793D+01      0.527166D+01
   xx         0.540043D+02      0.800261D+01      0.890410D+01
   yx         0.175208D+01      0.259632D+00      0.288879D+00
   yy         0.774995D+02      0.114842D+02      0.127779D+02
   zx        -0.114855D+02     -0.170198D+01     -0.189371D+01
   zy        -0.290767D+01     -0.430872D+00     -0.479409D+00
   zz         0.790912D+02      0.117201D+02      0.130404D+02

 ----------------------------------------------------------------------

 Dipole orientation:
     6          2.75731469          0.13998420         -0.34579286
     6          4.53784608         -0.67768540         -2.47544675
     7          6.10910531         -2.84389029         -1.98085643
     6          7.85998615         -2.75745093         -0.28796514
     6          8.75091568         -0.62379154          1.14270717
     6          8.37610708          1.81946215          0.43378749
     7          7.65837662          2.53388600         -1.97829962
     7          6.20890506          1.45353684         -3.45415690
     1          1.50905653         -1.44245739          0.10922715
     1          1.59102075          1.71595468         -1.00108135
     1          3.73324054          0.71019077          1.37472565
     1          3.38156477         -1.14545814         -4.12077976
     1          8.83821828         -4.54297534          0.05823164
     1          9.97167070         -1.00261820          2.75062071
     1          9.12660109          3.37731115          1.53479501

 Electric dipole moment (dipole orientation):
 (Debye = 10**-18 statcoulomb cm , SI units = C m)
                  (au)            (Debye)         (10**-30 SI)
   Tot        0.116315D+01      0.295643D+01      0.986159D+01
   x          0.000000D+00      0.000000D+00      0.000000D+00
   y          0.000000D+00      0.000000D+00      0.000000D+00
   z          0.116315D+01      0.295643D+01      0.986159D+01

 Dipole polarizability, Alpha (dipole orientation).
 (esu units = cm**3 , SI units = C**2 m**2 J**-1)
 Alpha(0;0):
               (au)            (10**-24 esu)      (10**-40 SI)
   iso        0.701983D+02      0.104023D+02      0.115741D+02
   aniso      0.319731D+02      0.473793D+01      0.527166D+01
   xx         0.686982D+02      0.101800D+02      0.113268D+02
   yx         0.537227D+00      0.796088D-01      0.885767D-01
   yy         0.761513D+02      0.112845D+02      0.125557D+02
   zx         0.173027D+02      0.256399D+01      0.285283D+01
   zy        -0.351153D+01     -0.520355D+00     -0.578973D+00
   zz         0.657454D+02      0.974247D+01      0.108400D+02

 ----------------------------------------------------------------------
 1\1\GINC-LEWIS4-Z10PH-HPC3-NODE391\Freq\RB3LYP\6-31G(2df,p)\C5H7N3\KS2
 9C\04-Aug-2022\0\\#N Geom=AllCheck Guess=TCheck SCRF=Check GenChk RB3L
 YP/6-31G(2df,p) Freq\\Title Card Required\\0,1\C,1.3786758362,-0.03414
 8393,-0.5158045699\C,2.7494335099,0.1858080559,0.1304815655\N,3.434416
 0396,1.4048356662,-0.2139586807\C,3.8539747255,1.61076197,-1.415888979
 1\C,3.8719768354,0.7067827061,-2.5351615016\C,3.7943668823,-0.64606417
 1,-2.4107387418\N,4.0105609644,-1.3199867215,-1.2209822796\N,3.7098186
 001,-0.9797630176,-0.0725421586\H,0.7268260494,0.7989248026,-0.2390188
 833\H,0.9398537389,-0.9566543052,-0.1245609282\H,1.4123735685,-0.09624
 76811,-1.6028644601\H,2.6098321728,0.1988960214,1.2140308015\H,4.28380
 0849,2.5992222377,-1.5961277372\H,4.0751177338,1.1270904488,-3.5167694
 998\H,3.841212494,-1.2965476192,-3.2776039474\\Version=ES64L-G16RevA.0
 3\State=1-A\HF=-358.923166\RMSD=8.628e-09\RMSF=2.042e-05\ZeroPoint=0.1
 19787\Thermal=0.1266152\Dipole=-0.5240469,0.2601466,-1.0052931\DipoleD
 eriv=-0.040425,-0.0159088,-0.0273066,-0.0008784,0.0799018,-0.0307859,-
 0.0088975,-0.0093458,-0.0332616,0.5224161,0.2050834,-0.2169224,0.15605
 55,0.0085019,-0.0012599,-0.1912367,-0.0288368,0.5959836,-0.4571795,0.0
 389066,0.1228826,-0.01718,-0.2529294,-0.1184745,0.1561447,-0.1623072,-
 0.5072778,0.1325395,0.1525746,-0.1208036,0.1090171,0.5031821,0.073843,
 -0.1358428,0.2262411,0.2351028,-0.1100069,-0.1404818,-0.0105772,0.0671
 895,-0.3203489,-0.1151018,-0.016896,-0.1764315,0.0233013,-0.0103901,-0
 .0734576,-0.0241455,-0.1172651,0.4309871,0.1619601,0.0303402,0.0838445
 ,0.1401041,-0.1643255,0.3197261,-0.1461651,0.1530428,-0.685732,-0.0675
 045,0.0745008,-0.5142365,0.1862313,-0.1514929,-0.4666182,0.2013515,-0.
 2349123,0.2364488,0.0251561,-0.0088155,0.511896,-0.5036145,-0.0289695,
 0.0451186,0.0391963,0.086939,-0.0227199,-0.0368326,0.0146532,-0.025307
 5,0.0738004,-0.003485,-0.0381856,0.0224508,-0.0881101,-0.0510373,0.060
 6446,0.0141641,0.0517211,0.0517453,0.0685998,-0.0011408,0.029265,-0.00
 88819,0.0466188,-0.0055969,-0.0317043,-0.0070125,-0.0797294,-0.0137956
 ,-0.0087543,0.0223822,-0.0111902,0.0423911,0.0033323,0.0360049,0.01362
 61,-0.1451401,0.0492151,-0.0718566,0.0178886,-0.0786452,-0.0988273,0.0
 470958,0.0370089,0.0443124,0.0313582,0.0950305,-0.0455286,0.0832141,-0
 .0139398,0.0506885,0.0649837,0.0301796,0.0403751,-0.0585951,0.1122691,
 0.100523,0.0072892,-0.001241,0.0328747,-0.0614595,0.0003965,-0.0485387
 ,-0.0100083\Polar=54.0042886,1.7520824,77.4994695,-11.4855284,-2.90766
 52,79.0912338\Quadrupole=0.1239246,-2.0256229,1.9016984,2.0444695,-2.6
 622007,-0.6038371\PG=C01 [X(C5H7N3)]\NImag=0\\0.45979582,-0.01489492,0
 .56719356,-0.03861458,-0.00642818,0.57396220,-0.14466592,-0.01184674,-
 0.03958898,0.42117686,-0.01520371,-0.07071857,-0.00446575,0.05849452,0
 .33513426,-0.04047766,-0.00705529,-0.10799442,-0.02816592,-0.01884808,
 0.63702467,-0.01799054,-0.02991703,0.00935898,-0.10266834,-0.05240462,
 0.01251240,0.21900016,-0.01008540,-0.01160255,-0.00188209,-0.07441240,
 -0.13126521,0.01608579,0.13375035,0.29321318,-0.00348935,-0.00452787,0
 .00836548,0.04491543,0.02799588,-0.09510104,-0.20786096,-0.10350997,0.
 60152986,0.00070271,-0.00161157,0.00316502,-0.01277696,-0.00799663,0.0
 2625747,-0.11320359,-0.04943153,0.13526879,0.26865881,0.00103892,-0.00
 087898,0.00156610,-0.02318522,-0.01826402,0.03874420,-0.03393103,-0.12
 059373,0.05779968,0.16381682,0.60669176,-0.00076909,-0.00728587,0.0003
 7537,-0.01422824,0.02905470,-0.02180433,0.16034933,0.05393429,-0.43216
 159,-0.17689538,-0.02410667,0.69883759,-0.00302368,-0.00065493,-0.0002
 3026,-0.01145319,-0.00370574,-0.00073965,0.02923523,0.00326846,0.00767
 422,-0.07534512,-0.00394587,0.01974106,0.14117890,0.00041999,0.0026305
 4,0.00154290,0.01940810,-0.01099289,0.00289196,-0.00578067,0.04409910,
 -0.03951557,-0.01735644,-0.17449910,-0.03355287,0.05870934,0.72513500,
 0.00068343,-0.00095504,0.00105530,0.00515746,-0.01096168,0.00311712,0.
 01273340,-0.00730841,-0.06280254,0.00095675,-0.08767722,-0.17891508,-0
 .07273325,-0.04247899,0.62416245,-0.00308634,0.00099620,-0.00044926,-0
 .00336967,-0.00488952,0.00462338,-0.00508041,-0.00338306,0.00073577,0.
 00654028,-0.00160367,-0.00510961,-0.05121609,-0.02166097,0.00657830,0.
 13685429,-0.00156622,0.00153607,-0.00144519,-0.02563312,0.00944128,-0.
 00652594,-0.00151081,-0.02533012,0.03316750,0.00524521,-0.03832699,-0.
 05229297,-0.03780207,-0.40731815,0.04711020,0.00899615,0.71901543,0.00
 130465,0.00042033,0.00049266,0.00419003,0.00635457,0.00588775,-0.00360
 083,0.00937548,-0.01044822,-0.01341912,-0.02203600,0.02689930,0.015314
 37,-0.00699468,-0.12050014,-0.01317767,0.07069961,0.60739105,0.0040225
 3,-0.00257189,0.00146293,-0.00841800,0.03479555,0.03648573,0.00117353,
 -0.01059850,0.01313443,-0.00547835,-0.00287735,-0.01755897,0.01024916,
 0.02035047,0.00634450,-0.07126389,-0.00737673,-0.00758426,0.16495581,-
 0.00110169,0.00149551,-0.00035958,0.03443028,-0.03149737,-0.03847412,0
 .00552026,0.02018711,-0.01654231,0.00086982,0.00485695,0.01912082,0.00
 121326,-0.04417426,0.02931726,0.01751900,-0.10519462,0.04802191,-0.079
 60139,0.24749669,-0.00266248,0.00600817,0.00301965,0.00508310,-0.04983
 540,-0.02315969,0.01231066,-0.00250116,0.00550474,0.00959037,-0.006963
 33,-0.01457019,-0.02001477,0.05198976,-0.00172327,0.00531834,0.0467204
 9,-0.18633058,-0.14215300,0.06161154,0.78462693,-0.02621953,0.02739342
 ,0.00669933,-0.07414852,-0.00320567,-0.01744852,0.01054197,0.02074966,
 -0.02100686,0.00099040,0.00262342,0.02405714,-0.00271029,-0.02027235,-
 0.01442082,0.02544982,0.04064736,-0.00733606,-0.10280656,0.01639121,0.
 14514727,0.17574191,0.00850091,-0.00429485,0.00184907,0.02946908,-0.04
 032717,0.02367913,-0.00125494,-0.05233281,0.00200031,-0.00035162,0.006
 24554,0.00307175,0.01189100,-0.00791548,0.00116224,0.00013851,0.021485
 30,0.00565605,0.04839676,-0.10130956,-0.12271858,-0.09522842,0.1861649
 5,-0.00517330,0.00633829,0.00315203,0.00424978,0.02937903,-0.08195318,
 -0.01616797,-0.00313636,0.01147578,-0.00135683,0.00237560,-0.00832029,
 0.00847740,-0.00868049,0.00519734,-0.00670760,0.00084938,-0.09385646,0
 .10199395,-0.08881941,-0.53681737,-0.11298520,0.08749804,0.70737807,-0
 .13672420,0.12109011,0.04163356,-0.02158832,0.02223222,0.00800951,0.00
 268577,0.00107791,-0.00112368,-0.00007517,0.00016571,0.00179007,-0.000
 68181,-0.00052443,0.00021591,0.00063987,-0.00088500,-0.00009147,0.0011
 0435,0.00007023,-0.00249084,-0.00498027,-0.00040914,-0.00159846,0.1509
 5102,0.12194737,-0.20257691,-0.05336129,-0.00421185,0.00359221,0.00160
 713,-0.00016014,0.00069017,0.00010880,0.00015129,-0.00001091,-0.000126
 30,-0.00005919,0.00009556,0.00019200,-0.00016123,-0.00032591,-0.000012
 61,-0.00015961,0.00077922,0.00068519,-0.00114240,0.00016796,-0.0008495
 4,-0.13255504,0.21769598,0.04188371,-0.05417511,-0.06396070,-0.0096713
 2,0.01158453,0.00256817,0.00102175,0.00027982,-0.00000080,-0.00000388,
 -0.00014270,0.00021500,0.00025892,-0.00033047,-0.00007442,0.00002716,-
 0.00019142,0.00028140,0.00006610,0.00095138,-0.00100879,-0.00269793,-0
 .00076536,-0.00047700,-0.04264395,0.05871506,0.06650784,-0.08607287,-0
 .08766599,0.03749910,-0.01407185,-0.02598242,0.01224639,-0.00501752,-0
 .00055981,-0.00171885,-0.00041334,-0.00069667,-0.00213812,-0.00019366,
 0.00057971,-0.00040065,0.00032175,-0.00020297,0.00016715,-0.00079510,0
 .00091655,0.00148831,0.00246167,-0.00087731,-0.00062205,0.00850776,0.0
 1633205,-0.00796228,0.09484343,-0.08902265,-0.23553202,0.08163478,-0.0
 0047800,-0.00341725,0.00152492,-0.00115231,0.00034000,0.00028768,0.000
 23359,0.00005504,-0.00150128,0.00041184,0.00034295,0.00013079,0.000080
 97,-0.00008823,0.00001386,-0.00038020,0.00036355,0.00058933,0.00034991
 ,0.00016939,-0.00069815,-0.01035116,-0.01956398,0.00927598,0.09847654,
 0.25447376,0.03818631,0.08296353,-0.08312246,-0.00525850,-0.01332063,0
 .00429475,-0.00299213,0.00016152,0.00011861,-0.00049445,-0.00088491,-0
 .00101879,0.00027531,0.00015170,0.00019047,0.00005436,0.00038149,-0.00
 015420,-0.00000499,0.00011741,0.00000516,0.00089224,0.00004663,0.00044
 753,-0.00411039,-0.00771663,0.00225309,-0.03964816,-0.08944242,0.08585
 742,-0.04756452,0.00001237,0.01278523,0.00459960,-0.00074483,-0.034218
 73,0.00172789,0.00062290,0.00218742,0.00048645,-0.00093740,-0.00060614
 ,-0.00191144,0.00027126,0.00156651,-0.00283061,-0.00002408,0.00216365,
 0.00026285,0.00055354,-0.00071512,0.00183308,-0.00022377,0.00155811,-0
 .00109623,-0.00041671,0.01899112,-0.00124864,0.00196230,0.01215218,0.0
 5164713,0.00026235,-0.04865134,-0.01448687,0.00053168,-0.00162112,-0.0
 0458619,0.00085900,0.00029739,-0.00057275,-0.00034567,-0.00000134,-0.0
 0030131,-0.00028670,0.00023903,0.00053266,0.00002252,0.00048955,-0.000
 50372,0.00025928,0.00013527,0.00057467,-0.00019449,-0.00049914,0.00076
 493,0.00045509,-0.00074809,-0.02559117,-0.00058321,0.00273717,0.027897
 87,-0.00029267,0.04693081,0.01013015,-0.01517781,-0.31936843,-0.000355
 57,-0.00002497,-0.01365305,0.00040461,0.00010703,0.00097408,-0.0004175
 5,-0.00069096,-0.00063926,0.00262253,0.00002197,-0.00032211,0.00211220
 ,0.00059208,-0.00013968,-0.00061916,0.00060920,-0.00025082,0.00090946,
 -0.00058212,0.00010195,0.00049371,0.00033214,-0.00688495,0.00067824,-0
 .00141005,-0.00966562,-0.01337563,0.01682982,0.34912449,-0.00030994,-0
 .00211140,-0.03243744,-0.05025869,0.00111715,0.02061069,-0.00552135,-0
 .00779747,0.01947852,0.00045073,-0.00293151,0.00102084,0.00028156,-0.0
 0041790,0.00005904,-0.00022629,0.00097949,-0.00098490,-0.00316431,0.00
 479667,0.00193143,-0.00575104,0.00602307,0.02473689,0.00129720,0.00040
 885,0.00054809,0.00121111,-0.00011336,0.00065603,-0.00582209,-0.000863
 50,-0.00263367,0.06825387,0.00009956,0.00171958,-0.00443076,0.00120426
 ,-0.04219314,-0.00759363,-0.01227196,-0.01191144,0.03534702,-0.0028940
 9,-0.00335864,0.00277004,-0.00000343,0.00008228,-0.00037144,0.00044951
 ,-0.00102895,0.00142869,0.00409288,-0.00417057,-0.00224473,0.00950158,
 -0.00681944,-0.02955876,-0.00016990,0.00021796,0.00042395,0.00041885,0
 .00011563,-0.00024256,-0.00083988,0.00077441,-0.00053363,0.00104425,0.
 06639218,-0.00105029,-0.00132316,-0.01520188,0.02992377,-0.00809039,-0
 .30815402,0.00629173,0.00768557,-0.00624317,-0.00067528,0.00089307,0.0
 0131956,-0.00017686,0.00011856,0.00037831,-0.00042043,-0.00018635,0.00
 092559,0.00144479,-0.00113826,0.00098571,0.00092071,-0.00181841,-0.005
 17963,-0.00010941,0.00048106,0.00049025,-0.00012053,-0.00044811,0.0005
 1347,-0.00260906,-0.00049021,0.00062406,-0.03368846,0.00434486,0.32988
 951,0.00112880,0.00220306,-0.00098606,0.01117957,-0.00297625,0.0036796
 6,-0.01502622,-0.00874919,0.01225537,-0.08111788,-0.09600665,0.0057335
 1,0.00581032,0.00235772,0.00502363,0.00283777,-0.00386205,0.00093463,-
 0.00043917,0.00113672,-0.00160530,0.00076386,-0.00229268,0.00072212,-0
 .00007507,0.00001687,-0.00002715,0.00060495,0.00000414,0.00023418,-0.0
 0008110,0.00001271,-0.00013659,-0.00024883,-0.00046417,0.00013999,0.07
 625087,-0.00037027,-0.00082716,0.00020248,-0.00241056,0.00380694,-0.00
 149296,-0.00213057,-0.00294293,0.01148649,-0.09418520,-0.26927791,0.02
 759506,-0.00947224,-0.01794903,0.00299472,-0.00111477,0.00062127,-0.00
 506437,-0.00037308,0.00010876,0.00047837,0.00017860,0.00100168,-0.0003
 9017,-0.00001468,0.00000697,0.00004282,-0.00026892,-0.00000134,-0.0001
 1272,0.00004086,-0.00001202,0.00001690,-0.00015537,-0.00013470,0.00005
 581,0.10853509,0.28622316,0.00024651,0.00120633,-0.00057551,0.00427041
 ,0.00097238,-0.00177084,0.01643343,0.03437310,-0.01750948,0.01021966,0
 .02621062,-0.05502140,-0.00758000,-0.02347152,0.00602965,0.00065168,-0
 .00267193,-0.00411948,-0.00019982,0.00070842,-0.00004569,0.00067290,-0
 .00149503,0.00034679,-0.00001626,-0.00003874,0.00001985,0.00049071,0.0
 0000251,0.00025572,0.00010480,-0.00004534,0.00006494,0.00042310,0.0007
 0014,-0.00031868,-0.02584122,-0.03586545,0.07187250,-0.00013163,0.0001
 9718,0.00002162,0.00268084,-0.00026322,-0.00182248,0.00317893,0.004066
 13,-0.00034360,0.00047883,-0.00049781,0.00438783,-0.04546283,-0.032882
 24,0.04861747,0.00118499,0.01186068,0.00528990,0.01458730,-0.00773425,
 -0.00217869,-0.00502709,0.00040427,0.00050527,-0.00012939,0.00000053,0
 .00014889,-0.00004284,0.00000596,0.00001468,0.00000278,-0.00000797,0.0
 0021494,-0.00021543,0.00005726,0.00009699,-0.00103073,0.00107953,-0.00
 030686,0.03476829,-0.00012062,0.00047351,0.00021545,-0.00198894,-0.001
 31761,-0.00022278,0.00031825,-0.00341368,-0.00323454,0.00526910,0.0116
 7927,-0.01997977,-0.02296447,-0.09511469,0.09506596,-0.00476898,-0.012
 58110,0.03212622,-0.00288028,-0.00323675,-0.00197078,0.00231804,0.0003
 0351,0.00033424,-0.00019357,-0.00002970,-0.00008446,0.00004678,-0.0000
 0249,0.00000102,0.00005936,-0.00002842,-0.00001606,0.00005673,0.000207
 36,-0.00003121,0.00011912,0.00035377,0.00065492,0.02383307,0.10178686,
 -0.00013765,0.00001125,-0.00010614,0.00001527,0.00028371,0.00048958,-0
 .00092625,-0.00429624,-0.00344322,0.00719819,0.01392245,-0.01648648,0.
 04608541,0.09380158,-0.28189388,0.00070027,0.00183638,-0.00019695,0.00
 267773,-0.00156486,0.00282884,-0.00049025,-0.00128454,-0.00021122,-0.0
 0001676,-0.00003226,0.00002491,0.00005343,0.00002138,0.00004392,-0.000
 01594,0.00003492,0.00003952,0.00010408,0.00010462,-0.00005659,-0.00002
 437,-0.00029842,0.00063404,-0.05401235,-0.10273235,0.29763087,0.000139
 31,-0.00061785,-0.00031918,0.00378258,0.00073317,-0.00155226,-0.003035
 52,0.00148194,-0.00010664,0.01010221,-0.00103169,0.00022577,0.00524293
 ,-0.00320159,-0.00038166,-0.03675548,0.01113417,0.01682992,-0.00399015
 ,0.00501980,-0.00904927,0.00386059,-0.00418573,0.00236788,0.00016450,0
 .00000921,0.00006076,-0.00009484,-0.00002757,0.00004334,-0.00000517,0.
 00017159,-0.00002765,0.00002350,-0.00022472,0.00003236,-0.00055715,0.0
 0066156,0.00043096,-0.00484202,0.00089640,-0.00121081,0.02596471,0.000
 09635,0.00003363,-0.00015106,0.00062890,-0.00036033,0.00026588,0.00006
 622,0.00056552,-0.00029037,-0.00141309,-0.00431694,0.00360037,0.003400
 74,-0.01466087,-0.02675305,0.00937935,-0.16239481,-0.13948534,-0.00107
 591,0.01416007,0.01757648,-0.00010986,-0.00203987,0.00459337,0.0000116
 5,0.00000947,0.00000715,0.00006683,0.00000780,-0.00000130,-0.00004325,
 -0.00004216,-0.00007353,-0.00003570,0.00010749,-0.00005282,-0.00003443
 ,-0.00097747,-0.00124041,-0.00011911,0.00092015,0.00019238,-0.01081870
 ,0.16898831,-0.00006036,-0.00001957,-0.00009315,-0.00053670,-0.0000779
 0,0.00020854,0.00013185,0.00063164,-0.00025847,0.00060625,0.00099007,0
 .00129059,0.00102558,0.00450615,0.00610079,0.00506310,-0.13804332,-0.2
 2613202,0.00451005,-0.01355939,-0.03306463,-0.00291341,0.00370082,-0.0
 0128435,0.00005847,0.00001600,0.00004617,-0.00001268,0.00001877,-0.000
 01909,0.00003162,-0.00005732,-0.00000511,0.00017576,-0.00014380,0.0000
 2750,-0.00010240,0.00035144,0.00013759,-0.00063362,-0.00012586,0.00070
 280,-0.00734354,0.14181227,0.25234285\\0.00000402,0.00001404,0.0000031
 1,0.00002196,-0.00006731,-0.00001034,-0.00000093,0.00000925,0.00002958
 ,-0.00000053,-0.00001776,-0.00005672,0.00001251,-0.00000075,0.00002886
 ,-0.00001498,0.00002751,-0.00001602,0.00000824,-0.00003243,0.00001491,
 -0.00002761,0.00006473,0.00000288,-0.00000179,-0.00000002,0.00000106,-
 0.00000376,-0.00000049,-0.00000251,-0.00000167,-0.00000220,0.00000182,
 -0.00000231,0.00000344,-0.00000103,0.00000491,0.00000126,0.00000860,-0
 .00000919,-0.00000246,-0.00000392,0.00001112,0.00000322,-0.00000028\\\
 @


 EDUCATION IS NOT TRAINING BUT RATHER THE PROCESS THAT EQUIPS YOU TO
 ENTERTAIN YOURSELF, A FRIEND, OR AN IDEA.  -- WALLACE STERLING
 Job cpu time:       0 days  1 hours 19 minutes  6.2 seconds.
 Elapsed time:       0 days  0 hours 19 minutes 47.1 seconds.
 File lengths (MBytes):  RWF=     86 Int=      0 D2E=      0 Chk=      7 Scr=      1
 Normal termination of Gaussian 16 at Thu Aug  4 12:15:51 2022.
### All Done ###
