### Starting Gaussian ###
 Entering Gaussian System, Link 0=g16
 Initial command:
 /cluster/software/gaussian/gaussian-16-A.03/avx2/g16/l1.exe "/local/scratch/ks29c/Gau-25682.inp" -scrdir="/local/scratch/ks29c/"
 Entering Link 1 = /cluster/software/gaussian/gaussian-16-A.03/avx2/g16/l1.exe PID=     25683.
  
 Copyright (c) 1988,1990,1992,1993,1995,1998,2003,2009,2016,
            Gaussian, Inc.  All Rights Reserved.
  
 This is part of the Gaussian(R) 16 program.  It is based on
 the Gaussian(R) 09 system (copyright 2009, Gaussian, Inc.),
 the Gaussian(R) 03 system (copyright 2003, Gaussian, Inc.),
 the Gaussian(R) 98 system (copyright 1998, Gaussian, Inc.),
 the Gaussian(R) 94 system (copyright 1995, Gaussian, Inc.),
 the Gaussian 92(TM) system (copyright 1992, Gaussian, Inc.),
 the Gaussian 90(TM) system (copyright 1990, Gaussian, Inc.),
 the Gaussian 88(TM) system (copyright 1988, Gaussian, Inc.),
 the Gaussian 86(TM) system (copyright 1986, Carnegie Mellon
 University), and the Gaussian 82(TM) system (copyright 1983,
 Carnegie Mellon University). Gaussian is a federally registered
 trademark of Gaussian, Inc.
  
 This software contains proprietary and confidential information,
 including trade secrets, belonging to Gaussian, Inc.
  
 This software is provided under written license and may be
 used, copied, transmitted, or stored only in accord with that
 written license.
  
 The following legend is applicable only to US Government
 contracts under FAR:
  
                    RESTRICTED RIGHTS LEGEND
  
 Use, reproduction and disclosure by the US Government is
 subject to restrictions as set forth in subparagraphs (a)
 and (c) of the Commercial Computer Software - Restricted
 Rights clause in FAR 52.227-19.
  
 Gaussian, Inc.
 340 Quinnipiac St., Bldg. 40, Wallingford CT 06492
  
  
 ---------------------------------------------------------------
 Warning -- This program may not be used in any manner that
 competes with the business of Gaussian, Inc. or will provide
 assistance to any competitor of Gaussian, Inc.  The licensee
 of this program is prohibited from giving any competitor of
 Gaussian, Inc. access to this program.  By using this program,
 the user acknowledges that Gaussian, Inc. is engaged in the
 business of creating and licensing software in the field of
 computational chemistry and represents and warrants to the
 licensee that it is not a competitor of Gaussian, Inc. and that
 it will not use this program in any manner prohibited above.
 ---------------------------------------------------------------
  

 Cite this work as:
 Gaussian 16, Revision A.03,
 M. J. Frisch, G. W. Trucks, H. B. Schlegel, G. E. Scuseria, 
 M. A. Robb, J. R. Cheeseman, G. Scalmani, V. Barone, 
 G. A. Petersson, H. Nakatsuji, X. Li, M. Caricato, A. V. Marenich, 
 J. Bloino, B. G. Janesko, R. Gomperts, B. Mennucci, H. P. Hratchian, 
 J. V. Ortiz, A. F. Izmaylov, J. L. Sonnenberg, D. Williams-Young, 
 F. Ding, F. Lipparini, F. Egidi, J. Goings, B. Peng, A. Petrone, 
 T. Henderson, D. Ranasinghe, V. G. Zakrzewski, J. Gao, N. Rega, 
 G. Zheng, W. Liang, M. Hada, M. Ehara, K. Toyota, R. Fukuda, 
 J. Hasegawa, M. Ishida, T. Nakajima, Y. Honda, O. Kitao, H. Nakai, 
 T. Vreven, K. Throssell, J. A. Montgomery, Jr., J. E. Peralta, 
 F. Ogliaro, M. J. Bearpark, J. J. Heyd, E. N. Brothers, K. N. Kudin, 
 V. N. Staroverov, T. A. Keith, R. Kobayashi, J. Normand, 
 K. Raghavachari, A. P. Rendell, J. C. Burant, S. S. Iyengar, 
 J. Tomasi, M. Cossi, J. M. Millam, M. Klene, C. Adamo, R. Cammi, 
 J. W. Ochterski, R. L. Martin, K. Morokuma, O. Farkas, 
 J. B. Foresman, and D. J. Fox, Gaussian, Inc., Wallingford CT, 2016.
 
 ******************************************
 Gaussian 16:  ES64L-G16RevA.03 25-Dec-2016
                 3-Jul-2022 
 ******************************************
 %chk=CC1OCCCpNpCO1.chk
 %NProcShared=20
 Will use up to   20 processors via shared memory.
 -----------------------------
 # opt freq b3lyp/6-31g(2df,p)
 -----------------------------
 1/18=20,19=15,26=3,38=1/1,3;
 2/9=110,12=2,17=6,18=5,40=1/2;
 3/5=1,6=6,7=104,11=2,25=1,30=1,71=1,74=-5/1,2,3;
 4//1;
 5/5=2,38=5/2;
 6/7=2,8=2,9=2,10=2,28=1/1;
 7//1,2,3,16;
 1/18=20,19=15,26=3/3(2);
 2/9=110/2;
 99//99;
 2/9=110/2;
 3/5=1,6=6,7=104,11=2,25=1,30=1,71=1,74=-5/1,2,3;
 4/5=5,16=3,69=1/1;
 5/5=2,38=5/2;
 7//1,2,3,16;
 1/18=20,19=15,26=3/3(-5);
 2/9=110/2;
 6/7=2,8=2,9=2,10=2,19=2,28=1/1;
 99/9=1/99;
 -------------------
 Title Card Required
 -------------------
 Symbolic Z-matrix:
 Charge =  0 Multiplicity = 1
 C                     1.08178   0.05905   0.05845 
 C                     2.605     0.06257   0.10049 
 O                     3.04218  -1.19316  -0.4065 
 C                     4.45659  -1.35839  -0.40916 
 C                     5.06578  -0.612    -1.58842 
 C                     5.43704   0.83663  -1.24785 
 N                     6.77246   0.86831  -0.62466 
 C                     4.3967    1.5499   -0.35837 
 O                     3.05625   1.17921  -0.66593 
 H                     0.67885  -0.77945   0.63627 
 H                     0.71466  -0.04507  -0.96886 
 H                     0.67807   0.99505   0.45793 
 H                     2.9046    0.16216   1.15101 
 H                     4.64793  -2.42935  -0.52805 
 H                     4.88552  -1.06471   0.55626 
 H                     4.35566  -0.60661  -2.42631 
 H                     5.95745  -1.14392  -1.94424 
 H                     5.51192   1.38103  -2.19739 
 H                     6.7629    0.375     0.26469 
 H                     7.03489   1.83313  -0.416 
 H                     4.48564   2.63233  -0.50587 
 H                     4.60171   1.37727   0.70617 
 

 GradGradGradGradGradGradGradGradGradGradGradGradGradGradGradGradGradGrad
 Berny optimization.
 Initialization pass.
                           ----------------------------
                           !    Initial Parameters    !
                           ! (Angstroms and Degrees)  !
 --------------------------                            --------------------------
 ! Name  Definition              Value          Derivative Info.                !
 --------------------------------------------------------------------------------
 ! R1    R(1,2)                  1.5238         estimate D2E/DX2                !
 ! R2    R(1,10)                 1.0951         estimate D2E/DX2                !
 ! R3    R(1,11)                 1.0959         estimate D2E/DX2                !
 ! R4    R(1,12)                 1.0948         estimate D2E/DX2                !
 ! R5    R(2,3)                  1.423          estimate D2E/DX2                !
 ! R6    R(2,9)                  1.4276         estimate D2E/DX2                !
 ! R7    R(2,13)                 1.0969         estimate D2E/DX2                !
 ! R8    R(3,4)                  1.424          estimate D2E/DX2                !
 ! R9    R(4,5)                  1.5228         estimate D2E/DX2                !
 ! R10   R(4,14)                 1.0944         estimate D2E/DX2                !
 ! R11   R(4,15)                 1.0965         estimate D2E/DX2                !
 ! R12   R(5,6)                  1.5337         estimate D2E/DX2                !
 ! R13   R(5,16)                 1.0983         estimate D2E/DX2                !
 ! R14   R(5,17)                 1.0976         estimate D2E/DX2                !
 ! R15   R(6,7)                  1.474          estimate D2E/DX2                !
 ! R16   R(6,8)                  1.5434         estimate D2E/DX2                !
 ! R17   R(6,18)                 1.0971         estimate D2E/DX2                !
 ! R18   R(7,19)                 1.017          estimate D2E/DX2                !
 ! R19   R(7,20)                 1.0214         estimate D2E/DX2                !
 ! R20   R(8,9)                  1.4244         estimate D2E/DX2                !
 ! R21   R(8,21)                 1.096          estimate D2E/DX2                !
 ! R22   R(8,22)                 1.0978         estimate D2E/DX2                !
 ! A1    A(2,1,10)             110.7934         estimate D2E/DX2                !
 ! A2    A(2,1,11)             111.1585         estimate D2E/DX2                !
 ! A3    A(2,1,12)             110.889          estimate D2E/DX2                !
 ! A4    A(10,1,11)            107.3739         estimate D2E/DX2                !
 ! A5    A(10,1,12)            109.05           estimate D2E/DX2                !
 ! A6    A(11,1,12)            107.4421         estimate D2E/DX2                !
 ! A7    A(1,2,3)              107.1714         estimate D2E/DX2                !
 ! A8    A(1,2,9)              107.6363         estimate D2E/DX2                !
 ! A9    A(1,2,13)             107.4366         estimate D2E/DX2                !
 ! A10   A(3,2,9)              113.6943         estimate D2E/DX2                !
 ! A11   A(3,2,13)             109.7189         estimate D2E/DX2                !
 ! A12   A(9,2,13)             110.9043         estimate D2E/DX2                !
 ! A13   A(2,3,4)              114.0915         estimate D2E/DX2                !
 ! A14   A(3,4,5)              109.9941         estimate D2E/DX2                !
 ! A15   A(3,4,14)             106.7025         estimate D2E/DX2                !
 ! A16   A(3,4,15)             110.8439         estimate D2E/DX2                !
 ! A17   A(5,4,14)             109.0008         estimate D2E/DX2                !
 ! A18   A(5,4,15)             113.2081         estimate D2E/DX2                !
 ! A19   A(14,4,15)            106.8197         estimate D2E/DX2                !
 ! A20   A(4,5,6)              112.8194         estimate D2E/DX2                !
 ! A21   A(4,5,16)             109.544          estimate D2E/DX2                !
 ! A22   A(4,5,17)             109.7868         estimate D2E/DX2                !
 ! A23   A(6,5,16)             108.7394         estimate D2E/DX2                !
 ! A24   A(6,5,17)             109.4559         estimate D2E/DX2                !
 ! A25   A(16,5,17)            106.2792         estimate D2E/DX2                !
 ! A26   A(5,6,7)              109.4803         estimate D2E/DX2                !
 ! A27   A(5,6,8)              113.659          estimate D2E/DX2                !
 ! A28   A(5,6,18)             107.0389         estimate D2E/DX2                !
 ! A29   A(7,6,8)              110.921          estimate D2E/DX2                !
 ! A30   A(7,6,18)             107.063          estimate D2E/DX2                !
 ! A31   A(8,6,18)             108.3895         estimate D2E/DX2                !
 ! A32   A(6,7,19)             110.5338         estimate D2E/DX2                !
 ! A33   A(6,7,20)             109.8428         estimate D2E/DX2                !
 ! A34   A(19,7,20)            106.3763         estimate D2E/DX2                !
 ! A35   A(6,8,9)              112.9309         estimate D2E/DX2                !
 ! A36   A(6,8,21)             108.9132         estimate D2E/DX2                !
 ! A37   A(6,8,22)             111.1188         estimate D2E/DX2                !
 ! A38   A(9,8,21)             107.7175         estimate D2E/DX2                !
 ! A39   A(9,8,22)             110.1341         estimate D2E/DX2                !
 ! A40   A(21,8,22)            105.703          estimate D2E/DX2                !
 ! A41   A(2,9,8)              112.6512         estimate D2E/DX2                !
 ! D1    D(10,1,2,3)            57.5361         estimate D2E/DX2                !
 ! D2    D(10,1,2,9)          -179.8084         estimate D2E/DX2                !
 ! D3    D(10,1,2,13)          -60.3171         estimate D2E/DX2                !
 ! D4    D(11,1,2,3)           -61.7698         estimate D2E/DX2                !
 ! D5    D(11,1,2,9)            60.8857         estimate D2E/DX2                !
 ! D6    D(11,1,2,13)         -179.6231         estimate D2E/DX2                !
 ! D7    D(12,1,2,3)           178.7757         estimate D2E/DX2                !
 ! D8    D(12,1,2,9)           -58.5688         estimate D2E/DX2                !
 ! D9    D(12,1,2,13)           60.9225         estimate D2E/DX2                !
 ! D10   D(1,2,3,4)           -178.8639         estimate D2E/DX2                !
 ! D11   D(9,2,3,4)             62.326          estimate D2E/DX2                !
 ! D12   D(13,2,3,4)           -62.5095         estimate D2E/DX2                !
 ! D13   D(1,2,9,8)            160.8066         estimate D2E/DX2                !
 ! D14   D(3,2,9,8)            -80.6497         estimate D2E/DX2                !
 ! D15   D(13,2,9,8)            43.5477         estimate D2E/DX2                !
 ! D16   D(2,3,4,5)            -78.3461         estimate D2E/DX2                !
 ! D17   D(2,3,4,14)           163.5609         estimate D2E/DX2                !
 ! D18   D(2,3,4,15)            47.6158         estimate D2E/DX2                !
 ! D19   D(3,4,5,6)             89.8554         estimate D2E/DX2                !
 ! D20   D(3,4,5,16)           -31.4242         estimate D2E/DX2                !
 ! D21   D(3,4,5,17)          -147.7727         estimate D2E/DX2                !
 ! D22   D(14,4,5,6)          -153.4811         estimate D2E/DX2                !
 ! D23   D(14,4,5,16)           85.2393         estimate D2E/DX2                !
 ! D24   D(14,4,5,17)          -31.1092         estimate D2E/DX2                !
 ! D25   D(15,4,5,6)           -34.7549         estimate D2E/DX2                !
 ! D26   D(15,4,5,16)         -156.0346         estimate D2E/DX2                !
 ! D27   D(15,4,5,17)           87.6169         estimate D2E/DX2                !
 ! D28   D(4,5,6,7)             84.4678         estimate D2E/DX2                !
 ! D29   D(4,5,6,8)            -40.1773         estimate D2E/DX2                !
 ! D30   D(4,5,6,18)          -159.8145         estimate D2E/DX2                !
 ! D31   D(16,5,6,7)          -153.7969         estimate D2E/DX2                !
 ! D32   D(16,5,6,8)            81.5579         estimate D2E/DX2                !
 ! D33   D(16,5,6,18)          -38.0793         estimate D2E/DX2                !
 ! D34   D(17,5,6,7)           -38.0894         estimate D2E/DX2                !
 ! D35   D(17,5,6,8)          -162.7346         estimate D2E/DX2                !
 ! D36   D(17,5,6,18)           77.6282         estimate D2E/DX2                !
 ! D37   D(5,6,7,19)           -64.2754         estimate D2E/DX2                !
 ! D38   D(5,6,7,20)           178.6441         estimate D2E/DX2                !
 ! D39   D(8,6,7,19)            61.9474         estimate D2E/DX2                !
 ! D40   D(8,6,7,20)           -55.1332         estimate D2E/DX2                !
 ! D41   D(18,6,7,19)         -179.9777         estimate D2E/DX2                !
 ! D42   D(18,6,7,20)           62.9418         estimate D2E/DX2                !
 ! D43   D(5,6,8,9)            -36.5227         estimate D2E/DX2                !
 ! D44   D(5,6,8,21)          -156.1427         estimate D2E/DX2                !
 ! D45   D(5,6,8,22)            87.8148         estimate D2E/DX2                !
 ! D46   D(7,6,8,9)           -160.3895         estimate D2E/DX2                !
 ! D47   D(7,6,8,21)            79.9905         estimate D2E/DX2                !
 ! D48   D(7,6,8,22)           -36.052          estimate D2E/DX2                !
 ! D49   D(18,6,8,9)            82.3442         estimate D2E/DX2                !
 ! D50   D(18,6,8,21)          -37.2758         estimate D2E/DX2                !
 ! D51   D(18,6,8,22)         -153.3183         estimate D2E/DX2                !
 ! D52   D(6,8,9,2)             90.737          estimate D2E/DX2                !
 ! D53   D(21,8,9,2)          -148.9564         estimate D2E/DX2                !
 ! D54   D(22,8,9,2)           -34.1377         estimate D2E/DX2                !
 --------------------------------------------------------------------------------
 Trust Radius=3.00D-01 FncErr=1.00D-07 GrdErr=1.00D-06 EigMax=2.50D+02 EigMin=1.00D-04
 Number of steps in this run=    127 maximum allowed number of steps=    132.
 GradGradGradGradGradGradGradGradGradGradGradGradGradGradGradGradGradGrad

                          Input orientation:                          
 ---------------------------------------------------------------------
 Center     Atomic      Atomic             Coordinates (Angstroms)
 Number     Number       Type             X           Y           Z
 ---------------------------------------------------------------------
      1          6           0        1.081780    0.059050    0.058450
      2          6           0        2.605000    0.062570    0.100490
      3          8           0        3.042180   -1.193160   -0.406500
      4          6           0        4.456590   -1.358390   -0.409160
      5          6           0        5.065780   -0.612000   -1.588420
      6          6           0        5.437040    0.836630   -1.247850
      7          7           0        6.772460    0.868310   -0.624660
      8          6           0        4.396700    1.549900   -0.358370
      9          8           0        3.056250    1.179210   -0.665930
     10          1           0        0.678850   -0.779450    0.636270
     11          1           0        0.714660   -0.045070   -0.968860
     12          1           0        0.678070    0.995050    0.457930
     13          1           0        2.904600    0.162160    1.151010
     14          1           0        4.647930   -2.429350   -0.528050
     15          1           0        4.885520   -1.064710    0.556260
     16          1           0        4.355660   -0.606610   -2.426310
     17          1           0        5.957450   -1.143920   -1.944240
     18          1           0        5.511920    1.381030   -2.197390
     19          1           0        6.762900    0.375000    0.264690
     20          1           0        7.034890    1.833130   -0.416000
     21          1           0        4.485640    2.632330   -0.505870
     22          1           0        4.601710    1.377270    0.706170
 ---------------------------------------------------------------------
                    Distance matrix (angstroms):
                    1          2          3          4          5
     1  C    0.000000
     2  C    1.523804   0.000000
     3  O    2.372209   1.423033   0.000000
     4  C    3.690141   2.388986   1.424031   0.000000
     5  C    4.362883   3.059886   2.414464   1.522782   0.000000
     6  C    4.612954   3.230734   3.250119   2.546134   1.533738
     7  N    5.788383   4.306133   4.267580   3.219920   2.456198
     8  C    3.658561   2.373371   3.059644   2.909350   2.575753
     9  O    2.382859   1.427554   2.386554   2.909690   2.845634
    10  H    1.095130   2.169357   2.616076   3.962249   4.921630
    11  H    1.095894   2.174507   2.655505   4.005011   4.431423
    12  H    1.094834   2.170332   3.335344   4.535167   5.101192
    13  H    2.127673   1.096937   2.069217   2.674860   3.574143
    14  H    4.387886   3.283031   2.030117   1.094395   2.145168
    15  H    3.997385   2.584426   2.083581   1.096478   2.199339
    16  H    4.163583   3.146002   2.479698   2.155053   1.098344
    17  H    5.406483   4.107975   3.296342   2.157556   1.097553
    18  H    5.144180   3.933036   3.991661   3.437428   2.131210
    19  H    5.693635   4.172854   4.093089   2.962732   2.699704
    20  H    6.229926   4.798497   5.010015   4.102862   3.351212
    21  H    4.304241   3.241627   4.089966   3.991997   3.469028
    22  H    3.814073   2.466199   3.205820   2.957847   3.072084
                    6          7          8          9         10
     6  C    0.000000
     7  N    1.474014   0.000000
     8  C    1.543449   2.485902   0.000000
     9  O    2.474703   3.729421   1.424363   0.000000
    10  H    5.366749   6.437169   4.498621   3.344264   0.000000
    11  H    4.812079   6.135933   4.058823   2.659638   1.765514
    12  H    5.057922   6.191095   3.847390   2.636800   1.783439
    13  H    3.552843   4.314162   2.535826   2.087740   2.470941
    14  H    3.436194   3.923968   3.990782   3.946411   4.453247
    15  H    2.678447   2.948166   2.812771   3.142476   4.217090
    16  H    2.154319   3.355928   2.988076   2.824280   4.788340
    17  H    2.162953   2.540591   3.493936   3.930391   5.886891
    18  H    1.097089   2.079741   2.157366   2.901106   6.004654
    19  H    2.063682   1.017049   2.714313   3.905389   6.203748
    20  H    2.058667   1.021414   2.653976   4.039759   6.952129
    21  H    2.163385   2.890575   1.096048   2.044586   5.237974
    22  H    2.192775   2.596595   1.097759   2.076134   4.477182
                   11         12         13         14         15
    11  H    0.000000
    12  H    1.766046   0.000000
    13  H    3.054935   2.476187   0.000000
    14  H    4.620575   5.334647   3.546035   0.000000
    15  H    4.556504   4.685607   2.404783   1.759096   0.000000
    16  H    3.961864   4.940529   3.936217   2.647866   3.063712
    17  H    5.444785   6.182028   4.539417   2.317923   2.721729
    18  H    5.153324   5.528636   4.415376   4.248785   3.735855
    19  H    6.187028   6.119392   3.964510   3.600821   2.383765
    20  H    6.616540   6.471112   4.723024   4.886601   3.736651
    21  H    4.647916   4.255254   3.368483   5.064330   3.867315
    22  H    4.465191   3.950021   2.134141   4.001973   2.462983
                   16         17         18         19         20
    16  H    0.000000
    17  H    1.756936   0.000000
    18  H    2.310856   2.576423   0.000000
    19  H    3.741636   2.799150   2.939198   0.000000
    20  H    4.143905   3.515568   2.386877   1.632011   0.000000
    21  H    3.767720   4.300604   2.340992   3.297759   2.673102
    22  H    3.716013   3.901167   3.042886   2.422848   2.717984
                   21         22
    21  H    0.000000
    22  H    1.748625   0.000000
 Stoichiometry    C6H13NO2
 Framework group  C1[X(C6H13NO2)]
 Deg. of freedom    60
 Full point group                 C1      NOp   1
 Largest Abelian subgroup         C1      NOp   1
 Largest concise Abelian subgroup C1      NOp   1
                         Standard orientation:                         
 ---------------------------------------------------------------------
 Center     Atomic      Atomic             Coordinates (Angstroms)
 Number     Number       Type             X           Y           Z
 ---------------------------------------------------------------------
      1          6           0       -2.951574   -0.381402    0.028232
      2          6           0       -1.486462   -0.175029   -0.336234
      3          8           0       -1.170037    1.182916   -0.051833
      4          6           0        0.170999    1.545215   -0.365244
      5          6           0        1.113128    1.044335    0.721208
      6          6           0        1.642533   -0.368307    0.444581
      7          7           0        2.816868   -0.288161   -0.442678
      8          6           0        0.579224   -1.326030   -0.133672
      9          8           0       -0.717280   -1.113048    0.416354
     10          1           0       -3.591573    0.313637   -0.525513
     11          1           0       -3.122400   -0.203591    1.096027
     12          1           0       -3.266923   -1.407256   -0.188194
     13          1           0       -1.386206   -0.360800   -1.412667
     14          1           0        0.203971    2.638854   -0.389057
     15          1           0        0.444738    1.197620   -1.368494
     16          1           0        0.591495    1.042677    1.687776
     17          1           0        1.957871    1.736782    0.828673
     18          1           0        1.989998   -0.774708    1.402553
     19          1           0        2.552710    0.084745   -1.351277
     20          1           0        3.187682   -1.224619   -0.612469
     21          1           0        0.871293   -2.358336    0.090737
     22          1           0        0.540715   -1.259521   -1.228738
 ---------------------------------------------------------------------
 Rotational constants (GHZ):           3.0386474           1.2092797           0.9720562
 Standard basis: 6-31G(2df,p) (6D, 7F)
 There are   344 symmetry adapted cartesian basis functions of A   symmetry.
 There are   317 symmetry adapted basis functions of A   symmetry.
   317 basis functions,   487 primitive gaussians,   344 cartesian basis functions
    36 alpha electrons       36 beta electrons
       nuclear repulsion energy       512.9734201808 Hartrees.
 NAtoms=   22 NActive=   22 NUniq=   22 SFac= 1.00D+00 NAtFMM=   60 NAOKFM=F Big=F
 Integral buffers will be    131072 words long.
 Raffenetti 2 integral format.
 Two-electron integral symmetry is turned on.
 One-electron integrals computed using PRISM.
 PrsmSu:  requested number of processors reduced to:  13 ShMem   1 Linda.
 NBasis=   317 RedAO= T EigKep=  4.88D-04  NBF=   317
 NBsUse=   317 1.00D-06 EigRej= -1.00D+00 NBFU=   317
 ExpMin= 1.61D-01 ExpMax= 5.48D+03 ExpMxC= 8.25D+02 IAcc=3 IRadAn=         5 AccDes= 0.00D+00
 Harris functional with IExCor=  402 and IRadAn=       5 diagonalized for initial guess.
 HarFok:  IExCor=  402 AccDes= 0.00D+00 IRadAn=         5 IDoV= 1 UseB2=F ITyADJ=14
 ICtDFT=  3500011 ScaDFX=  1.000000  1.000000  1.000000  1.000000
 FoFCou: FMM=F IPFlag=           0 FMFlag=      100000 FMFlg1=           0
         NFxFlg=           0 DoJE=T BraDBF=F KetDBF=T FulRan=T
         wScrn=  0.000000 ICntrl=       500 IOpCl=  0 I1Cent=   200000004 NGrid=           0
         NMat0=    1 NMatS0=      1 NMatT0=    0 NMatD0=    1 NMtDS0=    0 NMtDT0=    0
 Petite list used in FoFCou.
 Requested convergence on RMS density matrix=1.00D-08 within 128 cycles.
 Requested convergence on MAX density matrix=1.00D-06.
 Requested convergence on             energy=1.00D-06.
 No special actions if energy rises.
 Integral accuracy reduced to 1.0D-05 until final iterations.
 Initial convergence to 1.0D-05 achieved.  Increase integral accuracy.
 SCF Done:  E(RB3LYP) =  -441.673431718     A.U. after   12 cycles
            NFock= 12  Conv=0.81D-08     -V/T= 2.0075

 **********************************************************************

            Population analysis using the SCF density.

 **********************************************************************

 Orbital symmetries:
       Occupied  (A) (A) (A) (A) (A) (A) (A) (A) (A) (A) (A) (A)
                 (A) (A) (A) (A) (A) (A) (A) (A) (A) (A) (A) (A)
                 (A) (A) (A) (A) (A) (A) (A) (A) (A) (A) (A) (A)
       Virtual   (A) (A) (A) (A) (A) (A) (A) (A) (A) (A) (A) (A)
                 (A) (A) (A) (A) (A) (A) (A) (A) (A) (A) (A) (A)
                 (A) (A) (A) (A) (A) (A) (A) (A) (A) (A) (A) (A)
                 (A) (A) (A) (A) (A) (A) (A) (A) (A) (A) (A) (A)
                 (A) (A) (A) (A) (A) (A) (A) (A) (A) (A) (A) (A)
                 (A) (A) (A) (A) (A) (A) (A) (A) (A) (A) (A) (A)
                 (A) (A) (A) (A) (A) (A) (A) (A) (A) (A) (A) (A)
                 (A) (A) (A) (A) (A) (A) (A) (A) (A) (A) (A) (A)
                 (A) (A) (A) (A) (A) (A) (A) (A) (A) (A) (A) (A)
                 (A) (A) (A) (A) (A) (A) (A) (A) (A) (A) (A) (A)
                 (A) (A) (A) (A) (A) (A) (A) (A) (A) (A) (A) (A)
                 (A) (A) (A) (A) (A) (A) (A) (A) (A) (A) (A) (A)
                 (A) (A) (A) (A) (A) (A) (A) (A) (A) (A) (A) (A)
                 (A) (A) (A) (A) (A) (A) (A) (A) (A) (A) (A) (A)
                 (A) (A) (A) (A) (A) (A) (A) (A) (A) (A) (A) (A)
                 (A) (A) (A) (A) (A) (A) (A) (A) (A) (A) (A) (A)
                 (A) (A) (A) (A) (A) (A) (A) (A) (A) (A) (A) (A)
                 (A) (A) (A) (A) (A) (A) (A) (A) (A) (A) (A) (A)
                 (A) (A) (A) (A) (A) (A) (A) (A) (A) (A) (A) (A)
                 (A) (A) (A) (A) (A) (A) (A) (A) (A) (A) (A) (A)
                 (A) (A) (A) (A) (A) (A) (A) (A) (A) (A) (A) (A)
                 (A) (A) (A) (A) (A) (A) (A) (A) (A) (A) (A) (A)
                 (A) (A) (A) (A) (A) (A) (A) (A) (A) (A) (A) (A)
                 (A) (A) (A) (A) (A)
 The electronic state is 1-A.
 Alpha  occ. eigenvalues --  -19.14331 -19.13795 -14.31109 -10.27595 -10.22711
 Alpha  occ. eigenvalues --  -10.22611 -10.20915 -10.17419 -10.17149  -1.05796
 Alpha  occ. eigenvalues --   -1.00060  -0.88611  -0.78220  -0.73037  -0.69996
 Alpha  occ. eigenvalues --   -0.64899  -0.59581  -0.56602  -0.50865  -0.50355
 Alpha  occ. eigenvalues --   -0.49371  -0.47797  -0.44744  -0.42853  -0.41521
 Alpha  occ. eigenvalues --   -0.39272  -0.38484  -0.37811  -0.36675  -0.35723
 Alpha  occ. eigenvalues --   -0.32990  -0.32204  -0.31476  -0.28114  -0.25861
 Alpha  occ. eigenvalues --   -0.23034
 Alpha virt. eigenvalues --    0.07058   0.08762   0.10112   0.12041   0.12573
 Alpha virt. eigenvalues --    0.13441   0.15092   0.16324   0.16446   0.16924
 Alpha virt. eigenvalues --    0.18112   0.18781   0.19138   0.20338   0.20434
 Alpha virt. eigenvalues --    0.21216   0.22992   0.24964   0.26911   0.27605
 Alpha virt. eigenvalues --    0.30360   0.31076   0.43509   0.44575   0.45429
 Alpha virt. eigenvalues --    0.46539   0.47101   0.49735   0.52137   0.53226
 Alpha virt. eigenvalues --    0.53783   0.54724   0.55125   0.55253   0.57477
 Alpha virt. eigenvalues --    0.60547   0.61197   0.63058   0.65648   0.67996
 Alpha virt. eigenvalues --    0.68755   0.69499   0.71579   0.72364   0.72875
 Alpha virt. eigenvalues --    0.74189   0.74366   0.76015   0.77781   0.78319
 Alpha virt. eigenvalues --    0.78573   0.80585   0.81942   0.83189   0.84255
 Alpha virt. eigenvalues --    0.85436   0.86608   0.87556   0.88366   0.88949
 Alpha virt. eigenvalues --    0.91287   0.92803   0.93598   0.98379   1.01076
 Alpha virt. eigenvalues --    1.04491   1.06141   1.11392   1.12221   1.13238
 Alpha virt. eigenvalues --    1.15872   1.17926   1.22111   1.23294   1.24778
 Alpha virt. eigenvalues --    1.29722   1.32513   1.32838   1.35249   1.37425
 Alpha virt. eigenvalues --    1.38915   1.39881   1.41575   1.42289   1.44495
 Alpha virt. eigenvalues --    1.46700   1.47547   1.49342   1.52048   1.53954
 Alpha virt. eigenvalues --    1.54986   1.57893   1.59566   1.61705   1.62413
 Alpha virt. eigenvalues --    1.64752   1.66211   1.68773   1.71172   1.74362
 Alpha virt. eigenvalues --    1.77036   1.77290   1.79904   1.81752   1.83669
 Alpha virt. eigenvalues --    1.85733   1.86386   1.88599   1.90515   1.93273
 Alpha virt. eigenvalues --    1.96366   1.96511   2.03388   2.07248   2.15001
 Alpha virt. eigenvalues --    2.15494   2.19634   2.22417   2.23208   2.28439
 Alpha virt. eigenvalues --    2.31921   2.32824   2.35559   2.38285   2.39659
 Alpha virt. eigenvalues --    2.41170   2.43236   2.45492   2.47970   2.52157
 Alpha virt. eigenvalues --    2.54879   2.58199   2.59991   2.63905   2.68563
 Alpha virt. eigenvalues --    2.72305   2.74571   2.76561   2.77863   2.78740
 Alpha virt. eigenvalues --    2.79781   2.81566   2.82548   2.84320   2.86360
 Alpha virt. eigenvalues --    2.87939   2.90584   2.92296   2.93148   2.94446
 Alpha virt. eigenvalues --    2.95671   2.97647   2.98526   3.01894   3.04616
 Alpha virt. eigenvalues --    3.07830   3.08472   3.11744   3.13972   3.15354
 Alpha virt. eigenvalues --    3.21935   3.23793   3.26841   3.28454   3.32674
 Alpha virt. eigenvalues --    3.34528   3.36767   3.38164   3.39518   3.43975
 Alpha virt. eigenvalues --    3.45388   3.47819   3.50658   3.51713   3.52880
 Alpha virt. eigenvalues --    3.54091   3.57304   3.59139   3.63474   3.64187
 Alpha virt. eigenvalues --    3.67442   3.69070   3.70567   3.73553   3.77064
 Alpha virt. eigenvalues --    3.80229   3.84658   3.90846   3.93495   3.95786
 Alpha virt. eigenvalues --    4.00747   4.02682   4.09304   4.10250   4.14813
 Alpha virt. eigenvalues --    4.20538   4.24345   4.25153   4.26011   4.27814
 Alpha virt. eigenvalues --    4.30963   4.32959   4.35028   4.36830   4.37058
 Alpha virt. eigenvalues --    4.42295   4.44564   4.45484   4.46256   4.48146
 Alpha virt. eigenvalues --    4.49822   4.50943   4.51351   4.54457   4.55566
 Alpha virt. eigenvalues --    4.57945   4.58708   4.61126   4.61998   4.64014
 Alpha virt. eigenvalues --    4.64856   4.65849   4.69192   4.69989   4.71923
 Alpha virt. eigenvalues --    4.73860   4.74669   4.75768   4.76471   4.78703
 Alpha virt. eigenvalues --    4.80771   4.82448   4.84817   4.86244   4.87306
 Alpha virt. eigenvalues --    4.89275   4.89983   4.91154   4.93487   4.94496
 Alpha virt. eigenvalues --    4.98900   5.01027   5.01897   5.08786   5.11243
 Alpha virt. eigenvalues --    5.13197   5.23518   5.32182   5.36361   5.38472
 Alpha virt. eigenvalues --    5.38939   5.45074   5.45788   5.53337   5.53789
 Alpha virt. eigenvalues --    5.57286   5.62086   5.67473   5.79926   5.87319
 Alpha virt. eigenvalues --    5.96991   6.02784   6.05517   6.10493   6.14898
 Alpha virt. eigenvalues --    6.18777   6.20581   6.23502   6.58078   7.16297
 Alpha virt. eigenvalues --    7.22092   9.74884  11.25229  11.35904  11.46129
 Alpha virt. eigenvalues --   11.90002  12.13624  12.45578  12.99098  13.57156
 Alpha virt. eigenvalues --   13.62398
          Condensed to atoms (all electrons):
               1          2          3          4          5          6
     1  C    5.023160   0.379855  -0.027136   0.005871  -0.000233  -0.000117
     2  C    0.379855   4.571913   0.354392  -0.079592  -0.002375  -0.002534
     3  O   -0.027136   0.354392   7.750667   0.375530  -0.060595   0.002989
     4  C    0.005871  -0.079592   0.375530   4.756242   0.390747  -0.014179
     5  C   -0.000233  -0.002375  -0.060595   0.390747   4.961159   0.380676
     6  C   -0.000117  -0.002534   0.002989  -0.014179   0.380676   4.815428
     7  N   -0.000002  -0.000048  -0.000039  -0.004268  -0.026416   0.368657
     8  C    0.004721  -0.077956   0.006192  -0.005852  -0.037985   0.386384
     9  O   -0.021016   0.335923  -0.056086   0.000385   0.005117  -0.044542
    10  H    0.363779  -0.015497   0.001199   0.000071   0.000018   0.000006
    11  H    0.364969  -0.016137  -0.000118   0.000020  -0.000052  -0.000016
    12  H    0.363493  -0.015200   0.002107  -0.000241   0.000012   0.000011
    13  H   -0.052827   0.358234  -0.048781  -0.011614  -0.000265  -0.001990
    14  H   -0.000353   0.003463  -0.018385   0.368591  -0.036101   0.004042
    15  H    0.000158  -0.003159  -0.030868   0.351543  -0.051744  -0.006991
    16  H   -0.000158   0.002321   0.000788  -0.028949   0.355122  -0.027516
    17  H    0.000006   0.000103   0.002991  -0.026128   0.339956  -0.023137
    18  H    0.000025   0.000173  -0.000140   0.004195  -0.038197   0.355881
    19  H    0.000001   0.000040  -0.000026   0.001946  -0.004280  -0.057117
    20  H   -0.000000   0.000003  -0.000001   0.000028   0.006159  -0.059859
    21  H   -0.000410   0.003711  -0.000153  -0.000111   0.005570  -0.039311
    22  H    0.000748  -0.006732  -0.001664  -0.001640  -0.003189  -0.047804
               7          8          9         10         11         12
     1  C   -0.000002   0.004721  -0.021016   0.363779   0.364969   0.363493
     2  C   -0.000048  -0.077956   0.335923  -0.015497  -0.016137  -0.015200
     3  O   -0.000039   0.006192  -0.056086   0.001199  -0.000118   0.002107
     4  C   -0.004268  -0.005852   0.000385   0.000071   0.000020  -0.000241
     5  C   -0.026416  -0.037985   0.005117   0.000018  -0.000052   0.000012
     6  C    0.368657   0.386384  -0.044542   0.000006  -0.000016   0.000011
     7  N    6.564325  -0.058292   0.003084  -0.000000   0.000000  -0.000000
     8  C   -0.058292   4.915966   0.330326  -0.000182   0.000051   0.000257
     9  O    0.003084   0.330326   7.787906   0.002253  -0.000965   0.000642
    10  H   -0.000000  -0.000182   0.002253   0.584216  -0.029036  -0.028978
    11  H    0.000000   0.000051  -0.000965  -0.029036   0.570312  -0.028874
    12  H   -0.000000   0.000257   0.000642  -0.028978  -0.028874   0.586104
    13  H    0.000036  -0.012897  -0.051265  -0.001053   0.006189  -0.000246
    14  H    0.000113   0.000188  -0.000148   0.000000   0.000003   0.000003
    15  H   -0.000574  -0.002242  -0.002028  -0.000016   0.000045   0.000011
    16  H    0.002959   0.000129   0.002111  -0.000001   0.000127   0.000005
    17  H   -0.000391   0.005430  -0.000038  -0.000000   0.000000  -0.000000
    18  H   -0.027069  -0.046746   0.002218  -0.000000  -0.000001   0.000000
    19  H    0.338992  -0.005320   0.000084  -0.000000   0.000000   0.000000
    20  H    0.343555  -0.001957   0.000102  -0.000000   0.000000  -0.000000
    21  H    0.006253   0.351534  -0.013546   0.000003   0.000011  -0.000008
    22  H    0.003033   0.341815  -0.026851  -0.000010   0.000048  -0.000012
              13         14         15         16         17         18
     1  C   -0.052827  -0.000353   0.000158  -0.000158   0.000006   0.000025
     2  C    0.358234   0.003463  -0.003159   0.002321   0.000103   0.000173
     3  O   -0.048781  -0.018385  -0.030868   0.000788   0.002991  -0.000140
     4  C   -0.011614   0.368591   0.351543  -0.028949  -0.026128   0.004195
     5  C   -0.000265  -0.036101  -0.051744   0.355122   0.339956  -0.038197
     6  C   -0.001990   0.004042  -0.006991  -0.027516  -0.023137   0.355881
     7  N    0.000036   0.000113  -0.000574   0.002959  -0.000391  -0.027069
     8  C   -0.012897   0.000188  -0.002242   0.000129   0.005430  -0.046746
     9  O   -0.051265  -0.000148  -0.002028   0.002111  -0.000038   0.002218
    10  H   -0.001053   0.000000  -0.000016  -0.000001  -0.000000  -0.000000
    11  H    0.006189   0.000003   0.000045   0.000127   0.000000  -0.000001
    12  H   -0.000246   0.000003   0.000011   0.000005  -0.000000   0.000000
    13  H    0.719306   0.000035   0.012974   0.000377   0.000037  -0.000012
    14  H    0.000035   0.619999  -0.042008   0.000032  -0.005438  -0.000231
    15  H    0.012974  -0.042008   0.677584   0.006210   0.003820   0.000114
    16  H    0.000377   0.000032   0.006210   0.606958  -0.030429  -0.007114
    17  H    0.000037  -0.005438   0.003820  -0.030429   0.629299  -0.000261
    18  H   -0.000012  -0.000231   0.000114  -0.007114  -0.000261   0.672042
    19  H    0.000043  -0.000332   0.004115  -0.000135   0.000017   0.007182
    20  H    0.000011   0.000011  -0.000219  -0.000257  -0.000116  -0.003781
    21  H    0.000588  -0.000004  -0.000046  -0.000075  -0.000165  -0.008424
    22  H    0.017351  -0.000042   0.002408   0.000009  -0.000060   0.006377
              19         20         21         22
     1  C    0.000001  -0.000000  -0.000410   0.000748
     2  C    0.000040   0.000003   0.003711  -0.006732
     3  O   -0.000026  -0.000001  -0.000153  -0.001664
     4  C    0.001946   0.000028  -0.000111  -0.001640
     5  C   -0.004280   0.006159   0.005570  -0.003189
     6  C   -0.057117  -0.059859  -0.039311  -0.047804
     7  N    0.338992   0.343555   0.006253   0.003033
     8  C   -0.005320  -0.001957   0.351534   0.341815
     9  O    0.000084   0.000102  -0.013546  -0.026851
    10  H   -0.000000  -0.000000   0.000003  -0.000010
    11  H    0.000000   0.000000   0.000011   0.000048
    12  H    0.000000  -0.000000  -0.000008  -0.000012
    13  H    0.000043   0.000011   0.000588   0.017351
    14  H   -0.000332   0.000011  -0.000004  -0.000042
    15  H    0.004115  -0.000219  -0.000046   0.002408
    16  H   -0.000135  -0.000257  -0.000075   0.000009
    17  H    0.000017  -0.000116  -0.000165  -0.000060
    18  H    0.007182  -0.003781  -0.008424   0.006377
    19  H    0.518546  -0.031249  -0.000150   0.007426
    20  H   -0.031249   0.519281   0.002959   0.001250
    21  H   -0.000150   0.002959   0.633035  -0.041551
    22  H    0.007426   0.001250  -0.041551   0.666161
 Mulliken charges:
               1
     1  C   -0.404533
     2  C    0.209100
     3  O   -0.252863
     4  C   -0.082596
     5  C   -0.183103
     6  C    0.011039
     7  N   -0.513906
     8  C   -0.093563
     9  O   -0.253663
    10  H    0.123229
    11  H    0.133423
    12  H    0.120913
    13  H    0.065768
    14  H    0.106564
    15  H    0.080911
    16  H    0.117487
    17  H    0.104506
    18  H    0.083770
    19  H    0.220219
    20  H    0.224079
    21  H    0.100290
    22  H    0.082928
 Sum of Mulliken charges =  -0.00000
 Mulliken charges with hydrogens summed into heavy atoms:
               1
     1  C   -0.026967
     2  C    0.274868
     3  O   -0.252863
     4  C    0.104879
     5  C    0.038891
     6  C    0.094809
     7  N   -0.069609
     8  C    0.089655
     9  O   -0.253663
 Electronic spatial extent (au):  <R**2>=           1286.9050
 Charge=             -0.0000 electrons
 Dipole moment (field-independent basis, Debye):
    X=              0.5174    Y=             -0.7959    Z=             -1.6369  Tot=              1.8923
 Quadrupole moment (field-independent basis, Debye-Ang):
   XX=            -58.6152   YY=            -54.5241   ZZ=            -53.2910
   XY=             -1.5648   XZ=             -0.4975   YZ=              0.8739
 Traceless Quadrupole moment (field-independent basis, Debye-Ang):
   XX=             -3.1385   YY=              0.9527   ZZ=              2.1858
   XY=             -1.5648   XZ=             -0.4975   YZ=              0.8739
 Octapole moment (field-independent basis, Debye-Ang**2):
  XXX=            -27.7630  YYY=             -0.3419  ZZZ=             -0.8927  XYY=             10.2778
  XXY=            -13.3270  XXZ=             -5.1691  XZZ=              3.5476  YZZ=              0.4757
  YYZ=             -1.4833  XYZ=             -0.1146
 Hexadecapole moment (field-independent basis, Debye-Ang**3):
 XXXX=          -1165.7031 YYYY=           -394.0558 ZZZZ=           -152.7688 XXXY=            -36.2832
 XXXZ=            -17.0042 YYYX=             -7.8803 YYYZ=             -1.3221 ZZZX=            -10.6936
 ZZZY=             -1.4954 XXYY=           -239.6703 XXZZ=           -195.6684 YYZZ=            -96.7440
 XXYZ=              3.8208 YYXZ=             -0.4648 ZZXY=             -3.1779
 N-N= 5.129734201808D+02 E-N=-2.056406298857D+03  KE= 4.384021283132D+02
 PrsmSu:  requested number of processors reduced to:  13 ShMem   1 Linda.
 Calling FoFJK, ICntrl=      2127 FMM=F ISym2X=0 I1Cent= 0 IOpClX= 0 NMat=1 NMatS=1 NMatT=0.
 ***** Axes restored to original set *****
 -------------------------------------------------------------------
 Center     Atomic                   Forces (Hartrees/Bohr)
 Number     Number              X              Y              Z
 -------------------------------------------------------------------
      1        6          -0.004519344   -0.001251523   -0.004768310
      2        6          -0.016339346   -0.004817920   -0.013725066
      3        8          -0.002254554    0.010208785    0.011050043
      4        6          -0.008001430   -0.008374368   -0.010526597
      5        6           0.004866522    0.003680979   -0.002330426
      6        6           0.009872485    0.000553721    0.001998383
      7        7           0.003827946    0.006186256   -0.004725497
      8        6          -0.004701821    0.002034503   -0.007870219
      9        8           0.001491261   -0.007975666    0.014884903
     10        1           0.002495039    0.001185648    0.000448405
     11        1           0.003250258    0.000044146    0.000245049
     12        1           0.002782839   -0.000990758    0.000925948
     13        1           0.009701841    0.002713903    0.001801521
     14        1          -0.003745858   -0.001099533    0.001706868
     15        1           0.001515587    0.001692740    0.002014376
     16        1          -0.000993669   -0.003517298    0.005720770
     17        1           0.001448512    0.004483351    0.001555294
     18        1           0.001568369    0.001135782    0.001548165
     19        1          -0.001204221    0.000762102    0.000194758
     20        1          -0.000646501   -0.003995914    0.000438950
     21        1          -0.001961438    0.000677306   -0.001224976
     22        1           0.001547523   -0.003336241    0.000637655
 -------------------------------------------------------------------
 Cartesian Forces:  Max     0.016339346 RMS     0.005323350

 GradGradGradGradGradGradGradGradGradGradGradGradGradGradGradGradGradGrad
 Berny optimization.
 FormGI is forming the generalized inverse of G from B-inverse, IUseBI=4.
 Internal  Forces:  Max     0.010414366 RMS     0.003153917
 Search for a local minimum.
 Step number   1 out of a maximum of  127
 All quantities printed in internal units (Hartrees-Bohrs-Radians)
 Mixed Optimization -- RFO/linear search
 Second derivative matrix not updated -- first step.
 ITU=  0
     Eigenvalues ---    0.00342   0.00451   0.00713   0.00975   0.01821
     Eigenvalues ---    0.02304   0.03124   0.03387   0.04245   0.04251
     Eigenvalues ---    0.04749   0.04934   0.05537   0.05565   0.05614
     Eigenvalues ---    0.05773   0.05975   0.06078   0.06222   0.06890
     Eigenvalues ---    0.08387   0.08713   0.09608   0.10914   0.11624
     Eigenvalues ---    0.11718   0.12440   0.13412   0.16000   0.16000
     Eigenvalues ---    0.16000   0.16000   0.16000   0.16775   0.17281
     Eigenvalues ---    0.19484   0.20553   0.22477   0.27667   0.28252
     Eigenvalues ---    0.29234   0.30003   0.33866   0.33931   0.33954
     Eigenvalues ---    0.34006   0.34023   0.34075   0.34123   0.34140
     Eigenvalues ---    0.34226   0.34260   0.34310   0.35264   0.39223
     Eigenvalues ---    0.39724   0.41011   0.41856   0.44113   0.44812
 RFO step:  Lambda=-7.31880142D-03 EMin= 3.41717219D-03
 Linear search not attempted -- first point.
 Iteration  1 RMS(Cart)=  0.04259751 RMS(Int)=  0.00093572
 Iteration  2 RMS(Cart)=  0.00121837 RMS(Int)=  0.00036795
 Iteration  3 RMS(Cart)=  0.00000073 RMS(Int)=  0.00036795
 Variable       Old X    -DE/DX   Delta X   Delta X   Delta X     New X
                                 (Linear)    (Quad)   (Total)
    R1        2.87957  -0.00392   0.00000  -0.01275  -0.01275   2.86683
    R2        2.06950  -0.00159   0.00000  -0.00455  -0.00455   2.06495
    R3        2.07094  -0.00132   0.00000  -0.00379  -0.00379   2.06715
    R4        2.06894  -0.00154   0.00000  -0.00439  -0.00439   2.06455
    R5        2.68914  -0.01041   0.00000  -0.02670  -0.02668   2.66247
    R6        2.69769  -0.00789   0.00000  -0.02390  -0.02376   2.67393
    R7        2.07291   0.00462   0.00000   0.01330   0.01330   2.08621
    R8        2.69103   0.00148   0.00000   0.00397   0.00388   2.69491
    R9        2.87764   0.00594   0.00000   0.02568   0.02553   2.90317
   R10        2.06811   0.00024   0.00000   0.00067   0.00067   2.06878
   R11        2.07204   0.00282   0.00000   0.00810   0.00810   2.08015
   R12        2.89834   0.00257   0.00000   0.01366   0.01357   2.91191
   R13        2.07557  -0.00374   0.00000  -0.01081  -0.01081   2.06476
   R14        2.07407  -0.00150   0.00000  -0.00432  -0.00432   2.06975
   R15        2.78548   0.00012   0.00000   0.00035   0.00035   2.78583
   R16        2.91670   0.00232   0.00000   0.00743   0.00751   2.92420
   R17        2.07320  -0.00067   0.00000  -0.00193  -0.00193   2.07127
   R18        1.92194  -0.00019   0.00000  -0.00041  -0.00041   1.92153
   R19        1.93019  -0.00385   0.00000  -0.00859  -0.00859   1.92160
   R20        2.69166   0.00116   0.00000   0.00135   0.00146   2.69311
   R21        2.07123   0.00067   0.00000   0.00194   0.00194   2.07317
   R22        2.07446   0.00143   0.00000   0.00413   0.00413   2.07859
    A1        1.93371  -0.00187   0.00000  -0.01220  -0.01232   1.92139
    A2        1.94008  -0.00304   0.00000  -0.01586  -0.01594   1.92414
    A3        1.93538  -0.00244   0.00000  -0.01587  -0.01601   1.91937
    A4        1.87403   0.00288   0.00000   0.01973   0.01967   1.89370
    A5        1.90328   0.00173   0.00000   0.00599   0.00582   1.90910
    A6        1.87522   0.00312   0.00000   0.02059   0.02050   1.89572
    A7        1.87049  -0.00079   0.00000   0.00207   0.00220   1.87269
    A8        1.87861   0.00140   0.00000   0.00954   0.00992   1.88853
    A9        1.87512   0.00691   0.00000   0.06566   0.06571   1.94083
   A10        1.98434   0.00065   0.00000  -0.00444  -0.00526   1.97908
   A11        1.91496  -0.00231   0.00000  -0.01710  -0.01804   1.89692
   A12        1.93565  -0.00516   0.00000  -0.04837  -0.04902   1.88663
   A13        1.99127   0.00091   0.00000   0.02062   0.01984   2.01111
   A14        1.91976   0.00368   0.00000   0.04183   0.04064   1.96040
   A15        1.86231  -0.00271   0.00000  -0.02275  -0.02346   1.83885
   A16        1.93459  -0.00183   0.00000  -0.02144  -0.02089   1.91370
   A17        1.90242   0.00432   0.00000   0.03079   0.03116   1.93358
   A18        1.97585  -0.00359   0.00000  -0.02788  -0.02749   1.94836
   A19        1.86435   0.00017   0.00000  -0.00087  -0.00094   1.86341
   A20        1.96907   0.00632   0.00000   0.04431   0.04321   2.01228
   A21        1.91190  -0.00788   0.00000  -0.06124  -0.06084   1.85107
   A22        1.91614   0.00269   0.00000   0.02170   0.02231   1.93845
   A23        1.89786   0.00093   0.00000   0.00816   0.00912   1.90698
   A24        1.91037  -0.00457   0.00000  -0.02971  -0.03003   1.88033
   A25        1.85492   0.00225   0.00000   0.01480   0.01487   1.86979
   A26        1.91079   0.00551   0.00000   0.02176   0.02212   1.93291
   A27        1.98372  -0.00902   0.00000  -0.02191  -0.02279   1.96094
   A28        1.86818   0.00167   0.00000   0.00921   0.00937   1.87756
   A29        1.93594   0.00339   0.00000   0.02153   0.02175   1.95769
   A30        1.86860  -0.00381   0.00000  -0.02797  -0.02807   1.84053
   A31        1.89175   0.00235   0.00000  -0.00432  -0.00397   1.88778
   A32        1.92918  -0.00213   0.00000  -0.01638  -0.01641   1.91277
   A33        1.91712   0.00145   0.00000   0.00498   0.00496   1.92208
   A34        1.85662  -0.00047   0.00000  -0.01028  -0.01034   1.84628
   A35        1.97102   0.00665   0.00000   0.03468   0.03460   2.00562
   A36        1.90089   0.00002   0.00000   0.00697   0.00720   1.90810
   A37        1.93939  -0.00466   0.00000  -0.03254  -0.03257   1.90682
   A38        1.88002  -0.00221   0.00000  -0.01735  -0.01756   1.86247
   A39        1.92220  -0.00226   0.00000  -0.00791  -0.00761   1.91459
   A40        1.84487   0.00227   0.00000   0.01559   0.01560   1.86046
   A41        1.96613   0.00823   0.00000   0.04358   0.04330   2.00943
    D1        1.00420   0.00011   0.00000   0.00669   0.00700   1.01120
    D2       -3.13825   0.00123   0.00000   0.00803   0.00769  -3.13055
    D3       -1.05273  -0.00035   0.00000  -0.00825  -0.00832  -1.06106
    D4       -1.07809  -0.00030   0.00000   0.00029   0.00065  -1.07744
    D5        1.06266   0.00083   0.00000   0.00164   0.00134   1.06399
    D6       -3.13501  -0.00075   0.00000  -0.01465  -0.01468   3.13349
    D7        3.12023  -0.00061   0.00000  -0.00470  -0.00433   3.11589
    D8       -1.02222   0.00051   0.00000  -0.00336  -0.00364  -1.02586
    D9        1.06330  -0.00107   0.00000  -0.01965  -0.01966   1.04364
   D10       -3.12176  -0.00179   0.00000  -0.00842  -0.00839  -3.13015
   D11        1.08779  -0.00339   0.00000  -0.01904  -0.01906   1.06874
   D12       -1.09100   0.00474   0.00000   0.06153   0.06123  -1.02977
   D13        2.80660   0.00276   0.00000   0.00846   0.00810   2.81471
   D14       -1.40760   0.00311   0.00000   0.01480   0.01434  -1.39326
   D15        0.76005  -0.00354   0.00000  -0.04955  -0.04898   0.71107
   D16       -1.36740   0.00374   0.00000   0.03979   0.04024  -1.32715
   D17        2.85468  -0.00181   0.00000  -0.00621  -0.00534   2.84934
   D18        0.83105   0.00048   0.00000   0.01891   0.01879   0.84984
   D19        1.56827  -0.00262   0.00000  -0.06896  -0.07004   1.49823
   D20       -0.54846  -0.00247   0.00000  -0.06574  -0.06595  -0.61441
   D21       -2.57912  -0.00218   0.00000  -0.06074  -0.06094  -2.64006
   D22       -2.67875  -0.00129   0.00000  -0.05478  -0.05505  -2.73379
   D23        1.48771  -0.00114   0.00000  -0.05156  -0.05096   1.43675
   D24       -0.54296  -0.00085   0.00000  -0.04656  -0.04595  -0.58890
   D25       -0.60659  -0.00041   0.00000  -0.05250  -0.05295  -0.65954
   D26       -2.72332  -0.00025   0.00000  -0.04928  -0.04886  -2.77218
   D27        1.52920   0.00004   0.00000  -0.04428  -0.04385   1.48535
   D28        1.47424   0.00531   0.00000   0.07657   0.07637   1.55061
   D29       -0.70123   0.00318   0.00000   0.04741   0.04747  -0.65376
   D30       -2.78929   0.00454   0.00000   0.05974   0.05975  -2.72954
   D31       -2.68426   0.00013   0.00000   0.03379   0.03370  -2.65056
   D32        1.42345  -0.00200   0.00000   0.00463   0.00480   1.42825
   D33       -0.66461  -0.00064   0.00000   0.01696   0.01708  -0.64753
   D34       -0.66479   0.00082   0.00000   0.03975   0.03990  -0.62489
   D35       -2.84025  -0.00131   0.00000   0.01059   0.01099  -2.82926
   D36        1.35487   0.00005   0.00000   0.02291   0.02328   1.37815
   D37       -1.12182   0.00214   0.00000  -0.00898  -0.00900  -1.13082
   D38        3.11793   0.00310   0.00000   0.01036   0.01031   3.12823
   D39        1.08119  -0.00302   0.00000  -0.00581  -0.00582   1.07536
   D40       -0.96226  -0.00206   0.00000   0.01353   0.01349  -0.94877
   D41       -3.14120  -0.00058   0.00000  -0.01583  -0.01574   3.12624
   D42        1.09854   0.00038   0.00000   0.00351   0.00357   1.10211
   D43       -0.63744   0.00366   0.00000   0.01257   0.01274  -0.62471
   D44       -2.72520   0.00221   0.00000   0.00764   0.00740  -2.71781
   D45        1.53266   0.00209   0.00000   0.00309   0.00286   1.53552
   D46       -2.79932   0.00050   0.00000  -0.01666  -0.01631  -2.81564
   D47        1.39610  -0.00096   0.00000  -0.02159  -0.02165   1.37445
   D48       -0.62923  -0.00108   0.00000  -0.02614  -0.02618  -0.65541
   D49        1.43718   0.00176   0.00000   0.00758   0.00789   1.44506
   D50       -0.65059   0.00030   0.00000   0.00265   0.00255  -0.64804
   D51       -2.67591   0.00019   0.00000  -0.00190  -0.00199  -2.67790
   D52        1.58366  -0.00099   0.00000  -0.01301  -0.01347   1.57019
   D53       -2.59978   0.00165   0.00000   0.00536   0.00495  -2.59483
   D54       -0.59582   0.00195   0.00000   0.01016   0.00991  -0.58590
         Item               Value     Threshold  Converged?
 Maximum Force            0.010414     0.000450     NO 
 RMS     Force            0.003154     0.000300     NO 
 Maximum Displacement     0.181843     0.001800     NO 
 RMS     Displacement     0.042374     0.001200     NO 
 Predicted change in Energy=-3.987521D-03
 GradGradGradGradGradGradGradGradGradGradGradGradGradGradGradGradGradGrad

                          Input orientation:                          
 ---------------------------------------------------------------------
 Center     Atomic      Atomic             Coordinates (Angstroms)
 Number     Number       Type             X           Y           Z
 ---------------------------------------------------------------------
      1          6           0        1.060570    0.063712    0.060491
      2          6           0        2.576880    0.050611    0.106337
      3          8           0        3.000805   -1.190991   -0.407238
      4          6           0        4.412772   -1.390068   -0.427961
      5          6           0        5.094476   -0.616514   -1.566856
      6          6           0        5.463361    0.843952   -1.242225
      7          7           0        6.810728    0.922826   -0.649234
      8          6           0        4.396684    1.538756   -0.362472
      9          8           0        3.051185    1.157425   -0.636747
     10          1           0        0.660439   -0.774572    0.636010
     11          1           0        0.712304   -0.026786   -0.972519
     12          1           0        0.682801    1.001277    0.475036
     13          1           0        2.945868    0.149500    1.142110
     14          1           0        4.551703   -2.468702   -0.553363
     15          1           0        4.838056   -1.127026    0.552665
     16          1           0        4.394115   -0.633535   -2.405327
     17          1           0        6.006234   -1.125283   -1.897696
     18          1           0        5.529867    1.387425   -2.191742
     19          1           0        6.816301    0.446607    0.249170
     20          1           0        7.049435    1.891101   -0.450523
     21          1           0        4.453687    2.624105   -0.511926
     22          1           0        4.625308    1.355160    0.697670
 ---------------------------------------------------------------------
                    Distance matrix (angstroms):
                    1          2          3          4          5
     1  C    0.000000
     2  C    1.517059   0.000000
     3  O    2.357448   1.408917   0.000000
     4  C    3.686369   2.394061   1.426083   0.000000
     5  C    4.402654   3.095629   2.461340   1.536290   0.000000
     6  C    4.657296   3.283258   3.301875   2.599540   1.540917
     7  N    5.857141   4.388294   4.363748   3.338957   2.481354
     8  C    3.672099   2.397091   3.066269   2.929600   2.565666
     9  O    2.375899   1.414983   2.360142   2.896072   2.861294
    10  H    1.092724   2.152725   2.595975   3.948528   4.953613
    11  H    1.093887   2.155588   2.629097   3.981022   4.461440
    12  H    1.092513   2.151101   3.310225   4.521793   5.123421
    13  H    2.175226   1.103973   2.049491   2.643330   3.541438
    14  H    4.356369   3.268344   2.014742   1.094751   2.179993
    15  H    3.991176   2.588234   2.073885   1.100766   2.195164
    16  H    4.204633   3.174722   2.498886   2.117230   1.092625
    17  H    5.450486   4.142384   3.355352   2.183885   1.095264
    18  H    5.176812   3.973458   4.028503   3.474664   2.143786
    19  H    5.771538   4.260271   4.203643   3.099812   2.718982
    20  H    6.282276   4.868393   5.088474   4.209343   3.369896
    21  H    4.289116   3.244615   4.083722   4.015259   3.467722
    22  H    3.844631   2.499517   3.216010   2.974642   3.039029
                    6          7          8          9         10
     6  C    0.000000
     7  N    1.474197   0.000000
     8  C    1.547422   2.507830   0.000000
     9  O    2.506683   3.766876   1.425134   0.000000
    10  H    5.405131   6.508385   4.506438   3.326889   0.000000
    11  H    4.837713   6.180376   4.049412   2.643003   1.774609
    12  H    5.082075   6.230701   3.844897   2.621009   1.783270
    13  H    3.536253   4.329444   2.509715   2.047275   2.516592
    14  H    3.504188   4.076132   4.014996   3.925214   4.407564
    15  H    2.738137   3.088348   2.852837   3.134697   4.193287
    16  H    2.163114   3.368403   2.981964   2.852872   4.817672
    17  H    2.145284   2.529944   3.470542   3.941201   5.926229
    18  H    1.096069   2.058103   2.157135   2.935093   6.031728
    19  H    2.052459   1.016831   2.724232   3.932710   6.287731
    20  H    2.058869   1.016869   2.677496   4.069270   7.007541
    21  H    2.172952   2.910129   1.097072   2.033160   5.220871
    22  H    2.174134   2.603292   1.099945   2.073073   4.501083
                   11         12         13         14         15
    11  H    0.000000
    12  H    1.775725   0.000000
    13  H    3.080834   2.508383   0.000000
    14  H    4.569423   5.297807   3.508320   0.000000
    15  H    4.534152   4.669244   2.357400   1.762212   0.000000
    16  H    3.997101   4.974229   3.910866   2.611981   3.031557
    17  H    5.485284   6.204116   4.497925   2.393255   2.714575
    18  H    5.166760   5.545707   4.395916   4.302419   3.785873
    19  H    6.243028   6.162670   3.983198   3.777763   2.545955
    20  H    6.641536   6.494804   4.733805   5.025646   3.873716
    21  H    4.608396   4.222232   3.336618   5.093919   3.918172
    22  H    4.473355   3.964613   2.114630   4.023981   2.495503
                   16         17         18         19         20
    16  H    0.000000
    17  H    1.760236   0.000000
    18  H    2.328053   2.574313   0.000000
    19  H    3.752339   2.781382   2.915150   0.000000
    20  H    4.152802   3.504447   2.365295   1.621876   0.000000
    21  H    3.768386   4.288201   2.347195   3.301925   2.697958
    22  H    3.692825   3.846490   3.027866   2.413933   2.735320
                   21         22
    21  H    0.000000
    22  H    1.761476   0.000000
 Stoichiometry    C6H13NO2
 Framework group  C1[X(C6H13NO2)]
 Deg. of freedom    60
 Full point group                 C1      NOp   1
 Largest Abelian subgroup         C1      NOp   1
 Largest concise Abelian subgroup C1      NOp   1
                         Standard orientation:                         
 ---------------------------------------------------------------------
 Center     Atomic      Atomic             Coordinates (Angstroms)
 Number     Number       Type             X           Y           Z
 ---------------------------------------------------------------------
      1          6           0       -2.962387   -0.425287    0.040668
      2          6           0       -1.510953   -0.188902   -0.332066
      3          8           0       -1.219723    1.159922   -0.047628
      4          6           0        0.111391    1.571537   -0.351635
      5          6           0        1.128478    1.069283    0.684445
      6          6           0        1.677608   -0.348576    0.434330
      7          7           0        2.874939   -0.300934   -0.424383
      8          6           0        0.598317   -1.308130   -0.121460
      9          8           0       -0.712935   -1.101828    0.397256
     10          1           0       -3.608743    0.258256   -0.515246
     11          1           0       -3.111662   -0.251442    1.110286
     12          1           0       -3.243160   -1.456120   -0.187657
     13          1           0       -1.340753   -0.368195   -1.408004
     14          1           0        0.080237    2.665741   -0.366689
     15          1           0        0.375594    1.247365   -1.369867
     16          1           0        0.614321    1.091851    1.648272
     17          1           0        1.983396    1.749859    0.758839
     18          1           0        2.023612   -0.743965    1.396263
     19          1           0        2.620324    0.046331   -1.345537
     20          1           0        3.236593   -1.239642   -0.572900
     21          1           0        0.873571   -2.342523    0.119024
     22          1           0        0.578633   -1.235274   -1.218813
 ---------------------------------------------------------------------
 Rotational constants (GHZ):           3.0591501           1.1840896           0.9515049
 Standard basis: 6-31G(2df,p) (6D, 7F)
 There are   344 symmetry adapted cartesian basis functions of A   symmetry.
 There are   317 symmetry adapted basis functions of A   symmetry.
   317 basis functions,   487 primitive gaussians,   344 cartesian basis functions
    36 alpha electrons       36 beta electrons
       nuclear repulsion energy       511.2865144027 Hartrees.
 NAtoms=   22 NActive=   22 NUniq=   22 SFac= 1.00D+00 NAtFMM=   60 NAOKFM=F Big=F
 Integral buffers will be    131072 words long.
 Raffenetti 2 integral format.
 Two-electron integral symmetry is turned on.
 One-electron integrals computed using PRISM.
 PrsmSu:  requested number of processors reduced to:  13 ShMem   1 Linda.
 NBasis=   317 RedAO= T EigKep=  4.98D-04  NBF=   317
 NBsUse=   317 1.00D-06 EigRej= -1.00D+00 NBFU=   317
 Initial guess from the checkpoint file:  "CC1OCCCpNpCO1.chk"
 B after Tr=     0.000000   -0.000000   -0.000000
         Rot=    0.999979    0.002698   -0.000836   -0.005873 Ang=   0.75 deg.
 ExpMin= 1.61D-01 ExpMax= 5.48D+03 ExpMxC= 8.25D+02 IAcc=2 IRadAn=         4 AccDes= 0.00D+00
 Harris functional with IExCor=  402 and IRadAn=       4 diagonalized for initial guess.
 HarFok:  IExCor=  402 AccDes= 0.00D+00 IRadAn=         4 IDoV= 1 UseB2=F ITyADJ=14
 ICtDFT=  3500011 ScaDFX=  1.000000  1.000000  1.000000  1.000000
 FoFCou: FMM=F IPFlag=           0 FMFlag=      100000 FMFlg1=           0
         NFxFlg=           0 DoJE=T BraDBF=F KetDBF=T FulRan=T
         wScrn=  0.000000 ICntrl=       500 IOpCl=  0 I1Cent=   200000004 NGrid=           0
         NMat0=    1 NMatS0=      1 NMatT0=    0 NMatD0=    1 NMtDS0=    0 NMtDT0=    0
 Petite list used in FoFCou.
 Requested convergence on RMS density matrix=1.00D-08 within 128 cycles.
 Requested convergence on MAX density matrix=1.00D-06.
 Requested convergence on             energy=1.00D-06.
 No special actions if energy rises.
 Integral accuracy reduced to 1.0D-05 until final iterations.
 Initial convergence to 1.0D-05 achieved.  Increase integral accuracy.
 SCF Done:  E(RB3LYP) =  -441.677103252     A.U. after   10 cycles
            NFock= 10  Conv=0.75D-08     -V/T= 2.0075
 PrsmSu:  requested number of processors reduced to:  13 ShMem   1 Linda.
 Calling FoFJK, ICntrl=      2127 FMM=F ISym2X=0 I1Cent= 0 IOpClX= 0 NMat=1 NMatS=1 NMatT=0.
 ***** Axes restored to original set *****
 -------------------------------------------------------------------
 Center     Atomic                   Forces (Hartrees/Bohr)
 Number     Number              X              Y              Z
 -------------------------------------------------------------------
      1        6          -0.001012249    0.000440463   -0.000293405
      2        6           0.000575150   -0.001494733   -0.003861661
      3        8           0.001862903    0.001749546    0.000360936
      4        6          -0.001917452   -0.000489083    0.000074408
      5        6          -0.000286960    0.000437431    0.000312275
      6        6           0.000889222    0.000718755   -0.000604536
      7        7          -0.001894006   -0.001203771   -0.000968934
      8        6          -0.003672266    0.001342688   -0.000793918
      9        8           0.003075137    0.000247617    0.001430324
     10        1           0.000441000    0.000252603    0.000109701
     11        1           0.001509688    0.000058582    0.000230130
     12        1           0.000185436   -0.000249040    0.000299738
     13        1           0.000610260    0.000365455    0.001648894
     14        1          -0.000395065    0.000862531   -0.001446141
     15        1           0.001128705   -0.000258725    0.001250031
     16        1          -0.000198242   -0.000175384   -0.000841330
     17        1           0.000149977   -0.000408570    0.001837351
     18        1          -0.000792217   -0.000647651   -0.000567227
     19        1           0.000332029   -0.000252192    0.001158613
     20        1          -0.000373595    0.000226607   -0.000134839
     21        1          -0.000705017   -0.000394473   -0.000122407
     22        1           0.000487561   -0.001128658    0.000921997
 -------------------------------------------------------------------
 Cartesian Forces:  Max     0.003861661 RMS     0.001149736

 GradGradGradGradGradGradGradGradGradGradGradGradGradGradGradGradGradGrad
 Berny optimization.
 Using GEDIIS/GDIIS optimizer.
 FormGI is forming the generalized inverse of G from B-inverse, IUseBI=4.
 Internal  Forces:  Max     0.004475814 RMS     0.000820551
 Search for a local minimum.
 Step number   2 out of a maximum of  127
 All quantities printed in internal units (Hartrees-Bohrs-Radians)
 Mixed Optimization -- En-DIIS/RFO-DIIS
 Update second derivatives using D2CorX and points    1    2
 DE= -3.67D-03 DEPred=-3.99D-03 R= 9.21D-01
 TightC=F SS=  1.41D+00  RLast= 2.94D-01 DXNew= 5.0454D-01 8.8332D-01
 Trust test= 9.21D-01 RLast= 2.94D-01 DXMaxT set to 5.05D-01
 ITU=  1  0
 Use linear search instead of GDIIS.
     Eigenvalues ---    0.00343   0.00451   0.00713   0.00925   0.01774
     Eigenvalues ---    0.02282   0.03006   0.03368   0.04077   0.04351
     Eigenvalues ---    0.04799   0.04923   0.05511   0.05674   0.05740
     Eigenvalues ---    0.05752   0.05770   0.05897   0.06171   0.06688
     Eigenvalues ---    0.08688   0.08753   0.09798   0.11524   0.11891
     Eigenvalues ---    0.11920   0.12486   0.13647   0.15624   0.16000
     Eigenvalues ---    0.16000   0.16000   0.16094   0.16933   0.17346
     Eigenvalues ---    0.20331   0.20513   0.22627   0.27700   0.28354
     Eigenvalues ---    0.29420   0.29914   0.33611   0.33939   0.33956
     Eigenvalues ---    0.33986   0.34018   0.34070   0.34134   0.34145
     Eigenvalues ---    0.34223   0.34259   0.34338   0.35357   0.38698
     Eigenvalues ---    0.39568   0.40922   0.42833   0.44164   0.44882
 RFO step:  Lambda=-6.46838746D-04 EMin= 3.43161924D-03
 Quartic linear search produced a step of  0.01051.
 Iteration  1 RMS(Cart)=  0.02244063 RMS(Int)=  0.00029386
 Iteration  2 RMS(Cart)=  0.00034049 RMS(Int)=  0.00005358
 Iteration  3 RMS(Cart)=  0.00000005 RMS(Int)=  0.00005358
 Variable       Old X    -DE/DX   Delta X   Delta X   Delta X     New X
                                 (Linear)    (Quad)   (Total)
    R1        2.86683  -0.00113  -0.00013  -0.00430  -0.00443   2.86239
    R2        2.06495  -0.00030  -0.00005  -0.00106  -0.00110   2.06385
    R3        2.06715  -0.00070  -0.00004  -0.00222  -0.00226   2.06488
    R4        2.06455  -0.00016  -0.00005  -0.00066  -0.00070   2.06385
    R5        2.66247  -0.00171  -0.00028  -0.00633  -0.00657   2.65590
    R6        2.67393  -0.00141  -0.00025  -0.00570  -0.00588   2.66805
    R7        2.08621   0.00178   0.00014   0.00581   0.00595   2.09216
    R8        2.69491  -0.00275   0.00004  -0.00593  -0.00586   2.68905
    R9        2.90317  -0.00157   0.00027  -0.00293  -0.00272   2.90045
   R10        2.06878  -0.00073   0.00001  -0.00213  -0.00212   2.06666
   R11        2.08015   0.00149   0.00009   0.00472   0.00480   2.08495
   R12        2.91191  -0.00092   0.00014  -0.00028  -0.00017   2.91174
   R13        2.06476   0.00078  -0.00011   0.00187   0.00176   2.06652
   R14        2.06975  -0.00024  -0.00005  -0.00089  -0.00093   2.06882
   R15        2.78583  -0.00181   0.00000  -0.00516  -0.00516   2.78067
   R16        2.92420   0.00022   0.00008   0.00151   0.00158   2.92578
   R17        2.07127   0.00012  -0.00002   0.00028   0.00026   2.07154
   R18        1.92153   0.00114  -0.00000   0.00255   0.00255   1.92408
   R19        1.92160   0.00010  -0.00009  -0.00011  -0.00020   1.92140
   R20        2.69311  -0.00448   0.00002  -0.01187  -0.01188   2.68124
   R21        2.07317  -0.00041   0.00002  -0.00113  -0.00111   2.07205
   R22        2.07859   0.00118   0.00004   0.00366   0.00370   2.08230
    A1        1.92139  -0.00021  -0.00013  -0.00187  -0.00201   1.91938
    A2        1.92414  -0.00186  -0.00017  -0.01258  -0.01276   1.91138
    A3        1.91937   0.00017  -0.00017   0.00079   0.00062   1.91998
    A4        1.89370   0.00098   0.00021   0.00628   0.00646   1.90016
    A5        1.90910   0.00008   0.00006   0.00121   0.00127   1.91037
    A6        1.89572   0.00087   0.00022   0.00641   0.00662   1.90234
    A7        1.87269  -0.00023   0.00002  -0.00119  -0.00114   1.87156
    A8        1.88853  -0.00105   0.00010  -0.00574  -0.00564   1.88289
    A9        1.94083   0.00027   0.00069   0.00344   0.00412   1.94496
   A10        1.97908   0.00080  -0.00006   0.00297   0.00287   1.98195
   A11        1.89692   0.00003  -0.00019   0.00148   0.00128   1.89819
   A12        1.88663   0.00019  -0.00052  -0.00082  -0.00132   1.88531
   A13        2.01111   0.00014   0.00021   0.00464   0.00483   2.01595
   A14        1.96040  -0.00128   0.00043  -0.00047  -0.00027   1.96013
   A15        1.83885   0.00084  -0.00025  -0.00541  -0.00569   1.83317
   A16        1.91370   0.00056  -0.00022   0.00857   0.00840   1.92210
   A17        1.93358  -0.00086   0.00033  -0.01245  -0.01206   1.92152
   A18        1.94836   0.00053  -0.00029   0.00552   0.00521   1.95357
   A19        1.86341   0.00031  -0.00001   0.00388   0.00388   1.86729
   A20        2.01228   0.00051   0.00045   0.01305   0.01326   2.02553
   A21        1.85107   0.00025  -0.00064   0.00117   0.00048   1.85154
   A22        1.93845  -0.00123   0.00023  -0.01632  -0.01594   1.92251
   A23        1.90698  -0.00052   0.00010   0.00170   0.00182   1.90880
   A24        1.88033   0.00059  -0.00032  -0.00459  -0.00480   1.87553
   A25        1.86979   0.00038   0.00016   0.00505   0.00517   1.87496
   A26        1.93291  -0.00042   0.00023  -0.00724  -0.00690   1.92601
   A27        1.96094   0.00039  -0.00024   0.00794   0.00753   1.96847
   A28        1.87756  -0.00040   0.00010  -0.00598  -0.00588   1.87168
   A29        1.95769  -0.00039   0.00023  -0.00557  -0.00533   1.95236
   A30        1.84053   0.00063  -0.00029   0.00728   0.00694   1.84747
   A31        1.88778   0.00022  -0.00004   0.00378   0.00383   1.89161
   A32        1.91277   0.00074  -0.00017   0.00347   0.00330   1.91607
   A33        1.92208  -0.00088   0.00005  -0.00582  -0.00577   1.91631
   A34        1.84628  -0.00004  -0.00011  -0.00176  -0.00187   1.84441
   A35        2.00562  -0.00106   0.00036  -0.00187  -0.00161   2.00401
   A36        1.90810   0.00111   0.00008   0.00727   0.00740   1.91549
   A37        1.90682  -0.00072  -0.00034  -0.00769  -0.00804   1.89878
   A38        1.86247  -0.00021  -0.00018  -0.00348  -0.00361   1.85886
   A39        1.91459   0.00068  -0.00008  -0.00081  -0.00093   1.91367
   A40        1.86046   0.00033   0.00016   0.00764   0.00782   1.86828
   A41        2.00943   0.00038   0.00045  -0.00040  -0.00003   2.00940
    D1        1.01120  -0.00015   0.00007  -0.00804  -0.00795   1.00325
    D2       -3.13055   0.00006   0.00008  -0.00851  -0.00843  -3.13898
    D3       -1.06106  -0.00020  -0.00009  -0.01106  -0.01114  -1.07220
    D4       -1.07744  -0.00006   0.00001  -0.00670  -0.00668  -1.08412
    D5        1.06399   0.00015   0.00001  -0.00716  -0.00717   1.05683
    D6        3.13349  -0.00011  -0.00015  -0.00972  -0.00988   3.12361
    D7        3.11589  -0.00008  -0.00005  -0.00722  -0.00725   3.10864
    D8       -1.02586   0.00014  -0.00004  -0.00769  -0.00774  -1.03360
    D9        1.04364  -0.00013  -0.00021  -0.01024  -0.01045   1.03319
   D10       -3.13015  -0.00019  -0.00009   0.01151   0.01145  -3.11870
   D11        1.06874   0.00079  -0.00020   0.01767   0.01751   1.08625
   D12       -1.02977   0.00002   0.00064   0.01576   0.01644  -1.01333
   D13        2.81471   0.00000   0.00009   0.00134   0.00145   2.81616
   D14       -1.39326  -0.00050   0.00015  -0.00220  -0.00202  -1.39528
   D15        0.71107   0.00017  -0.00051   0.00099   0.00050   0.71157
   D16       -1.32715  -0.00021   0.00042  -0.00060  -0.00005  -1.32720
   D17        2.84934   0.00102  -0.00006   0.01831   0.01834   2.86768
   D18        0.84984  -0.00003   0.00020   0.01263   0.01290   0.86274
   D19        1.49823  -0.00043  -0.00074  -0.03437  -0.03513   1.46310
   D20       -0.61441  -0.00027  -0.00069  -0.04547  -0.04616  -0.66057
   D21       -2.64006  -0.00025  -0.00064  -0.04382  -0.04450  -2.68457
   D22       -2.73379  -0.00077  -0.00058  -0.04971  -0.05026  -2.78406
   D23        1.43675  -0.00061  -0.00054  -0.06081  -0.06130   1.37545
   D24       -0.58890  -0.00059  -0.00048  -0.05916  -0.05964  -0.64854
   D25       -0.65954  -0.00060  -0.00056  -0.04947  -0.05001  -0.70954
   D26       -2.77218  -0.00044  -0.00051  -0.06057  -0.06104  -2.83322
   D27        1.48535  -0.00042  -0.00046  -0.05892  -0.05938   1.42597
   D28        1.55061  -0.00051   0.00080   0.02540   0.02624   1.57685
   D29       -0.65376   0.00004   0.00050   0.03239   0.03297  -0.62079
   D30       -2.72954  -0.00021   0.00063   0.02691   0.02762  -2.70192
   D31       -2.65056  -0.00023   0.00035   0.03685   0.03719  -2.61337
   D32        1.42825   0.00032   0.00005   0.04383   0.04392   1.47217
   D33       -0.64753   0.00007   0.00018   0.03836   0.03857  -0.60895
   D34       -0.62489   0.00027   0.00042   0.04122   0.04164  -0.58324
   D35       -2.82926   0.00082   0.00012   0.04820   0.04837  -2.78089
   D36        1.37815   0.00057   0.00024   0.04272   0.04303   1.42117
   D37       -1.13082  -0.00020  -0.00009  -0.01287  -0.01294  -1.14376
   D38        3.12823  -0.00008   0.00011  -0.00941  -0.00928   3.11896
   D39        1.07536  -0.00031  -0.00006  -0.01232  -0.01243   1.06293
   D40       -0.94877  -0.00019   0.00014  -0.00886  -0.00877  -0.95753
   D41        3.12624   0.00013  -0.00017  -0.00631  -0.00645   3.11979
   D42        1.10211   0.00025   0.00004  -0.00285  -0.00279   1.09932
   D43       -0.62471  -0.00015   0.00013  -0.01936  -0.01916  -0.64387
   D44       -2.71781   0.00003   0.00008  -0.01896  -0.01887  -2.73668
   D45        1.53552  -0.00059   0.00003  -0.02789  -0.02785   1.50767
   D46       -2.81564   0.00042  -0.00017  -0.01151  -0.01162  -2.82726
   D47        1.37445   0.00059  -0.00023  -0.01111  -0.01133   1.36312
   D48       -0.65541  -0.00002  -0.00028  -0.02004  -0.02031  -0.67572
   D49        1.44506  -0.00026   0.00008  -0.01955  -0.01941   1.42566
   D50       -0.64804  -0.00008   0.00003  -0.01915  -0.01912  -0.66715
   D51       -2.67790  -0.00070  -0.00002  -0.02808  -0.02809  -2.70599
   D52        1.57019  -0.00087  -0.00014  -0.00672  -0.00692   1.56328
   D53       -2.59483  -0.00029   0.00005  -0.00119  -0.00115  -2.59599
   D54       -0.58590   0.00033   0.00010   0.00551   0.00562  -0.58028
         Item               Value     Threshold  Converged?
 Maximum Force            0.004476     0.000450     NO 
 RMS     Force            0.000821     0.000300     NO 
 Maximum Displacement     0.104188     0.001800     NO 
 RMS     Displacement     0.022433     0.001200     NO 
 Predicted change in Energy=-3.395366D-04
 GradGradGradGradGradGradGradGradGradGradGradGradGradGradGradGradGradGrad

                          Input orientation:                          
 ---------------------------------------------------------------------
 Center     Atomic      Atomic             Coordinates (Angstroms)
 Number     Number       Type             X           Y           Z
 ---------------------------------------------------------------------
      1          6           0        1.067275    0.073254    0.062050
      2          6           0        2.581205    0.053436    0.106543
      3          8           0        2.996998   -1.182614   -0.417437
      4          6           0        4.403127   -1.400566   -0.430970
      5          6           0        5.102431   -0.622879   -1.554331
      6          6           0        5.453603    0.844994   -1.244211
      7          7           0        6.800876    0.936362   -0.659638
      8          6           0        4.392100    1.541065   -0.357761
      9          8           0        3.051052    1.164240   -0.627445
     10          1           0        0.666454   -0.773271    0.623751
     11          1           0        0.731607   -0.000109   -0.975213
     12          1           0        0.692991    1.004933    0.491766
     13          1           0        2.956762    0.144788    1.144006
     14          1           0        4.521931   -2.476276   -0.588324
     15          1           0        4.832587   -1.170205    0.558872
     16          1           0        4.427898   -0.660477   -2.414248
     17          1           0        6.029622   -1.128609   -1.842562
     18          1           0        5.506099    1.375788   -2.201905
     19          1           0        6.814321    0.476515    0.248684
     20          1           0        7.032277    1.909691   -0.478281
     21          1           0        4.445112    2.627008   -0.499865
     22          1           0        4.627253    1.341910    0.700178
[...]
 06797,-0.08401927,0.25554888,0.03887560,-0.09755753,-0.09650516,-0.001
 54923,0.00205698,-0.00119854,-0.00048746,0.00018425,0.00097864,-0.0002
 6288,-0.00000919,0.00075731,-0.00012857,0.00002425,-0.00004419,-0.0000
 4339,-0.00003220,-0.00005595,-0.00003431,0.00002575,0.00002088,0.00013
 920,0.00014789,0.00002273,0.00006502,0.00064509,0.00012186,-0.00671744
 ,0.01321081,0.00685586,0.01123574,-0.02602451,-0.01141305,-0.04171536,
 0.10703353,0.10026996,-0.01043728,-0.00089357,-0.02935340,-0.08425559,
 -0.00101655,-0.07490460,0.00476418,0.00658804,0.01055800,0.00320226,0.
 00031504,0.00299341,-0.00026084,-0.00012084,-0.00007331,-0.00012476,-0
 .00001363,-0.00026118,-0.00009898,0.00005987,-0.00002483,0.00289725,-0
 .00123595,0.00532786,0.00181212,-0.00797700,0.01173603,0.00104615,-0.0
 0042976,0.00053180,-0.00601270,0.00007968,-0.00036607,0.00110847,0.000
 43184,0.00049150,0.08508473,0.00037514,0.00238908,0.00078070,-0.002118
 62,-0.04220348,-0.00872573,0.00134756,-0.01952332,-0.03879778,-0.00757
 816,0.00099567,-0.00165228,0.00079984,-0.00005813,0.00013573,-0.000217
 03,-0.00034929,-0.00062913,-0.00039627,0.00034469,0.00013314,0.0065556
 7,0.00065904,0.00382412,-0.00418691,-0.01309034,0.03560260,0.00033760,
 0.00018104,-0.00029341,0.00028749,0.00061430,0.00004564,-0.00040440,0.
 00025281,0.00030987,0.00459185,0.06873270,-0.00050158,-0.00005492,0.00
 076449,-0.06854132,-0.00725614,-0.23702648,-0.00097539,-0.01854003,-0.
 01894638,-0.00430353,0.00150330,0.00040757,0.00056210,-0.00004585,0.00
 009572,0.00025033,-0.00022704,0.00038104,0.00037732,-0.00000727,-0.000
 03099,-0.00574877,-0.00206052,-0.00028859,-0.00002013,0.01746128,-0.02
 540214,-0.00064487,-0.00027275,0.00020029,0.00086415,0.00002557,0.0011
 5145,-0.00062383,0.00034915,0.00020741,0.07439514,0.00910132,0.2748721
 0,-0.00019276,0.00149209,0.00086426,-0.00519430,-0.00282695,-0.0035122
 7,-0.02018251,0.04239030,0.01144593,-0.04328084,0.00805024,-0.00182343
 ,0.00016220,-0.01569865,-0.00225208,0.00021214,-0.00090459,0.00351734,
 0.00021128,-0.00000140,0.00002647,-0.00137833,0.00005749,-0.00019794,0
 .00149775,0.00185407,-0.00034083,-0.00000180,-0.00004131,0.00004264,0.
 00004446,-0.00000775,-0.00005179,-0.00059461,0.00001166,0.00000170,0.0
 0018537,0.00009609,0.00039807,0.06540624,-0.00008534,-0.00040175,-0.00
 019975,0.00026630,0.00255808,0.00211814,0.00907695,-0.00535411,-0.0031
 6033,0.01748628,-0.30031675,-0.04444391,-0.00120927,-0.01658314,-0.003
 49253,-0.00080339,0.00049716,0.00317792,-0.00015761,-0.00021708,0.0001
 5833,-0.00030726,0.00075775,0.00036366,-0.00004411,-0.00004047,-0.0000
 2959,0.00003581,0.00001550,-0.00001527,0.00002625,-0.00000966,0.000023
 32,0.00016566,-0.00000887,0.00000563,-0.00006680,0.00001742,0.00000697
 ,-0.02331496,0.32377188,-0.00004132,-0.00013307,0.00030634,0.00027470,
 -0.00016956,0.00009290,0.00047302,0.00102353,0.00180057,0.00152758,-0.
 04598356,-0.05904282,0.00123239,0.02588349,0.00407407,0.00170672,0.000
 78946,-0.00409191,0.00002959,0.00049624,0.00003796,0.00021119,-0.00039
 435,-0.00092571,-0.00005080,-0.00017922,0.00015388,-0.00000998,0.00001
 007,-0.00000293,0.00009456,0.00000504,0.00000651,0.00001011,-0.0000178
 5,-0.00000276,0.00001713,0.00019804,0.00049055,-0.00641784,0.04698741,
 0.05901127,-0.00001915,0.00007984,0.00050561,0.00281202,-0.00823392,-0
 .00517141,-0.03523926,0.00045629,-0.03139496,-0.07287355,-0.01302973,-
 0.06638937,0.00924143,0.00256805,0.01447357,0.00041219,0.00038706,-0.0
 0036304,-0.00006382,0.00000785,-0.00008857,-0.00078566,-0.00033867,-0.
 00081988,0.00072844,0.00174927,0.00033529,0.00004699,-0.00000749,-0.00
 006239,0.00026707,-0.00006026,0.00018630,-0.00013410,0.00011392,0.0001
 4095,0.00069296,0.00098831,0.00210020,0.00244694,-0.00071607,0.0012990
 8,0.09359718,0.00008604,0.00004981,0.00002710,0.00067946,0.00166857,0.
 00319614,0.00506342,0.00302334,0.00550002,-0.01664420,-0.06305766,-0.0
 4532378,0.00527911,0.00400971,0.01668209,0.00079316,0.00079471,-0.0000
 9417,0.00006702,0.00010133,-0.00014184,0.00011406,-0.00090890,-0.00006
 583,-0.00022947,-0.00039613,-0.00032571,-0.00003011,-0.00001364,-0.000
 00477,0.00001389,-0.00008177,-0.00010227,-0.00001614,-0.00000804,-0.00
 003655,-0.00063032,0.00057907,-0.00007423,-0.01040476,-0.00506386,-0.0
 2873404,0.01770431,0.06101308,0.00011080,0.00023130,0.00053722,0.00132
 065,-0.00236603,0.00173315,-0.00814308,0.00191916,0.00199711,-0.070211
 09,-0.04370498,-0.24816091,-0.00793633,-0.00505970,-0.02062031,-0.0006
 7842,-0.00149300,0.00034588,0.00012891,0.00034690,0.00004985,-0.000923
 98,-0.00020945,-0.00152083,0.00064563,0.00080268,0.00011261,0.00003147
 ,0.00000031,-0.00003297,0.00026427,-0.00013403,-0.00005226,-0.00013600
 ,0.00004984,-0.00000974,-0.00080197,0.00170597,0.00053159,-0.00137132,
 -0.00117608,-0.00497015,0.08336153,0.04668342,0.27061093,0.00000167,-0
 .00002794,-0.00002492,-0.00025134,0.00071074,0.00058768,0.00261898,0.0
 0009790,-0.00048983,0.00695415,-0.00020382,0.01687242,-0.12416663,-0.0
 1070786,-0.12237138,-0.00293852,0.00036498,-0.00250685,-0.00060882,-0.
 00248223,0.00023049,-0.00004815,-0.00009027,0.00006709,-0.00020914,0.0
 0017831,0.00021340,-0.00000223,0.00000076,0.00000078,-0.00003111,0.000
 01112,-0.00000282,0.00002596,-0.00001630,-0.00001019,-0.00009947,-0.00
 008184,-0.00026776,0.00028310,0.00052008,-0.00072233,-0.00163827,-0.00
 163359,0.00287962,0.13349585,-0.00002131,0.00010680,-0.00001814,-0.000
 04166,-0.00015612,-0.00012000,0.00082153,0.00050375,-0.00151058,0.0089
 6399,0.00091094,0.01563193,-0.01029279,-0.04882971,-0.01774483,-0.0172
 8503,-0.00363845,-0.02508442,-0.00115958,-0.00538945,-0.00059512,-0.00
 180620,-0.00113817,0.00048475,0.00113321,0.00043787,0.00009359,0.00001
 864,-0.00000098,0.00001943,0.00001375,0.00000886,0.00000421,-0.0000335
 5,0.00000069,0.00001186,0.00001581,-0.00011810,-0.00005099,0.00055019,
 0.00038531,-0.00043201,-0.00224521,-0.00086134,0.00210879,0.01593103,0
 .05720751,-0.00000479,-0.00000825,-0.00000732,0.00040004,-0.00060000,-
 0.00070953,-0.00140964,-0.00115182,0.00416947,-0.01369086,0.00035470,-
 0.02750516,-0.12005413,-0.01977095,-0.22775717,-0.00227508,0.00155018,
 -0.00446098,0.00057875,-0.00075393,0.00045145,-0.00120777,-0.00071907,
 -0.00011321,0.00039609,0.00059566,0.00063563,0.00000510,-0.00000140,0.
 00000114,0.00006622,-0.00002006,0.00002291,0.00000064,0.00001848,0.000
 01157,-0.00002143,0.00025648,0.00032298,0.00017453,0.00014077,0.000617
 19,0.00296167,0.00325260,-0.00261814,0.13004992,0.01563140,0.24903856,
 -0.00001937,0.00014354,0.00002560,0.00038695,-0.00202122,-0.00044119,-
 0.00254354,-0.00108633,0.00388967,-0.01254621,0.00758199,-0.00078387,-
 0.24596653,0.10395735,0.03837391,0.00382917,-0.00327032,-0.00123986,0.
 00060842,-0.00198655,-0.00039590,-0.00075980,-0.00110265,-0.00083635,0
 .00054659,0.00056891,0.00005327,0.00003105,0.00000710,-0.00000657,0.00
 001027,-0.00000654,-0.00000955,-0.00006672,0.00003808,-0.00001484,-0.0
 0001101,0.00017448,0.00016207,0.00030365,-0.00056212,-0.00030968,0.000
 26568,-0.00009459,0.00053157,-0.01398830,0.00721055,0.00323773,0.26930
 987,-0.00000933,0.00033496,0.00006324,-0.00053630,-0.00262162,0.000248
 73,-0.00436845,0.00040701,0.00372272,-0.01362428,0.00632693,0.00043166
 ,0.10337076,-0.09712679,-0.01694251,0.02769139,-0.01806792,-0.00778279
 ,0.00109239,0.00328670,0.00049393,-0.00300621,-0.00527827,0.00098353,0
 .00007277,0.00139200,-0.00004618,0.00008098,0.00002567,-0.00001528,0.0
 0000053,-0.00001809,-0.00000525,-0.00011543,0.00004603,-0.00001394,-0.
 00001264,0.00019018,0.00006768,-0.00039410,0.00089043,-0.00057793,0.00
 065602,0.00018594,0.00004119,-0.00186356,0.00049694,0.00057923,-0.1096
 9830,0.11037413,0.00002026,-0.00026324,-0.00010838,-0.00007542,0.00184
 123,0.00020334,0.00431219,0.00186495,-0.00327820,0.02071551,-0.0125879
 1,-0.00162339,0.03713858,-0.01646131,-0.05565075,0.00598767,-0.0054820
 7,-0.00222876,0.00048837,0.00061965,0.00042010,-0.00045804,-0.00192153
 ,0.00016226,-0.00069682,-0.00001657,0.00066275,-0.00005048,-0.00001346
 ,0.00002513,0.00002007,0.00001147,0.00001631,0.00010214,-0.00004684,0.
 00002575,0.00001637,-0.00011524,-0.00008709,-0.00041122,-0.00012268,0.
 00134049,-0.00118761,-0.00017434,-0.00046924,-0.02423782,0.01308877,0.
 00572569,-0.04212268,0.02027495,0.05556199,-0.00000119,0.00003169,-0.0
 0007817,0.00018305,-0.00029225,0.00020331,-0.00006844,0.00017972,-0.00
 013241,0.00072591,-0.00153725,-0.00037196,0.00011339,-0.00509384,0.005
 04721,-0.04685887,0.00100767,0.00033694,-0.01057213,0.01850977,-0.0343
 8846,0.00098964,-0.00875384,0.02242441,0.00097984,0.00063985,-0.001619
 82,0.00000760,-0.00000110,0.00000074,-0.00005021,-0.00001296,-0.000012
 36,-0.00000782,0.00000499,0.00000672,-0.00004474,0.00008682,-0.0002382
 1,-0.00027947,-0.00033556,0.00025077,0.00000201,0.00010495,-0.00001037
 ,0.00062336,-0.00073583,0.00049281,-0.00016943,-0.00042246,0.00001452,
 0.06096402,0.00000432,0.00015068,0.00011061,0.00018527,-0.00113271,-0.
 00043468,-0.00094381,0.00107301,0.00032468,0.00242163,-0.00532294,-0.0
 0303863,-0.00338597,-0.01864272,0.02576314,0.00407809,-0.10604713,0.10
 853985,-0.00025879,0.00277346,-0.00246904,0.00187815,0.00525292,-0.014
 98743,-0.00055309,0.00043614,0.00013410,0.00003635,0.00000373,-0.00002
 037,0.00001301,-0.00001415,-0.00000027,-0.00006351,0.00002236,-0.00000
 035,-0.00000049,0.00003771,0.00014712,-0.00106071,-0.00093181,0.001257
 51,0.00019538,0.00022721,-0.00001263,-0.00061771,0.00107344,0.00037977
 ,0.00027994,-0.00043258,-0.00012841,-0.00333024,0.11860288,0.00002196,
 0.00009665,0.00004835,-0.00010657,-0.00045271,-0.00016610,-0.00009168,
 0.00019460,0.00008266,0.00018982,-0.00116893,0.00050525,-0.00087686,-0
 .00429169,0.00500118,-0.00430978,0.10644315,-0.24291926,-0.00654345,0.
 00595058,-0.01068908,0.00006676,0.00910419,-0.02140796,0.00144575,-0.0
 0013381,0.00111192,0.00004270,0.00000881,-0.00000030,0.00004526,0.0000
 1008,0.00001562,-0.00001770,0.00000351,-0.00000626,-0.00003453,-0.0001
 2278,0.00017615,-0.00011459,-0.00013386,0.00013837,-0.00008932,-0.0002
 4518,0.00024020,0.00007168,-0.00031448,0.00188791,0.00020409,0.0002172
 3,-0.00010546,0.00995418,-0.11112406,0.26698096,0.00001131,0.00006747,
 0.00001000,-0.00040274,-0.00053929,0.00006156,0.00015688,0.00021439,0.
 00029169,-0.00021433,-0.00029791,-0.00067370,0.00119428,0.00000966,0.0
 0029613,-0.00852795,0.01848222,-0.03620957,-0.03769481,-0.01649289,-0.
 01666498,0.00081915,0.00083219,-0.00337890,0.00144050,-0.00009952,0.00
 075608,0.00004282,0.00002287,-0.00000898,0.00001750,-0.00000394,0.0000
 0864,-0.00000650,-0.00000864,0.00000083,-0.00002212,-0.00001849,0.0000
 3401,0.00009389,0.00011663,0.00024188,-0.00020332,-0.00038170,0.000577
 45,0.00008070,0.00018016,0.00018624,0.00017736,-0.00007931,0.00032510,
 -0.00608262,-0.00076115,-0.00198536,0.04992324,-0.00000500,-0.00015527
 ,0.00000025,0.00012136,0.00155749,-0.00004269,0.00081995,-0.00073323,-
 0.00017016,-0.00097058,0.00027853,-0.00015906,0.00005912,0.00123476,0.
 00000282,0.00220378,0.00272859,-0.00400465,-0.00351524,-0.11108674,0.1
 2663089,-0.00017995,-0.00085920,0.00105433,-0.00149000,-0.00049146,-0.
 00016235,-0.00006307,-0.00002082,0.00001427,-0.00000519,0.00001532,-0.
 00000419,0.00005091,-0.00001462,-0.00000909,0.00000441,-0.00007712,-0.
 00002104,0.00009597,-0.00002399,0.00003494,-0.00016932,-0.00006677,0.0
 0036530,0.00041225,-0.00017625,0.00009113,0.00040839,-0.00026486,-0.00
 048146,-0.00155101,0.00125937,-0.00146659,-0.00003877,0.12539571,-0.00
 000947,-0.00004333,-0.00002695,0.00001534,0.00054938,0.00000926,0.0004
 3371,-0.00023417,0.00000269,-0.00034623,-0.00050935,-0.00020212,-0.000
 27296,0.00018610,0.00064320,0.00371974,0.00498258,-0.01616956,-0.04908
 362,0.16605571,-0.33832392,0.00180220,-0.00057604,0.00249895,0.0000302
 8,-0.00044411,-0.00011326,-0.00001320,-0.00000378,0.00000609,-0.000001
 61,0.00000745,-0.00000188,0.00002234,-0.00000834,-0.00000220,-0.000006
 02,-0.00003302,-0.00002536,-0.00008155,-0.00009633,0.00002499,-0.00000
 508,0.00001560,0.00027653,0.00033147,-0.00015167,0.00019305,-0.0000107
 4,-0.00075564,-0.00042844,-0.00407328,-0.00132287,0.00018015,0.0452161
 9,-0.16008149,0.34940095,0.00002119,0.00017267,-0.00006283,-0.00006665
 ,-0.00128989,0.00031075,-0.00015176,0.00063916,0.00014472,0.00038026,-
 0.00035505,-0.00057269,-0.00515698,0.00141543,-0.00224516,-0.01169504,
 -0.03761924,-0.00444682,-0.04499936,-0.04726108,-0.02560081,-0.0006510
 6,-0.00225400,0.00008084,0.00154078,0.00147426,-0.00035195,0.00008061,
 0.00002629,-0.00000966,0.00000316,-0.00001330,0.00000993,-0.00003128,-
 0.00000169,0.00000699,0.00002181,0.00007975,-0.00001526,-0.00003367,-0
 .00006527,0.00020904,0.00000957,0.00002898,0.00019989,-0.00007793,-0.0
 0145062,-0.00010503,0.00014812,-0.00009089,-0.00020474,0.00137956,0.00
 049961,-0.00002988,-0.00035974,0.00304744,0.00277697,0.06032726,-0.000
 00178,0.00008017,-0.00001771,0.00009873,-0.00070461,-0.00004737,-0.000
 43801,0.00027326,0.00028037,0.00029973,0.00031218,-0.00036682,-0.00120
 412,0.00056337,-0.00219266,0.00479552,-0.00403911,-0.00228269,-0.08424
 826,-0.39819588,-0.02615706,0.00096613,0.00123493,0.00072157,0.0006442
 6,0.00020072,-0.00025433,0.00002771,0.00000646,-0.00000294,0.00000278,
 -0.00000584,0.00000164,-0.00002086,0.00000895,0.00000281,0.00000441,0.
 00005249,0.00002212,0.00001872,0.00003891,-0.00000832,0.00000053,-0.00
 003159,0.00008657,-0.00049486,-0.00059376,0.00025104,-0.00045307,0.000
 66054,0.00038300,-0.00016832,0.00049751,-0.00020539,-0.00114241,-0.018
 67475,-0.00803572,0.08190943,0.41826716,-0.00001738,-0.00002057,0.0000
 2177,0.00020645,0.00020236,-0.00028091,-0.00023400,-0.00007704,0.00034
 670,-0.00021809,-0.00030901,-0.00090200,-0.00367225,-0.00076277,-0.000
 82842,0.00325807,-0.01449143,-0.00257869,-0.03714879,-0.06068004,-0.04
 747473,0.00057971,0.00042652,0.00054700,-0.00061876,-0.00026290,-0.000
 03417,-0.00002271,-0.00001128,0.00000258,0.00000070,-0.00000298,-0.000
 00664,-0.00000423,0.00000862,0.00000437,0.00000229,0.00001054,0.000030
 34,-0.00006243,-0.00012184,0.00015603,-0.00012662,-0.00003031,0.000242
 33,-0.00056466,-0.00095337,-0.00009198,-0.00020592,0.00059190,0.000216
 88,0.00021606,-0.00017483,-0.00031081,0.00904054,0.03892610,0.00152028
 ,0.02950200,0.03726181,0.04916660,-0.00017007,-0.00107265,0.00073029,-
 0.00293644,0.00197547,-0.00587683,0.00108322,-0.00292135,0.00014284,-0
 .00160703,-0.00012976,0.00019017,-0.00294361,0.00085629,0.00170454,0.0
 0196880,0.02039100,0.00006215,0.00199861,-0.00056682,-0.00003350,-0.04
 411702,-0.00374266,-0.00189377,-0.01974798,-0.04100117,0.00682833,-0.0
 0045050,0.00001862,0.00002782,0.00005393,0.00000858,-0.00003868,-0.000
 02608,0.00003644,0.00003997,0.00019213,-0.00005101,0.00041968,0.000173
 04,-0.00001425,-0.00005162,0.00017225,-0.00005090,0.00008634,-0.000023
 54,0.00021904,0.00019478,0.00039409,0.00124424,0.00034019,0.00083165,-
 0.00052316,-0.00024739,0.00006739,0.00009701,0.00004877,-0.00059750,-0
 .00044010,-0.00003420,0.06355864,0.00009195,-0.00031732,0.00014581,0.0
 0044673,0.00202685,-0.00297495,-0.00006774,-0.00061907,0.00016978,0.00
 016199,0.00084948,-0.00033984,0.00215033,0.00039314,-0.00127749,-0.001
 96299,-0.01568722,0.00225060,0.00095117,0.00132040,-0.00002768,-0.0113
 8508,-0.29973427,0.02544168,-0.01114812,-0.00574788,0.00187028,-0.0001
 4206,-0.00001015,0.00000658,-0.00002410,-0.00000127,-0.00002354,-0.000
 04864,0.00001959,0.00001145,0.00000446,-0.00004370,-0.00005058,0.00003
 431,-0.00008172,-0.00005094,0.00001451,0.00011382,0.00001126,0.0000281
 6,-0.00028546,-0.00017628,-0.00000495,-0.00081453,-0.00040228,-0.00021
 079,0.00139004,-0.00033255,-0.00011268,0.00003727,-0.00006086,0.001060
 60,0.00007042,0.00013052,0.01957966,0.32419265,-0.00003984,0.00003256,
 0.00043397,0.00032705,0.00112708,-0.00172591,0.00011446,-0.00054758,0.
 00030867,-0.00007314,0.00049207,-0.00088161,0.00384574,-0.00130041,-0.
 00166187,0.00133133,-0.02416544,0.00027069,-0.00079646,0.00043660,-0.0
 0043737,0.00157329,0.02813141,-0.05287200,-0.00390073,-0.00769342,0.00
 348641,-0.00004111,0.00001761,-0.00000085,0.00011703,-0.00001307,0.000
 00981,-0.00001459,-0.00001274,0.00000465,0.00023049,-0.00006062,0.0007
 2812,0.00001026,0.00002962,0.00028042,0.00008179,-0.00004151,0.0005120
 5,-0.00007871,-0.00012650,-0.00006933,-0.00012504,-0.00135308,-0.00039
 942,-0.00092242,-0.00007055,0.00108437,0.00024990,0.00002704,-0.000008
 23,0.00006119,0.00034445,0.00043477,-0.00289720,-0.02506282,0.05283234
 ,-0.00005901,0.00000751,0.00031593,0.00220626,0.00686196,-0.00753020,0
 .00033497,-0.00130690,0.00077259,-0.00048791,0.00041645,-0.00041135,0.
 00017528,-0.00060529,-0.00042085,0.00078448,-0.00411141,0.01909520,0.0
 0311448,-0.00062890,0.00141923,-0.05330003,0.00972161,-0.03821169,-0.0
 2791518,-0.00072869,-0.03332340,-0.00008455,-0.00007458,0.00010449,0.0
 0020960,0.00002477,0.00021992,0.00002413,0.00000029,-0.00004056,0.0003
 6006,-0.00066786,0.00231758,0.00011823,-0.00001193,0.00002580,0.000262
 41,0.00018137,0.00007444,-0.00000029,0.00001389,0.00002423,0.00005970,
 0.00001219,-0.00003614,-0.00266510,0.00190689,0.00240491,-0.00051087,0
 .00066752,-0.00049325,-0.00009134,-0.00015617,0.00012421,0.00212601,0.
 00058327,0.00094673,0.07533867,-0.00012477,0.00002483,-0.00021406,-0.0
 0160459,0.00117143,-0.00389271,-0.00004354,-0.00002399,0.00042508,0.00
 023928,-0.00080677,-0.00001171,-0.00020126,0.00086672,0.00024593,-0.00
 105139,0.00478516,-0.01545067,-0.00198253,0.00024207,-0.00011155,0.013
 99239,-0.06905615,0.05897740,-0.00523926,0.00310019,-0.00628981,0.0000
 3538,-0.00000850,0.00002431,-0.00008760,-0.00009489,0.00012277,0.00004
 148,-0.00001660,0.00001316,0.00030215,0.00041727,-0.00002313,0.0000040
 5,0.00010076,-0.00000490,-0.00012067,-0.00127688,-0.00019678,-0.000035
 37,0.00005566,0.00010032,-0.00008370,0.00000721,0.00013333,0.00187997,
 -0.00027642,-0.00203677,0.00005108,0.00013802,0.00055990,0.00004742,-0
 .00002153,0.00033999,0.00608747,-0.00707107,0.02980931,-0.01210599,0.0
 6774349,0.00016649,-0.00017825,0.00091830,0.00322079,0.00471195,0.0009
 2821,0.00071027,-0.00114047,0.00028887,-0.00152081,0.00028713,-0.00162
 243,0.00038162,0.00110911,0.00029412,-0.00378922,0.00740309,-0.0239348
 9,-0.00158197,0.00018501,0.00363471,-0.04210416,0.05687865,-0.25762544
 ,-0.01341090,-0.00251852,-0.00717404,-0.00018553,-0.00004658,-0.000006
 10,0.00040152,0.00014781,-0.00003497,0.00001219,-0.00000783,-0.0000431
 4,-0.00045268,-0.00167420,0.00144722,0.00015610,-0.00001960,0.00050474
 ,0.00025225,0.00003756,0.00126512,-0.00002727,0.00002738,0.00025525,0.
 00002427,-0.00022337,0.00001844,0.00289980,-0.00287265,-0.00184784,0.0
 0162527,-0.00054431,0.00054579,0.00034251,0.00021563,-0.00018131,0.000
 25732,0.00074185,-0.00232970,0.05262215,-0.06251940,0.28469909\\0.0000
 2005,0.00000895,-0.00001570,-0.00003470,-0.00003104,-0.00000151,-0.000
 00014,0.00001126,0.00000804,-0.00000528,-0.00002544,-0.00002645,0.0000
 1144,0.00002942,-0.00000563,0.00000616,0.00001767,0.00000323,-0.000011
 02,-0.00002896,-0.00000165,0.00002615,0.00001231,0.00001239,0.00001486
 ,-0.00000768,-0.00002943,0.00000104,0.00000079,0.00000185,0.00000713,0
 .00000549,0.00000594,-0.00000070,-0.00000610,0.00000567,0.00001099,0.0
 0000526,0.00001645,-0.00001002,0.00001267,0.00000885,0.00000683,-0.000
 00128,0.00001123,-0.00000067,0.00000137,-0.00000167,-0.00000348,-0.000
 00217,0.00000710,-0.00000723,-0.00000079,-0.00000017,-0.00000023,0.000
 00476,0.00000159,-0.00000660,-0.00000473,-0.00001490,-0.00001740,-0.00
 000495,0.00000690,-0.00000717,0.00000320,0.00000787\\\@


 SUCCESS-- IF YOU HAVE TRIED TO DO SOMETHING AND FAILED
           YOU ARE BETTER OFF THAN IF YOU HAD TRIED TO DO
           NOTHING AND SUCCEEDED.

                   -- FROM THE BACK OF A SUGAR PACKET
 Job cpu time:       0 days  2 hours 42 minutes 57.4 seconds.
 Elapsed time:       0 days  0 hours 40 minutes 44.8 seconds.
 File lengths (MBytes):  RWF=    170 Int=      0 D2E=      0 Chk=      9 Scr=      1
 Normal termination of Gaussian 16 at Sun Jul  3 22:24:16 2022.
### All Done ###
