### Starting Gaussian ###
 Entering Gaussian System, Link 0=g16
 Initial command:
 /cluster/software/gaussian/gaussian-16-A.03/avx2/g16/l1.exe "/local/scratch/ks29c/Gau-383.inp" -scrdir="/local/scratch/ks29c/"
 Entering Link 1 = /cluster/software/gaussian/gaussian-16-A.03/avx2/g16/l1.exe PID=       384.
  
 Copyright (c) 1988,1990,1992,1993,1995,1998,2003,2009,2016,
            Gaussian, Inc.  All Rights Reserved.
  
 This is part of the Gaussian(R) 16 program.  It is based on
 the Gaussian(R) 09 system (copyright 2009, Gaussian, Inc.),
 the Gaussian(R) 03 system (copyright 2003, Gaussian, Inc.),
 the Gaussian(R) 98 system (copyright 1998, Gaussian, Inc.),
 the Gaussian(R) 94 system (copyright 1995, Gaussian, Inc.),
 the Gaussian 92(TM) system (copyright 1992, Gaussian, Inc.),
 the Gaussian 90(TM) system (copyright 1990, Gaussian, Inc.),
 the Gaussian 88(TM) system (copyright 1988, Gaussian, Inc.),
 the Gaussian 86(TM) system (copyright 1986, Carnegie Mellon
 University), and the Gaussian 82(TM) system (copyright 1983,
 Carnegie Mellon University). Gaussian is a federally registered
 trademark of Gaussian, Inc.
  
 This software contains proprietary and confidential information,
 including trade secrets, belonging to Gaussian, Inc.
  
 This software is provided under written license and may be
 used, copied, transmitted, or stored only in accord with that
 written license.
  
 The following legend is applicable only to US Government
 contracts under FAR:
  
                    RESTRICTED RIGHTS LEGEND
  
 Use, reproduction and disclosure by the US Government is
 subject to restrictions as set forth in subparagraphs (a)
 and (c) of the Commercial Computer Software - Restricted
 Rights clause in FAR 52.227-19.
  
 Gaussian, Inc.
 340 Quinnipiac St., Bldg. 40, Wallingford CT 06492
  
  
 ---------------------------------------------------------------
 Warning -- This program may not be used in any manner that
 competes with the business of Gaussian, Inc. or will provide
 assistance to any competitor of Gaussian, Inc.  The licensee
 of this program is prohibited from giving any competitor of
 Gaussian, Inc. access to this program.  By using this program,
 the user acknowledges that Gaussian, Inc. is engaged in the
 business of creating and licensing software in the field of
 computational chemistry and represents and warrants to the
 licensee that it is not a competitor of Gaussian, Inc. and that
 it will not use this program in any manner prohibited above.
 ---------------------------------------------------------------
  

 Cite this work as:
 Gaussian 16, Revision A.03,
 M. J. Frisch, G. W. Trucks, H. B. Schlegel, G. E. Scuseria, 
 M. A. Robb, J. R. Cheeseman, G. Scalmani, V. Barone, 
 G. A. Petersson, H. Nakatsuji, X. Li, M. Caricato, A. V. Marenich, 
 J. Bloino, B. G. Janesko, R. Gomperts, B. Mennucci, H. P. Hratchian, 
 J. V. Ortiz, A. F. Izmaylov, J. L. Sonnenberg, D. Williams-Young, 
 F. Ding, F. Lipparini, F. Egidi, J. Goings, B. Peng, A. Petrone, 
 T. Henderson, D. Ranasinghe, V. G. Zakrzewski, J. Gao, N. Rega, 
 G. Zheng, W. Liang, M. Hada, M. Ehara, K. Toyota, R. Fukuda, 
 J. Hasegawa, M. Ishida, T. Nakajima, Y. Honda, O. Kitao, H. Nakai, 
 T. Vreven, K. Throssell, J. A. Montgomery, Jr., J. E. Peralta, 
 F. Ogliaro, M. J. Bearpark, J. J. Heyd, E. N. Brothers, K. N. Kudin, 
 V. N. Staroverov, T. A. Keith, R. Kobayashi, J. Normand, 
 K. Raghavachari, A. P. Rendell, J. C. Burant, S. S. Iyengar, 
 J. Tomasi, M. Cossi, J. M. Millam, M. Klene, C. Adamo, R. Cammi, 
 J. W. Ochterski, R. L. Martin, K. Morokuma, O. Farkas, 
 J. B. Foresman, and D. J. Fox, Gaussian, Inc., Wallingford CT, 2016.
 
 ******************************************
 Gaussian 16:  ES64L-G16RevA.03 25-Dec-2016
                 4-Aug-2022 
 ******************************************
 %chk=CCc1ccnnc1O.chk
 %NProcShared=20
 Will use up to   20 processors via shared memory.
 -----------------------------
 # opt freq b3lyp/6-31g(2df,p)
 -----------------------------
 1/18=20,19=15,26=3,38=1/1,3;
 2/9=110,12=2,17=6,18=5,40=1/2;
 3/5=1,6=6,7=104,11=2,25=1,30=1,71=1,74=-5/1,2,3;
 4//1;
 5/5=2,38=5/2;
 6/7=2,8=2,9=2,10=2,28=1/1;
 7//1,2,3,16;
 1/18=20,19=15,26=3/3(2);
 2/9=110/2;
 99//99;
 2/9=110/2;
 3/5=1,6=6,7=104,11=2,25=1,30=1,71=1,74=-5/1,2,3;
 4/5=5,16=3,69=1/1;
 5/5=2,38=5/2;
 7//1,2,3,16;
 1/18=20,19=15,26=3/3(-5);
 2/9=110/2;
 6/7=2,8=2,9=2,10=2,19=2,28=1/1;
 99/9=1/99;
 -------------------
 Title Card Required
 -------------------
 Symbolic Z-matrix:
 Charge =  0 Multiplicity = 1
 C                     0.93422  -0.06271  -0.07996 
 C                     2.46073  -0.03448  -0.08973 
 C                     2.92024   1.16478   0.69062 
 C                     2.81293   2.44116   0.13564 
 C                     2.90322   3.52481   0.98741 
 N                     3.20977   3.40374   2.2944 
 N                     3.42786   2.16406   2.81634 
 C                     3.25376   1.08953   2.02443 
 O                     3.3552   -0.11366   2.66093 
 H                     0.55723  -0.93525  -0.61802 
 H                     0.5178    0.8345   -0.55392 
 H                     0.54665  -0.096     0.94558 
 H                     2.8349    0.01421  -1.11815 
 H                     2.85223  -0.96186   0.34322 
 H                     2.57729   2.58225  -0.91212 
 H                     2.67772   4.53027   0.64668 
 H                     3.54976   0.16217   3.57075 
 

 GradGradGradGradGradGradGradGradGradGradGradGradGradGradGradGradGradGrad
 Berny optimization.
 Initialization pass.
                           ----------------------------
                           !    Initial Parameters    !
                           ! (Angstroms and Degrees)  !
 --------------------------                            --------------------------
 ! Name  Definition              Value          Derivative Info.                !
 --------------------------------------------------------------------------------
 ! R1    R(1,2)                  1.5268         estimate D2E/DX2                !
 ! R2    R(1,10)                 1.0922         estimate D2E/DX2                !
 ! R3    R(1,11)                 1.0968         estimate D2E/DX2                !
 ! R4    R(1,12)                 1.0968         estimate D2E/DX2                !
 ! R5    R(2,3)                  1.5028         estimate D2E/DX2                !
 ! R6    R(2,13)                 1.0955         estimate D2E/DX2                !
 ! R7    R(2,14)                 1.0958         estimate D2E/DX2                !
 ! R8    R(3,4)                  1.3959         estimate D2E/DX2                !
 ! R9    R(3,8)                  1.3769         estimate D2E/DX2                !
 ! R10   R(4,5)                  1.3813         estimate D2E/DX2                !
 ! R11   R(4,15)                 1.0832         estimate D2E/DX2                !
 ! R12   R(5,6)                  1.3479         estimate D2E/DX2                !
 ! R13   R(5,16)                 1.0853         estimate D2E/DX2                !
 ! R14   R(6,7)                  1.3626         estimate D2E/DX2                !
 ! R15   R(7,8)                  1.3461         estimate D2E/DX2                !
 ! R16   R(8,9)                  1.3649         estimate D2E/DX2                !
 ! R17   R(9,17)                 0.9704         estimate D2E/DX2                !
 ! A1    A(2,1,10)             110.8983         estimate D2E/DX2                !
 ! A2    A(2,1,11)             111.2044         estimate D2E/DX2                !
 ! A3    A(2,1,12)             111.0897         estimate D2E/DX2                !
 ! A4    A(10,1,11)            108.0327         estimate D2E/DX2                !
 ! A5    A(10,1,12)            108.3244         estimate D2E/DX2                !
 ! A6    A(11,1,12)            107.1398         estimate D2E/DX2                !
 ! A7    A(1,2,3)              108.4906         estimate D2E/DX2                !
 ! A8    A(1,2,13)             110.3852         estimate D2E/DX2                !
 ! A9    A(1,2,14)             109.8179         estimate D2E/DX2                !
 ! A10   A(3,2,13)             110.3397         estimate D2E/DX2                !
 ! A11   A(3,2,14)             111.1599         estimate D2E/DX2                !
 ! A12   A(13,2,14)            106.649          estimate D2E/DX2                !
 ! A13   A(2,3,4)              119.982          estimate D2E/DX2                !
 ! A14   A(2,3,8)              122.2397         estimate D2E/DX2                !
 ! A15   A(4,3,8)              116.9816         estimate D2E/DX2                !
 ! A16   A(3,4,5)              117.8489         estimate D2E/DX2                !
 ! A17   A(3,4,15)             121.3589         estimate D2E/DX2                !
 ! A18   A(5,4,15)             120.5657         estimate D2E/DX2                !
 ! A19   A(4,5,6)              122.8423         estimate D2E/DX2                !
 ! A20   A(4,5,16)             121.307          estimate D2E/DX2                !
 ! A21   A(6,5,16)             115.7778         estimate D2E/DX2                !
 ! A22   A(5,6,7)              119.3092         estimate D2E/DX2                !
 ! A23   A(6,7,8)              118.6968         estimate D2E/DX2                !
 ! A24   A(3,8,7)              123.8878         estimate D2E/DX2                !
 ! A25   A(3,8,9)              121.1907         estimate D2E/DX2                !
 ! A26   A(7,8,9)              114.8156         estimate D2E/DX2                !
 ! A27   A(8,9,17)             101.6273         estimate D2E/DX2                !
 ! D1    D(10,1,2,3)          -178.6441         estimate D2E/DX2                !
 ! D2    D(10,1,2,13)           60.341          estimate D2E/DX2                !
 ! D3    D(10,1,2,14)          -56.9693         estimate D2E/DX2                !
 ! D4    D(11,1,2,3)            61.1203         estimate D2E/DX2                !
 ! D5    D(11,1,2,13)          -59.8946         estimate D2E/DX2                !
 ! D6    D(11,1,2,14)         -177.2049         estimate D2E/DX2                !
 ! D7    D(12,1,2,3)           -58.1166         estimate D2E/DX2                !
 ! D8    D(12,1,2,13)         -179.1315         estimate D2E/DX2                !
 ! D9    D(12,1,2,14)           63.5582         estimate D2E/DX2                !
 ! D10   D(1,2,3,4)            -74.7627         estimate D2E/DX2                !
 ! D11   D(1,2,3,8)             94.7035         estimate D2E/DX2                !
 ! D12   D(13,2,3,4)            46.2804         estimate D2E/DX2                !
 ! D13   D(13,2,3,8)          -144.2535         estimate D2E/DX2                !
 ! D14   D(14,2,3,4)           164.3886         estimate D2E/DX2                !
 ! D15   D(14,2,3,8)           -26.1453         estimate D2E/DX2                !
 ! D16   D(2,3,4,5)            163.1097         estimate D2E/DX2                !
 ! D17   D(2,3,4,15)           -11.4508         estimate D2E/DX2                !
 ! D18   D(8,3,4,5)             -6.898          estimate D2E/DX2                !
 ! D19   D(8,3,4,15)           178.5416         estimate D2E/DX2                !
 ! D20   D(2,3,8,7)           -167.1688         estimate D2E/DX2                !
 ! D21   D(2,3,8,9)              8.8928         estimate D2E/DX2                !
 ! D22   D(4,3,8,7)              2.5958         estimate D2E/DX2                !
 ! D23   D(4,3,8,9)            178.6574         estimate D2E/DX2                !
 ! D24   D(3,4,5,6)              6.2451         estimate D2E/DX2                !
 ! D25   D(3,4,5,16)          -170.5205         estimate D2E/DX2                !
 ! D26   D(15,4,5,6)          -179.1493         estimate D2E/DX2                !
 ! D27   D(15,4,5,16)            4.0851         estimate D2E/DX2                !
 ! D28   D(4,5,6,7)             -0.7742         estimate D2E/DX2                !
 ! D29   D(16,5,6,7)           176.1571         estimate D2E/DX2                !
 ! D30   D(5,6,7,8)             -3.8023         estimate D2E/DX2                !
 ! D31   D(6,7,8,3)              2.8714         estimate D2E/DX2                !
 ! D32   D(6,7,8,9)           -173.4171         estimate D2E/DX2                !
 ! D33   D(3,8,9,17)          -177.1316         estimate D2E/DX2                !
 ! D34   D(7,8,9,17)            -0.7332         estimate D2E/DX2                !
 --------------------------------------------------------------------------------
 Trust Radius=3.00D-01 FncErr=1.00D-07 GrdErr=1.00D-06 EigMax=2.50D+02 EigMin=1.00D-04
 Number of steps in this run=     88 maximum allowed number of steps=    102.
 GradGradGradGradGradGradGradGradGradGradGradGradGradGradGradGradGradGrad

                          Input orientation:                          
 ---------------------------------------------------------------------
 Center     Atomic      Atomic             Coordinates (Angstroms)
 Number     Number       Type             X           Y           Z
 ---------------------------------------------------------------------
      1          6           0        0.934220   -0.062710   -0.079960
      2          6           0        2.460730   -0.034480   -0.089730
      3          6           0        2.920240    1.164780    0.690620
      4          6           0        2.812930    2.441160    0.135640
      5          6           0        2.903220    3.524810    0.987410
      6          7           0        3.209770    3.403740    2.294400
      7          7           0        3.427860    2.164060    2.816340
      8          6           0        3.253760    1.089530    2.024430
      9          8           0        3.355200   -0.113660    2.660930
     10          1           0        0.557230   -0.935250   -0.618020
     11          1           0        0.517800    0.834500   -0.553920
     12          1           0        0.546650   -0.096000    0.945580
     13          1           0        2.834900    0.014210   -1.118150
     14          1           0        2.852230   -0.961860    0.343220
     15          1           0        2.577290    2.582250   -0.912120
     16          1           0        2.677720    4.530270    0.646680
     17          1           0        3.549760    0.162170    3.570750
 ---------------------------------------------------------------------
                    Distance matrix (angstroms):
                    1          2          3          4          5
     1  C    0.000000
     2  C    1.526802   0.000000
     3  C    2.458618   1.502771   0.000000
     4  C    3.137738   2.510703   1.395946   0.000000
     5  C    4.229248   3.744940   2.378679   1.381290   0.000000
     6  N    4.778283   4.250470   2.769274   2.396724   1.347907
     7  N    4.423268   3.770167   2.403107   2.764250   2.339203
     8  C    3.337122   2.522294   1.376934   2.364056   2.669996
     9  O    3.657351   2.893523   2.388665   3.632940   4.030313
    10  H    1.092225   2.171126   3.421473   4.129931   5.288971
    11  H    1.096827   2.178434   2.725744   2.885216   3.911994
    12  H    1.096837   2.177006   2.699722   3.497029   4.320351
    13  H    2.167104   1.095455   2.145400   2.731768   4.094186
    14  H    2.160165   1.095788   2.155901   3.409572   4.532967
    15  H    3.223039   2.745394   2.166936   1.083159   2.145429
    16  H    4.966212   4.628858   3.374503   2.154953   1.085310
    17  H    4.496588   3.824104   3.113948   4.187684   4.289406
                    6          7          8          9         10
     6  N    0.000000
     7  N    1.362641   0.000000
     8  C    2.330319   1.346123   0.000000
     9  O    3.539435   2.284172   1.364950   0.000000
    10  H    5.860460   5.444361   4.284104   4.388070   0.000000
    11  H    4.686216   4.647024   3.768077   4.391481   1.771349
    12  H    4.599968   4.112054   3.146084   3.291001   1.774626
    13  H    4.824411   4.522573   3.347770   3.816872   2.517814
    14  H    4.795144   4.027288   2.682516   2.518770   2.488316
    15  H    3.369963   3.847046   3.362908   4.543100   4.066933
    16  H    2.065703   3.296829   3.750828   5.107080   5.997320
    17  H    3.500348   2.142792   1.827216   0.970417   5.263588
                   11         12         13         14         15
    11  H    0.000000
    12  H    1.764982   0.000000
    13  H    2.521940   3.083377   0.000000
    14  H    3.079177   2.535399   1.757446   0.000000
    15  H    2.724782   3.840257   2.589139   3.769905   0.000000
    16  H    4.445831   5.102272   4.851199   5.503275   2.496943
    17  H    5.163111   3.997104   4.745387   3.488114   5.186387
                   16         17
    16  H    0.000000
    17  H    5.328315   0.000000
 Stoichiometry    C6H8N2O
 Framework group  C1[X(C6H8N2O)]
 Deg. of freedom    45
 Full point group                 C1      NOp   1
 Largest Abelian subgroup         C1      NOp   1
 Largest concise Abelian subgroup C1      NOp   1
                         Standard orientation:                         
 ---------------------------------------------------------------------
 Center     Atomic      Atomic             Coordinates (Angstroms)
 Number     Number       Type             X           Y           Z
 ---------------------------------------------------------------------
      1          6           0        2.492864   -0.564758    0.794010
      2          6           0        1.893516   -0.155141   -0.549165
      3          6           0        0.395645   -0.196159   -0.435058
      4          6           0       -0.269582   -1.423331   -0.421367
      5          6           0       -1.573317   -1.445516    0.034423
      6          7           0       -2.258314   -0.326919    0.344868
      7          7           0       -1.647013    0.884858    0.223633
      8          6           0       -0.348656    0.921356   -0.129899
      9          8           0        0.220938    2.161180   -0.091332
     10          1           0        3.583910   -0.525322    0.762065
     11          1           0        2.197810   -1.585734    1.065265
     12          1           0        2.147315    0.096059    1.598354
     13          1           0        2.233726   -0.831416   -1.340956
     14          1           0        2.242173    0.847423   -0.821296
     15          1           0        0.241640   -2.344460   -0.673175
     16          1           0       -2.092386   -2.381733    0.213199
     17          1           0       -0.527217    2.711463    0.190027
 ---------------------------------------------------------------------
 Rotational constants (GHZ):           2.5313693           1.5604113           1.0699685
 Standard basis: 6-31G(2df,p) (6D, 7F)
 There are   319 symmetry adapted cartesian basis functions of A   symmetry.
 There are   292 symmetry adapted basis functions of A   symmetry.
   292 basis functions,   452 primitive gaussians,   319 cartesian basis functions
    33 alpha electrons       33 beta electrons
       nuclear repulsion energy       435.9609931201 Hartrees.
 NAtoms=   17 NActive=   17 NUniq=   17 SFac= 1.00D+00 NAtFMM=   60 NAOKFM=F Big=F
 Integral buffers will be    131072 words long.
 Raffenetti 2 integral format.
 Two-electron integral symmetry is turned on.
 One-electron integrals computed using PRISM.
 PrsmSu:  requested number of processors reduced to:  13 ShMem   1 Linda.
 NBasis=   292 RedAO= T EigKep=  1.23D-04  NBF=   292
 NBsUse=   292 1.00D-06 EigRej= -1.00D+00 NBFU=   292
 ExpMin= 1.61D-01 ExpMax= 5.48D+03 ExpMxC= 8.25D+02 IAcc=3 IRadAn=         5 AccDes= 0.00D+00
 Harris functional with IExCor=  402 and IRadAn=       5 diagonalized for initial guess.
 HarFok:  IExCor=  402 AccDes= 0.00D+00 IRadAn=         5 IDoV= 1 UseB2=F ITyADJ=14
 ICtDFT=  3500011 ScaDFX=  1.000000  1.000000  1.000000  1.000000
 FoFCou: FMM=F IPFlag=           0 FMFlag=      100000 FMFlg1=           0
         NFxFlg=           0 DoJE=T BraDBF=F KetDBF=T FulRan=T
         wScrn=  0.000000 ICntrl=       500 IOpCl=  0 I1Cent=   200000004 NGrid=           0
         NMat0=    1 NMatS0=      1 NMatT0=    0 NMatD0=    1 NMtDS0=    0 NMtDT0=    0
 Petite list used in FoFCou.
 Requested convergence on RMS density matrix=1.00D-08 within 128 cycles.
 Requested convergence on MAX density matrix=1.00D-06.
 Requested convergence on             energy=1.00D-06.
 No special actions if energy rises.
 Integral accuracy reduced to 1.0D-05 until final iterations.
 Initial convergence to 1.0D-05 achieved.  Increase integral accuracy.
 SCF Done:  E(RB3LYP) =  -418.175978422     A.U. after   14 cycles
            NFock= 14  Conv=0.74D-08     -V/T= 2.0076

 **********************************************************************

            Population analysis using the SCF density.

 **********************************************************************

 Orbital symmetries:
       Occupied  (A) (A) (A) (A) (A) (A) (A) (A) (A) (A) (A) (A)
                 (A) (A) (A) (A) (A) (A) (A) (A) (A) (A) (A) (A)
                 (A) (A) (A) (A) (A) (A) (A) (A) (A)
       Virtual   (A) (A) (A) (A) (A) (A) (A) (A) (A) (A) (A) (A)
                 (A) (A) (A) (A) (A) (A) (A) (A) (A) (A) (A) (A)
                 (A) (A) (A) (A) (A) (A) (A) (A) (A) (A) (A) (A)
                 (A) (A) (A) (A) (A) (A) (A) (A) (A) (A) (A) (A)
                 (A) (A) (A) (A) (A) (A) (A) (A) (A) (A) (A) (A)
                 (A) (A) (A) (A) (A) (A) (A) (A) (A) (A) (A) (A)
                 (A) (A) (A) (A) (A) (A) (A) (A) (A) (A) (A) (A)
                 (A) (A) (A) (A) (A) (A) (A) (A) (A) (A) (A) (A)
                 (A) (A) (A) (A) (A) (A) (A) (A) (A) (A) (A) (A)
                 (A) (A) (A) (A) (A) (A) (A) (A) (A) (A) (A) (A)
                 (A) (A) (A) (A) (A) (A) (A) (A) (A) (A) (A) (A)
                 (A) (A) (A) (A) (A) (A) (A) (A) (A) (A) (A) (A)
                 (A) (A) (A) (A) (A) (A) (A) (A) (A) (A) (A) (A)
                 (A) (A) (A) (A) (A) (A) (A) (A) (A) (A) (A) (A)
                 (A) (A) (A) (A) (A) (A) (A) (A) (A) (A) (A) (A)
                 (A) (A) (A) (A) (A) (A) (A) (A) (A) (A) (A) (A)
                 (A) (A) (A) (A) (A) (A) (A) (A) (A) (A) (A) (A)
                 (A) (A) (A) (A) (A) (A) (A) (A) (A) (A) (A) (A)
                 (A) (A) (A) (A) (A) (A) (A) (A) (A) (A) (A) (A)
                 (A) (A) (A) (A) (A) (A) (A) (A) (A) (A) (A) (A)
                 (A) (A) (A) (A) (A) (A) (A) (A) (A) (A) (A) (A)
                 (A) (A) (A) (A) (A) (A) (A)
 The electronic state is 1-A.
 Alpha  occ. eigenvalues --  -19.18209 -14.36143 -14.36020 -10.27885 -10.22203
 Alpha  occ. eigenvalues --  -10.21670 -10.21376 -10.20030 -10.18810  -1.08100
 Alpha  occ. eigenvalues --   -0.99029  -0.84278  -0.81188  -0.76128  -0.67972
 Alpha  occ. eigenvalues --   -0.64764  -0.61007  -0.55983  -0.51920  -0.49198
 Alpha  occ. eigenvalues --   -0.45727  -0.44456  -0.43365  -0.41765  -0.41457
 Alpha  occ. eigenvalues --   -0.39026  -0.37057  -0.36507  -0.35453  -0.31448
 Alpha  occ. eigenvalues --   -0.29171  -0.25408  -0.24084
 Alpha virt. eigenvalues --   -0.05344  -0.00686   0.08209   0.09385   0.11501
 Alpha virt. eigenvalues --    0.12269   0.13994   0.14947   0.15867   0.16801
 Alpha virt. eigenvalues --    0.18375   0.20039   0.22168   0.23236   0.25309
 Alpha virt. eigenvalues --    0.28771   0.30670   0.33778   0.38490   0.42157
 Alpha virt. eigenvalues --    0.44469   0.45159   0.46026   0.46707   0.49002
 Alpha virt. eigenvalues --    0.49753   0.53286   0.53812   0.54898   0.56133
 Alpha virt. eigenvalues --    0.56694   0.58489   0.60103   0.60770   0.61755
 Alpha virt. eigenvalues --    0.63047   0.64221   0.67377   0.68210   0.70698
 Alpha virt. eigenvalues --    0.71001   0.72027   0.73390   0.74667   0.75380
 Alpha virt. eigenvalues --    0.75874   0.76214   0.78702   0.79046   0.80864
 Alpha virt. eigenvalues --    0.83709   0.84784   0.87106   0.87490   0.89093
 Alpha virt. eigenvalues --    0.90492   0.90881   0.93810   0.94876   0.95895
 Alpha virt. eigenvalues --    0.99624   1.00339   1.01822   1.04185   1.07539
 Alpha virt. eigenvalues --    1.09721   1.10358   1.15501   1.18415   1.23003
 Alpha virt. eigenvalues --    1.28952   1.29859   1.30704   1.31806   1.33080
 Alpha virt. eigenvalues --    1.34139   1.38330   1.40599   1.41470   1.44566
 Alpha virt. eigenvalues --    1.45767   1.47973   1.50822   1.53485   1.54506
 Alpha virt. eigenvalues --    1.55621   1.56760   1.57588   1.61390   1.64051
 Alpha virt. eigenvalues --    1.64972   1.65791   1.67836   1.72742   1.74716
 Alpha virt. eigenvalues --    1.78863   1.85605   1.86445   1.88683   1.92984
 Alpha virt. eigenvalues --    1.95097   1.96076   2.01738   2.02935   2.09094
 Alpha virt. eigenvalues --    2.11134   2.13131   2.15129   2.17866   2.18767
 Alpha virt. eigenvalues --    2.20536   2.31095   2.33839   2.34061   2.37215
 Alpha virt. eigenvalues --    2.43604   2.48292   2.51879   2.54249   2.62452
 Alpha virt. eigenvalues --    2.63298   2.64734   2.68084   2.73063   2.75264
 Alpha virt. eigenvalues --    2.77078   2.78462   2.81314   2.85493   2.86704
 Alpha virt. eigenvalues --    2.87872   2.90436   2.93311   2.93982   2.95096
 Alpha virt. eigenvalues --    2.97666   3.00326   3.01131   3.04014   3.06596
 Alpha virt. eigenvalues --    3.09424   3.10712   3.13447   3.16421   3.17228
 Alpha virt. eigenvalues --    3.18953   3.20117   3.21986   3.25662   3.27219
 Alpha virt. eigenvalues --    3.28996   3.32386   3.35978   3.36956   3.39366
 Alpha virt. eigenvalues --    3.42422   3.46203   3.52547   3.54719   3.55675
 Alpha virt. eigenvalues --    3.58362   3.60943   3.61699   3.64507   3.68632
 Alpha virt. eigenvalues --    3.69166   3.71859   3.74555   3.77463   3.79762
 Alpha virt. eigenvalues --    3.82768   3.84932   3.88783   3.89617   3.95447
 Alpha virt. eigenvalues --    3.98133   4.03978   4.04635   4.08820   4.10685
 Alpha virt. eigenvalues --    4.12777   4.14595   4.19947   4.21764   4.25624
 Alpha virt. eigenvalues --    4.28361   4.30880   4.34740   4.36674   4.36906
 Alpha virt. eigenvalues --    4.40046   4.40339   4.41472   4.42917   4.44236
 Alpha virt. eigenvalues --    4.45327   4.45603   4.47622   4.49096   4.51425
 Alpha virt. eigenvalues --    4.54986   4.56359   4.58153   4.58366   4.61257
 Alpha virt. eigenvalues --    4.63165   4.64448   4.68181   4.69423   4.72060
 Alpha virt. eigenvalues --    4.72715   4.74106   4.75792   4.81349   4.83168
 Alpha virt. eigenvalues --    4.86298   4.89754   4.91092   4.95515   5.04132
 Alpha virt. eigenvalues --    5.05047   5.05614   5.07068   5.14049   5.14936
 Alpha virt. eigenvalues --    5.16609   5.21537   5.23900   5.24730   5.34312
 Alpha virt. eigenvalues --    5.35929   5.41933   5.42879   5.46030   5.52781
 Alpha virt. eigenvalues --    5.56977   5.64388   5.68091   5.70476   5.77433
 Alpha virt. eigenvalues --    5.86557   5.87446   5.96760   6.07826   6.20689
 Alpha virt. eigenvalues --    6.44303   7.03442   7.26807   8.62467  10.09882
 Alpha virt. eigenvalues --   10.77582  11.31501  11.33712  11.44469  11.60171
 Alpha virt. eigenvalues --   12.21853  12.29970  13.34287  22.01217
          Condensed to atoms (all electrons):
               1          2          3          4          5          6
     1  C    4.939573   0.400302  -0.034014  -0.006676   0.000165   0.000016
     2  C    0.400302   5.027655   0.377565  -0.090068   0.006487  -0.000548
     3  C   -0.034014   0.377565   4.592200   0.469505   0.027496  -0.073636
     4  C   -0.006676  -0.090068   0.469505   4.973586   0.512368   0.039109
     5  C    0.000165   0.006487   0.027496   0.512368   4.672973   0.516803
     6  N    0.000016  -0.000548  -0.073636   0.039109   0.516803   6.394120
     7  N   -0.000113   0.006898   0.038294  -0.081758  -0.063642   0.419153
     8  C   -0.002435  -0.041084   0.515512   0.015969  -0.023243  -0.059762
     9  O   -0.000111  -0.005648  -0.039080   0.001434  -0.000334   0.003254
    10  H    0.371588  -0.023695   0.002906   0.000164   0.000001  -0.000000
    11  H    0.379751  -0.032076  -0.004694   0.005493  -0.000237   0.000003
    12  H    0.382790  -0.031025  -0.003653  -0.000112   0.000061  -0.000025
    13  H   -0.034098   0.351679  -0.016874  -0.002641   0.000078   0.000004
    14  H   -0.032216   0.361768  -0.012571   0.003466  -0.000144  -0.000017
    15  H    0.000151  -0.011545  -0.054436   0.368523  -0.040535   0.005801
    16  H    0.000003  -0.000156   0.002666  -0.046023   0.368168  -0.029127
    17  H   -0.000011  -0.000760   0.007260   0.000660  -0.000249   0.000820
               7          8          9         10         11         12
     1  C   -0.000113  -0.002435  -0.000111   0.371588   0.379751   0.382790
     2  C    0.006898  -0.041084  -0.005648  -0.023695  -0.032076  -0.031025
     3  C    0.038294   0.515512  -0.039080   0.002906  -0.004694  -0.003653
     4  C   -0.081758   0.015969   0.001434   0.000164   0.005493  -0.000112
     5  C   -0.063642  -0.023243  -0.000334   0.000001  -0.000237   0.000061
     6  N    0.419153  -0.059762   0.003254  -0.000000   0.000003  -0.000025
     7  N    6.540264   0.485606  -0.053872   0.000003  -0.000008  -0.000196
     8  C    0.485606   4.359989   0.423866   0.000084  -0.000113   0.003046
     9  O   -0.053872   0.423866   7.766951  -0.000026   0.000008   0.000895
    10  H    0.000003   0.000084  -0.000026   0.594091  -0.030338  -0.029587
    11  H   -0.000008  -0.000113   0.000008  -0.030338   0.592676  -0.032556
    12  H   -0.000196   0.003046   0.000895  -0.029587  -0.032556   0.575469
    13  H   -0.000160   0.002317   0.000249  -0.001819  -0.004519   0.005343
    14  H    0.000108  -0.009359   0.007612  -0.002116   0.005064  -0.003679
    15  H   -0.000713   0.005930  -0.000009  -0.000067   0.001528   0.000084
    16  H    0.004518   0.000390   0.000005  -0.000000   0.000010  -0.000001
    17  H    0.016028  -0.066948   0.311970  -0.000001   0.000001   0.000004
              13         14         15         16         17
     1  C   -0.034098  -0.032216   0.000151   0.000003  -0.000011
     2  C    0.351679   0.361768  -0.011545  -0.000156  -0.000760
     3  C   -0.016874  -0.012571  -0.054436   0.002666   0.007260
     4  C   -0.002641   0.003466   0.368523  -0.046023   0.000660
     5  C    0.000078  -0.000144  -0.040535   0.368168  -0.000249
     6  N    0.000004  -0.000017   0.005801  -0.029127   0.000820
     7  N   -0.000160   0.000108  -0.000713   0.004518   0.016028
     8  C    0.002317  -0.009359   0.005930   0.000390  -0.066948
     9  O    0.000249   0.007612  -0.000009   0.000005   0.311970
    10  H   -0.001819  -0.002116  -0.000067  -0.000000  -0.000001
    11  H   -0.004519   0.005064   0.001528   0.000010   0.000001
    12  H    0.005343  -0.003679   0.000084  -0.000001   0.000004
    13  H    0.623315  -0.036176   0.004124  -0.000008   0.000010
    14  H   -0.036176   0.588835  -0.000014   0.000003  -0.000238
    15  H    0.004124  -0.000014   0.611094  -0.003710   0.000013
    16  H   -0.000008   0.000003  -0.003710   0.582155  -0.000004
    17  H    0.000010  -0.000238   0.000013  -0.000004   0.429772
 Mulliken charges:
               1
     1  C   -0.364665
     2  C   -0.295748
     3  C    0.205556
     4  C   -0.162999
     5  C    0.023784
     6  N   -0.215967
     7  N   -0.310409
     8  C    0.390236
     9  O   -0.417164
    10  H    0.118812
    11  H    0.120008
    12  H    0.133142
    13  H    0.109176
    14  H    0.129674
    15  H    0.113780
    16  H    0.121112
    17  H    0.301673
 Sum of Mulliken charges =  -0.00000
 Mulliken charges with hydrogens summed into heavy atoms:
               1
     1  C    0.007297
     2  C   -0.056898
     3  C    0.205556
     4  C   -0.049220
     5  C    0.144897
     6  N   -0.215967
     7  N   -0.310409
     8  C    0.390236
     9  O   -0.115491
 Electronic spatial extent (au):  <R**2>=           1126.9733
 Charge=             -0.0000 electrons
 Dipole moment (field-independent basis, Debye):
    X=              2.8055    Y=             -1.3951    Z=             -0.5957  Tot=              3.1894
 Quadrupole moment (field-independent basis, Debye-Ang):
   XX=            -59.1289   YY=            -45.8809   ZZ=            -53.0414
   XY=             -0.0908   XZ=              1.1927   YZ=              1.2057
 Traceless Quadrupole moment (field-independent basis, Debye-Ang):
   XX=             -6.4452   YY=              6.8028   ZZ=             -0.3577
   XY=             -0.0908   XZ=              1.1927   YZ=              1.2057
 Octapole moment (field-independent basis, Debye-Ang**2):
  XXX=             29.0839  YYY=             12.0646  ZZZ=              0.6171  XYY=            -10.3676
  XXY=             -2.7702  XXZ=             -5.6976  XZZ=              1.5501  YZZ=              4.0738
  YYZ=              1.9124  XYZ=              1.4374
 Hexadecapole moment (field-independent basis, Debye-Ang**3):
 XXXX=           -917.9996 YYYY=           -403.9566 ZZZZ=           -130.1191 XXXY=             13.7091
 XXXZ=             10.6659 YYYX=             -8.1306 YYYZ=             10.0247 ZZZX=             -1.8237
 ZZZY=              0.8512 XXYY=           -217.3431 XXZZ=           -169.1540 YYZZ=           -101.9933
 XXYZ=             -1.8018 YYXZ=             -3.6590 ZZXY=             -0.7711
 N-N= 4.359609931201D+02 E-N=-1.845652315458D+03  KE= 4.150186999907D+02
 PrsmSu:  requested number of processors reduced to:  13 ShMem   1 Linda.
 Calling FoFJK, ICntrl=      2127 FMM=F ISym2X=0 I1Cent= 0 IOpClX= 0 NMat=1 NMatS=1 NMatT=0.
 ***** Axes restored to original set *****
 -------------------------------------------------------------------
 Center     Atomic                   Forces (Hartrees/Bohr)
 Number     Number              X              Y              Z
 -------------------------------------------------------------------
      1        6          -0.008419803   -0.001499256   -0.001307951
      2        6           0.008210546   -0.005200490    0.000093413
      3        6          -0.006653942    0.002216832   -0.028850051
      4        6          -0.001904288   -0.012133767    0.008127421
      5        6           0.007018442    0.001439823    0.020258984
      6        7           0.001652384   -0.018761535    0.001141413
      7        7          -0.006466527    0.017814292   -0.023914298
      8        6           0.001714112    0.008002083    0.029431686
      9        8           0.001263677    0.014697738   -0.005482737
     10        1          -0.001102849   -0.001237326   -0.000341124
     11        1           0.000757646   -0.001309518    0.000194334
     12        1           0.001007920   -0.000967616   -0.001400814
     13        1          -0.000675913    0.001054575   -0.000590997
     14        1           0.000006962    0.002343920    0.000355586
     15        1          -0.001259790   -0.001871781   -0.001285808
     16        1           0.004352047    0.001298136    0.001371715
     17        1           0.000499374   -0.005886110    0.002199229
 -------------------------------------------------------------------
 Cartesian Forces:  Max     0.029431686 RMS     0.009164179

 GradGradGradGradGradGradGradGradGradGradGradGradGradGradGradGradGradGrad
 Berny optimization.
 FormGI is forming the generalized inverse of G from B-inverse, IUseBI=4.
 Internal  Forces:  Max     0.029439509 RMS     0.006263781
 Search for a local minimum.
 Step number   1 out of a maximum of   88
 All quantities printed in internal units (Hartrees-Bohrs-Radians)
 Mixed Optimization -- RFO/linear search
 Second derivative matrix not updated -- first step.
 ITU=  0
     Eigenvalues ---    0.00411   0.00729   0.01697   0.02155   0.02161
     Eigenvalues ---    0.02237   0.02287   0.02354   0.02361   0.02390
     Eigenvalues ---    0.04542   0.05529   0.05541   0.05554   0.08781
     Eigenvalues ---    0.12425   0.15925   0.15987   0.16000   0.16000
     Eigenvalues ---    0.16000   0.16000   0.21843   0.22357   0.24256
     Eigenvalues ---    0.24584   0.24935   0.24973   0.29721   0.32088
     Eigenvalues ---    0.34034   0.34035   0.34152   0.34190   0.34557
     Eigenvalues ---    0.35360   0.35615   0.44469   0.45936   0.48709
     Eigenvalues ---    0.51308   0.51959   0.53292   0.53774   0.55235
 RFO step:  Lambda=-1.20149220D-02 EMin= 4.11404902D-03
 Linear search not attempted -- first point.
 Iteration  1 RMS(Cart)=  0.11705638 RMS(Int)=  0.00440893
 Iteration  2 RMS(Cart)=  0.00640703 RMS(Int)=  0.00073603
 Iteration  3 RMS(Cart)=  0.00001759 RMS(Int)=  0.00073589
 Iteration  4 RMS(Cart)=  0.00000001 RMS(Int)=  0.00073589
 Variable       Old X    -DE/DX   Delta X   Delta X   Delta X     New X
                                 (Linear)    (Quad)   (Total)
    R1        2.88524   0.00783   0.00000   0.02533   0.02533   2.91057
    R2        2.06401   0.00154   0.00000   0.00430   0.00430   2.06830
    R3        2.07270  -0.00144   0.00000  -0.00409  -0.00409   2.06861
    R4        2.07272  -0.00164   0.00000  -0.00464  -0.00464   2.06808
    R5        2.83983   0.00706   0.00000   0.02121   0.02121   2.86104
    R6        2.07011   0.00037   0.00000   0.00105   0.00105   2.07116
    R7        2.07074  -0.00184   0.00000  -0.00521  -0.00521   2.06553
    R8        2.63795  -0.01074   0.00000  -0.02020  -0.01994   2.61802
    R9        2.60203   0.01718   0.00000   0.03531   0.03565   2.63768
   R10        2.61026   0.01201   0.00000   0.02463   0.02455   2.63481
   R11        2.04687   0.00127   0.00000   0.00346   0.00346   2.05033
   R12        2.54718  -0.01526   0.00000  -0.02835  -0.02869   2.51848
   R13        2.05094  -0.00013   0.00000  -0.00036  -0.00036   2.05058
   R14        2.57502  -0.02944   0.00000  -0.05711  -0.05739   2.51763
   R15        2.54380  -0.01074   0.00000  -0.01938  -0.01930   2.52450
   R16        2.57938  -0.00917   0.00000  -0.01724  -0.01724   2.56214
   R17        1.83382   0.00049   0.00000   0.00090   0.00090   1.83472
    A1        1.93554   0.00089   0.00000   0.00417   0.00416   1.93970
    A2        1.94088  -0.00020   0.00000   0.00033   0.00033   1.94121
    A3        1.93888  -0.00075   0.00000  -0.00483  -0.00483   1.93405
    A4        1.88553  -0.00025   0.00000  -0.00058  -0.00059   1.88494
    A5        1.89062  -0.00047   0.00000  -0.00549  -0.00549   1.88513
    A6        1.86994   0.00077   0.00000   0.00641   0.00641   1.87636
    A7        1.89352   0.01121   0.00000   0.05082   0.05088   1.94440
    A8        1.92658  -0.00318   0.00000  -0.01022  -0.01027   1.91632
    A9        1.91668  -0.00285   0.00000  -0.01018  -0.01001   1.90667
   A10        1.92579  -0.00343   0.00000  -0.01240  -0.01256   1.91323
   A11        1.94011  -0.00427   0.00000  -0.02190  -0.02195   1.91815
   A12        1.86138   0.00215   0.00000   0.00219   0.00193   1.86330
   A13        2.09408   0.01270   0.00000   0.04851   0.04706   2.14114
   A14        2.13349   0.00346   0.00000   0.01350   0.01204   2.14552
   A15        2.04171  -0.01574   0.00000  -0.04804  -0.04866   1.99305
   A16        2.05685   0.00208   0.00000   0.01802   0.01671   2.07357
   A17        2.11811  -0.00304   0.00000  -0.01693  -0.01876   2.09936
   A18        2.10427   0.00127   0.00000   0.00776   0.00594   2.11021
   A19        2.14400   0.00430   0.00000   0.01768   0.01721   2.16121
   A20        2.11721   0.00047   0.00000   0.00713   0.00708   2.12428
   A21        2.02070  -0.00469   0.00000  -0.02307  -0.02315   1.99755
   A22        2.08234  -0.00324   0.00000  -0.02268  -0.02340   2.05894
   A23        2.07165   0.00901   0.00000   0.02669   0.02654   2.09819
   A24        2.16225   0.00395   0.00000   0.01877   0.01833   2.18058
   A25        2.11518  -0.00551   0.00000  -0.02091  -0.02211   2.09307
   A26        2.00391   0.00171   0.00000   0.00672   0.00552   2.00943
   A27        1.77373   0.01152   0.00000   0.06697   0.06697   1.84070
    D1       -3.11793   0.00046   0.00000   0.00408   0.00408  -3.11385
    D2        1.05315  -0.00048   0.00000  -0.00665  -0.00665   1.04650
    D3       -0.99430   0.00052   0.00000   0.00293   0.00294  -0.99136
    D4        1.06675   0.00031   0.00000   0.00180   0.00179   1.06855
    D5       -1.04536  -0.00063   0.00000  -0.00893  -0.00893  -1.05429
    D6       -3.09281   0.00037   0.00000   0.00065   0.00066  -3.09215
    D7       -1.01433  -0.00004   0.00000  -0.00330  -0.00330  -1.01762
    D8       -3.12643  -0.00098   0.00000  -0.01402  -0.01403  -3.14046
    D9        1.10930   0.00002   0.00000  -0.00444  -0.00444   1.10486
   D10       -1.30485  -0.00122   0.00000  -0.07909  -0.08045  -1.38530
   D11        1.65289  -0.00008   0.00000   0.00755   0.00873   1.66162
   D12        0.80774  -0.00013   0.00000  -0.06705  -0.06842   0.73933
   D13       -2.51770   0.00100   0.00000   0.01958   0.02076  -2.49694
   D14        2.86912  -0.00232   0.00000  -0.08596  -0.08704   2.78208
   D15       -0.45632  -0.00119   0.00000   0.00068   0.00213  -0.45419
   D16        2.84680   0.00642   0.00000   0.17683   0.17562   3.02242
   D17       -0.19985   0.00259   0.00000   0.07032   0.06972  -0.13014
   D18       -0.12039   0.00355   0.00000   0.08893   0.08832  -0.03207
   D19        3.11614  -0.00028   0.00000  -0.01758  -0.01759   3.09855
   D20       -2.91765  -0.00458   0.00000  -0.12826  -0.12720  -3.04485
   D21        0.15521  -0.00168   0.00000  -0.04281  -0.04167   0.11354
   D22        0.04530  -0.00071   0.00000  -0.03466  -0.03590   0.00940
   D23        3.11816   0.00219   0.00000   0.05079   0.04963  -3.11540
   D24        0.10900  -0.00247   0.00000  -0.08449  -0.08588   0.02312
   D25       -2.97614  -0.00404   0.00000  -0.12250  -0.12367  -3.09982
   D26       -3.12675   0.00109   0.00000   0.01973   0.01931  -3.10744
   D27        0.07130  -0.00049   0.00000  -0.01829  -0.01849   0.05281
   D28       -0.01351   0.00116   0.00000   0.02660   0.02591   0.01240
   D29        3.07452   0.00279   0.00000   0.06350   0.06203   3.13655
   D30       -0.06636   0.00096   0.00000   0.03041   0.03027  -0.03610
   D31        0.05012  -0.00103   0.00000  -0.02521  -0.02414   0.02597
   D32       -3.02670  -0.00349   0.00000  -0.10470  -0.10500  -3.13170
   D33       -3.09153  -0.00155   0.00000  -0.04436  -0.04404  -3.13557
   D34       -0.01280   0.00121   0.00000   0.03435   0.03403   0.02123
         Item               Value     Threshold  Converged?
 Maximum Force            0.029440     0.000450     NO 
 RMS     Force            0.006264     0.000300     NO 
 Maximum Displacement     0.492922     0.001800     NO 
 RMS     Displacement     0.115955     0.001200     NO 
 Predicted change in Energy=-6.921521D-03
 GradGradGradGradGradGradGradGradGradGradGradGradGradGradGradGradGradGrad

                          Input orientation:                          
 ---------------------------------------------------------------------
 Center     Atomic      Atomic             Coordinates (Angstroms)
 Number     Number       Type             X           Y           Z
 ---------------------------------------------------------------------
      1          6           0        0.889544   -0.188847   -0.121727
      2          6           0        2.419695   -0.015045   -0.096054
      3          6           0        2.823541    1.208889    0.698349
      4          6           0        2.759760    2.491912    0.179596
      5          6           0        3.012989    3.571622    1.024654
      6          7           0        3.341293    3.446533    2.310236
      7          7           0        3.446326    2.216621    2.811467
      8          6           0        3.185518    1.153806    2.045270
      9          8           0        3.312998   -0.046459    2.662824
     10          1           0        0.603894   -1.090048   -0.673245
     11          1           0        0.401353    0.667751   -0.597324
     12          1           0        0.490658   -0.273010    0.893888
     13          1           0        2.801021    0.068611   -1.120176
     14          1           0        2.876457   -0.907993    0.338381
     15          1           0        2.526650    2.647325   -0.868598
     16          1           0        2.938563    4.597121    0.677820
     17          1           0        3.561249    0.158732    3.578738
 ---------------------------------------------------------------------
                    Distance matrix (angstroms):
                    1          2          3          4          5
     1  C    0.000000
     2  C    1.540205   0.000000
     3  C    2.523200   1.513995   0.000000
     4  C    3.282526   2.544889   1.385396   0.000000
     5  C    4.468147   3.804230   2.392671   1.394282   0.000000
     6  N    5.014131   4.315332   2.805940   2.406057   1.332724
     7  N    4.574608   3.806308   2.422531   2.733845   2.283968
     8  C    3.430756   2.556944   1.395800   2.335067   2.630068
     9  O    3.694203   2.900066   2.382148   3.593859   3.982979
    10  H    1.094500   2.187673   3.477529   4.266794   5.515230
    11  H    1.094661   2.188878   2.799749   3.081112   4.228939
    12  H    1.094379   2.183510   2.770668   3.647441   4.600049
    13  H    2.171850   1.096009   2.146573   2.750182   4.112945
    14  H    2.162567   1.093033   2.147921   3.405611   4.533935
    15  H    3.358840   2.774253   2.147688   1.084990   2.162234
    16  H    5.267186   4.705335   3.390246   2.170738   1.085118
    17  H    4.577364   3.851939   3.153361   4.200034   4.297878
                    6          7          8          9         10
     6  N    0.000000
     7  N    1.332272   0.000000
     8  C    2.313238   1.335910   0.000000
     9  O    3.510856   2.271872   1.355825   0.000000
    10  H    6.080713   5.581818   4.369208   4.422406   0.000000
    11  H    4.981845   4.826046   3.869254   4.429034   1.771057
    12  H    4.895627   4.314087   3.259410   3.338573   1.770953
    13  H    4.844583   4.526388   3.368313   3.819222   2.523808
    14  H    4.802727   4.025434   2.694439   2.517111   2.494208
    15  H    3.377479   3.817616   3.339960   4.510627   4.207506
    16  H    2.037358   3.236828   3.713129   5.063919   6.294437
    17  H    3.530880   2.199277   1.866245   0.970891   5.327735
                   11         12         13         14         15
    11  H    0.000000
    12  H    1.765423   0.000000
    13  H    2.527994   3.083981   0.000000
    14  H    3.079716   2.530579   1.756939   0.000000
    15  H    2.917051   3.972401   2.605444   3.770869   0.000000
    16  H    4.848028   5.455007   4.874332   5.515919   2.522457
    17  H    5.261515   4.101628   4.760868   3.479477   5.200220
                   16         17
    16  H    0.000000
    17  H    5.338760   0.000000
 Stoichiometry    C6H8N2O
 Framework group  C1[X(C6H8N2O)]
 Deg. of freedom    45
 Full point group                 C1      NOp   1
 Largest Abelian subgroup         C1      NOp   1
 Largest concise Abelian subgroup C1      NOp   1
                         Standard orientation:                         
 ---------------------------------------------------------------------
 Center     Atomic      Atomic             Coordinates (Angstroms)
 Number     Number       Type             X           Y           Z
 ---------------------------------------------------------------------
      1          6           0        2.667575   -0.500266    0.728073
      2          6           0        1.901236   -0.188070   -0.570961
      3          6           0        0.403613   -0.243422   -0.355921
      4          6           0       -0.302249   -1.434707   -0.312091
      5          6           0       -1.652827   -1.403083    0.032814
      6          7           0       -2.323741   -0.283524    0.302282
      7          7           0       -1.666830    0.872860    0.223591
      8          6           0       -0.365089    0.887570   -0.076259
      9          8           0        0.202522    2.118182   -0.117137
     10          1           0        3.749071   -0.431580    0.574519
     11          1           0        2.440600   -1.508281    1.089556
     12          1           0        2.392934    0.203152    1.520185
     13          1           0        2.187578   -0.902098   -1.351606
     14          1           0        2.189229    0.803433   -0.929712
     15          1           0        0.189651   -2.371331   -0.552869
     16          1           0       -2.240957   -2.310923    0.118906
     17          1           0       -0.507831    2.738691    0.113075
 ---------------------------------------------------------------------
 Rotational constants (GHZ):           2.6591435           1.4706783           1.0325244
 Standard basis: 6-31G(2df,p) (6D, 7F)
 There are   319 symmetry adapted cartesian basis functions of A   symmetry.
 There are   292 symmetry adapted basis functions of A   symmetry.
   292 basis functions,   452 primitive gaussians,   319 cartesian basis functions
    33 alpha electrons       33 beta electrons
       nuclear repulsion energy       434.4139287919 Hartrees.
 NAtoms=   17 NActive=   17 NUniq=   17 SFac= 1.00D+00 NAtFMM=   60 NAOKFM=F Big=F
 Integral buffers will be    131072 words long.
 Raffenetti 2 integral format.
 Two-electron integral symmetry is turned on.
 One-electron integrals computed using PRISM.
 PrsmSu:  requested number of processors reduced to:  13 ShMem   1 Linda.
 NBasis=   292 RedAO= T EigKep=  1.15D-04  NBF=   292
 NBsUse=   292 1.00D-06 EigRej= -1.00D+00 NBFU=   292
 Initial guess from the checkpoint file:  "CCc1ccnnc1O.chk"
 B after Tr=    -0.000000   -0.000000   -0.000000
         Rot=    0.999913    0.010409   -0.008060    0.000365 Ang=   1.51 deg.
 ExpMin= 1.61D-01 ExpMax= 5.48D+03 ExpMxC= 8.25D+02 IAcc=2 IRadAn=         4 AccDes= 0.00D+00
 Harris functional with IExCor=  402 and IRadAn=       4 diagonalized for initial guess.
 HarFok:  IExCor=  402 AccDes= 0.00D+00 IRadAn=         4 IDoV= 1 UseB2=F ITyADJ=14
 ICtDFT=  3500011 ScaDFX=  1.000000  1.000000  1.000000  1.000000
 FoFCou: FMM=F IPFlag=           0 FMFlag=      100000 FMFlg1=           0
         NFxFlg=           0 DoJE=T BraDBF=F KetDBF=T FulRan=T
         wScrn=  0.000000 ICntrl=       500 IOpCl=  0 I1Cent=   200000004 NGrid=           0
         NMat0=    1 NMatS0=      1 NMatT0=    0 NMatD0=    1 NMtDS0=    0 NMtDT0=    0
 Petite list used in FoFCou.
 Requested convergence on RMS density matrix=1.00D-08 within 128 cycles.
 Requested convergence on MAX density matrix=1.00D-06.
 Requested convergence on             energy=1.00D-06.
 No special actions if energy rises.
 Integral accuracy reduced to 1.0D-05 until final iterations.
 Initial convergence to 1.0D-05 achieved.  Increase integral accuracy.
 SCF Done:  E(RB3LYP) =  -418.182893370     A.U. after   13 cycles
            NFock= 13  Conv=0.66D-08     -V/T= 2.0075
 PrsmSu:  requested number of processors reduced to:  13 ShMem   1 Linda.
 Calling FoFJK, ICntrl=      2127 FMM=F ISym2X=0 I1Cent= 0 IOpClX= 0 NMat=1 NMatS=1 NMatT=0.
 ***** Axes restored to original set *****
 -------------------------------------------------------------------
 Center     Atomic                   Forces (Hartrees/Bohr)
 Number     Number              X              Y              Z
 -------------------------------------------------------------------
      1        6          -0.000944775    0.000125747    0.000231932
      2        6           0.002397339    0.000050911    0.001780216
      3        6          -0.006592846   -0.000975749   -0.010253528
      4        6           0.002099811   -0.003372985    0.002073220
      5        6           0.000991180    0.005203789    0.002829749
      6        7          -0.000476182   -0.006787792   -0.002442552
      7        7          -0.002158598   -0.000201398   -0.004315163
      8        6           0.006353488    0.000120166    0.015379875
      9        8          -0.002129937    0.003435692   -0.002387370
     10        1           0.000915594    0.000144086   -0.000008555
     11        1           0.000317892    0.000059848   -0.000127794
     12        1           0.000343452   -0.000405570   -0.000001900
     13        1          -0.000505394    0.001197074    0.000014265
     14        1           0.000601074    0.000695285    0.000677103
     15        1          -0.001730404    0.000908796    0.000170950
     16        1           0.000730427   -0.000195561   -0.001627119
     17        1          -0.000212122   -0.000002341   -0.001993329
 -------------------------------------------------------------------
 Cartesian Forces:  Max     0.015379875 RMS     0.003445596

 GradGradGradGradGradGradGradGradGradGradGradGradGradGradGradGradGradGrad
 Berny optimization.
 Using GEDIIS/GDIIS optimizer.
 FormGI is forming the generalized inverse of G from B-inverse, IUseBI=4.
 Internal  Forces:  Max     0.006752714 RMS     0.001716761
 Search for a local minimum.
 Step number   2 out of a maximum of   88
 All quantities printed in internal units (Hartrees-Bohrs-Radians)
 Mixed Optimization -- RFO/linear search
 Update second derivatives using D2CorX and points    1    2
 DE= -6.91D-03 DEPred=-6.92D-03 R= 9.99D-01
 TightC=F SS=  1.41D+00  RLast= 3.92D-01 DXNew= 5.0454D-01 1.1746D+00
 Trust test= 9.99D-01 RLast= 3.92D-01 DXMaxT set to 5.05D-01
 ITU=  1  0
 Use linear search instead of GDIIS.
     Eigenvalues ---    0.00411   0.00726   0.01602   0.02099   0.02156
     Eigenvalues ---    0.02213   0.02295   0.02339   0.02375   0.02621
     Eigenvalues ---    0.04267   0.05508   0.05520   0.05566   0.09197
     Eigenvalues ---    0.12731   0.15851   0.15999   0.15999   0.16000
     Eigenvalues ---    0.16000   0.16587   0.20806   0.22429   0.24075
     Eigenvalues ---    0.24921   0.24977   0.26046   0.29861   0.32974
     Eigenvalues ---    0.34035   0.34042   0.34158   0.34192   0.34584
     Eigenvalues ---    0.35363   0.35606   0.42984   0.44788   0.46226
     Eigenvalues ---    0.50653   0.52206   0.53354   0.54398   0.55111
 RFO step:  Lambda=-1.47011126D-03 EMin= 4.11292243D-03
 Quartic linear search produced a step of  0.17729.
 Iteration  1 RMS(Cart)=  0.06938652 RMS(Int)=  0.00164592
 Iteration  2 RMS(Cart)=  0.00227838 RMS(Int)=  0.00026762
 Iteration  3 RMS(Cart)=  0.00000178 RMS(Int)=  0.00026761
 Iteration  4 RMS(Cart)=  0.00000000 RMS(Int)=  0.00026761
 Variable       Old X    -DE/DX   Delta X   Delta X   Delta X     New X
                                 (Linear)    (Quad)   (Total)
    R1        2.91057  -0.00062   0.00449  -0.00478  -0.00029   2.91028
    R2        2.06830  -0.00035   0.00076  -0.00159  -0.00082   2.06748
    R3        2.06861  -0.00004  -0.00073   0.00024  -0.00049   2.06812
    R4        2.06808  -0.00010  -0.00082   0.00010  -0.00073   2.06735
    R5        2.86104  -0.00369   0.00376  -0.01535  -0.01159   2.84944
    R6        2.07116  -0.00010   0.00019  -0.00043  -0.00024   2.07091
    R7        2.06553  -0.00005  -0.00092   0.00031  -0.00061   2.06492
    R8        2.61802  -0.00133  -0.00353  -0.00104  -0.00446   2.61356
    R9        2.63768   0.00675   0.00632   0.01285   0.01929   2.65697
   R10        2.63481   0.00083   0.00435   0.00008   0.00441   2.63922
   R11        2.05033   0.00034   0.00061   0.00079   0.00140   2.05174
   R12        2.51848  -0.00197  -0.00509  -0.00176  -0.00697   2.51151
   R13        2.05058   0.00029  -0.00006   0.00097   0.00091   2.05149
   R14        2.51763  -0.00306  -0.01017  -0.00214  -0.01243   2.50520
   R15        2.52450  -0.00585  -0.00342  -0.01076  -0.01417   2.51033
   R16        2.56214  -0.00526  -0.00306  -0.01027  -0.01333   2.54881
   R17        1.83472  -0.00194   0.00016  -0.00432  -0.00416   1.83056
    A1        1.93970  -0.00120   0.00074  -0.01084  -0.01012   1.92958
    A2        1.94121  -0.00014   0.00006  -0.00002   0.00003   1.94124
    A3        1.93405  -0.00009  -0.00086   0.00053  -0.00034   1.93371
    A4        1.88494   0.00059  -0.00010   0.00298   0.00287   1.88780
    A5        1.88513   0.00049  -0.00097   0.00217   0.00117   1.88630
    A6        1.87636   0.00044   0.00114   0.00583   0.00697   1.88333
    A7        1.94440   0.00195   0.00902   0.00419   0.01324   1.95764
    A8        1.91632  -0.00040  -0.00182  -0.00003  -0.00182   1.91450
    A9        1.90667  -0.00011  -0.00178   0.00448   0.00276   1.90943
   A10        1.91323  -0.00107  -0.00223  -0.00947  -0.01173   1.90150
   A11        1.91815  -0.00113  -0.00389  -0.00705  -0.01099   1.90716
   A12        1.86330   0.00070   0.00034   0.00805   0.00829   1.87159
   A13        2.14114   0.00270   0.00834   0.00885   0.01627   2.15741
   A14        2.14552  -0.00182   0.00213  -0.00896  -0.00778   2.13774
   A15        1.99305  -0.00080  -0.00863   0.00390  -0.00529   1.98776
   A16        2.07357   0.00058   0.00296   0.00360   0.00636   2.07993
   A17        2.09936   0.00052  -0.00333   0.00535   0.00166   2.10102
   A18        2.11021  -0.00110   0.00105  -0.00887  -0.00818   2.10203
   A19        2.16121  -0.00265   0.00305  -0.01496  -0.01210   2.14911
   A20        2.12428  -0.00007   0.00125  -0.00405  -0.00279   2.12149
   A21        1.99755   0.00272  -0.00410   0.01913   0.01503   2.01258
   A22        2.05894   0.00370  -0.00415   0.01804   0.01354   2.07248
   A23        2.09819   0.00004   0.00470  -0.00408   0.00049   2.09868
   A24        2.18058  -0.00084   0.00325  -0.00537  -0.00224   2.17833
   A25        2.09307  -0.00266  -0.00392  -0.01010  -0.01436   2.07871
   A26        2.00943   0.00350   0.00098   0.01603   0.01667   2.02610
   A27        1.84070  -0.00078   0.01187  -0.01223  -0.00035   1.84034
    D1       -3.11385  -0.00009   0.00072  -0.01743  -0.01672  -3.13057
    D2        1.04650   0.00024  -0.00118  -0.00824  -0.00942   1.03708
    D3       -0.99136  -0.00031   0.00052  -0.02053  -0.02000  -1.01136
    D4        1.06855   0.00007   0.00032  -0.01386  -0.01355   1.05499
    D5       -1.05429   0.00040  -0.00158  -0.00467  -0.00626  -1.06055
    D6       -3.09215  -0.00015   0.00012  -0.01697  -0.01684  -3.10899
    D7       -1.01762  -0.00033  -0.00058  -0.02154  -0.02212  -1.03975
    D8       -3.14046  -0.00000  -0.00249  -0.01234  -0.01483   3.12790
    D9        1.10486  -0.00056  -0.00079  -0.02464  -0.02541   1.07945
   D10       -1.38530  -0.00088  -0.01426  -0.07822  -0.09283  -1.47813
   D11        1.66162   0.00013   0.00155  -0.02653  -0.02468   1.63694
   D12        0.73933  -0.00083  -0.01213  -0.08194  -0.09445   0.64488
   D13       -2.49694   0.00018   0.00368  -0.03025  -0.02630  -2.52324
   D14        2.78208  -0.00127  -0.01543  -0.08185  -0.09753   2.68455
   D15       -0.45419  -0.00026   0.00038  -0.03016  -0.02938  -0.48357
   D16        3.02242   0.00157   0.03114   0.06066   0.09206   3.11449
   D17       -0.13014   0.00136   0.01236   0.06845   0.08100  -0.04914
   D18       -0.03207   0.00071   0.01566   0.01379   0.02944  -0.00263
   D19        3.09855   0.00050  -0.00312   0.02158   0.01838   3.11693
   D20       -3.04485  -0.00120  -0.02255  -0.03945  -0.06129  -3.10614
   D21        0.11354  -0.00180  -0.00739  -0.08231  -0.08890   0.02464
   D22        0.00940  -0.00008  -0.00637   0.00856   0.00189   0.01129
   D23       -3.11540  -0.00069   0.00880  -0.03430  -0.02572  -3.14111
   D24        0.02312  -0.00069  -0.01523  -0.01608  -0.03154  -0.00842
   D25       -3.09982  -0.00097  -0.02193  -0.02432  -0.04651   3.13686
   D26       -3.10744  -0.00049   0.00342  -0.02402  -0.02053  -3.12797
   D27        0.05281  -0.00076  -0.00328  -0.03226  -0.03550   0.01731
   D28        0.01240  -0.00000   0.00459  -0.00529  -0.00098   0.01142
   D29        3.13655   0.00023   0.01100   0.00222   0.01298  -3.13365
   D30       -0.03610   0.00064   0.00537   0.02779   0.03325  -0.00284
   D31        0.02597  -0.00068  -0.00428  -0.03097  -0.03489  -0.00891
   D32       -3.13170  -0.00015  -0.01862   0.00986  -0.00829  -3.13999
   D33       -3.13557  -0.00001  -0.00781   0.00646  -0.00120  -3.13677
   D34        0.02123  -0.00053   0.00603  -0.03218  -0.02629  -0.00506
         Item               Value     Threshold  Converged?
 Maximum Force            0.006753     0.000450     NO 
 RMS     Force            0.001717     0.000300     NO 
 Maximum Displacement     0.249497     0.001800     NO 
 RMS     Displacement     0.069297     0.001200     NO 
 Predicted change in Energy=-9.374683D-04
 GradGradGradGradGradGradGradGradGradGradGradGradGradGradGradGradGradGrad

                          Input orientation:                          
 ---------------------------------------------------------------------
 Center     Atomic      Atomic             Coordinates (Angstroms)
 Number     Number       Type             X           Y           Z
 ---------------------------------------------------------------------
      1          6           0        0.892614   -0.248654   -0.103674
      2          6           0        2.410363    0.012498   -0.103914
      3          6           0        2.777077    1.236683    0.696419
      4          6           0        2.748786    2.521797    0.186055
      5          6           0        3.075957    3.592951    1.020396
      6          7           0        3.408742    3.443092    2.298334
      7          7           0        3.445963    2.219946    2.808225
      8          6           0        3.151548    1.169676    2.049985
      9          8           0        3.214140   -0.034434    2.654457
     10          1           0        0.657353   -1.147403   -0.681496
     11          1           0        0.345905    0.591800   -0.542381
     12          1           0        0.523772   -0.394375    0.915908
     13          1           0        2.762669    0.141799   -1.133532
     14          1           0        2.928317   -0.856670    0.308745
     15          1           0        2.495435    2.693441   -0.855658
     16          1           0        3.070591    4.616662    0.659132
     17          1           0        3.482277    0.148710    3.567100
 ---------------------------------------------------------------------
                    Distance matrix (angstroms):
                    1          2          3          4          5
     1  C    0.000000
     2  C    1.540053   0.000000
     3  C    2.529343   1.507859   0.000000
     4  C    3.347345   2.548567   1.383036   0.000000
     5  C    4.559434   3.811394   2.397141   1.396615   0.000000
     6  N    5.072429   4.305407   2.798816   2.397092   1.329033
     7  N    4.592683   3.798137   2.423622   2.730009   2.284378
     8  C    3.428219   2.554935   1.406008   2.337666   2.634013
     9  O    3.611462   2.873476   2.375010   3.583835   3.980850
    10  H    1.094064   2.179913   3.475018   4.311585   5.587220
    11  H    1.094403   2.188569   2.803764   3.166914   4.347684
    12  H    1.093995   2.182844   2.790324   3.739977   4.735328
    13  H    2.170292   1.095880   2.132534   2.721377   4.080196
    14  H    2.164223   1.092711   2.134313   3.385458   4.508588
    15  H    3.433720   2.785643   2.147186   1.085732   2.160023
    16  H    5.384864   4.713435   3.392905   2.171594   1.085600
    17  H    4.509860   3.826734   3.149890   4.195357   4.302743
                    6          7          8          9         10
     6  N    0.000000
     7  N    1.325693   0.000000
     8  C    2.301358   1.328411   0.000000
     9  O    3.501125   2.271479   1.348771   0.000000
    10  H    6.125535   5.594064   4.364728   4.347924   0.000000
    11  H    5.057717   4.846420   3.863409   4.340359   1.772338
    12  H    4.996029   4.353704   3.261532   3.223382   1.771043
    13  H    4.805586   4.508108   3.367869   3.818867   2.509728
    14  H    4.762061   3.997616   2.681013   2.502025   2.494470
    15  H    3.368051   3.814674   3.345908   4.503192   4.261568
    16  H    2.044162   3.240950   3.717895   5.063064   6.391045
    17  H    3.531024   2.206180   1.858331   0.968688   5.264093
                   11         12         13         14         15
    11  H    0.000000
    12  H    1.769403   0.000000
    13  H    2.528380   3.082263   0.000000
    14  H    3.080801   2.522736   1.761972   0.000000
    15  H    3.022501   4.069460   2.580601   3.761184   0.000000
    16  H    5.006702   5.626963   4.830410   5.486382   2.514791
    17  H    5.188545   4.009553   4.755400   3.454640   5.197144
                   16         17
    16  H    0.000000
    17  H    5.346809   0.000000
 Stoichiometry    C6H8N2O
 Framework group  C1[X(C6H8N2O)]
 Deg. of freedom    45
 Full point group                 C1      NOp   1
 Largest Abelian subgroup         C1      NOp   1
 Largest concise Abelian subgroup C1      NOp   1
                         Standard orientation:                         
 ---------------------------------------------------------------------
 Center     Atomic      Atomic             Coordinates (Angstroms)
 Number     Number       Type             X           Y           Z
 ---------------------------------------------------------------------
      1          6           0        2.703883   -0.477584    0.697036
      2          6           0        1.875786   -0.270529   -0.584817
      3          6           0        0.392724   -0.288325   -0.313063
      4          6           0       -0.358925   -1.447168   -0.243088
      5          6           0       -1.722239   -1.357834    0.046615
      6          7           0       -2.343220   -0.204388    0.270835
      7          7           0       -1.643404    0.919646    0.205522
      8          6           0       -0.345662    0.884487   -0.076092
      9          8           0        0.284369    2.076284   -0.119278
     10          1           0        3.774131   -0.448910    0.471821
     11          1           0        2.478941   -1.442163    1.162555
     12          1           0        2.489802    0.307079    1.428678
     13          1           0        2.114209   -1.057181   -1.309583
     14          1           0        2.147226    0.684056   -1.042097
     15          1           0        0.101261   -2.412340   -0.431467
     16          1           0       -2.349362   -2.241937    0.106663
     17          1           0       -0.398187    2.736034    0.073610
 ---------------------------------------------------------------------
 Rotational constants (GHZ):           2.7262768           1.4536935           1.0267357
 Standard basis: 6-31G(2df,p) (6D, 7F)
 There are   319 symmetry adapted cartesian basis functions of A   symmetry.
 There are   292 symmetry adapted basis functions of A   symmetry.
   292 basis functions,   452 primitive gaussians,   319 cartesian basis functions
    33 alpha electrons       33 beta electrons
       nuclear repulsion energy       434.8203943662 Hartrees.
 NAtoms=   17 NActive=   17 NUniq=   17 SFac= 1.00D+00 NAtFMM=   60 NAOKFM=F Big=F
 Integral buffers will be    131072 words long.
 Raffenetti 2 integral format.
 Two-electron integral symmetry is turned on.
 One-electron integrals computed using PRISM.
 PrsmSu:  requested number of processors reduced to:  13 ShMem   1 Linda.
 NBasis=   292 RedAO= T EigKep=  1.12D-04  NBF=   292
 NBsUse=   292 1.00D-06 EigRej= -1.00D+00 NBFU=   292
 Initial guess from the checkpoint file:  "CCc1ccnnc1O.chk"
 B after Tr=     0.000000    0.000000    0.000000
         Rot=    0.999841    0.012421   -0.003213    0.012350 Ang=   2.04 deg.
 ExpMin= 1.61D-01 ExpMax= 5.48D+03 ExpMxC= 8.25D+02 IAcc=2 IRadAn=         4 AccDes= 0.00D+00
 Harris functional with IExCor=  402 and IRadAn=       4 diagonalized for initial guess.
 HarFok:  IExCor=  402 AccDes= 0.00D+00 IRadAn=         4 IDoV= 1 UseB2=F ITyADJ=14
 ICtDFT=  3500011 ScaDFX=  1.000000  1.000000  1.000000  1.000000
 FoFCou: FMM=F IPFlag=           0 FMFlag=      100000 FMFlg1=           0
         NFxFlg=           0 DoJE=T BraDBF=F KetDBF=T FulRan=T
         wScrn=  0.000000 ICntrl=       500 IOpCl=  0 I1Cent=   200000004 NGrid=           0
         NMat0=    1 NMatS0=      1 NMatT0=    0 NMatD0=    1 NMtDS0=    0 NMtDT0=    0
 Petite list used in FoFCou.
 Requested convergence on RMS density matrix=1.00D-08 within 128 cycles.
 Requested convergence on MAX density matrix=1.00D-06.
 Requested convergence on             energy=1.00D-06.
 No special actions if energy rises.
 Integral accuracy reduced to 1.0D-05 until final iterations.
 Initial convergence to 1.0D-05 achieved.  Increase integral accuracy.
 SCF Done:  E(RB3LYP) =  -418.183915895     A.U. after   13 cycles
            NFock= 13  Conv=0.44D-08     -V/T= 2.0074
 PrsmSu:  requested number of processors reduced to:  13 ShMem   1 Linda.
 Calling FoFJK, ICntrl=      2127 FMM=F ISym2X=0 I1Cent= 0 IOpClX= 0 NMat=1 NMatS=1 NMatT=0.
 ***** Axes restored to original set *****
 -------------------------------------------------------------------
 Center     Atomic                   Forces (Hartrees/Bohr)
 Number     Number              X              Y              Z
 -------------------------------------------------------------------
      1        6           0.000176011   -0.000684527    0.000278909
      2        6           0.000157640    0.000880772    0.000508219
      3        6          -0.000158116    0.001479932   -0.002218858
      4        6           0.001668260   -0.002059580   -0.000944112
      5        6          -0.000328886    0.000602724    0.001280927
      6        7           0.000416855    0.003348853   -0.001046124
      7        7           0.000333857   -0.003229355    0.000120226
      8        6          -0.001584560   -0.000033171    0.001930970
      9        8          -0.000197125    0.000004990   -0.000259959
     10        1           0.000011290    0.000076378   -0.000048204
     11        1           0.000151007    0.000059911    0.000013624
     12        1           0.000078689   -0.000069362    0.000019021
     13        1          -0.000518650    0.000133874   -0.000082831
     14        1           0.000288836   -0.000136084   -0.000017758
     15        1          -0.000661150    0.000288673    0.000032191
     16        1          -0.000112929   -0.000383711   -0.000129378
     17        1           0.000278971   -0.000280316    0.000563138
 -------------------------------------------------------------------
 Cartesian Forces:  Max     0.003348853 RMS     0.000988185

 GradGradGradGradGradGradGradGradGradGradGradGradGradGradGradGradGradGrad
 Berny optimization.
 Using GEDIIS/GDIIS optimizer.
 FormGI is forming the generalized inverse of G from B-inverse, IUseBI=4.
 Internal  Forces:  Max     0.002998753 RMS     0.000523771
 Search for a local minimum.
 Step number   3 out of a maximum of   88
 All quantities printed in internal units (Hartrees-Bohrs-Radians)
 Mixed Optimization -- En-DIIS/RFO-DIIS
 Update second derivatives using D2CorX and points    2    3
 DE= -1.02D-03 DEPred=-9.37D-04 R= 1.09D+00
 TightC=F SS=  1.41D+00  RLast= 2.68D-01 DXNew= 8.4853D-01 8.0410D-01
 Trust test= 1.09D+00 RLast= 2.68D-01 DXMaxT set to 8.04D-01
 ITU=  1  1  0
 Use linear search instead of GDIIS.
     Eigenvalues ---    0.00409   0.00585   0.01627   0.01994   0.02157
     Eigenvalues ---    0.02198   0.02329   0.02343   0.02553   0.02647
     Eigenvalues ---    0.04220   0.05493   0.05551   0.05611   0.09354
     Eigenvalues ---    0.12806   0.15647   0.15998   0.16000   0.16000
     Eigenvalues ---    0.16008   0.16637   0.20604   0.22738   0.23941
     Eigenvalues ---    0.24971   0.25049   0.26394   0.29852   0.32825
     Eigenvalues ---    0.34035   0.34042   0.34158   0.34191   0.34580
     Eigenvalues ---    0.35388   0.35601   0.43881   0.44665   0.46234
     Eigenvalues ---    0.51994   0.52169   0.53490   0.54453   0.54754
 RFO step:  Lambda=-3.67501874D-04 EMin= 4.08629219D-03
 Quartic linear search produced a step of  0.17115.
 Iteration  1 RMS(Cart)=  0.05804464 RMS(Int)=  0.00116545
 Iteration  2 RMS(Cart)=  0.00158241 RMS(Int)=  0.00004433
 Iteration  3 RMS(Cart)=  0.00000083 RMS(Int)=  0.00004432
 Variable       Old X    -DE/DX   Delta X   Delta X   Delta X     New X
                                 (Linear)    (Quad)   (Total)
    R1        2.91028  -0.00031  -0.00005  -0.00100  -0.00105   2.90923
    R2        2.06748  -0.00004  -0.00014  -0.00012  -0.00026   2.06722
    R3        2.06812  -0.00003  -0.00008  -0.00017  -0.00025   2.06787
    R4        2.06735   0.00000  -0.00012  -0.00006  -0.00018   2.06717
    R5        2.84944  -0.00065  -0.00198  -0.00254  -0.00452   2.84492
    R6        2.07091  -0.00007  -0.00004  -0.00025  -0.00029   2.07062
    R7        2.06492   0.00024  -0.00010   0.00075   0.00065   2.06557
    R8        2.61356  -0.00106  -0.00076  -0.00313  -0.00388   2.60968
    R9        2.65697   0.00120   0.00330   0.00364   0.00695   2.66392
   R10        2.63922   0.00105   0.00075   0.00274   0.00350   2.64272
   R11        2.05174   0.00017   0.00024   0.00062   0.00086   2.05260
   R12        2.51151  -0.00017  -0.00119  -0.00075  -0.00195   2.50956
   R13        2.05149  -0.00032   0.00016  -0.00102  -0.00087   2.05062
   R14        2.50520   0.00300  -0.00213   0.00594   0.00380   2.50900
   R15        2.51033  -0.00058  -0.00243  -0.00171  -0.00414   2.50619
   R16        2.54881   0.00039  -0.00228   0.00031  -0.00197   2.54684
   R17        1.83056   0.00055  -0.00071   0.00109   0.00038   1.83093
    A1        1.92958   0.00004  -0.00173   0.00004  -0.00170   1.92788
    A2        1.94124  -0.00022   0.00000  -0.00173  -0.00172   1.93952
    A3        1.93371  -0.00005  -0.00006  -0.00033  -0.00039   1.93332
    A4        1.88780   0.00007   0.00049   0.00038   0.00087   1.88867
    A5        1.88630   0.00004   0.00020   0.00058   0.00078   1.88708
    A6        1.88333   0.00014   0.00119   0.00116   0.00235   1.88567
    A7        1.95764   0.00063   0.00227   0.00416   0.00643   1.96407
    A8        1.91450  -0.00016  -0.00031  -0.00016  -0.00046   1.91404
    A9        1.90943  -0.00038   0.00047  -0.00383  -0.00335   1.90609
   A10        1.90150  -0.00014  -0.00201   0.00042  -0.00159   1.89990
   A11        1.90716  -0.00015  -0.00188  -0.00184  -0.00373   1.90343
   A12        1.87159   0.00017   0.00142   0.00113   0.00254   1.87413
   A13        2.15741   0.00052   0.00278   0.00352   0.00618   2.16359
   A14        2.13774  -0.00106  -0.00133  -0.00482  -0.00628   2.13147
   A15        1.98776   0.00054  -0.00091   0.00131   0.00029   1.98805
   A16        2.07993  -0.00002   0.00109  -0.00040   0.00064   2.08057
   A17        2.10102   0.00023   0.00028   0.00200   0.00223   2.10325
   A18        2.10203  -0.00020  -0.00140  -0.00122  -0.00267   2.09936
   A19        2.14911   0.00043  -0.00207   0.00193  -0.00019   2.14892
   A20        2.12149  -0.00049  -0.00048  -0.00312  -0.00361   2.11789
   A21        2.01258   0.00007   0.00257   0.00121   0.00377   2.01635
   A22        2.07248  -0.00080   0.00232  -0.00284  -0.00059   2.07189
   A23        2.09868   0.00014   0.00008   0.00157   0.00159   2.10027
   A24        2.17833  -0.00029  -0.00038  -0.00125  -0.00169   2.17664
   A25        2.07871   0.00000  -0.00246  -0.00055  -0.00304   2.07567
   A26        2.02610   0.00029   0.00285   0.00196   0.00478   2.03088
   A27        1.84034   0.00070  -0.00006   0.00558   0.00552   1.84586
    D1       -3.13057  -0.00001  -0.00286  -0.00861  -0.01147   3.14115
    D2        1.03708  -0.00014  -0.00161  -0.01181  -0.01342   1.02366
    D3       -1.01136  -0.00004  -0.00342  -0.01085  -0.01427  -1.02563
    D4        1.05499   0.00002  -0.00232  -0.00798  -0.01030   1.04469
    D5       -1.06055  -0.00011  -0.00107  -0.01118  -0.01225  -1.07280
    D6       -3.10899  -0.00001  -0.00288  -0.01021  -0.01310  -3.12209
    D7       -1.03975   0.00003  -0.00379  -0.00807  -0.01186  -1.05161
    D8        3.12790  -0.00011  -0.00254  -0.01127  -0.01381   3.11409
    D9        1.07945  -0.00000  -0.00435  -0.01031  -0.01466   1.06480
   D10       -1.47813  -0.00060  -0.01589  -0.07932  -0.09522  -1.57335
   D11        1.63694  -0.00061  -0.00422  -0.07888  -0.08309   1.55385
   D12        0.64488  -0.00048  -0.01617  -0.07650  -0.09269   0.55218
   D13       -2.52324  -0.00049  -0.00450  -0.07606  -0.08056  -2.60380
   D14        2.68455  -0.00044  -0.01669  -0.07594  -0.09264   2.59191
   D15       -0.48357  -0.00044  -0.00503  -0.07550  -0.08050  -0.56407
   D16        3.11449   0.00002   0.01576   0.00377   0.01964   3.13412
   D17       -0.04914   0.00042   0.01386   0.02362   0.03759  -0.01155
   D18       -0.00263   0.00004   0.00504   0.00344   0.00850   0.00586
   D19        3.11693   0.00044   0.00315   0.02329   0.02645  -3.13981
   D20       -3.10614  -0.00041  -0.01049  -0.02116  -0.03151  -3.13764
   D21        0.02464  -0.00002  -0.01521  -0.00219  -0.01728   0.00736
   D22        0.01129  -0.00042   0.00032  -0.02071  -0.02040  -0.00911
   D23       -3.14111  -0.00002  -0.00440  -0.00174  -0.00618   3.13590
   D24       -0.00842   0.00034  -0.00540   0.01581   0.01042   0.00200
   D25        3.13686   0.00014  -0.00796   0.00578  -0.00218   3.13468
   D26       -3.12797  -0.00006  -0.00351  -0.00410  -0.00755  -3.13552
   D27        0.01731  -0.00026  -0.00608  -0.01412  -0.02015  -0.00284
   D28        0.01142  -0.00038  -0.00017  -0.01881  -0.01901  -0.00759
   D29       -3.13365  -0.00020   0.00222  -0.00937  -0.00710  -3.14075
   D30       -0.00284   0.00002   0.00569   0.00173   0.00742   0.00458
   D31       -0.00891   0.00040  -0.00597   0.01888   0.01294   0.00402
   D32       -3.13999   0.00002  -0.00142   0.00043  -0.00091  -3.14090
   D33       -3.13677  -0.00030  -0.00021  -0.01559  -0.01579   3.13063
   D34       -0.00506   0.00005  -0.00450   0.00174  -0.00277  -0.00783
         Item               Value     Threshold  Converged?
 Maximum Force            0.002999     0.000450     NO 
 RMS     Force            0.000524     0.000300     NO 
 Maximum Displacement     0.167820     0.001800     NO 
 RMS     Displacement     0.058221     0.001200     NO 
 Predicted change in Energy=-2.138948D-04
 GradGradGradGradGradGradGradGradGradGradGradGradGradGradGradGradGradGrad

                          Input orientation:                          
 ---------------------------------------------------------------------
 Center     Atomic      Atomic             Coordinates (Angstroms)
 Number     Number       Type             X           Y           Z
 ---------------------------------------------------------------------
      1          6           0        0.904685   -0.288762   -0.068205
      2          6           0        2.408383    0.036305   -0.125469
      3          6           0        2.766056    1.256130    0.681081
      4          6           0        2.774513    2.540809    0.174480
      5          6           0        3.114569    3.604237    1.016617
      6          7           0        3.436561    3.443309    2.294901
      7          7           0        3.428837    2.217591    2.805146
      8          6           0        3.109896    1.177989    2.045958
      9          8           0        3.126990   -0.028743    2.645855
     10          1           0        0.682841   -1.178543   -0.664648
     11          1           0        0.306675    0.541231   -0.456694
     12          1           0        0.588382   -0.481544    0.961068
     13          1           0        2.711257    0.198404   -1.165954
     14          1           0        2.975822   -0.819023    0.250282
     15          1           0        2.524065    2.724773   -0.866307
     16          1           0        3.138508    4.626522    0.653446
     17          1           0        3.393470    0.136833    3.562543
 ---------------------------------------------------------------------
                    Distance matrix (angstroms):
                    1          2          3          4          5
     1  C    0.000000
     2  C    1.539499   0.000000
     3  C    2.532355   1.505465   0.000000
[...]
 1\1\GINC-LEWIS4-Z10PH-HPC3-NODE391\Freq\RB3LYP\6-31G(2df,p)\C6H8N2O1\K
 S29C\04-Aug-2022\0\\#N Geom=AllCheck Guess=TCheck SCRF=Check GenChk RB
 3LYP/6-31G(2df,p) Freq\\Title Card Required\\0,1\C,0.9476393711,-0.380
 5274793,0.0460637839\C,2.3913670406,0.0964664608,-0.1970919184\C,2.758
 3758624,1.2971030025,0.6332908261\C,2.8688785784,2.5796946489,0.137909
 9701\C,3.2025139231,3.620868942,1.0128468782\N,3.4265261414,3.44205771
 99,2.3079333095\N,3.3296275705,2.2101472614,2.8065156811\C,3.01209672,
 1.1952308882,2.0169738964\O,2.937599837,-0.0184175486,2.6021431349\H,0
 .7260708055,-1.2555968829,-0.5718101862\H,0.2274495807,0.4044890874,-0
 .2042914871\H,0.8028797235,-0.6564200661,1.0934336477\H,2.526856321,0.
 3435042279,-1.2554961061\H,3.0810733984,-0.7224106505,0.0351432193\H,2
 .7032787286,2.7810113426,-0.9160639278\H,3.2973836434,4.6430288624,0.6
 604726129\H,3.1518927546,0.1272901834,3.5361266655\\Version=ES64L-G16R
 evA.03\State=1-A\HF=-418.1847505\RMSD=2.659e-09\RMSF=3.106e-05\ZeroPoi
 nt=0.1374115\Thermal=0.1454107\Dipole=-0.3227077,-0.6049732,-1.0058265
 \DipoleDeriv=0.1196368,0.0587529,0.059084,-0.0387775,0.0668245,-0.0163
 834,-0.0194495,-0.0636694,0.0310465,0.0647552,-0.0786899,-0.0374601,-0
 .0206591,0.0506017,-0.0278014,0.02034,0.02316,0.1989587,-0.0071825,0.1
 00018,0.0357118,0.0792935,0.0926482,0.1516405,0.1183584,0.4639912,-0.0
 147582,-0.0612571,-0.0095743,0.0406387,-0.014281,-0.0415915,-0.0022926
 ,0.0127983,-0.065005,0.1643998,0.0572737,0.020974,-0.0389158,0.0448477
 ,0.3068251,-0.0229761,-0.0532012,-0.106248,-0.1231119,-0.2513526,0.013
 6411,-0.0128638,-0.1025692,-0.2912318,-0.3810588,0.06329,0.1015272,0.0
 024281,-0.2292238,-0.0598834,0.0807385,0.0979736,-0.3582415,0.5279147,
 -0.0391522,-0.2093246,-0.2597795,0.2497922,0.0130297,-0.0744142,-0.031
 1466,1.0297626,-0.6735738,-0.0706176,-0.5916628,0.3747746,-0.3436645,-
 0.0272267,0.0289517,0.0051648,-1.0564291,0.5382624,0.022667,0.4553068,
 -0.5041157,-0.0071378,-0.0818975,-0.038641,-0.0687555,-0.0937488,-0.10
 51593,-0.0316537,-0.1017489,0.0025677,-0.0626485,0.0411307,-0.0142225,
 0.1039512,-0.0435984,0.0429637,-0.0237268,0.0292981,0.0464614,0.038981
 6,0.0137462,0.0195048,-0.0051032,0.0620119,0.0297106,0.0522731,0.05522
 41,-0.0764073,0.0101711,-0.0322963,0.0247808,-0.0422136,0.0006781,0.06
 48557,0.0284808,-0.0089589,-0.1352078,-0.048052,0.0513786,-0.0182056,0
 .0450815,-0.057733,-0.0250507,-0.04556,-0.0035438,0.0361978,0.0863141,
 0.0049234,-0.0287199,0.0038671,0.0860105,0.0039073,-0.0242187,0.029636
 6,-0.0752524,0.0936679,-0.016724,-0.0012401,-0.0202798,-0.0716308,0.05
 17945,-0.0029591,0.0524515,0.0431724,0.2899261,-0.0113027,-0.0247274,-
 0.0363938,0.3188425,-0.1567533,-0.0076688,-0.0604339,0.2886259\Polar=5
 2.2529133,11.6971965,96.7646067,9.2675262,-0.3209447,84.286319\Quadrup
 ole=-0.7729424,-0.7706741,1.5436165,-1.2495261,-0.7383377,-5.09899\PG=
 C01 [X(C6H8N2O1)]\NImag=0\\0.46361379,-0.03527246,0.55845502,0.0180099
 8,0.00688726,0.57101793,-0.16321127,-0.02892759,0.01437420,0.45536590,
 -0.02370943,-0.08008569,0.00430201,-0.05151049,0.51785997,0.01955944,0
 .00720281,-0.08079599,0.00769714,-0.03999414,0.57032843,-0.00983999,-0
 .02749085,-0.01836179,-0.07686312,-0.02092208,-0.01902201,0.20361449,-
 0.01289089,-0.01480771,-0.00407709,-0.01765425,-0.15827797,-0.05589169
 ,0.07916717,0.69513759,-0.00627691,0.00159589,0.00492454,-0.01419878,-
 0.04816684,-0.12832962,0.07917231,-0.03755317,0.61248146,0.00008590,-0
 .00042165,-0.00020488,0.00541708,-0.00928683,0.00258949,-0.06689498,-0
 .02301891,-0.00865591,0.16844533,0.00347328,-0.00044972,-0.00069780,-0
 .00526081,-0.02864810,0.00531278,-0.03407756,-0.33522565,0.05712947,0.
 07719562,0.66986564,0.00055449,-0.00236697,-0.00132614,-0.00186779,-0.
 01783482,0.01103080,-0.00000098,0.11452340,-0.15787073,0.10216681,-0.0
 4676716,0.71561885,-0.00021554,0.00204847,0.00114279,0.01158936,-0.001
 58799,-0.00082685,0.00559752,-0.01616320,0.01169426,-0.08260519,-0.034
 33216,-0.04066615,0.17347200,-0.00072554,-0.00056379,0.00008664,0.0001
 2330,-0.00018577,0.00393500,-0.00934065,-0.05261202,0.00107063,-0.0474
 6552,-0.23319727,-0.11130737,0.08406847,0.73852408,-0.00056926,-0.0002
 3876,-0.00036626,-0.00121267,0.00481942,0.00042839,0.00671898,-0.03522
 092,0.06668044,-0.02998501,-0.04366895,-0.18848556,0.08884753,-0.05448
 817,0.64716769,0.00016522,-0.00086985,-0.00061005,-0.00503672,0.000396
 52,0.00110173,-0.00783355,0.00547884,-0.00077495,0.02215403,-0.0095456
 7,-0.01860139,-0.07408258,-0.00522078,-0.05318101,0.11743105,0.0009781
 6,-0.00003474,-0.00117850,-0.00049033,-0.00198802,0.00200819,0.0070880
 6,-0.02150123,0.04475200,0.00233438,0.05670313,-0.01149449,-0.01064784
 ,-0.13049419,0.00169169,0.04322117,0.45834934,0.00043283,0.00005483,0.
 00023742,0.00028958,-0.00149820,-0.00081568,-0.00161768,0.03825230,-0.
 04804996,-0.02825056,-0.07340576,-0.05891181,-0.04856331,0.02956117,-0
 .33724363,0.07231382,-0.07257754,0.52643117,-0.00011778,0.00096852,0.0
 0109462,0.00575627,0.00033043,-0.00286237,0.01654344,-0.00271097,-0.02
 143811,-0.01280759,-0.00982326,-0.00080667,0.02449125,0.00451132,0.006
 15758,-0.07527181,-0.01615095,0.00011138,0.11541414,-0.00135306,-0.000
 33957,0.00164259,0.00117982,0.00267946,0.00064240,-0.01155475,0.041778
 66,-0.07513583,-0.01366515,-0.07077291,-0.02280150,0.01624746,-0.01480
 810,0.11337653,-0.01532103,-0.25551936,0.06868808,0.07990435,0.5963525
 2,-0.00009545,0.00001844,0.00043048,-0.00003387,0.00606865,-0.00661713
 ,-0.01551574,-0.03009572,-0.03024032,0.00253702,-0.00136169,0.00292754
 ,-0.00371402,0.05267278,-0.03855887,-0.00038514,0.06423680,-0.12648451
 ,0.06247486,-0.00218968,0.40762211,0.00109905,0.00041183,-0.00125794,0
 .00215620,-0.00018745,-0.00814745,-0.08972490,-0.01149437,-0.03254422,
 0.00594634,0.01844392,0.00551141,-0.01800138,0.00061208,-0.01604168,0.
 01295316,-0.03042733,0.01235978,-0.08105199,-0.03573919,-0.04781785,0.
 20789703,0.00263466,-0.00015097,-0.00420820,-0.00686926,0.00615045,-0.
 02640512,0.00132674,-0.11384377,0.03445716,0.01102110,0.01776289,0.045
 01917,-0.00540759,-0.00190698,-0.03760944,-0.01673844,-0.10321929,0.01
 068569,-0.04412547,-0.22314635,-0.09699590,0.07298730,0.69201379,0.000
 83575,0.00088120,-0.00020188,-0.00590567,-0.00916763,-0.01717240,-0.04
 096351,-0.02965662,-0.26549828,0.01111663,0.08205575,-0.00574434,-0.01
 125325,-0.00799320,-0.06704753,0.00132807,-0.05980402,0.07028989,-0.04
 084728,-0.05277803,-0.22761221,0.09761121,-0.04202704,0.69717317,-0.00
 112415,-0.00110438,0.00070878,-0.00200960,0.00119517,0.00003250,0.0077
 4134,0.00663599,-0.00459181,0.00432333,-0.00193743,-0.00281741,-0.0010
 6188,-0.00040169,0.00134557,0.01203197,-0.00102752,-0.00363377,0.00293
 603,-0.01939866,0.00395844,-0.05606299,-0.01133529,-0.00971366,0.07165
 565,-0.00147387,0.00069713,0.00195560,0.00127366,-0.00078716,-0.002675
 99,-0.00013192,-0.01319118,0.01666315,-0.00045558,0.00548384,-0.002783
 03,-0.00140737,-0.00762644,-0.00204806,-0.00136641,0.00484958,-0.00070
 841,-0.01276062,-0.08344381,0.00687593,-0.02016369,-0.26249111,0.06576
 862,0.05300086,0.41169794,-0.00023018,-0.00041905,-0.00039446,0.001296
 97,0.00224484,0.00090502,0.00049048,0.05154650,-0.03110154,-0.00390890
 ,-0.01111925,-0.00720528,0.00243572,0.00376669,0.00813307,-0.00347082,
 0.00184742,-0.00597168,-0.00127720,-0.02703612,0.01976264,-0.00274457,
 0.10650978,-0.14951035,0.11179739,-0.03192775,0.61081254,-0.05523308,-
 0.03863881,-0.02848116,-0.00809028,-0.02601432,-0.01873299,-0.00547537
 ,-0.00054539,0.00275371,-0.00014075,-0.00072611,-0.00091064,0.00065268
 ,-0.00005010,-0.00009277,-0.00033599,-0.00051180,0.00008003,0.00041241
 ,0.00058834,0.00000500,-0.00016870,-0.00137168,0.00004465,0.00003744,0
 .00075612,-0.00028199,0.06149930,-0.03990225,-0.21632140,-0.12060983,-
 0.00119962,-0.00741535,-0.00486182,-0.00208219,0.00050872,0.00071204,-
 0.00019687,0.00021165,-0.00030191,0.00021717,0.00016276,-0.00011818,-0
 .00015063,-0.00023419,-0.00001777,0.00018348,0.00018218,0.00004413,-0.
 00018424,-0.00094875,0.00052393,0.00015275,0.00057506,-0.00015880,0.04
 573460,0.23298950,-0.02950883,-0.12103774,-0.13340535,0.00229267,0.006
 09980,0.00319975,0.00129655,-0.00000634,0.00065580,-0.00008553,0.00041
 205,0.00009770,-0.00016560,-0.00009541,-0.00015458,0.00005506,-0.00002
 004,0.00012122,-0.00004615,-0.00008644,0.00007141,0.00033871,0.0010115
 6,-0.00024742,-0.00046098,-0.00040962,0.00004405,0.03085291,0.13274225
 ,0.14079259,-0.15547637,0.12296556,-0.03991832,-0.02229608,0.02145887,
 -0.00771927,0.00152958,0.00220070,0.00108074,0.00017487,-0.00040385,-0
 .00008762,-0.00014519,-0.00019034,-0.00007854,0.00004162,-0.00020047,0
 .00017958,0.00001282,0.00024440,-0.00004829,-0.00006921,0.00018525,-0.
 00076696,0.00007938,-0.00029813,0.00015396,0.00433671,-0.00491682,0.00
 220468,0.17322960,0.12443650,-0.18697095,0.04488697,-0.00840952,0.0078
 6802,-0.00324356,-0.00023896,0.00158123,-0.00018459,0.00030337,0.00030
 095,0.00034761,0.00001469,-0.00010367,-0.00013074,-0.00000965,0.000054
 63,0.00011724,0.00001741,0.00009800,-0.00001266,0.00006090,0.00000339,
 0.00002688,0.00007750,0.00000974,-0.00003947,0.01630441,-0.01788125,0.
 00734934,-0.13458620,0.20013612,-0.04013326,0.04480448,-0.06256663,0.0
 0441388,-0.00478347,0.00079501,-0.00040142,0.00031414,0.00000213,-0.00
 000060,-0.00017495,0.00014919,0.00004387,-0.00004698,-0.00002867,-0.00
 000350,0.00001297,-0.00000752,-0.00001054,-0.00026830,-0.00009259,0.00
 002478,0.00079548,-0.00036871,-0.00035062,-0.00052766,-0.00012685,0.01
 315325,-0.01353640,0.00438808,0.04283183,-0.04953821,0.06242294,-0.049
 53192,-0.00683933,0.02860457,-0.00576589,-0.00867973,0.03176395,0.0015
 3887,0.00142640,0.00016007,-0.00002626,-0.00058974,-0.00018157,0.00008
 089,0.00028173,0.00023867,-0.00007892,0.00010235,-0.00029995,0.0000078
 1,0.00048673,-0.00004148,-0.00034291,-0.00272642,0.00125730,-0.0000474
 9,0.00120644,-0.00063361,-0.00006771,0.00220580,-0.00563628,0.00274174
 ,0.00418076,-0.02072306,0.05604906,-0.00725978,-0.06517811,0.06380082,
 -0.00189525,-0.00357715,0.00960128,0.00063396,0.00070194,0.00084015,0.
 00002443,-0.00042042,-0.00002845,0.00003231,0.00012196,0.00015862,-0.0
 0000106,0.00004941,-0.00018644,-0.00005158,-0.00002138,0.00000051,-0.0
 0059434,-0.00092792,0.00035315,0.00046816,0.00028938,-0.00015973,0.003
 67980,0.00758089,-0.02582320,-0.00358794,-0.00590894,0.02311274,0.0104
 1437,0.06643466,0.03149822,0.06446663,-0.29527531,0.00130716,0.0010919
 7,-0.00388425,-0.00000127,-0.00040836,0.00049787,0.00002625,0.00023281
 ,0.00008828,-0.00003934,-0.00009490,-0.00007842,-0.00005262,0.00003560
 ,0.00008880,0.00015129,-0.00000327,0.00015701,0.00012003,0.00055914,-0
 .00005204,-0.00108748,-0.00049642,-0.00085319,0.00174566,0.00515333,-0
 .01618326,0.00054630,0.00063284,-0.00569661,-0.03485006,-0.07086421,0.
 31948599,-0.00605506,-0.00897145,0.03204439,-0.04904381,-0.00395504,0.
 02857548,-0.00043789,0.00051567,-0.00901489,-0.00001214,0.00058035,-0.
 00000995,-0.00017871,-0.00001314,0.00003115,0.00023297,0.00024136,-0.0
 0000154,-0.00050617,-0.00026013,-0.00085137,0.00091207,-0.00107884,-0.
 00032078,0.00006484,-0.00029306,-0.00047638,0.00140891,0.00021382,-0.0
 0060729,0.00147282,0.00083838,-0.00019477,-0.00622145,-0.00217325,0.00
 057074,0.05573192,-0.00130123,-0.00257398,0.00983332,-0.00449142,-0.06
 366205,0.05963635,0.00207011,0.00394493,-0.02861365,-0.00010628,0.0017
 3235,-0.00127290,-0.00001260,0.00024588,0.00013826,0.00019104,0.000300
 96,-0.00001462,-0.00070500,0.00040065,-0.00162352,-0.00093247,-0.00554
 413,-0.00100248,0.00013307,0.00057993,0.00037809,0.00034550,-0.0000820
 9,0.00011952,0.00004425,0.00049280,-0.00068154,-0.00237140,0.00029529,
 -0.00004294,0.01076895,0.06890659,0.00128490,0.00153532,-0.00392076,0.
 02714810,0.05623325,-0.28757570,0.00052266,0.00338340,-0.01973662,0.00
 011431,0.00262696,0.00133962,-0.00051952,-0.00032364,-0.00013309,0.000
 34041,-0.00027266,0.00087681,-0.00035817,0.00082998,-0.00159690,-0.000
 14138,-0.00307437,-0.00024205,-0.00008834,-0.00035429,0.00016076,0.000
 26401,0.00028085,0.00057120,0.00024284,-0.00032414,0.00037310,0.000785
 05,0.00009055,0.00147886,-0.03054292,-0.06089605,0.31391701,-0.0241473
 4,0.02304906,-0.00682807,-0.14274903,0.12212420,-0.03529520,0.00563535
 ,-0.00761932,0.00198212,-0.00054429,-0.00103397,-0.00073722,-0.0007672
 4,-0.00023756,0.00012067,0.00025596,-0.00012918,-0.00002890,-0.0003120
 8,-0.00012303,0.00025789,0.00077766,0.00093904,-0.00062221,-0.00004470
 ,-0.00044405,-0.00014525,0.00147825,-0.00007652,-0.00056599,-0.0055295
 6,-0.00295746,0.00146148,0.00149793,0.00025184,0.00021462,0.00244376,-
 0.00369541,0.00055869,0.16180802,-0.00776099,0.00842868,-0.00225354,0.
 12288651,-0.19097523,0.04236897,0.01436087,-0.02417643,0.00428713,-0.0
 0047235,-0.00179839,-0.00370140,-0.00145085,-0.00033845,0.00056885,0.0
 0041541,-0.00039587,-0.00020564,-0.00021349,0.00037394,0.00040748,-0.0
 0057903,-0.00178337,0.00233111,0.00012950,0.00190936,-0.00023935,0.000
 60797,0.00073888,-0.00014736,-0.00280555,0.00029536,0.00049159,0.00054
 864,0.00038953,-0.00017320,0.00365187,-0.00496204,0.00144934,-0.129730
 82,0.21226971,0.00458990,-0.00375596,0.00142324,-0.03673953,0.04266364
 ,-0.06298683,0.01255366,-0.01429375,0.00452045,-0.00093025,-0.00156686
 ,-0.00180239,-0.00079895,0.00012223,0.00060836,0.00022829,-0.00066258,
 -0.00022679,-0.00023873,0.00117338,0.00099569,-0.00001506,-0.00243577,
 0.00032477,0.00060607,0.00111582,-0.00063377,-0.00052652,0.00010614,0.
 00001117,0.00128666,0.00008608,0.00072854,-0.00010318,-0.00070347,0.00
 032495,-0.01944269,0.02325540,-0.00622923,0.03979717,-0.04477508,0.062
 88445,0.00012495,-0.00083253,-0.00027536,-0.00481859,0.00087053,0.0007
 6806,0.00583084,-0.00070253,0.00237024,-0.04734281,0.00494542,-0.04412
 281,0.00118668,0.00296585,-0.00698515,0.00612118,-0.00264059,-0.002202
 01,-0.00344185,0.00041441,0.00105984,0.01012706,-0.00210448,-0.0016144
 6,-0.00001014,0.00002044,0.00020890,-0.00026295,-0.00002799,0.00003880
 ,-0.00007924,-0.00003007,-0.00002302,-0.00004008,0.00001526,0.00000790
 ,0.00015818,0.00011978,0.00031072,0.00027143,0.00055773,0.00012384,0.0
 3499458,-0.00007961,0.00004436,-0.00011163,0.00102173,0.00188873,0.001
 83479,0.00431967,-0.00152300,0.02884673,0.00495332,-0.06743942,0.04916
 243,-0.00311584,0.01086505,-0.02353992,-0.00254949,-0.00393865,-0.0041
 5450,0.00049581,-0.00127643,0.00048642,-0.00226064,-0.00483656,0.00135
 643,0.00040531,0.00013943,0.00195515,0.00001656,-0.00000624,-0.0000046
 2,-0.00004651,-0.00000152,0.00003188,0.00012356,0.00006916,-0.00005732
 ,0.00005995,-0.00017531,-0.00108086,-0.00000632,0.00007309,-0.00028736
 ,-0.00399432,0.06612212,-0.00001039,0.00032430,0.00024419,0.00082444,-
 0.00147831,0.00066297,-0.00256555,0.00010783,-0.00890694,-0.04419051,0
 .05017521,-0.31810480,-0.00175851,0.00879064,-0.01424305,-0.00228001,-
 0.00488126,-0.00127886,0.00088768,-0.00009566,0.00118783,-0.00112406,0
 .00205500,0.00248714,-0.00013228,-0.00001033,-0.00067403,0.00013710,0.
 00000948,-0.00001324,0.00010267,0.00003905,-0.00002610,-0.00006706,-0.
 00007930,-0.00001011,0.00015972,0.00075998,0.00059705,-0.00011312,-0.0
 0020051,0.00014760,0.04954608,-0.05530256,0.33752619,0.00007624,-0.000
 08204,-0.00003381,-0.00005965,-0.00017715,0.00017770,0.00531392,-0.001
 52433,-0.00227987,0.00292112,-0.00709297,0.00276775,-0.04075004,-0.028
 49447,0.00514099,-0.00712385,0.00784724,-0.00105736,0.01155594,-0.0009
 1063,-0.00321519,0.00088264,-0.00024923,-0.00068947,-0.00184050,0.0004
 8372,0.00044365,-0.00003006,-0.00000345,0.00001931,-0.00001271,-0.0000
 0112,0.00000229,-0.00001234,-0.00000666,0.00001130,-0.00001834,0.00001
 244,0.00003707,-0.00001142,-0.00012597,-0.00002768,-0.00226275,0.00059
 720,0.00049678,0.03117984,0.00010801,-0.00015472,-0.00013098,0.0002015
 2,-0.00046553,0.00088619,-0.00194171,-0.00123451,-0.00352950,-0.001205
 56,-0.01613297,0.00997867,-0.02798706,-0.30796459,0.07832710,0.0022162
 7,-0.00239057,0.00665143,-0.00137974,0.00394398,-0.00018783,-0.0002870
 0,0.00033960,-0.00096609,0.00031332,0.00009476,-0.00009718,-0.00009964
 ,-0.00003103,0.00000008,-0.00002217,0.00002647,0.00000701,-0.00000808,
 0.00000620,0.00000973,-0.00000538,0.00003799,-0.00001773,-0.00010819,-
 0.00025639,-0.00015716,0.00040672,0.00046770,-0.00028205,0.02981230,0.
 32362260,0.00002344,-0.00008387,-0.00007920,0.00011847,-0.00066274,0.0
 0068794,-0.00216055,-0.00265940,-0.00255341,-0.00199698,-0.01989116,0.
 00957592,0.00456357,0.07580478,-0.07641329,0.00371189,0.03545013,-0.01
 823302,-0.00277503,0.00274218,-0.00400445,-0.00080489,-0.00112313,-0.0
 0226743,0.00063757,0.00085592,0.00052969,-0.00005466,-0.00000855,0.000
 00710,-0.00001005,0.00001051,0.00001273,-0.00003142,-0.00001036,0.0000
 0251,0.00001868,0.00006135,0.00003313,-0.00004740,-0.00021902,-0.00011
 889,0.00066429,0.00064159,0.00047885,-0.00178200,-0.09052555,0.0922261
 2,-0.00021267,0.00000753,-0.00000794,-0.00034079,-0.00034523,0.0003406
 5,0.00372446,-0.00110060,0.00056200,0.00090602,0.00018493,-0.00019027,
 0.00073736,-0.00042296,-0.00045506,-0.00162375,0.00041330,-0.00011190,
 -0.00362083,-0.00073988,0.00142535,0.00267087,0.00291260,0.00050365,-0
 .03666854,-0.01794653,-0.10365816,-0.00002081,0.00003294,-0.00002205,-
 0.00001078,-0.00000093,-0.00009057,0.00021868,0.00004973,-0.00016867,0
 .00004809,-0.00006930,0.00004158,-0.00006270,-0.00001944,-0.00036302,-
 0.00055652,0.00005963,0.00008702,0.00019197,-0.00001359,-0.00007492,0.
 03461995,0.00009849,0.00000617,-0.00012762,0.00002200,-0.00037862,-0.0
 0035644,-0.00118589,-0.00725961,0.00282924,0.00046249,0.00202441,0.001
 62873,-0.00051609,-0.00011848,-0.00201734,-0.00014623,-0.00059094,-0.0
 0124185,0.00150977,0.00351850,0.00165587,0.01033373,0.00252909,0.05009
 802,-0.02730666,-0.05878647,-0.09705179,-0.00007545,-0.00002936,-0.000
 10383,-0.00004105,-0.00000036,-0.00001277,0.00023792,0.00009551,-0.000
 04144,-0.00012005,0.00006223,-0.00008590,-0.00020231,0.00020763,0.0001
 1528,0.00001638,-0.00047251,0.00006849,-0.00008485,0.00009100,-0.00038
 269,0.01699780,0.05910180,0.00003534,0.00013120,0.00005420,0.00019571,
 0.00006258,0.00013929,-0.00014416,0.00173549,0.00252473,-0.00034138,0.
 00070854,-0.00137685,-0.00042223,-0.00146089,-0.00026500,0.00028023,0.
 00085626,-0.00082184,-0.00021714,-0.00870032,0.00205228,-0.00532683,0.
 01278599,-0.03431032,-0.09620998,-0.05129347,-0.44387659,0.00004441,0.
 00004110,0.00004379,-0.00000021,-0.00002317,0.00004196,-0.00024194,-0.
 00010264,-0.00009106,0.00006241,-0.00003457,0.00008682,-0.00000927,0.0
 0001063,0.00002871,0.00012416,0.00022335,-0.00007469,-0.00001144,0.000
 03386,0.00011570,0.10218230,0.04502604,0.47572887\\0.00000202,0.000012
 85,-0.00000407,0.00001298,-0.00002933,0.00001408,0.00001049,0.00003010
 ,-0.00004641,-0.00002969,-0.00004196,-0.00001362,0.00000520,0.00001634
 ,0.00006462,0.00000143,0.00005160,-0.00006525,-0.00002722,-0.00011428,
 0.00001799,0.00004240,0.00009210,0.00005874,-0.00000786,-0.00003047,0.
 00000837,-0.00000350,-0.00000283,0.00000662,-0.00000311,0.00000064,-0.
 00000135,0.00000242,-0.00000358,0.00000080,-0.00000603,0.00000916,0.00
 000738,-0.00000640,-0.00000513,-0.00001147,0.00001142,0.00000188,-0.00
 000158,0.00000039,-0.00000056,-0.00001200,-0.00000496,0.00001347,-0.00
 002286\\\@


 WE'RE IN THE POSITION OF A VISITOR FROM ANOTHER
 DIMENSION WHO COMES TO EARTH AND SEES A CHESS MATCH.
 ASSUMING HE KNOWS IT'S A GAME, HE'S GOT TWO PROBLEMS:
 FIRST, FIGURE OUT THE RULES, AND SECOND, FIGURE OUT HOW TO WIN.
 NINETY PERCENT OF SCIENCE (INCLUDING VIRTUALLY ALL OF CHEMISRY)
 IS IN THAT SECOND CATEGORY.  THEY'RE TRYING TO APPLY
 THE LAWS THAT ARE ALREADY KNOWN.

                     -- SHELDON GLASHOW, 1979
 Job cpu time:       0 days  1 hours 41 minutes 29.3 seconds.
 Elapsed time:       0 days  0 hours 25 minutes 23.1 seconds.
 File lengths (MBytes):  RWF=    117 Int=      0 D2E=      0 Chk=      8 Scr=      1
 Normal termination of Gaussian 16 at Thu Aug  4 12:13:43 2022.
### All Done ###
