### Starting Gaussian ###
 Entering Gaussian System, Link 0=g16
 Initial command:
 /cluster/software/gaussian/gaussian-16-A.03/avx2/g16/l1.exe "/local/scratch/ks29c/Gau-21490.inp" -scrdir="/local/scratch/ks29c/"
 Entering Link 1 = /cluster/software/gaussian/gaussian-16-A.03/avx2/g16/l1.exe PID=     21494.
  
 Copyright (c) 1988,1990,1992,1993,1995,1998,2003,2009,2016,
            Gaussian, Inc.  All Rights Reserved.
  
 This is part of the Gaussian(R) 16 program.  It is based on
 the Gaussian(R) 09 system (copyright 2009, Gaussian, Inc.),
 the Gaussian(R) 03 system (copyright 2003, Gaussian, Inc.),
 the Gaussian(R) 98 system (copyright 1998, Gaussian, Inc.),
 the Gaussian(R) 94 system (copyright 1995, Gaussian, Inc.),
 the Gaussian 92(TM) system (copyright 1992, Gaussian, Inc.),
 the Gaussian 90(TM) system (copyright 1990, Gaussian, Inc.),
 the Gaussian 88(TM) system (copyright 1988, Gaussian, Inc.),
 the Gaussian 86(TM) system (copyright 1986, Carnegie Mellon
 University), and the Gaussian 82(TM) system (copyright 1983,
 Carnegie Mellon University). Gaussian is a federally registered
 trademark of Gaussian, Inc.
  
 This software contains proprietary and confidential information,
 including trade secrets, belonging to Gaussian, Inc.
  
 This software is provided under written license and may be
 used, copied, transmitted, or stored only in accord with that
 written license.
  
 The following legend is applicable only to US Government
 contracts under FAR:
  
                    RESTRICTED RIGHTS LEGEND
  
 Use, reproduction and disclosure by the US Government is
 subject to restrictions as set forth in subparagraphs (a)
 and (c) of the Commercial Computer Software - Restricted
 Rights clause in FAR 52.227-19.
  
 Gaussian, Inc.
 340 Quinnipiac St., Bldg. 40, Wallingford CT 06492
  
  
 ---------------------------------------------------------------
 Warning -- This program may not be used in any manner that
 competes with the business of Gaussian, Inc. or will provide
 assistance to any competitor of Gaussian, Inc.  The licensee
 of this program is prohibited from giving any competitor of
 Gaussian, Inc. access to this program.  By using this program,
 the user acknowledges that Gaussian, Inc. is engaged in the
 business of creating and licensing software in the field of
 computational chemistry and represents and warrants to the
 licensee that it is not a competitor of Gaussian, Inc. and that
 it will not use this program in any manner prohibited above.
 ---------------------------------------------------------------
  

 Cite this work as:
 Gaussian 16, Revision A.03,
 M. J. Frisch, G. W. Trucks, H. B. Schlegel, G. E. Scuseria, 
 M. A. Robb, J. R. Cheeseman, G. Scalmani, V. Barone, 
 G. A. Petersson, H. Nakatsuji, X. Li, M. Caricato, A. V. Marenich, 
 J. Bloino, B. G. Janesko, R. Gomperts, B. Mennucci, H. P. Hratchian, 
 J. V. Ortiz, A. F. Izmaylov, J. L. Sonnenberg, D. Williams-Young, 
 F. Ding, F. Lipparini, F. Egidi, J. Goings, B. Peng, A. Petrone, 
 T. Henderson, D. Ranasinghe, V. G. Zakrzewski, J. Gao, N. Rega, 
 G. Zheng, W. Liang, M. Hada, M. Ehara, K. Toyota, R. Fukuda, 
 J. Hasegawa, M. Ishida, T. Nakajima, Y. Honda, O. Kitao, H. Nakai, 
 T. Vreven, K. Throssell, J. A. Montgomery, Jr., J. E. Peralta, 
 F. Ogliaro, M. J. Bearpark, J. J. Heyd, E. N. Brothers, K. N. Kudin, 
 V. N. Staroverov, T. A. Keith, R. Kobayashi, J. Normand, 
 K. Raghavachari, A. P. Rendell, J. C. Burant, S. S. Iyengar, 
 J. Tomasi, M. Cossi, J. M. Millam, M. Klene, C. Adamo, R. Cammi, 
 J. W. Ochterski, R. L. Martin, K. Morokuma, O. Farkas, 
 J. B. Foresman, and D. J. Fox, Gaussian, Inc., Wallingford CT, 2016.
 
 ******************************************
 Gaussian 16:  ES64L-G16RevA.03 25-Dec-2016
                 3-Aug-2022 
 ******************************************
 %chk=CCC1NC2CCCC12.chk
 %NProcShared=20
 Will use up to   20 processors via shared memory.
 -----------------------------
 # opt freq b3lyp/6-31g(2df,p)
 -----------------------------
 1/18=20,19=15,26=3,38=1/1,3;
 2/9=110,12=2,17=6,18=5,40=1/2;
 3/5=1,6=6,7=104,11=2,25=1,30=1,71=1,74=-5/1,2,3;
 4//1;
 5/5=2,38=5/2;
 6/7=2,8=2,9=2,10=2,28=1/1;
 7//1,2,3,16;
 1/18=20,19=15,26=3/3(2);
 2/9=110/2;
 99//99;
 2/9=110/2;
 3/5=1,6=6,7=104,11=2,25=1,30=1,71=1,74=-5/1,2,3;
 4/5=5,16=3,69=1/1;
 5/5=2,38=5/2;
 7//1,2,3,16;
 1/18=20,19=15,26=3/3(-5);
 2/9=110/2;
 6/7=2,8=2,9=2,10=2,19=2,28=1/1;
 99/9=1/99;
 -------------------
 Title Card Required
 -------------------
 Symbolic Z-matrix:
 Charge =  0 Multiplicity = 1
 C                     0.97418  -0.10431   0.21009 
 C                     2.4962   -0.11519   0.11271 
 C                     3.08853   0.95498  -0.80543 
 N                     2.27441   1.13911  -2.08425 
 C                     2.79964   2.50475  -2.0945 
 C                     1.97424   3.7459   -2.27053 
 C                     2.76451   4.70068  -1.34092 
 C                     3.5701    3.77251  -0.38806 
 C                     2.8262    2.46201  -0.53722 
 H                     0.62678  -0.93816   0.82562 
 H                     0.49592  -0.22519  -0.76665 
 H                     0.60518   0.82523   0.65349 
 H                     2.81298  -1.09928  -0.2517 
 H                     2.91625  -0.00474   1.12036 
 H                     4.1588    0.76305  -0.97333 
 H                     1.26901   1.11622  -1.96741 
 H                     3.75507   2.56291  -2.63382 
 H                     0.9412    3.62279  -1.92045 
 H                     1.94692   4.10619  -3.30263 
 H                     2.07725   5.34977  -0.79001 
 H                     3.45411   5.32942  -1.91264 
 H                     3.56777   4.15      0.63868 
 H                     4.61411   3.68139  -0.7132 
 H                     1.86888   2.57683  -0.00253 
 

 GradGradGradGradGradGradGradGradGradGradGradGradGradGradGradGradGradGrad
 Berny optimization.
 Initialization pass.
                           ----------------------------
                           !    Initial Parameters    !
                           ! (Angstroms and Degrees)  !
 --------------------------                            --------------------------
 ! Name  Definition              Value          Derivative Info.                !
 --------------------------------------------------------------------------------
 ! R1    R(1,2)                  1.5252         estimate D2E/DX2                !
 ! R2    R(1,10)                 1.0931         estimate D2E/DX2                !
 ! R3    R(1,11)                 1.0942         estimate D2E/DX2                !
 ! R4    R(1,12)                 1.094          estimate D2E/DX2                !
 ! R5    R(2,3)                  1.5294         estimate D2E/DX2                !
 ! R6    R(2,13)                 1.0962         estimate D2E/DX2                !
 ! R7    R(2,14)                 1.0973         estimate D2E/DX2                !
 ! R8    R(3,4)                  1.5271         estimate D2E/DX2                !
 ! R9    R(3,9)                  1.553          estimate D2E/DX2                !
 ! R10   R(3,15)                 1.1002         estimate D2E/DX2                !
 ! R11   R(4,5)                  1.4632         estimate D2E/DX2                !
 ! R12   R(4,16)                 1.0124         estimate D2E/DX2                !
 ! R13   R(5,6)                  1.5009         estimate D2E/DX2                !
 ! R14   R(5,9)                  1.5581         estimate D2E/DX2                !
 ! R15   R(5,17)                 1.0987         estimate D2E/DX2                !
 ! R16   R(6,7)                  1.5493         estimate D2E/DX2                !
 ! R17   R(6,18)                 1.0977         estimate D2E/DX2                !
 ! R18   R(6,19)                 1.0935         estimate D2E/DX2                !
 ! R19   R(7,8)                  1.5551         estimate D2E/DX2                !
 ! R20   R(7,20)                 1.0941         estimate D2E/DX2                !
 ! R21   R(7,21)                 1.0944         estimate D2E/DX2                !
 ! R22   R(8,9)                  1.5143         estimate D2E/DX2                !
 ! R23   R(8,22)                 1.0939         estimate D2E/DX2                !
 ! R24   R(8,23)                 1.0973         estimate D2E/DX2                !
 ! R25   R(9,24)                 1.1025         estimate D2E/DX2                !
 ! A1    A(2,1,10)             110.3447         estimate D2E/DX2                !
 ! A2    A(2,1,11)             112.2338         estimate D2E/DX2                !
 ! A3    A(2,1,12)             111.6257         estimate D2E/DX2                !
 ! A4    A(10,1,11)            106.2281         estimate D2E/DX2                !
 ! A5    A(10,1,12)            108.2241         estimate D2E/DX2                !
 ! A6    A(11,1,12)            107.9522         estimate D2E/DX2                !
 ! A7    A(1,2,3)              114.8239         estimate D2E/DX2                !
 ! A8    A(1,2,13)             108.4226         estimate D2E/DX2                !
 ! A9    A(1,2,14)             108.8246         estimate D2E/DX2                !
 ! A10   A(3,2,13)             108.4628         estimate D2E/DX2                !
 ! A11   A(3,2,14)             109.4264         estimate D2E/DX2                !
 ! A12   A(13,2,14)            106.5605         estimate D2E/DX2                !
 ! A13   A(2,3,4)              112.3718         estimate D2E/DX2                !
 ! A14   A(2,3,9)              120.6576         estimate D2E/DX2                !
 ! A15   A(2,3,15)             110.2608         estimate D2E/DX2                !
 ! A16   A(4,3,9)               86.4206         estimate D2E/DX2                !
 ! A17   A(4,3,15)             114.3201         estimate D2E/DX2                !
 ! A18   A(9,3,15)             111.0971         estimate D2E/DX2                !
 ! A19   A(3,4,5)               85.8157         estimate D2E/DX2                !
 ! A20   A(3,4,16)             115.4703         estimate D2E/DX2                !
 ! A21   A(5,4,16)             112.2334         estimate D2E/DX2                !
 ! A22   A(4,5,6)              125.1147         estimate D2E/DX2                !
 ! A23   A(4,5,9)               88.4824         estimate D2E/DX2                !
 ! A24   A(4,5,17)             111.4078         estimate D2E/DX2                !
 ! A25   A(6,5,9)               98.5852         estimate D2E/DX2                !
 ! A26   A(6,5,17)             112.1409         estimate D2E/DX2                !
 ! A27   A(9,5,17)             118.5061         estimate D2E/DX2                !
 ! A28   A(5,6,7)               99.1331         estimate D2E/DX2                !
 ! A29   A(5,6,18)             112.793          estimate D2E/DX2                !
 ! A30   A(5,6,19)             113.3839         estimate D2E/DX2                !
 ! A31   A(7,6,18)             110.9654         estimate D2E/DX2                !
 ! A32   A(7,6,19)             112.0873         estimate D2E/DX2                !
 ! A33   A(18,6,19)            108.328          estimate D2E/DX2                !
 ! A34   A(6,7,8)              105.3114         estimate D2E/DX2                !
 ! A35   A(6,7,20)             110.3232         estimate D2E/DX2                !
 ! A36   A(6,7,21)             111.2235         estimate D2E/DX2                !
 ! A37   A(8,7,20)             111.774          estimate D2E/DX2                !
 ! A38   A(8,7,21)             109.6677         estimate D2E/DX2                !
 ! A39   A(20,7,21)            108.5424         estimate D2E/DX2                !
 ! A40   A(7,8,9)              101.6358         estimate D2E/DX2                !
 ! A41   A(7,8,22)             111.5938         estimate D2E/DX2                !
 ! A42   A(7,8,23)             111.1546         estimate D2E/DX2                !
 ! A43   A(9,8,22)             112.9571         estimate D2E/DX2                !
 ! A44   A(9,8,23)             111.4913         estimate D2E/DX2                !
 ! A45   A(22,8,23)            107.987          estimate D2E/DX2                !
 ! A46   A(3,9,5)               81.772          estimate D2E/DX2                !
 ! A47   A(3,9,8)              140.6987         estimate D2E/DX2                !
 ! A48   A(3,9,24)             109.3589         estimate D2E/DX2                !
 ! A49   A(5,9,8)               94.7659         estimate D2E/DX2                !
 ! A50   A(5,9,24)             117.8437         estimate D2E/DX2                !
 ! A51   A(8,9,24)             106.7778         estimate D2E/DX2                !
 ! D1    D(10,1,2,3)           176.0289         estimate D2E/DX2                !
 ! D2    D(10,1,2,13)           54.572          estimate D2E/DX2                !
 ! D3    D(10,1,2,14)          -60.9561         estimate D2E/DX2                !
 ! D4    D(11,1,2,3)            57.7626         estimate D2E/DX2                !
 ! D5    D(11,1,2,13)          -63.6943         estimate D2E/DX2                !
 ! D6    D(11,1,2,14)         -179.2225         estimate D2E/DX2                !
 ! D7    D(12,1,2,3)           -63.5867         estimate D2E/DX2                !
 ! D8    D(12,1,2,13)          174.9564         estimate D2E/DX2                !
 ! D9    D(12,1,2,14)           59.4282         estimate D2E/DX2                !
 ! D10   D(1,2,3,4)            -40.3954         estimate D2E/DX2                !
 ! D11   D(1,2,3,9)             59.1304         estimate D2E/DX2                !
 ! D12   D(1,2,3,15)          -169.1997         estimate D2E/DX2                !
 ! D13   D(13,2,3,4)            81.0395         estimate D2E/DX2                !
 ! D14   D(13,2,3,9)          -179.4346         estimate D2E/DX2                !
 ! D15   D(13,2,3,15)          -47.7647         estimate D2E/DX2                !
 ! D16   D(14,2,3,4)          -163.0872         estimate D2E/DX2                !
 ! D17   D(14,2,3,9)           -63.5613         estimate D2E/DX2                !
 ! D18   D(14,2,3,15)           68.1086         estimate D2E/DX2                !
 ! D19   D(2,3,4,5)            153.32           estimate D2E/DX2                !
 ! D20   D(2,3,4,16)            40.6523         estimate D2E/DX2                !
 ! D21   D(9,3,4,5)             31.5345         estimate D2E/DX2                !
 ! D22   D(9,3,4,16)           -81.1331         estimate D2E/DX2                !
 ! D23   D(15,3,4,5)           -80.0272         estimate D2E/DX2                !
 ! D24   D(15,3,4,16)          167.3051         estimate D2E/DX2                !
 ! D25   D(2,3,9,5)           -143.6351         estimate D2E/DX2                !
 ! D26   D(2,3,9,8)            128.8938         estimate D2E/DX2                !
 ! D27   D(2,3,9,24)           -26.9302         estimate D2E/DX2                !
 ! D28   D(4,3,9,5)            -29.666          estimate D2E/DX2                !
 ! D29   D(4,3,9,8)           -117.1372         estimate D2E/DX2                !
 ! D30   D(4,3,9,24)            87.0388         estimate D2E/DX2                !
 ! D31   D(15,3,9,5)            85.0519         estimate D2E/DX2                !
 ! D32   D(15,3,9,8)            -2.4193         estimate D2E/DX2                !
 ! D33   D(15,3,9,24)         -158.2433         estimate D2E/DX2                !
 ! D34   D(3,4,5,6)           -130.7991         estimate D2E/DX2                !
 ! D35   D(3,4,5,9)            -31.3643         estimate D2E/DX2                !
 ! D36   D(3,4,5,17)            88.7955         estimate D2E/DX2                !
 ! D37   D(16,4,5,6)           -14.9553         estimate D2E/DX2                !
 ! D38   D(16,4,5,9)            84.4796         estimate D2E/DX2                !
 ! D39   D(16,4,5,17)         -155.3606         estimate D2E/DX2                !
 ! D40   D(4,5,6,7)            145.1488         estimate D2E/DX2                !
 ! D41   D(4,5,6,18)            27.7197         estimate D2E/DX2                !
 ! D42   D(4,5,6,19)           -95.8753         estimate D2E/DX2                !
 ! D43   D(9,5,6,7)             50.9385         estimate D2E/DX2                !
 ! D44   D(9,5,6,18)           -66.4907         estimate D2E/DX2                !
 ! D45   D(9,5,6,19)           169.9144         estimate D2E/DX2                !
 ! D46   D(17,5,6,7)           -74.6891         estimate D2E/DX2                !
 ! D47   D(17,5,6,18)          167.8818         estimate D2E/DX2                !
 ! D48   D(17,5,6,19)           44.2868         estimate D2E/DX2                !
 ! D49   D(4,5,9,3)             31.0468         estimate D2E/DX2                !
 ! D50   D(4,5,9,8)            171.6285         estimate D2E/DX2                !
 ! D51   D(4,5,9,24)           -76.5554         estimate D2E/DX2                !
 ! D52   D(6,5,9,3)            156.3524         estimate D2E/DX2                !
 ! D53   D(6,5,9,8)            -63.0658         estimate D2E/DX2                !
 ! D54   D(6,5,9,24)            48.7502         estimate D2E/DX2                !
 ! D55   D(17,5,9,3)           -82.6012         estimate D2E/DX2                !
 ! D56   D(17,5,9,8)            57.9805         estimate D2E/DX2                !
 ! D57   D(17,5,9,24)          169.7966         estimate D2E/DX2                !
 ! D58   D(5,6,7,8)            -20.4599         estimate D2E/DX2                !
 ! D59   D(5,6,7,20)          -141.2257         estimate D2E/DX2                !
 ! D60   D(5,6,7,21)            98.2688         estimate D2E/DX2                !
 ! D61   D(18,6,7,8)            98.3429         estimate D2E/DX2                !
 ! D62   D(18,6,7,20)          -22.4228         estimate D2E/DX2                !
 ! D63   D(18,6,7,21)         -142.9284         estimate D2E/DX2                !
 ! D64   D(19,6,7,8)          -140.3978         estimate D2E/DX2                !
 ! D65   D(19,6,7,20)           98.8364         estimate D2E/DX2                !
 ! D66   D(19,6,7,21)          -21.6692         estimate D2E/DX2                !
 ! D67   D(6,7,8,9)            -18.4205         estimate D2E/DX2                !
 ! D68   D(6,7,8,22)          -139.0703         estimate D2E/DX2                !
 ! D69   D(6,7,8,23)           100.3145         estimate D2E/DX2                !
 ! D70   D(20,7,8,9)           101.3893         estimate D2E/DX2                !
 ! D71   D(20,7,8,22)          -19.2605         estimate D2E/DX2                !
 ! D72   D(20,7,8,23)         -139.8757         estimate D2E/DX2                !
 ! D73   D(21,7,8,9)          -138.185          estimate D2E/DX2                !
 ! D74   D(21,7,8,22)          101.1652         estimate D2E/DX2                !
 ! D75   D(21,7,8,23)          -19.45           estimate D2E/DX2                !
 ! D76   D(7,8,9,3)            130.728          estimate D2E/DX2                !
 ! D77   D(7,8,9,5)             47.9013         estimate D2E/DX2                !
 ! D78   D(7,8,9,24)           -73.0733         estimate D2E/DX2                !
 ! D79   D(22,8,9,3)          -109.5829         estimate D2E/DX2                !
 ! D80   D(22,8,9,5)           167.5904         estimate D2E/DX2                !
 ! D81   D(22,8,9,24)           46.6158         estimate D2E/DX2                !
 ! D82   D(23,8,9,3)            12.2339         estimate D2E/DX2                !
 ! D83   D(23,8,9,5)           -70.5928         estimate D2E/DX2                !
 ! D84   D(23,8,9,24)          168.4326         estimate D2E/DX2                !
 --------------------------------------------------------------------------------
 Trust Radius=3.00D-01 FncErr=1.00D-07 GrdErr=1.00D-06 EigMax=2.50D+02 EigMin=1.00D-04
 Number of steps in this run=    144 maximum allowed number of steps=    144.
 GradGradGradGradGradGradGradGradGradGradGradGradGradGradGradGradGradGrad

                          Input orientation:                          
 ---------------------------------------------------------------------
 Center     Atomic      Atomic             Coordinates (Angstroms)
 Number     Number       Type             X           Y           Z
 ---------------------------------------------------------------------
      1          6           0        0.974180   -0.104310    0.210090
      2          6           0        2.496200   -0.115190    0.112710
      3          6           0        3.088530    0.954980   -0.805430
      4          7           0        2.274410    1.139110   -2.084250
      5          6           0        2.799640    2.504750   -2.094500
      6          6           0        1.974240    3.745900   -2.270530
      7          6           0        2.764510    4.700680   -1.340920
      8          6           0        3.570100    3.772510   -0.388060
      9          6           0        2.826200    2.462010   -0.537220
     10          1           0        0.626780   -0.938160    0.825620
     11          1           0        0.495920   -0.225190   -0.766650
     12          1           0        0.605180    0.825230    0.653490
     13          1           0        2.812980   -1.099280   -0.251700
     14          1           0        2.916250   -0.004740    1.120360
     15          1           0        4.158800    0.763050   -0.973330
     16          1           0        1.269010    1.116220   -1.967410
     17          1           0        3.755070    2.562910   -2.633820
     18          1           0        0.941200    3.622790   -1.920450
     19          1           0        1.946920    4.106190   -3.302630
     20          1           0        2.077250    5.349770   -0.790010
     21          1           0        3.454110    5.329420   -1.912640
     22          1           0        3.567770    4.150000    0.638680
     23          1           0        4.614110    3.681390   -0.713200
     24          1           0        1.868880    2.576830   -0.002530
 ---------------------------------------------------------------------
                    Distance matrix (angstroms):
                    1          2          3          4          5
     1  C    0.000000
     2  C    1.525171   0.000000
     3  C    2.573685   1.529412   0.000000
     4  N    2.915594   2.539506   1.527114   0.000000
     5  C    3.930729   3.439177   2.036405   1.463197   0.000000
     6  C    4.688039   4.567307   3.343261   2.630619   1.500908
     7  C    5.357130   5.037622   3.797632   3.671174   2.321901
     8  C    4.703862   4.064264   2.888699   3.389789   2.261142
     9  C    3.251838   2.678296   1.553027   2.108990   1.558093
    10  H    1.093101   2.163389   3.507779   3.936633   5.010195
    11  H    1.094242   2.187806   2.848847   2.600079   3.810890
    12  H    1.093988   2.180089   2.883108   3.221812   3.897165
    13  H    2.141121   1.096165   2.145351   2.942565   4.047854
    14  H    2.147124   1.097269   2.158567   3.462640   4.080008
    15  H    3.506366   2.171411   1.100230   2.219570   2.477470
    16  H    2.513588   2.710953   2.164913   1.012425   2.070506
    17  H    4.789075   4.037375   2.524426   2.126403   1.098679
    18  H    4.293200   4.530371   3.601598   2.823641   2.175800
    19  H    5.568998   5.457683   4.179642   3.224169   2.179752
    20  H    5.653667   5.554837   4.509668   4.409488   3.212115
    21  H    6.338885   5.887564   4.527172   4.356586   2.905196
    22  H    5.000955   4.429080   3.538824   4.260585   3.281333
    23  H    5.332268   4.425120   3.125574   3.717144   2.566081
    24  H    2.834468   2.766547   2.182336   2.562236   2.290818
                    6          7          8          9         10
     6  C    0.000000
     7  C    1.549292   0.000000
     8  C    2.468030   1.555126   0.000000
     9  C    2.319175   2.379366   1.514281   0.000000
    10  H    5.774272   6.407831   5.685645   4.272697   0.000000
    11  H    4.496292   5.453483   5.057224   3.564251   1.749507
    12  H    4.353680   4.864102   4.308368   3.004957   1.771903
    13  H    5.315537   5.901549   4.932156   3.572742   2.442550
    14  H    5.143230   5.312429   4.119523   2.973304   2.489943
    15  H    3.918217   4.193340   3.121852   2.202834   4.313410
    16  H    2.739425   3.934128   3.852952   2.506279   3.526181
    17  H    2.168594   2.687538   2.557496   2.295367   5.831931
    18  H    1.097672   2.195942   3.046597   2.610356   5.333107
    19  H    1.093520   2.206848   3.352726   3.335259   6.650615
    20  H    2.185166   1.094142   2.208600   2.993992   6.652232
    21  H    2.196733   1.094407   2.182147   3.241619   7.400974
    22  H    3.341577   2.206194   1.093937   2.186773   5.879944
    23  H    3.065673   2.203181   1.097258   2.171285   6.293410
    24  H    2.553752   2.665367   2.114813   1.102515   3.818874
                   11         12         13         14         15
    11  H    0.000000
    12  H    1.769779   0.000000
    13  H    2.529422   3.065532   0.000000
    14  H    3.076914   2.499572   1.758190   0.000000
    15  H    3.799477   3.908788   2.408372   2.552836   0.000000
    16  H    1.959304   2.719276   3.199366   3.674816   3.076331
    17  H    4.677808   4.873166   4.469191   4.624966   2.481879
    18  H    4.041841   3.816336   5.346609   5.128969   4.407732
    19  H    5.224696   5.311859   6.095503   6.115733   4.636231
    20  H    5.794940   4.972137   6.513165   5.746670   5.040283
    21  H    6.396708   5.915163   6.670679   6.159679   4.714937
    22  H    5.527522   4.453230   5.377492   4.233008   3.797278
    23  H    5.676593   5.108523   5.129508   4.453339   2.965077
    24  H    3.212509   2.257300   3.803577   3.003726   3.078309
                   16         17         18         19         20
    16  H    0.000000
    17  H    2.952543   0.000000
    18  H    2.528351   3.090325   0.000000
    19  H    3.343994   2.469499   1.776392   0.000000
    20  H    4.467938   3.739158   2.356048   2.806552   0.000000
    21  H    4.746442   2.874762   3.037658   2.387464   1.776642
    22  H    4.613006   3.641867   3.704857   4.261807   2.387939
    23  H    4.398049   2.382798   3.866672   3.741591   3.037277
    24  H    2.520710   3.237529   2.373403   3.638089   2.890111
                   21         22         23         24
    21  H    0.000000
    22  H    2.813038   0.000000
    23  H    2.345263   1.772569   0.000000
    24  H    3.706511   2.402549   3.043254   0.000000
 Stoichiometry    C8H15N
 Framework group  C1[X(C8H15N)]
 Deg. of freedom    66
 Full point group                 C1      NOp   1
 Largest Abelian subgroup         C1      NOp   1
 Largest concise Abelian subgroup C1      NOp   1
                         Standard orientation:                         
 ---------------------------------------------------------------------
 Center     Atomic      Atomic             Coordinates (Angstroms)
 Number     Number       Type             X           Y           Z
 ---------------------------------------------------------------------
      1          6           0        2.742880   -0.154371    1.027325
      2          6           0        2.395202    0.579491   -0.263687
      3          6           0        0.991819    0.299613   -0.803395
      4          7           0        0.599511   -1.170050   -0.668272
      5          6           0       -0.781158   -0.687080   -0.630386
      6          6           0       -1.807388   -1.085234    0.389934
      7          6           0       -2.572891    0.256770    0.505426
      8          6           0       -1.591025    1.337060   -0.030605
      9          6           0       -0.263844    0.612980    0.055095
     10          1           0        3.780800    0.042042    1.308419
     11          1           0        2.654492   -1.240049    0.923131
     12          1           0        2.099265    0.158467    1.854791
     13          1           0        3.125086    0.295819   -1.030744
     14          1           0        2.515370    1.657998   -0.101258
     15          1           0        0.887096    0.704842   -1.820905
     16          1           0        0.873328   -1.615857    0.198495
     17          1           0       -1.208038   -0.613272   -1.640049
     18          1           0       -1.362419   -1.367694    1.352796
     19          1           0       -2.455521   -1.901080    0.058115
     20          1           0       -2.854972    0.445051    1.545679
     21          1           0       -3.480934    0.248751   -0.105410
     22          1           0       -1.621296    2.245880    0.577531
     23          1           0       -1.832254    1.613195   -1.064788
     24          1           0        0.001841    0.560886    1.123850
 ---------------------------------------------------------------------
 Rotational constants (GHZ):           3.3647567           1.0755886           0.9990506
 Standard basis: 6-31G(2df,p) (6D, 7F)
 There are   354 symmetry adapted cartesian basis functions of A   symmetry.
 There are   327 symmetry adapted basis functions of A   symmetry.
   327 basis functions,   501 primitive gaussians,   354 cartesian basis functions
    35 alpha electrons       35 beta electrons
       nuclear repulsion energy       484.3357404047 Hartrees.
 NAtoms=   24 NActive=   24 NUniq=   24 SFac= 1.00D+00 NAtFMM=   60 NAOKFM=F Big=F
 Integral buffers will be    131072 words long.
 Raffenetti 2 integral format.
 Two-electron integral symmetry is turned on.
 One-electron integrals computed using PRISM.
 PrsmSu:  requested number of processors reduced to:  13 ShMem   1 Linda.
 NBasis=   327 RedAO= T EigKep=  2.78D-04  NBF=   327
 NBsUse=   327 1.00D-06 EigRej= -1.00D+00 NBFU=   327
 ExpMin= 1.61D-01 ExpMax= 4.17D+03 ExpMxC= 6.27D+02 IAcc=3 IRadAn=         5 AccDes= 0.00D+00
 Harris functional with IExCor=  402 and IRadAn=       5 diagonalized for initial guess.
 HarFok:  IExCor=  402 AccDes= 0.00D+00 IRadAn=         5 IDoV= 1 UseB2=F ITyADJ=14
 ICtDFT=  3500011 ScaDFX=  1.000000  1.000000  1.000000  1.000000
 FoFCou: FMM=F IPFlag=           0 FMFlag=      100000 FMFlg1=           0
         NFxFlg=           0 DoJE=T BraDBF=F KetDBF=T FulRan=T
         wScrn=  0.000000 ICntrl=       500 IOpCl=  0 I1Cent=   200000004 NGrid=           0
         NMat0=    1 NMatS0=      1 NMatT0=    0 NMatD0=    1 NMtDS0=    0 NMtDT0=    0
 Petite list used in FoFCou.
 Requested convergence on RMS density matrix=1.00D-08 within 128 cycles.
 Requested convergence on MAX density matrix=1.00D-06.
 Requested convergence on             energy=1.00D-06.
 No special actions if energy rises.
 Integral accuracy reduced to 1.0D-05 until final iterations.
 Initial convergence to 1.0D-05 achieved.  Increase integral accuracy.
 SCF Done:  E(RB3LYP) =  -368.561705807     A.U. after   12 cycles
            NFock= 12  Conv=0.62D-08     -V/T= 2.0079

 **********************************************************************

            Population analysis using the SCF density.

 **********************************************************************

 Orbital symmetries:
       Occupied  (A) (A) (A) (A) (A) (A) (A) (A) (A) (A) (A) (A)
                 (A) (A) (A) (A) (A) (A) (A) (A) (A) (A) (A) (A)
                 (A) (A) (A) (A) (A) (A) (A) (A) (A) (A) (A)
       Virtual   (A) (A) (A) (A) (A) (A) (A) (A) (A) (A) (A) (A)
                 (A) (A) (A) (A) (A) (A) (A) (A) (A) (A) (A) (A)
                 (A) (A) (A) (A) (A) (A) (A) (A) (A) (A) (A) (A)
                 (A) (A) (A) (A) (A) (A) (A) (A) (A) (A) (A) (A)
                 (A) (A) (A) (A) (A) (A) (A) (A) (A) (A) (A) (A)
                 (A) (A) (A) (A) (A) (A) (A) (A) (A) (A) (A) (A)
                 (A) (A) (A) (A) (A) (A) (A) (A) (A) (A) (A) (A)
                 (A) (A) (A) (A) (A) (A) (A) (A) (A) (A) (A) (A)
                 (A) (A) (A) (A) (A) (A) (A) (A) (A) (A) (A) (A)
                 (A) (A) (A) (A) (A) (A) (A) (A) (A) (A) (A) (A)
                 (A) (A) (A) (A) (A) (A) (A) (A) (A) (A) (A) (A)
                 (A) (A) (A) (A) (A) (A) (A) (A) (A) (A) (A) (A)
                 (A) (A) (A) (A) (A) (A) (A) (A) (A) (A) (A) (A)
                 (A) (A) (A) (A) (A) (A) (A) (A) (A) (A) (A) (A)
                 (A) (A) (A) (A) (A) (A) (A) (A) (A) (A) (A) (A)
                 (A) (A) (A) (A) (A) (A) (A) (A) (A) (A) (A) (A)
                 (A) (A) (A) (A) (A) (A) (A) (A) (A) (A) (A) (A)
                 (A) (A) (A) (A) (A) (A) (A) (A) (A) (A) (A) (A)
                 (A) (A) (A) (A) (A) (A) (A) (A) (A) (A) (A) (A)
                 (A) (A) (A) (A) (A) (A) (A) (A) (A) (A) (A) (A)
                 (A) (A) (A) (A) (A) (A) (A) (A) (A) (A) (A) (A)
                 (A) (A) (A) (A) (A) (A) (A) (A) (A) (A) (A) (A)
                 (A) (A) (A) (A) (A) (A) (A) (A) (A) (A) (A) (A)
                 (A) (A) (A) (A) (A) (A) (A) (A) (A) (A) (A) (A)
                 (A) (A) (A) (A)
 The electronic state is 1-A.
 Alpha  occ. eigenvalues --  -14.29393 -10.21359 -10.19294 -10.17871 -10.17622
 Alpha  occ. eigenvalues --  -10.17541 -10.17297 -10.17207 -10.17130  -0.92913
 Alpha  occ. eigenvalues --   -0.81379  -0.76719  -0.71174  -0.66638  -0.65588
 Alpha  occ. eigenvalues --   -0.58818  -0.57901  -0.53726  -0.47797  -0.46329
 Alpha  occ. eigenvalues --   -0.44762  -0.43730  -0.43304  -0.41122  -0.39855
 Alpha  occ. eigenvalues --   -0.37470  -0.35969  -0.34956  -0.34533  -0.33164
 Alpha  occ. eigenvalues --   -0.32688  -0.31515  -0.30479  -0.25514  -0.19304
 Alpha virt. eigenvalues --    0.07197   0.08819   0.09125   0.10376   0.12434
 Alpha virt. eigenvalues --    0.13877   0.14373   0.14964   0.15811   0.16626
 Alpha virt. eigenvalues --    0.17857   0.18101   0.19147   0.19636   0.20497
 Alpha virt. eigenvalues --    0.22120   0.22817   0.23232   0.24022   0.24896
 Alpha virt. eigenvalues --    0.25650   0.28748   0.29946   0.34241   0.35593
 Alpha virt. eigenvalues --    0.45011   0.45629   0.47551   0.48087   0.49528
 Alpha virt. eigenvalues --    0.50644   0.51042   0.52687   0.52819   0.54489
 Alpha virt. eigenvalues --    0.55816   0.56485   0.57660   0.58726   0.59296
 Alpha virt. eigenvalues --    0.60226   0.62120   0.63755   0.65727   0.65764
 Alpha virt. eigenvalues --    0.68533   0.69662   0.71523   0.73493   0.74359
 Alpha virt. eigenvalues --    0.74575   0.75621   0.76453   0.77094   0.77472
 Alpha virt. eigenvalues --    0.78717   0.79178   0.80612   0.81895   0.82424
 Alpha virt. eigenvalues --    0.83317   0.84683   0.85831   0.88344   0.89629
 Alpha virt. eigenvalues --    0.91266   0.91816   0.95332   0.98592   1.00692
 Alpha virt. eigenvalues --    1.03493   1.08315   1.09358   1.14222   1.16831
 Alpha virt. eigenvalues --    1.18535   1.20138   1.21813   1.23818   1.26147
 Alpha virt. eigenvalues --    1.27489   1.29793   1.31781   1.36419   1.39339
 Alpha virt. eigenvalues --    1.40270   1.41991   1.42074   1.43693   1.45686
 Alpha virt. eigenvalues --    1.47118   1.49620   1.51084   1.52783   1.53803
 Alpha virt. eigenvalues --    1.55356   1.57316   1.58390   1.59578   1.62123
 Alpha virt. eigenvalues --    1.63958   1.66652   1.67452   1.70447   1.73076
 Alpha virt. eigenvalues --    1.74610   1.75746   1.76453   1.79622   1.83464
 Alpha virt. eigenvalues --    1.84442   1.88026   1.90098   1.91988   1.93145
 Alpha virt. eigenvalues --    1.95772   1.97045   1.99585   2.02359   2.06777
 Alpha virt. eigenvalues --    2.10327   2.11263   2.16541   2.19265   2.22541
 Alpha virt. eigenvalues --    2.26579   2.28857   2.31921   2.33356   2.34641
 Alpha virt. eigenvalues --    2.35649   2.37936   2.39359   2.40932   2.44044
 Alpha virt. eigenvalues --    2.46497   2.47605   2.49043   2.51033   2.53966
 Alpha virt. eigenvalues --    2.63133   2.64954   2.70275   2.71395   2.72422
 Alpha virt. eigenvalues --    2.73818   2.75186   2.77048   2.79054   2.79294
 Alpha virt. eigenvalues --    2.80533   2.81215   2.85368   2.85529   2.87063
 Alpha virt. eigenvalues --    2.88460   2.89286   2.91276   2.92170   2.94105
 Alpha virt. eigenvalues --    2.96113   2.96627   3.00415   3.03055   3.04446
 Alpha virt. eigenvalues --    3.05504   3.06687   3.08420   3.11501   3.13998
 Alpha virt. eigenvalues --    3.15771   3.17359   3.18393   3.20450   3.22243
 Alpha virt. eigenvalues --    3.25054   3.27312   3.30417   3.32220   3.34350
 Alpha virt. eigenvalues --    3.38094   3.38672   3.40022   3.40603   3.43850
 Alpha virt. eigenvalues --    3.45142   3.48099   3.50854   3.52797   3.53966
 Alpha virt. eigenvalues --    3.55704   3.57999   3.58625   3.61566   3.64152
 Alpha virt. eigenvalues --    3.66044   3.68819   3.71072   3.73636   3.75921
 Alpha virt. eigenvalues --    3.77398   3.78757   3.80659   3.87371   3.89595
 Alpha virt. eigenvalues --    3.91773   3.95747   3.98497   4.01306   4.01806
 Alpha virt. eigenvalues --    4.04262   4.06670   4.08362   4.15765   4.21821
 Alpha virt. eigenvalues --    4.22968   4.24875   4.31832   4.33297   4.36989
 Alpha virt. eigenvalues --    4.40007   4.41376   4.43462   4.44891   4.46847
 Alpha virt. eigenvalues --    4.48424   4.50477   4.51181   4.54247   4.54589
 Alpha virt. eigenvalues --    4.56266   4.60223   4.61655   4.63340   4.63920
 Alpha virt. eigenvalues --    4.66002   4.66680   4.67581   4.68460   4.71328
 Alpha virt. eigenvalues --    4.71821   4.73042   4.74171   4.77728   4.78989
 Alpha virt. eigenvalues --    4.79696   4.80950   4.82781   4.85109   4.86646
 Alpha virt. eigenvalues --    4.87107   4.87310   4.90447   4.91326   4.92412
 Alpha virt. eigenvalues --    4.93617   4.96617   4.98753   5.00599   5.06143
 Alpha virt. eigenvalues --    5.07160   5.12394   5.14476   5.17505   5.20685
 Alpha virt. eigenvalues --    5.21618   5.24826   5.26806   5.36497   5.38640
 Alpha virt. eigenvalues --    5.39079   5.45596   5.46944   5.52324   5.52788
 Alpha virt. eigenvalues --    5.59221   5.62779   5.75683   5.81604   5.86928
 Alpha virt. eigenvalues --    6.37562   7.25446  10.84893  11.36480  11.42421
 Alpha virt. eigenvalues --   11.81628  11.94508  12.06437  12.30879  12.48720
 Alpha virt. eigenvalues --   12.88789  16.24109
          Condensed to atoms (all electrons):
               1          2          3          4          5          6
     1  C    4.947830   0.412658  -0.024612  -0.007528   0.000384  -0.000021
     2  C    0.412658   4.882912   0.377017  -0.042771   0.013550  -0.000730
     3  C   -0.024612   0.377017   4.817440   0.381381  -0.125995   0.005251
     4  N   -0.007528  -0.042771   0.381381   6.619066   0.306124  -0.017124
     5  C    0.000384   0.013550  -0.125995   0.306124   4.761863   0.414098
     6  C   -0.000021  -0.000730   0.005251  -0.017124   0.414098   4.950563
     7  C   -0.000000  -0.000117   0.006018   0.004847  -0.070717   0.392660
     8  C    0.000201   0.000159  -0.005153   0.017815  -0.063253  -0.062816
     9  C   -0.009533  -0.003917   0.360435  -0.176048   0.419066  -0.036744
    10  H    0.374702  -0.023945   0.002827   0.000455  -0.000039  -0.000001
    11  H    0.378688  -0.028381  -0.005488  -0.000205   0.000310  -0.000000
    12  H    0.377341  -0.028884  -0.003367  -0.000882  -0.000316   0.000033
    13  H   -0.038969   0.361606  -0.019649  -0.000470  -0.000370   0.000009
    14  H   -0.036099   0.357736  -0.022498   0.003425  -0.000340   0.000028
    15  H    0.004833  -0.052047   0.361837  -0.021347  -0.003556   0.000258
    16  H    0.007278  -0.009160  -0.036489   0.339308  -0.049759  -0.006443
    17  H    0.000025  -0.000336   0.002780  -0.023244   0.361521  -0.053058
    18  H    0.000009  -0.000044   0.001033  -0.003650  -0.021281   0.360441
    19  H    0.000000   0.000010  -0.000412   0.000921  -0.026111   0.354475
    20  H   -0.000001   0.000001  -0.000143  -0.000137   0.002359  -0.026231
    21  H   -0.000000   0.000001  -0.000139  -0.000076   0.001925  -0.026609
    22  H   -0.000001   0.000148   0.000383  -0.000646   0.007926   0.004822
    23  H    0.000002  -0.000098  -0.006863   0.000545  -0.004427   0.001326
    24  H    0.003291  -0.010542  -0.042652  -0.001168  -0.018773  -0.003515
               7          8          9         10         11         12
     1  C   -0.000000   0.000201  -0.009533   0.374702   0.378688   0.377341
     2  C   -0.000117   0.000159  -0.003917  -0.023945  -0.028381  -0.028884
     3  C    0.006018  -0.005153   0.360435   0.002827  -0.005488  -0.003367
     4  N    0.004847   0.017815  -0.176048   0.000455  -0.000205  -0.000882
     5  C   -0.070717  -0.063253   0.419066  -0.000039   0.000310  -0.000316
     6  C    0.392660  -0.062816  -0.036744  -0.000001  -0.000000   0.000033
     7  C    4.914644   0.405257  -0.071320  -0.000000  -0.000002   0.000007
     8  C    0.405257   5.003464   0.368456  -0.000000  -0.000020  -0.000075
     9  C   -0.071320   0.368456   4.892781   0.000110   0.000015   0.001694
    10  H   -0.000000  -0.000000   0.000110   0.599191  -0.030701  -0.030474
    11  H   -0.000002  -0.000020   0.000015  -0.030701   0.592058  -0.035970
    12  H    0.000007  -0.000075   0.001694  -0.030474  -0.035970   0.597322
    13  H    0.000003  -0.000053   0.003495  -0.003782  -0.003319   0.005701
    14  H   -0.000005   0.000260  -0.004690  -0.002024   0.005463  -0.004562
    15  H   -0.000193  -0.003466  -0.051204  -0.000120  -0.000042  -0.000091
    16  H   -0.000239  -0.000052  -0.002153  -0.000171   0.003319   0.000675
    17  H    0.000982  -0.002394  -0.043078   0.000001  -0.000008  -0.000003
    18  H   -0.023383   0.001175  -0.009963   0.000001  -0.000030   0.000035
    19  H   -0.035384   0.004807   0.008611   0.000000   0.000001  -0.000001
    20  H    0.368393  -0.027155   0.001500   0.000000   0.000000  -0.000001
    21  H    0.368917  -0.027659   0.001933   0.000000   0.000000  -0.000000
    22  H   -0.038940   0.346176  -0.018415  -0.000000   0.000001   0.000001
    23  H   -0.030845   0.365428  -0.026560   0.000000   0.000000  -0.000000
    24  H   -0.004560  -0.053118   0.358323  -0.000129   0.000084   0.004347
              13         14         15         16         17         18
     1  C   -0.038969  -0.036099   0.004833   0.007278   0.000025   0.000009
     2  C    0.361606   0.357736  -0.052047  -0.009160  -0.000336  -0.000044
     3  C   -0.019649  -0.022498   0.361837  -0.036489   0.002780   0.001033
     4  N   -0.000470   0.003425  -0.021347   0.339308  -0.023244  -0.003650
     5  C   -0.000370  -0.000340  -0.003556  -0.049759   0.361521  -0.021281
     6  C    0.000009   0.000028   0.000258  -0.006443  -0.053058   0.360441
     7  C    0.000003  -0.000005  -0.000193  -0.000239   0.000982  -0.023383
     8  C   -0.000053   0.000260  -0.003466  -0.000052  -0.002394   0.001175
     9  C    0.003495  -0.004690  -0.051204  -0.002153  -0.043078  -0.009963
    10  H   -0.003782  -0.002024  -0.000120  -0.000171   0.000001   0.000001
    11  H   -0.003319   0.005463  -0.000042   0.003319  -0.000008  -0.000030
    12  H    0.005701  -0.004562  -0.000091   0.000675  -0.000003   0.000035
    13  H    0.634835  -0.037541  -0.006504   0.000077  -0.000016   0.000000
    14  H   -0.037541   0.641391   0.001601   0.000020   0.000009   0.000002
    15  H   -0.006504   0.001601   0.668606   0.004391   0.005215   0.000007
    16  H    0.000077   0.000020   0.004391   0.514445   0.005745   0.005789
    17  H   -0.000016   0.000009   0.005215   0.005745   0.650120   0.005873
    18  H    0.000000   0.000002   0.000007   0.005789   0.005873   0.643099
    19  H   -0.000000  -0.000000   0.000030   0.000191  -0.004788  -0.044014
    20  H   -0.000000   0.000001   0.000003  -0.000013  -0.000273  -0.011090
    21  H   -0.000000   0.000000  -0.000000   0.000008   0.001082   0.004849
    22  H   -0.000000  -0.000031  -0.000135   0.000020   0.000056  -0.000047
    23  H   -0.000002   0.000011   0.003130   0.000001   0.001839  -0.000234
    24  H   -0.000048   0.000589   0.006378   0.002546   0.003405   0.001275
              19         20         21         22         23         24
     1  C    0.000000  -0.000001  -0.000000  -0.000001   0.000002   0.003291
     2  C    0.000010   0.000001   0.000001   0.000148  -0.000098  -0.010542
     3  C   -0.000412  -0.000143  -0.000139   0.000383  -0.006863  -0.042652
     4  N    0.000921  -0.000137  -0.000076  -0.000646   0.000545  -0.001168
     5  C   -0.026111   0.002359   0.001925   0.007926  -0.004427  -0.018773
     6  C    0.354475  -0.026231  -0.026609   0.004822   0.001326  -0.003515
     7  C   -0.035384   0.368393   0.368917  -0.038940  -0.030845  -0.004560
     8  C    0.004807  -0.027155  -0.027659   0.346176   0.365428  -0.053118
     9  C    0.008611   0.001500   0.001933  -0.018415  -0.026560   0.358323
    10  H    0.000000   0.000000   0.000000  -0.000000   0.000000  -0.000129
    11  H    0.000001   0.000000   0.000000   0.000001   0.000000   0.000084
    12  H   -0.000001  -0.000001  -0.000000   0.000001  -0.000000   0.004347
    13  H   -0.000000  -0.000000  -0.000000  -0.000000  -0.000002  -0.000048
    14  H   -0.000000   0.000001   0.000000  -0.000031   0.000011   0.000589
    15  H    0.000030   0.000003  -0.000000  -0.000135   0.003130   0.006378
    16  H    0.000191  -0.000013   0.000008   0.000020   0.000001   0.002546
    17  H   -0.004788  -0.000273   0.001082   0.000056   0.001839   0.003405
    18  H   -0.044014  -0.011090   0.004849  -0.000047  -0.000234   0.001275
    19  H    0.664506   0.004000  -0.007928  -0.000040   0.000070   0.000473
    20  H    0.004000   0.632196  -0.040101  -0.008000   0.004837   0.001334
    21  H   -0.007928  -0.040101   0.628813   0.004300  -0.010537  -0.000151
    22  H   -0.000040  -0.008000   0.004300   0.674668  -0.042249  -0.004743
    23  H    0.000070   0.004837  -0.010537  -0.042249   0.644343   0.006611
    24  H    0.000473   0.001334  -0.000151  -0.004743   0.006611   0.670963
 Mulliken charges:
               1
     1  C   -0.390481
     2  C   -0.204827
     3  C   -0.022944
     4  N   -0.378591
     5  C    0.095811
     6  C   -0.250671
     7  C   -0.186021
     8  C   -0.267983
     9  C    0.037206
    10  H    0.114099
    11  H    0.124227
    12  H    0.117472
    13  H    0.104994
    14  H    0.097255
    15  H    0.082415
    16  H    0.220667
    17  H    0.088544
    18  H    0.090149
    19  H    0.080582
    20  H    0.098523
    21  H    0.101374
    22  H    0.074747
    23  H    0.093671
    24  H    0.079781
 Sum of Mulliken charges =  -0.00000
 Mulliken charges with hydrogens summed into heavy atoms:
               1
     1  C   -0.034683
     2  C   -0.002578
     3  C    0.059471
     4  N   -0.157925
     5  C    0.184355
     6  C   -0.079939
     7  C    0.013876
     8  C   -0.099564
     9  C    0.116987
 Electronic spatial extent (au):  <R**2>=           1347.4075
 Charge=             -0.0000 electrons
 Dipole moment (field-independent basis, Debye):
    X=             -0.0862    Y=              0.7470    Z=              0.9252  Tot=              1.1923
 Quadrupole moment (field-independent basis, Debye-Ang):
   XX=            -56.1498   YY=            -59.6574   ZZ=            -56.7448
   XY=              1.3828   XZ=              1.7648   YZ=             -2.6018
 Traceless Quadrupole moment (field-independent basis, Debye-Ang):
   XX=              1.3675   YY=             -2.1401   ZZ=              0.7725
   XY=              1.3828   XZ=              1.7648   YZ=             -2.6018
 Octapole moment (field-independent basis, Debye-Ang**2):
  XXX=              7.0375  YYY=             -1.4430  ZZZ=             -0.8928  XYY=              1.2189
  XXY=             -1.0323  XXZ=             -2.3310  XZZ=             -2.7154  YZZ=              3.1378
  YYZ=              4.8164  XYZ=             -3.1752
 Hexadecapole moment (field-independent basis, Debye-Ang**3):
 XXXX=          -1255.3116 YYYY=           -340.3051 ZZZZ=           -239.4881 XXXY=              2.2122
 XXXZ=              8.0918 YYYX=              3.5473 YYYZ=             -6.7046 ZZZX=             -1.7000
 ZZZY=             -3.0736 XXYY=           -271.7462 XXZZ=           -250.6224 YYZZ=           -100.6729
 XXYZ=              0.6231 YYXZ=              5.6603 ZZXY=              2.8174
 N-N= 4.843357404047D+02 E-N=-1.822404005745D+03  KE= 3.656603097872D+02
 PrsmSu:  requested number of processors reduced to:  13 ShMem   1 Linda.
 Calling FoFJK, ICntrl=      2127 FMM=F ISym2X=0 I1Cent= 0 IOpClX= 0 NMat=1 NMatS=1 NMatT=0.
 ***** Axes restored to original set *****
 -------------------------------------------------------------------
 Center     Atomic                   Forces (Hartrees/Bohr)
 Number     Number              X              Y              Z
 -------------------------------------------------------------------
      1        6          -0.003694170   -0.000794357    0.001344146
      2        6           0.005200349   -0.001919385    0.003525135
      3        6          -0.030491193   -0.007283766    0.013398322
      4        7           0.037181970   -0.034279998   -0.027823873
      5        6          -0.064978613    0.002839349    0.019958775
      6        6           0.001115224    0.011263770   -0.025997912
      7        6           0.000012047    0.007477598    0.000695083
      8        6           0.017298222    0.003582652    0.036967202
      9        6           0.039355478    0.012561323   -0.017248549
     10        1          -0.000280733    0.000697578    0.002233882
     11        1           0.000299450   -0.001047066    0.000555204
     12        1          -0.001766476   -0.000521507    0.000774885
     13        1           0.001103355   -0.000131791   -0.000343456
     14        1           0.001958311   -0.000360070   -0.000216118
     15        1          -0.005888363   -0.001923318   -0.009861250
     16        1           0.003081847    0.001205533    0.009702064
     17        1           0.000776206   -0.000870439    0.009831164
     18        1           0.002936753   -0.003305841   -0.001992596
     19        1          -0.003542731    0.004611328   -0.001102706
     20        1           0.003034157    0.001964264    0.000059022
     21        1          -0.002613386    0.002217661    0.000856635
     22        1           0.004254094    0.005025500    0.000816169
     23        1          -0.001155839    0.001248519    0.001539351
     24        1          -0.003195961   -0.002257536   -0.017670579
 -------------------------------------------------------------------
 Cartesian Forces:  Max     0.064978613 RMS     0.014211302

 GradGradGradGradGradGradGradGradGradGradGradGradGradGradGradGradGradGrad
 Berny optimization.
 FormGI is forming the generalized inverse of G from B-inverse, IUseBI=4.
 Internal  Forces:  Max     0.020057672 RMS     0.005703537
 Search for a local minimum.
 Step number   1 out of a maximum of  144
 All quantities printed in internal units (Hartrees-Bohrs-Radians)
 Mixed Optimization -- RFO/linear search
 Second derivative matrix not updated -- first step.
 ITU=  0
     Eigenvalues ---    0.00377   0.00393   0.00433   0.00763   0.01700
     Eigenvalues ---    0.02067   0.02480   0.02768   0.03008   0.03374
     Eigenvalues ---    0.03455   0.03564   0.04739   0.04813   0.04825
     Eigenvalues ---    0.05017   0.05290   0.05382   0.05389   0.05604
     Eigenvalues ---    0.05693   0.05808   0.06295   0.06503   0.06612
     Eigenvalues ---    0.06702   0.07016   0.07039   0.08031   0.08706
     Eigenvalues ---    0.08775   0.10068   0.10376   0.10941   0.12468
     Eigenvalues ---    0.13724   0.16000   0.16000   0.16000   0.18639
     Eigenvalues ---    0.19408   0.21959   0.25051   0.25859   0.26393
     Eigenvalues ---    0.27056   0.29478   0.29633   0.29874   0.30621
     Eigenvalues ---    0.33123   0.33406   0.33657   0.33829   0.33941
     Eigenvalues ---    0.33986   0.33987   0.34110   0.34308   0.34327
     Eigenvalues ---    0.34338   0.34356   0.34362   0.34409   0.34457
     Eigenvalues ---    0.45569
 RFO step:  Lambda=-3.82764051D-02 EMin= 3.76888983D-03
 Linear search not attempted -- first point.
 Maximum step size (   0.300) exceeded in Quadratic search.
    -- Step size scaled by   0.895
 Iteration  1 RMS(Cart)=  0.06535403 RMS(Int)=  0.00230073
 Iteration  2 RMS(Cart)=  0.00290618 RMS(Int)=  0.00123402
 Iteration  3 RMS(Cart)=  0.00000829 RMS(Int)=  0.00123401
 Iteration  4 RMS(Cart)=  0.00000002 RMS(Int)=  0.00123401
 Variable       Old X    -DE/DX   Delta X   Delta X   Delta X     New X
                                 (Linear)    (Quad)   (Total)
    R1        2.88216   0.00573   0.00000   0.01522   0.01522   2.89737
    R2        2.06566   0.00082   0.00000   0.00191   0.00191   2.06757
    R3        2.06782  -0.00051   0.00000  -0.00120  -0.00120   2.06662
    R4        2.06734   0.00047   0.00000   0.00109   0.00109   2.06843
    R5        2.89017   0.00649   0.00000   0.01743   0.01743   2.90760
    R6        2.07145   0.00055   0.00000   0.00130   0.00130   2.07275
    R7        2.07354   0.00052   0.00000   0.00122   0.00122   2.07476
    R8        2.88583  -0.00649   0.00000  -0.01335  -0.01668   2.86915
    R9        2.93480   0.01515   0.00000   0.03645   0.03620   2.97100
   R10        2.07913  -0.00389   0.00000  -0.00928  -0.00928   2.06985
   R11        2.76504   0.01477   0.00000   0.04559   0.04683   2.81187
   R12        1.91321  -0.00197   0.00000  -0.00357  -0.00357   1.90964
   R13        2.83631   0.01269   0.00000   0.02854   0.02913   2.86544
   R14        2.94437   0.00320   0.00000  -0.01166  -0.00735   2.93701
   R15        2.07620  -0.00420   0.00000  -0.00998  -0.00998   2.06623
   R16        2.92774   0.01719   0.00000   0.06019   0.05920   2.98694
   R17        2.07430  -0.00303   0.00000  -0.00718  -0.00718   2.06712
   R18        2.06645   0.00265   0.00000   0.00620   0.00620   2.07265
   R19        2.93876   0.01398   0.00000   0.04801   0.04655   2.98531
   R20        2.06763  -0.00071   0.00000  -0.00167  -0.00167   2.06596
   R21        2.06813  -0.00082   0.00000  -0.00193  -0.00193   2.06620
   R22        2.86158   0.02006   0.00000   0.04420   0.04413   2.90571
   R23        2.06724   0.00249   0.00000   0.00584   0.00584   2.07308
   R24        2.07352  -0.00166   0.00000  -0.00393  -0.00393   2.06959
   R25        2.08345  -0.00603   0.00000  -0.01450  -0.01450   2.06896
    A1        1.92588  -0.00048   0.00000  -0.00399  -0.00398   1.92190
    A2        1.95885  -0.00023   0.00000   0.00064   0.00062   1.95947
    A3        1.94824   0.00245   0.00000   0.01120   0.01118   1.95942
    A4        1.85403   0.00034   0.00000   0.00132   0.00132   1.85535
    A5        1.88887  -0.00182   0.00000  -0.01141  -0.01139   1.87747
    A6        1.88412  -0.00042   0.00000   0.00136   0.00131   1.88544
    A7        2.00406   0.01111   0.00000   0.04131   0.04127   2.04532
    A8        1.89233  -0.00225   0.00000  -0.00009  -0.00023   1.89210
    A9        1.89935  -0.00269   0.00000  -0.00811  -0.00786   1.89149
   A10        1.89303  -0.00326   0.00000  -0.00845  -0.00883   1.88421
   A11        1.90985  -0.00475   0.00000  -0.02224  -0.02225   1.88760
   A12        1.85983   0.00126   0.00000  -0.00534  -0.00554   1.85429
   A13        1.96126   0.00362   0.00000   0.05774   0.05823   2.01949
   A14        2.10587   0.00151   0.00000   0.00915   0.00554   2.11141
   A15        1.92441   0.00019   0.00000  -0.01771  -0.01718   1.90724
   A16        1.50832   0.00642   0.00000   0.04534   0.04322   1.55154
   A17        1.99526  -0.00725   0.00000  -0.07499  -0.07500   1.92026
   A18        1.93901  -0.00415   0.00000  -0.01378  -0.01179   1.92722
   A19        1.49777   0.00304   0.00000   0.01026   0.00964   1.50740
   A20        2.01534  -0.00642   0.00000  -0.06211  -0.06271   1.95262
   A21        1.95884  -0.00796   0.00000  -0.04392  -0.04351   1.91534
   A22        2.18366   0.01536   0.00000   0.11929   0.11668   2.30035
   A23        1.54431   0.00364   0.00000   0.04406   0.03847   1.58278
   A24        1.94443  -0.00909   0.00000  -0.06257  -0.06082   1.88362
   A25        1.72064   0.00520   0.00000   0.03632   0.03195   1.75259
   A26        1.95723  -0.00462   0.00000  -0.04210  -0.04166   1.91557
   A27        2.06832  -0.00868   0.00000  -0.08168  -0.08184   1.98648
   A28        1.73020  -0.00118   0.00000  -0.00344  -0.00284   1.72736
   A29        1.96861  -0.00504   0.00000  -0.03290  -0.03242   1.93619
   A30        1.97892   0.00633   0.00000   0.04002   0.03941   2.01833
   A31        1.93671   0.00203   0.00000   0.00990   0.01023   1.94694
   A32        1.95629  -0.00100   0.00000  -0.00500  -0.00616   1.95013
   A33        1.89068  -0.00110   0.00000  -0.00810  -0.00769   1.88299
   A34        1.83803   0.00583   0.00000   0.04112   0.04043   1.87846
   A35        1.92550  -0.00115   0.00000  -0.00144  -0.00097   1.92453
   A36        1.94122  -0.00082   0.00000  -0.00506  -0.00537   1.93585
   A37        1.95082  -0.00134   0.00000  -0.01169  -0.01226   1.93857
   A38        1.91406  -0.00172   0.00000  -0.00372  -0.00324   1.91082
   A39        1.89442  -0.00071   0.00000  -0.01801  -0.01826   1.87617
   A40        1.77388  -0.00568   0.00000  -0.03324  -0.03390   1.73998
   A41        1.94768   0.00026   0.00000  -0.00261  -0.00286   1.94482
   A42        1.94001   0.00148   0.00000   0.00512   0.00617   1.94619
   A43        1.97147   0.00687   0.00000   0.04497   0.04483   2.01630
   A44        1.94589  -0.00022   0.00000  -0.00021   0.00008   1.94597
   A45        1.88473  -0.00263   0.00000  -0.01383  -0.01419   1.87054
   A46        1.42719  -0.00020   0.00000   0.01171   0.00932   1.43651
   A47        2.45566   0.00336   0.00000   0.03017   0.02815   2.48381
   A48        1.90867  -0.00437   0.00000  -0.03359  -0.03393   1.87475
   A49        1.65398   0.00798   0.00000   0.06837   0.06850   1.72248
   A50        2.05676  -0.00964   0.00000  -0.09616  -0.09693   1.95983
   A51        1.86362   0.00076   0.00000  -0.00000   0.00198   1.86560
    D1        3.07228   0.00154   0.00000   0.02195   0.02201   3.09429
    D2        0.95246  -0.00006   0.00000   0.00511   0.00503   0.95749
    D3       -1.06388   0.00109   0.00000   0.01578   0.01582  -1.04806
    D4        1.00815   0.00159   0.00000   0.02252   0.02258   1.03073
    D5       -1.11168  -0.00001   0.00000   0.00568   0.00561  -1.10606
    D6       -3.12802   0.00114   0.00000   0.01635   0.01640  -3.11162
    D7       -1.10980   0.00053   0.00000   0.01225   0.01228  -1.09752
    D8        3.05356  -0.00107   0.00000  -0.00460  -0.00470   3.04887
    D9        1.03722   0.00008   0.00000   0.00607   0.00609   1.04331
   D10       -0.70503  -0.00702   0.00000  -0.07426  -0.07441  -0.77944
   D11        1.03202   0.00436   0.00000   0.02683   0.02657   1.05859
   D12       -2.95309  -0.00030   0.00000  -0.00503  -0.00483  -2.95792
   D13        1.41441  -0.00486   0.00000  -0.05284  -0.05299   1.36141
   D14       -3.13173   0.00651   0.00000   0.04825   0.04799  -3.08374
   D15       -0.83365   0.00185   0.00000   0.01639   0.01659  -0.81706
   D16       -2.84641  -0.00775   0.00000  -0.07593  -0.07587  -2.92227
   D17       -1.10935   0.00363   0.00000   0.02517   0.02511  -1.08424
   D18        1.18872  -0.00103   0.00000  -0.00670  -0.00628   1.18244
   D19        2.67594  -0.00683   0.00000  -0.06063  -0.05796   2.61798
   D20        0.70952   0.00133   0.00000  -0.00926  -0.00842   0.70110
   D21        0.55038  -0.01201   0.00000  -0.10134  -0.10004   0.45034
   D22       -1.41604  -0.00385   0.00000  -0.04996  -0.05050  -1.46654
   D23       -1.39674  -0.00959   0.00000  -0.09870  -0.09673  -1.49347
   D24        2.92002  -0.00143   0.00000  -0.04732  -0.04719   2.87283
   D25       -2.50691   0.00004   0.00000  -0.01504  -0.01419  -2.52110
   D26        2.24962  -0.01175   0.00000  -0.13222  -0.13293   2.11669
   D27       -0.47002  -0.01031   0.00000  -0.11372  -0.11335  -0.58337
   D28       -0.51777   0.00858   0.00000   0.08295   0.08469  -0.43308
   D29       -2.04443  -0.00320   0.00000  -0.03423  -0.03404  -2.07847
   D30        1.51911  -0.00176   0.00000  -0.01573  -0.01446   1.50465
   D31        1.48444   0.00286   0.00000   0.01862   0.01969   1.50412
   D32       -0.04222  -0.00892   0.00000  -0.09857  -0.09905  -0.14127
   D33       -2.76187  -0.00748   0.00000  -0.08007  -0.07947  -2.84134
   D34       -2.28288  -0.00107   0.00000   0.00320   0.00016  -2.28272
   D35       -0.54741   0.00926   0.00000   0.08966   0.09153  -0.45588
   D36        1.54977  -0.00042   0.00000   0.00743   0.00777   1.55755
   D37       -0.26102  -0.00770   0.00000  -0.06513  -0.06769  -0.32871
   D38        1.47445   0.00263   0.00000   0.02134   0.02368   1.49812
   D39       -2.71155  -0.00706   0.00000  -0.06089  -0.06008  -2.77163
   D40        2.53332   0.00353   0.00000   0.03123   0.03432   2.56764
   D41        0.48380   0.00385   0.00000   0.03484   0.03667   0.52047
   D42       -1.67334   0.00435   0.00000   0.04032   0.04254  -1.63080
   D43        0.88904  -0.00782   0.00000  -0.07361  -0.07389   0.81515
   D44       -1.16048  -0.00750   0.00000  -0.07000  -0.07154  -1.23202
   D45        2.96557  -0.00700   0.00000  -0.06452  -0.06567   2.89989
   D46       -1.30357   0.00147   0.00000   0.02079   0.02170  -1.28187
   D47        2.93009   0.00180   0.00000   0.02440   0.02405   2.95414
   D48        0.77295   0.00230   0.00000   0.02988   0.02992   0.80288
   D49        0.54187  -0.01346   0.00000  -0.09937  -0.09941   0.44246
   D50        2.99548  -0.01106   0.00000  -0.07802  -0.07604   2.91945
   D51       -1.33614  -0.00826   0.00000  -0.06581  -0.06665  -1.40279
   D52        2.72886   0.00311   0.00000   0.03162   0.03209   2.76096
   D53       -1.10071   0.00551   0.00000   0.05298   0.05546  -1.04524
   D54        0.85085   0.00830   0.00000   0.06518   0.06485   0.91571
   D55       -1.44166  -0.00324   0.00000  -0.03553  -0.03540  -1.47707
   D56        1.01195  -0.00084   0.00000  -0.01418  -0.01203   0.99992
   D57        2.96351   0.00195   0.00000  -0.00197  -0.00264   2.96087
   D58       -0.35709   0.00515   0.00000   0.03558   0.03434  -0.32275
   D59       -2.46485   0.00391   0.00000   0.02589   0.02506  -2.43980
   D60        1.71511   0.00612   0.00000   0.05286   0.05200   1.76711
   D61        1.71641  -0.00042   0.00000   0.00013  -0.00017   1.71623
   D62       -0.39135  -0.00166   0.00000  -0.00956  -0.00946  -0.40081
   D63       -2.49457   0.00055   0.00000   0.01741   0.01749  -2.47708
   D64       -2.45040  -0.00109   0.00000  -0.00673  -0.00713  -2.45754
   D65        1.72502  -0.00233   0.00000  -0.01642  -0.01641   1.70861
   D66       -0.37820  -0.00012   0.00000   0.01055   0.01053  -0.36767
   D67       -0.32150   0.00345   0.00000   0.02749   0.02685  -0.29465
   D68       -2.42724  -0.00144   0.00000  -0.00478  -0.00470  -2.43194
   D69        1.75082   0.00071   0.00000   0.01111   0.01108   1.76190
   D70        1.76958   0.00493   0.00000   0.04477   0.04402   1.81360
   D71       -0.33616   0.00004   0.00000   0.01251   0.01247  -0.32369
   D72       -2.44129   0.00219   0.00000   0.02839   0.02825  -2.41304
   D73       -2.41178   0.00200   0.00000   0.01203   0.01144  -2.40034
   D74        1.76567  -0.00289   0.00000  -0.02023  -0.02011   1.74556
   D75       -0.33947  -0.00074   0.00000  -0.00435  -0.00433  -0.34379
   D76        2.28163   0.00310   0.00000   0.04451   0.04726   2.32889
   D77        0.83603  -0.00610   0.00000  -0.05536  -0.05426   0.78177
   D78       -1.27537   0.00090   0.00000   0.02112   0.02247  -1.25290
   D79       -1.91258   0.00326   0.00000   0.04282   0.04384  -1.86874
   D80        2.92500  -0.00593   0.00000  -0.05704  -0.05768   2.86732
   D81        0.81360   0.00107   0.00000   0.01944   0.01906   0.83266
   D82        0.21352   0.00465   0.00000   0.05725   0.05865   0.27217
   D83       -1.23208  -0.00454   0.00000  -0.04261  -0.04287  -1.27494
   D84        2.93970   0.00246   0.00000   0.03387   0.03387   2.97357
         Item               Value     Threshold  Converged?
 Maximum Force            0.020058     0.000450     NO 
 RMS     Force            0.005704     0.000300     NO 
 Maximum Displacement     0.241057     0.001800     NO 
 RMS     Displacement     0.064479     0.001200     NO 
 Predicted change in Energy=-2.456143D-02
 GradGradGradGradGradGradGradGradGradGradGradGradGradGradGradGradGradGrad

                          Input orientation:                          
 ---------------------------------------------------------------------
 Center     Atomic      Atomic             Coordinates (Angstroms)
 Number     Number       Type             X           Y           Z
 ---------------------------------------------------------------------
      1          6           0        0.956092   -0.159828    0.291019
      2          6           0        2.478348   -0.125112    0.111278
      3          6           0        3.049348    0.936706   -0.844707
      4          7           0        2.320905    1.091584   -2.167800
      5          6           0        2.749512    2.515961   -2.128871
      6          6           0        1.981481    3.808292   -2.326983
      7          6           0        2.789445    4.730555   -1.329493
      8          6           0        3.584492    3.786979   -0.342985
      9          6           0        2.826451    2.469858   -0.577260
     10          1           0        0.674058   -0.983886    0.953182
     11          1           0        0.431121   -0.331045   -0.652945
     12          1           0        0.569213    0.764779    0.730908
     13          1           0        2.808045   -1.109987   -0.241437
     14          1           0        2.940048    0.018452    1.096996
     15          1           0        4.110185    0.730056   -1.022590
     16          1           0        1.318387    1.033596   -2.054736
     17          1           0        3.725103    2.587260   -2.617400
     18          1           0        0.939164    3.695279   -2.014947
     19          1           0        1.985952    4.211484   -3.346977
     20          1           0        2.106597    5.385678   -0.782000
     21          1           0        3.493501    5.368286   -1.870883
     22          1           0        3.560277    4.169988    0.684724
     23          1           0        4.637536    3.700681   -0.631201
     24          1           0        1.842980    2.581252   -0.109222
 ---------------------------------------------------------------------
                    Distance matrix (angstroms):
                    1          2          3          4          5
     1  C    0.000000
     2  C    1.533224   0.000000
     3  C    2.621828   1.538637   0.000000
     4  N    3.078073   2.588307   1.518286   0.000000
     5  C    4.028904   3.473767   2.057432   1.487975   0.000000
     6  C    4.863263   4.654424   3.403453   2.742454   1.516325
     7  C    5.468372   5.074456   3.833518   3.763563   2.354788
     8  C    4.784113   4.090766   2.943155   3.491670   2.345649
     9  C    3.341766   2.707236   1.572185   2.164494   1.554201
    10  H    1.094110   2.168354   3.544444   4.093923   5.104458
    11  H    1.093607   2.194899   2.915318   2.808904   3.957112
    12  H    1.094567   2.195596   2.943330   3.402607   3.999834
    13  H    2.148497   1.096853   2.147350   2.965652   4.088194
    14  H    2.148828   1.097915   2.150662   3.491968   4.084124
    15  H    3.530689   2.163299   1.095318   2.154932   2.502947
    16  H    2.656706   2.716566   2.114187   1.010538   2.061800
    17  H    4.865472   4.044384   2.514640   2.100229   1.093399
    18  H    4.492173   4.635224   3.664978   2.951576   2.163591
    19  H    5.779619   5.568487   4.256330   3.352079   2.222972
    20  H    5.764344   5.595082   4.548193   4.517257   3.234606
    21  H    6.455409   5.927639   4.570471   4.444471   2.959026
    22  H    5.067948   4.466240   3.613077   4.376016   3.362954
    23  H    5.413599   4.455340   3.194915   3.812520   2.685370
    24  H    2.908656   2.788677   2.168132   2.585589   2.214733
                    6          7          8          9         10
     6  C    0.000000
     7  C    1.580621   0.000000
     8  C    2.550755   1.579757   0.000000
     9  C    2.359431   2.382851   1.537635   0.000000
    10  H    5.952631   6.506944   5.736884   4.347804   0.000000
    11  H    4.726535   5.624874   5.195955   3.686243   1.750675
    12  H    4.539622   4.990197   4.402141   3.116684   1.765851
    13  H    5.405754   5.941056   4.959179   3.595609   2.448860
    14  H    5.196669   5.302306   4.085419   2.970762   2.481950
    15  H    3.963377   4.224042   3.175373   2.207533   4.318361
    16  H    2.865789   4.044440   3.955558   2.553437   3.678718
    17  H    2.148366   2.669807   2.575279   2.232383   5.900087
    18  H    1.093875   2.228269   3.130755   2.670291   5.547491
    19  H    1.096801   2.232774   3.429214   3.378023   6.870539
    20  H    2.211509   1.093260   2.220978   3.010334   6.755322
    21  H    2.219868   1.093388   2.200745   3.243347   7.501646
    22  H    3.419621   2.228338   1.097027   2.240881   5.913101
    23  H    3.153076   2.227935   1.095180   2.190403   6.337555
    24  H    2.538360   2.646576   2.131030   1.094844   3.899397
                   11         12         13         14         15
    11  H    0.000000
    12  H    1.770579   0.000000
    13  H    2.534927   3.077754   0.000000
    14  H    3.078823   2.512346   1.755620   0.000000
    15  H    3.846827   3.951511   2.385692   2.523539   0.000000
    16  H    2.148140   2.897126   3.178378   3.686966   2.991922
    17  H    4.819326   4.948964   4.489525   4.583866   2.478087
    18  H    4.280706   4.032916   5.452397   5.216012   4.453391
    19  H    5.505441   5.524136   6.215969   6.183908   4.694196
    20  H    5.958590   5.099523   6.555753   5.747380   5.074156
    21  H    6.583609   6.042603   6.715129   6.142909   4.755320
    22  H    5.642719   4.532554   5.413111   4.217809   3.879491
    23  H    5.826595   5.198664   5.161538   4.407600   3.042350
    24  H    3.281837   2.372314   3.817601   3.037510   3.066168
                   16         17         18         19         20
    16  H    0.000000
    17  H    2.919374   0.000000
    18  H    2.688856   3.058122   0.000000
    19  H    3.494925   2.488982   1.771027   0.000000
    20  H    4.602363   3.717445   2.395935   2.823543   0.000000
    21  H    4.853293   2.888776   3.056852   2.406190   1.763370
    22  H    4.729447   3.665545   3.792599   4.328376   2.396323
    23  H    4.489604   2.453004   3.948764   3.829786   3.044275
    24  H    2.540760   3.135822   2.385314   3.627831   2.896019
                   21         22         23         24
    21  H    0.000000
    22  H    2.823384   0.000000
    23  H    2.372031   1.764198   0.000000
    24  H    3.687170   2.470535   3.055344   0.000000
 Stoichiometry    C8H15N
 Framework group  C1[X(C8H15N)]
 Deg. of freedom    66
 Full point group                 C1      NOp   1
 Largest Abelian subgroup         C1      NOp   1
 Largest concise Abelian subgroup C1      NOp   1
                         Standard orientation:                         
 ---------------------------------------------------------------------
 Center     Atomic      Atomic             Coordinates (Angstroms)
 Number     Number       Type             X           Y           Z
 ---------------------------------------------------------------------
      1          6           0        2.828131    0.010349    1.059794
      2          6           0        2.409929    0.539898   -0.316964
      3          6           0        1.004639    0.163452   -0.817816
      4          7           0        0.603986   -1.288367   -0.625748
      5          6           0       -0.793380   -0.789392   -0.514101
      6          6           0       -1.883896   -1.057417    0.504809
      7          6           0       -2.598409    0.352227    0.477665
      8          6           0       -1.588712    1.388226   -0.157042
      9          6           0       -0.280457    0.591995   -0.019914
     10          1           0        3.858826    0.304767    1.279022
     11          1           0        2.803852   -1.081899    1.108582
     12          1           0        2.195235    0.399483    1.863594
     13          1           0        3.138282    0.189829   -1.058610
     14          1           0        2.486579    1.635062   -0.304433
     15          1           0        0.910085    0.442174   -1.872849
     16          1           0        0.910206   -1.648498    0.267406
     17          1           0       -1.223913   -0.766834   -1.518916
     18          1           0       -1.455741   -1.272018    1.488267
     19          1           0       -2.577713   -1.869320    0.255001
     20          1           0       -2.884308    0.651442    1.489568
     21          1           0       -3.510354    0.316074   -0.124454
     22          1           0       -1.614995    2.349018    0.371782
     23          1           0       -1.827464    1.590163   -1.206631
     24          1           0       -0.023537    0.583091    1.044321
 ---------------------------------------------------------------------
 Rotational constants (GHZ):           3.2244924           1.0397902           0.9593074
 Standard basis: 6-31G(2df,p) (6D, 7F)
 There are   354 symmetry adapted cartesian basis functions of A   symmetry.
 There are   327 symmetry adapted basis functions of A   symmetry.
   327 basis functions,   501 primitive gaussians,   354 cartesian basis functions
    35 alpha electrons       35 beta electrons
       nuclear repulsion energy       477.8001443369 Hartrees.
 NAtoms=   24 NActive=   24 NUniq=   24 SFac= 1.00D+00 NAtFMM=   60 NAOKFM=F Big=F
 Integral buffers will be    131072 words long.
 Raffenetti 2 integral format.
 Two-electron integral symmetry is turned on.
 One-electron integrals computed using PRISM.
 PrsmSu:  requested number of processors reduced to:  13 ShMem   1 Linda.
 NBasis=   327 RedAO= T EigKep=  2.79D-04  NBF=   327
 NBsUse=   327 1.00D-06 EigRej= -1.00D+00 NBFU=   327
 Initial guess from the checkpoint file:  "CCC1NC2CCCC12.chk"
 B after Tr=    -0.000000    0.000000    0.000000
         Rot=    0.998512    0.054489   -0.001305    0.001860 Ang=   6.25 deg.
 ExpMin= 1.61D-01 ExpMax= 4.17D+03 ExpMxC= 6.27D+02 IAcc=2 IRadAn=         4 AccDes= 0.00D+00
 Harris functional with IExCor=  402 and IRadAn=       4 diagonalized for initial guess.
 HarFok:  IExCor=  402 AccDes= 0.00D+00 IRadAn=         4 IDoV= 1 UseB2=F ITyADJ=14
 ICtDFT=  3500011 ScaDFX=  1.000000  1.000000  1.000000  1.000000
 FoFCou: FMM=F IPFlag=           0 FMFlag=      100000 FMFlg1=           0
         NFxFlg=           0 DoJE=T BraDBF=F KetDBF=T FulRan=T
         wScrn=  0.000000 ICntrl=       500 IOpCl=  0 I1Cent=   200000004 NGrid=           0
         NMat0=    1 NMatS0=      1 NMatT0=    0 NMatD0=    1 NMtDS0=    0 NMtDT0=    0
 Petite list used in FoFCou.
 Requested convergence on RMS density matrix=1.00D-08 within 128 cycles.
 Requested convergence on MAX density matrix=1.00D-06.
 Requested convergence on             energy=1.00D-06.
 No special actions if energy rises.
 Integral accuracy reduced to 1.0D-05 until final iterations.
 Initial convergence to 1.0D-05 achieved.  Increase integral accuracy.
 SCF Done:  E(RB3LYP) =  -368.584199216     A.U. after   10 cycles
            NFock= 10  Conv=0.83D-08     -V/T= 2.0087
 PrsmSu:  requested number of processors reduced to:  13 ShMem   1 Linda.
 Calling FoFJK, ICntrl=      2127 FMM=F ISym2X=0 I1Cent= 0 IOpClX= 0 NMat=1 NMatS=1 NMatT=0.
 ***** Axes restored to original set *****
 -------------------------------------------------------------------
 Center     Atomic                   Forces (Hartrees/Bohr)
 Number     Number              X              Y              Z
 -------------------------------------------------------------------
      1        6           0.000067176    0.001273175   -0.000593292
      2        6           0.003832335    0.000429198    0.000538273
      3        6          -0.015427186   -0.002526917    0.012059864
      4        7           0.020009919   -0.009158309   -0.010418612
      5        6          -0.031744566    0.005474733    0.019714616
      6        6           0.005219651    0.004567496   -0.010709355
      7        6           0.000249486   -0.000297381   -0.000514304
      8        6           0.001091215   -0.004614048    0.014085815
      9        6           0.022293637    0.004466661   -0.020777431
     10        1           0.000560964    0.000552847    0.001142111
     11        1          -0.000018802    0.000150206   -0.001066538
     12        1          -0.000324779    0.000159610   -0.000058144
     13        1           0.000187656   -0.000026805   -0.000317939
     14        1           0.001776436   -0.000160788   -0.000832545
     15        1          -0.001132810   -0.001951146   -0.004342581
     16        1          -0.004126529   -0.000964853    0.006787414
     17        1           0.003961473   -0.000104630    0.004555800
     18        1          -0.000212140    0.000463840    0.000490161
     19        1          -0.000340562    0.000655773    0.001269347
     20        1           0.001176441    0.000627019    0.000220905
     21        1          -0.001743987    0.001125947   -0.000656780
     22        1           0.000026000   -0.000276186   -0.001398032
     23        1          -0.000643432    0.000906218   -0.000956624
     24        1          -0.004737595   -0.000771660   -0.008222131
 -------------------------------------------------------------------
 Cartesian Forces:  Max     0.031744566 RMS     0.007448542

 GradGradGradGradGradGradGradGradGradGradGradGradGradGradGradGradGradGrad
 Berny optimization.
 Using GEDIIS/GDIIS optimizer.
 FormGI is forming the generalized inverse of G from B-inverse, IUseBI=4.
 Internal  Forces:  Max     0.006068317 RMS     0.002133272
 Search for a local minimum.
 Step number   2 out of a maximum of  144
 All quantities printed in internal units (Hartrees-Bohrs-Radians)
 Mixed Optimization -- RFO/linear search
 Update second derivatives using D2CorX and points    1    2
 DE= -2.25D-02 DEPred=-2.46D-02 R= 9.16D-01
 TightC=F SS=  1.41D+00  RLast= 5.34D-01 DXNew= 5.0454D-01 1.6010D+00
 Trust test= 9.16D-01 RLast= 5.34D-01 DXMaxT set to 5.05D-01
 ITU=  1  0
 Use linear search instead of GDIIS.
     Eigenvalues ---    0.00377   0.00379   0.00434   0.00686   0.01667
     Eigenvalues ---    0.01968   0.02473   0.02766   0.03050   0.03167
     Eigenvalues ---    0.03321   0.03660   0.04661   0.04743   0.04855
     Eigenvalues ---    0.04953   0.05158   0.05278   0.05323   0.05617
     Eigenvalues ---    0.05786   0.05925   0.06289   0.06344   0.06458
     Eigenvalues ---    0.06795   0.07134   0.07447   0.07929   0.08741
     Eigenvalues ---    0.09101   0.09928   0.10809   0.11050   0.12740
     Eigenvalues ---    0.13726   0.15991   0.16000   0.16011   0.19257
     Eigenvalues ---    0.20075   0.22536   0.25549   0.25846   0.26524
     Eigenvalues ---    0.27401   0.29447   0.29862   0.30415   0.31819
     Eigenvalues ---    0.33251   0.33497   0.33674   0.33914   0.33985
     Eigenvalues ---    0.33986   0.34060   0.34110   0.34308   0.34332
     Eigenvalues ---    0.34338   0.34356   0.34390   0.34456   0.34755
     Eigenvalues ---    0.45873
 RFO step:  Lambda=-7.31734343D-03 EMin= 3.76801946D-03
 Quartic linear search produced a step of  0.54812.
 Iteration  1 RMS(Cart)=  0.06676898 RMS(Int)=  0.00259947
 Iteration  2 RMS(Cart)=  0.00314344 RMS(Int)=  0.00149014
 Iteration  3 RMS(Cart)=  0.00001178 RMS(Int)=  0.00149012
 Iteration  4 RMS(Cart)=  0.00000004 RMS(Int)=  0.00149012
 Variable       Old X    -DE/DX   Delta X   Delta X   Delta X     New X
                                 (Linear)    (Quad)   (Total)
    R1        2.89737  -0.00039   0.00834  -0.01014  -0.00180   2.89557
[...]
 0.00077203,0.00001172,0.00001777,0.00005484,-0.00004688,0.00014059,-0.
 00014680,-0.00000462,-0.00021327,0.00032373,-0.00064707,-0.00055619,-0
 .00384072,0.41352879,0.00030538,-0.00028114,0.00080415,0.00043032,0.00
 070607,0.00029152,0.00978077,-0.00126285,-0.00410328,-0.01003122,-0.03
 767276,0.01523465,-0.04173864,-0.00734625,0.00354916,0.00040962,0.0017
 7746,0.00159763,0.00026385,0.00049438,-0.00017642,0.00038662,-0.000014
 25,-0.00041322,-0.00162578,-0.00154183,0.00052662,-0.00016017,-0.00012
 358,-0.00026196,-0.00103525,0.00010773,0.00058434,-0.00006749,-0.00000
 321,-0.00045507,0.00019622,-0.00036739,0.00007256,-0.00023482,-0.00015
 228,-0.00014864,0.00209118,-0.00018301,0.00363427,0.04092302,0.0516634
 0,-0.00024589,-0.00035916,-0.00079146,-0.00012025,0.00089250,0.0019627
 8,-0.03720170,-0.00545283,-0.00091235,0.07674532,0.02355327,-0.0382350
 5,0.00423601,-0.00296881,-0.00491935,0.00007594,-0.00038615,0.00093521
 ,-0.00003040,-0.00004403,0.00004513,0.00077059,-0.00041821,-0.00044907
 ,-0.00227075,-0.00019612,-0.00096411,0.00018662,-0.00000170,0.00052951
 ,0.00130364,0.00095382,-0.00066539,0.00007558,0.00001755,-0.00002995,0
 .00019378,0.00013308,-0.00007683,0.00025598,-0.00047299,0.00048524,-0.
 00190053,-0.00086830,-0.00426281,-0.04349079,-0.01711550,0.04789349,-0
 .00002457,0.00017911,-0.00024177,0.00059325,-0.00021344,0.00048661,0.0
 0024338,0.00121964,-0.00121960,-0.01138493,-0.00905756,0.00142884,-0.2
 5823055,-0.00543291,0.07919339,-0.01886164,0.00113995,0.00681659,-0.00
 013651,0.00014053,-0.00008161,0.00046114,-0.00036951,-0.00071305,-0.00
 056674,-0.00009193,0.00129279,0.00011842,0.00000905,0.00001049,0.00009
 839,0.00005454,0.00004847,-0.00002488,0.00000293,-0.00000928,-0.000039
 68,0.00001632,-0.00003780,-0.00002262,-0.00009695,0.00013962,0.0004054
 0,-0.00066569,0.00021313,0.00059828,-0.00231213,0.00121351,0.28342669,
 -0.00013249,-0.00028632,-0.00004884,0.00020857,0.00013011,-0.00005060,
 -0.00310653,-0.00053306,-0.00073872,-0.03191866,-0.01497509,0.00699672
 ,-0.00452369,-0.04231714,0.00356401,0.02646629,-0.00177854,-0.00701540
 ,0.00004014,0.00099503,0.00062650,0.00012737,0.00037956,-0.00079633,0.
 00030014,-0.00024187,-0.00027376,0.00007914,-0.00000427,0.00016779,0.0
 0028159,0.00008200,0.00003815,0.00002535,0.00005211,0.00003511,-0.0000
 3843,0.00004286,-0.00001361,0.00000259,-0.00009688,0.00017106,0.000646
 62,-0.00009865,0.00049769,-0.00199865,-0.00548133,0.00335827,0.0113155
 7,0.06766148,0.00005032,-0.00006085,-0.00027795,-0.00027984,-0.0001277
 4,0.00012393,0.00151431,-0.00252935,0.00012324,-0.01001987,-0.00031260
 ,0.00676693,0.07846813,0.00509626,-0.07692623,-0.01131196,0.00212338,0
 .00423981,-0.00020278,-0.00015091,0.00020006,0.00154981,0.00114689,0.0
 0130880,0.03247716,0.00055944,-0.01527217,-0.00004770,0.00016047,0.000
 09336,0.00002614,-0.00002742,0.00000506,-0.00011172,0.00008303,0.00024
 172,-0.00002198,0.00002550,0.00001984,0.00000524,-0.00003295,-0.000013
 41,-0.00060927,0.00067824,0.00008943,-0.00140450,-0.00264755,-0.000028
 86,-0.08748323,-0.00592065,0.08424221,-0.00004491,0.00004530,-0.000025
 23,-0.00000686,0.00005835,0.00000823,0.00094973,-0.00013858,0.00021997
 ,0.00146173,0.00066437,0.00032780,-0.01576209,-0.00101937,0.00345085,-
 0.29577209,-0.01126283,0.04497352,-0.01023015,-0.00079098,0.00257615,-
 0.00016932,-0.00057710,-0.00022886,-0.00036772,-0.00078339,0.00079054,
 0.00003208,-0.00001067,-0.00000630,0.00001231,0.00003110,0.00003233,-0
 .00001116,-0.00001221,-0.00003952,0.00002371,0.00001754,-0.00001640,0.
 00002248,0.00000379,-0.00002251,0.00013946,-0.00033534,0.00011007,0.00
 004691,0.00105790,-0.00042027,-0.00022547,0.00268927,-0.00142875,0.322
 27127,-0.00000625,-0.00008039,0.00007242,-0.00028494,0.00003744,-0.000
 05186,0.00018707,0.00042191,-0.00024831,-0.00085232,0.00188419,-0.0012
 2035,0.03285957,0.00115647,-0.00503452,-0.01128387,-0.04596757,0.00677
 301,-0.01829087,-0.00327974,0.00193883,-0.00041503,-0.00084801,-0.0000
 2488,0.00015434,0.00037515,-0.00189933,-0.00002880,0.00000694,0.000013
 28,0.00000317,-0.00001585,0.00000416,0.00000413,0.00000542,0.00000816,
 0.00000561,0.00000054,0.00000465,0.00001337,0.00002597,-0.00002771,-0.
 00034140,0.00001166,-0.00000201,-0.00099500,-0.00053163,0.00016817,0.0
 0356216,-0.00452456,0.00247369,0.01057598,0.05112354,0.00000322,0.0000
 0694,0.00002983,0.00003351,0.00001971,0.00003998,-0.00016575,0.0000590
 5,0.00003614,0.00015092,0.00011001,-0.00001678,-0.00163935,-0.00134091
 ,-0.00097787,0.04637074,0.00636916,-0.05611772,-0.02101015,-0.00216611
 ,0.00228142,-0.00083076,-0.00087122,-0.00078393,-0.00109277,-0.0000586
 7,0.00074192,0.00000573,-0.00002126,-0.00000267,0.00000043,0.00001172,
 0.00000180,-0.00000144,0.00000006,-0.00003727,0.00000558,-0.00000412,-
 0.00000644,0.00000149,-0.00000987,0.00001214,0.00004183,0.00008852,-0.
 00014054,0.00004091,-0.00007744,0.00019478,-0.00030481,-0.00012035,0.0
 0074724,-0.04830345,-0.00259759,0.05962662,-0.00004449,-0.00000679,0.0
 0001225,-0.00012005,0.00026098,0.00008594,0.00060198,0.00014832,-0.000
 48378,0.00007416,0.00032101,-0.00010466,0.00115304,0.00341447,-0.01296
 647,-0.05632074,-0.01633049,0.04221454,0.00086432,0.00509293,-0.012059
 80,-0.00043924,-0.00009521,-0.00216958,-0.00172392,0.00168273,-0.00142
 168,0.00001623,-0.00000873,0.00000604,0.00002225,0.00002798,0.00002125
 ,-0.00002111,-0.00001393,-0.00002285,0.00004130,0.00008001,-0.00004390
 ,0.00000657,-0.00002101,-0.00000393,-0.00002035,-0.00012709,-0.0000106
 2,-0.00000978,0.00019407,0.00008235,0.00093277,-0.00044189,-0.00006149
 ,-0.00473304,-0.01254439,0.02904962,0.05850505,0.00005209,-0.00001078,
 0.00001233,0.00030079,-0.00040683,-0.00022325,0.00016522,-0.00049979,0
 .00148218,0.00017019,-0.00076297,0.00094197,-0.00753265,-0.00668178,0.
 02742649,-0.01492051,-0.08298536,0.09070836,0.00152543,0.00611454,-0.0
 1662205,-0.00062268,-0.00236132,-0.00192351,0.00376035,-0.00509304,0.0
 0087805,-0.00002909,-0.00002380,0.00001985,-0.00000695,0.00001676,-0.0
 0001438,0.00000752,0.00001707,-0.00001943,-0.00008704,-0.00017874,0.00
 008574,0.00000609,0.00000508,0.00006354,0.00010203,-0.00017246,0.00001
 233,0.00011867,0.00006812,-0.00004030,-0.00049830,0.00121671,-0.001422
 26,-0.00018361,-0.00015923,0.00066234,0.01773739,0.09024125,-0.0000169
 5,-0.00000437,-0.00003971,-0.00009333,0.00013079,0.00015145,-0.0000904
 1,0.00023404,-0.00057249,-0.00020614,0.00026556,-0.00013019,-0.0000820
 2,-0.00051863,-0.00065976,0.03995234,0.09163506,-0.26610475,0.00347205
 ,0.00702966,-0.01526007,0.00000682,-0.00126737,-0.00117637,-0.00076199
 ,0.00094415,0.00074855,0.00001584,0.00002699,-0.00001120,0.00000451,-0
 .00001192,0.00000837,-0.00000664,-0.00000042,0.00002725,0.00003409,0.0
 0008486,-0.00005622,0.00000378,-0.00000348,-0.00001438,-0.00003593,0.0
 0012521,0.00001834,-0.00002779,-0.00006608,-0.00005300,-0.00065042,0.0
 0011427,0.00045397,0.00092797,0.00194570,-0.00467430,-0.04081602,-0.10
 045404,0.28691844,-0.00000686,0.00000917,-0.00001532,0.00003410,0.0000
 5516,0.00012087,0.00005380,-0.00010603,-0.00012935,0.00058544,-0.00042
 919,0.00043903,-0.00156387,-0.00106244,-0.00263501,0.00891280,-0.01199
 628,-0.00844407,-0.16503267,0.10547994,0.08377431,-0.00903075,0.005374
 92,0.00415729,-0.00068942,-0.00010716,0.00014093,0.00000703,0.00000810
 ,-0.00000408,0.00000876,-0.00000510,0.00000068,-0.00000226,-0.00000310
 ,0.00001109,0.00001915,0.00004424,-0.00003230,-0.00001148,-0.00003016,
 0.00002701,0.00003862,-0.00003689,0.00001635,0.00002991,0.00008280,-0.
 00003684,0.00031259,-0.00003581,-0.00005573,0.00175764,0.00023887,0.00
 011406,-0.00003115,-0.00019659,-0.00082117,0.17926201,0.00003325,-0.00
 007205,-0.00002076,0.00006911,-0.00007869,-0.00011614,-0.00080450,-0.0
 0058750,-0.00034935,0.00062707,-0.00103076,0.00013674,-0.00164909,-0.0
 0199735,-0.00051758,0.00959439,-0.00896717,-0.00799255,0.10559396,-0.1
 3772164,-0.07035097,0.01265291,-0.00926908,-0.00844325,0.00074785,-0.0
 0024478,-0.00008990,-0.00002321,-0.00000408,0.00002539,0.00001121,0.00
 000893,-0.00000858,0.00000326,0.00001902,0.00001977,-0.00004903,-0.000
 05219,0.00005467,-0.00001651,-0.00000378,0.00004467,0.00000315,0.00011
 234,0.00010429,0.00003733,0.00003443,-0.00000048,0.00011632,0.00031628
 ,0.00015722,0.00007637,0.00114111,0.00060437,-0.00039672,-0.00090540,-
 0.00083432,-0.11293155,0.14773255,-0.00001178,-0.00001471,-0.00000827,
 0.00008235,0.00008038,0.00020106,0.00023259,0.00012453,-0.00023198,0.0
 0059028,-0.00011458,0.00056782,-0.00222336,-0.00115610,-0.00280901,0.0
 1301205,-0.01238649,-0.00968228,0.08420994,-0.07107542,-0.10007522,-0.
 01629602,0.01341100,0.00779267,-0.00119429,0.00014567,-0.00065586,0.00
 000014,-0.00000635,0.00001193,0.00002309,0.00000633,-0.00000071,0.0000
 0059,0.00000366,0.00000572,0.00000406,0.00005140,-0.00004373,-0.000024
 23,-0.00005277,0.00005780,0.00006131,-0.00008537,-0.00000058,0.0000280
 0,0.00002101,0.00001960,-0.00004466,0.00034820,-0.00006742,0.00000938,
 0.00062891,0.00181239,-0.00062191,-0.00102361,-0.00121372,-0.08584210,
 0.07692896,0.11037813,-0.00002288,-0.00000675,0.00000475,-0.00004628,0
 .00008185,0.00012636,0.00040196,0.00009652,-0.00023878,0.00027172,-0.0
 0040323,0.00035358,-0.00064536,0.00050377,0.00017755,-0.01019518,-0.00
 599001,0.00412519,-0.17604131,-0.10918522,0.07950689,0.00883784,0.0111
 1845,-0.00714098,-0.00107451,0.00146081,-0.00205047,0.00000683,-0.0000
 0626,0.00000739,0.00001553,0.00001325,0.00000946,-0.00000530,-0.000004
 82,-0.00001224,0.00001192,0.00005172,-0.00003586,-0.00000156,-0.000015
 41,0.00002060,-0.00000107,-0.00002490,0.00000177,0.00001323,0.00009599
 ,-0.00000746,0.00025086,-0.00011774,0.00020894,-0.00030512,-0.00188065
 ,-0.00206928,0.00098458,0.00034344,-0.00025213,-0.01568931,-0.01323530
 ,0.00963060,0.19121355,0.00003578,-0.00001088,0.00000912,0.00010357,-0
 .00022699,-0.00025673,-0.00073558,-0.00031649,0.00011479,0.00064956,-0
 .00083481,-0.00000665,-0.00100830,0.00011347,0.00052566,-0.01140712,-0
 .00815534,0.00712779,-0.10942496,-0.13614335,0.06303447,-0.01160092,-0
 .01004918,0.00823544,0.00158746,-0.00293971,0.00047121,-0.00002179,-0.
 00001717,0.00001665,-0.00000001,0.00001070,-0.00000796,-0.00000005,0.0
 0001216,-0.00000785,-0.00005822,-0.00011988,0.00010492,-0.00000482,0.0
 0001291,0.00003266,0.00007452,-0.00005017,0.00000688,0.00007029,0.0001
 8363,-0.00005603,0.00051998,-0.00036226,-0.00020900,-0.00047715,-0.001
 23899,-0.00151978,0.00053076,0.00140815,0.00018892,0.01399467,0.012105
 76,-0.00841290,0.11682322,0.14620734,-0.00002503,-0.00003008,-0.000040
 82,-0.00005813,0.00015112,0.00021948,0.00031286,-0.00065967,-0.0006128
 9,0.00058273,-0.00069043,0.00067649,-0.00117228,0.00033251,-0.00059540
 ,-0.01808666,-0.01388553,0.00736484,0.08021081,0.06393178,-0.09078664,
 0.01264516,0.01116600,-0.00825490,-0.00184526,0.00196698,-0.00206093,0
 .00001557,0.00001734,0.00000189,0.00001639,0.00000591,0.00001410,-0.00
 000986,-0.00000060,0.00001800,0.00003324,0.00009908,-0.00006179,-0.000
 00203,-0.00002578,0.00001474,-0.00001642,0.00009799,0.00005893,0.00006
 427,0.00015558,-0.00004992,0.00022964,-0.00017611,0.00013467,-0.001919
 52,-0.00312147,-0.00208146,0.00000010,0.00059544,0.00171105,0.01106286
 ,0.00922043,-0.00625641,-0.08136742,-0.06957839,0.10028764,0.00002604,
 -0.00004282,-0.00006613,0.00012542,-0.00003062,0.00005102,-0.00041287,
 0.00021071,-0.00044199,0.00021556,-0.00121140,-0.00069301,-0.00163688,
 -0.00152829,-0.00084081,-0.00044315,0.00038193,-0.00201675,0.00108980,
 -0.00371537,-0.01196293,-0.05763481,0.01433964,0.04811296,0.00191344,-
 0.00239644,-0.01348004,-0.00000118,0.00002263,0.00001454,0.00000057,0.
 00001184,0.00000660,-0.00002466,0.00001085,0.00003157,-0.00002978,-0.0
 0000518,0.00000028,-0.00001321,-0.00001285,0.00001727,0.00006852,-0.00
 012421,-0.00000408,0.00003297,0.00009762,-0.00004220,0.00051622,0.0000
 4686,-0.00040090,-0.00014528,-0.00014935,-0.00016337,-0.00022837,-0.00
 028230,-0.00026049,0.00104333,-0.00053242,-0.00004706,-0.00000399,0.00
 043515,-0.00061485,0.06000482,0.00003372,-0.00015580,-0.00000444,0.000
 04989,0.00005648,-0.00013896,-0.00083313,0.00110354,-0.00185362,-0.001
 07772,-0.00247066,-0.00223747,-0.00326857,-0.00467115,0.00080121,0.000
 41904,-0.00235586,0.00189497,-0.00238306,0.00486575,0.01863083,0.01336
 437,-0.06790633,-0.07303814,0.00858316,-0.00467479,-0.02698130,-0.0000
 3262,0.00000035,0.00004282,0.00003930,0.00004893,0.00002521,-0.0000714
 9,0.00002957,0.00000560,-0.00005230,-0.00003998,0.00004102,0.00002449,
 -0.00010988,0.00011474,0.00003408,-0.00001589,0.00004907,-0.00000826,-
 0.00019684,-0.00019930,0.00010365,-0.00000987,0.00039283,0.00007959,0.
 00013769,0.00008896,0.00034499,0.00084648,0.00049639,-0.00031048,0.001
 53928,-0.00056813,0.00033408,-0.00118078,0.00125512,-0.01600043,0.0740
 8973,0.00002119,-0.00011077,0.00000137,0.00001751,-0.00006028,-0.00013
 750,-0.00057935,0.00044957,-0.00049785,-0.00020263,-0.00082086,-0.0006
 3369,-0.00111673,-0.00128653,0.00078325,0.00012466,0.00129901,-0.00096
 085,0.00371559,-0.00511484,-0.01464824,0.04610941,-0.07329513,-0.27903
 361,0.00067326,-0.00024655,-0.00297065,-0.00001824,-0.00001075,0.00003
 121,0.00003484,0.00003418,0.00001755,-0.00003192,0.00000812,-0.0000089
 3,-0.00003150,-0.00004275,0.00004345,0.00002575,-0.00003064,0.00008322
 ,0.00003882,0.00001400,0.00004024,0.00001181,-0.00008660,-0.00005744,0
 .00001124,0.00010937,0.00037571,-0.00017136,-0.00010592,-0.00013820,-0
 .00025603,-0.00042414,-0.00027683,-0.00028509,-0.00021904,0.00170585,-
 0.00091517,0.00092425,-0.00117867,-0.04761081,0.08035151,0.30118035,-0
 .00001000,0.00008691,0.00012483,0.00004724,-0.00003635,-0.00008515,0.0
 0054069,0.00033508,0.00022099,0.00105915,-0.00013733,-0.00011751,-0.00
 068197,0.00038925,0.00111351,-0.00013350,0.00074853,-0.00013516,-0.009
 61596,0.00069091,0.00220653,-0.29977622,0.01046338,0.03903057,-0.01437
 742,-0.00045720,0.00280377,0.00002583,-0.00006586,-0.00001210,0.000024
 03,0.00002562,0.00000908,0.00001881,-0.00003982,-0.00010439,-0.0000061
 2,-0.00005856,0.00002665,0.00000015,-0.00003490,0.00006199,0.00012513,
 -0.00089065,-0.00037501,0.00015759,0.00030654,0.00015904,0.00070514,-0
 .00003917,-0.00080982,0.00017636,-0.00013097,-0.00005704,-0.00014044,-
 0.00006709,-0.00015544,-0.00020333,0.00055482,-0.00177972,0.00180846,-
 0.00007014,0.00002528,-0.00540458,0.00024066,0.00096379,0.32589554,-0.
 00004388,0.00006397,0.00013528,0.00003388,-0.00008227,-0.00002710,-0.0
 0002855,0.00115169,0.00118694,0.00087467,-0.00013430,0.00001532,-0.000
 14826,0.00025360,0.00149107,0.00047039,-0.00107873,-0.00004368,0.02011
 003,-0.00367451,-0.00165090,0.00987501,-0.04506428,-0.00530880,-0.0316
 1259,0.00190228,0.00509914,0.00003914,-0.00009087,-0.00002601,0.000035
 13,0.00003368,0.00001027,0.00005216,-0.00005310,-0.00012837,0.00001226
 ,-0.00002935,0.00001611,0.00001277,-0.00002612,0.00001948,0.00064694,-
 0.00036406,-0.00025238,0.00030601,0.00013905,0.00027593,0.00027080,0.0
 0020857,-0.00043775,0.00016334,0.00015110,0.00015496,0.00016546,0.0001
 8991,0.00011708,0.00193603,-0.00171219,0.00304452,-0.00018859,0.001273
 53,-0.00060539,0.01001452,-0.00007929,-0.00130664,-0.00939780,0.051150
 82,0.00000132,-0.00001396,-0.00002055,0.00005868,-0.00005019,0.0000110
 8,0.00011158,-0.00033615,0.00006883,0.00021614,-0.00005595,0.00017111,
 -0.00115684,0.00003941,0.00088619,-0.00080583,0.00096068,-0.00082714,-
 0.01962077,0.00206345,0.00169152,0.04008052,-0.00518935,-0.05483708,-0
 .00528543,0.00178521,0.00016263,-0.00000141,0.00001175,-0.00000169,-0.
 00000823,0.00000741,0.00000351,-0.00002531,-0.00002186,0.00001093,-0.0
 0001375,0.00000331,0.00000666,0.00000267,0.00001043,-0.00002504,0.0000
 6501,0.00004358,0.00003470,0.00010361,-0.00000127,-0.00012263,0.000053
 33,-0.00038185,-0.00028902,-0.00005373,-0.00013341,-0.00030538,-0.0001
 5366,-0.00010730,-0.00014124,-0.00177935,0.00159605,-0.00166314,0.0000
 1292,-0.00060967,0.00163421,0.03034403,-0.00060911,-0.00417408,-0.0414
 7868,0.00143951,0.05739022,-0.00022437,-0.00033034,0.00101672,-0.00023
 294,-0.00092381,0.00063623,-0.01343885,0.00348326,0.00335203,0.0029240
 8,-0.00036540,-0.00158487,-0.00238107,-0.00123807,0.00116698,0.0006699
 4,0.00076473,-0.00131813,0.00014630,0.00010811,-0.00009738,-0.01877419
 ,-0.00046238,0.00500072,-0.26719890,0.01113677,0.07134285,0.00036896,-
 0.00058267,-0.00019167,-0.00000420,0.00007095,0.00009448,0.00017730,-0
 .00110911,-0.00044090,0.00020830,0.00006970,-0.00013098,0.00002718,0.0
 0001296,0.00000804,0.00055184,0.00229525,0.00072416,0.00069522,0.00058
 361,0.00046872,0.00085507,0.00012355,-0.00005051,0.00087954,-0.0004004
 4,-0.00017987,0.00063043,0.00013761,-0.00014053,0.00019591,-0.00048268
 ,0.00020077,0.00021541,-0.00001591,-0.00008147,0.00094206,0.00038702,-
 0.00052903,-0.00023458,-0.00359887,-0.00066681,0.29300153,-0.00029437,
 -0.00080849,0.00021277,0.00059809,0.00140198,0.00025163,0.03025911,-0.
 00783955,-0.01192446,0.00098155,-0.00050988,0.00247853,-0.00562007,-0.
 00031694,0.00378536,-0.00044511,0.00038407,0.00073104,-0.00022440,0.00
 078274,-0.00064757,-0.02498484,-0.00213747,0.00574765,0.01203101,-0.04
 568751,-0.00667888,-0.00002942,0.00029933,0.00011131,-0.00020737,-0.00
 003324,0.00002650,-0.00082104,-0.00062723,0.00100256,-0.00022311,0.000
 38347,-0.00006059,-0.00003937,-0.00013614,0.00010300,0.00072937,-0.005
 26686,-0.00238402,-0.00045421,-0.00001591,-0.00077269,0.00008788,-0.00
 037485,0.00098204,0.00012832,0.00016686,0.00061154,-0.00001485,0.00011
 743,-0.00017806,0.00002688,-0.00036306,0.00010187,0.00013573,0.0003183
 3,-0.00022183,0.00045994,0.00114931,-0.00002857,-0.00241588,-0.0041291
 2,-0.00045073,-0.00966385,0.06324271,0.00039212,0.00068189,-0.00004708
 ,0.00017839,-0.00062032,-0.00005632,-0.00559521,0.00133473,0.00252975,
 0.00014932,0.00344143,0.00127310,0.03385044,-0.00252928,-0.01682491,0.
 00192035,-0.00091960,0.00135693,-0.00009037,0.00034677,0.00020527,-0.0
 1487938,-0.00142168,0.00392726,0.06588659,-0.00580904,-0.06258098,-0.0
 0014058,-0.00000216,-0.00013793,-0.00009388,-0.00018247,-0.00011429,0.
 00056849,0.00089884,-0.00040259,0.00008546,-0.00026993,0.00006599,-0.0
 0004671,0.00000162,0.00002911,-0.00022088,0.00129073,0.00011258,-0.000
 49748,-0.00091846,-0.00044751,-0.00035142,-0.00049092,-0.00629091,-0.0
 0079089,0.00043640,-0.00024168,-0.00027573,-0.00061434,0.00034680,0.00
 021596,0.00005035,0.00015535,-0.00009620,-0.00012779,-0.00015619,0.000
 06716,0.00144022,0.00045433,-0.00163601,-0.00321860,0.00033539,-0.0785
 9953,0.00720160,0.07650851\\-0.00000234,0.00000214,-0.00000670,0.00000
 594,-0.00000463,-0.00000671,0.00000470,0.00001945,-0.00000293,0.000000
 33,-0.00002557,-0.00002441,-0.00000312,0.00002307,0.00000500,0.0000180
 3,-0.00000282,-0.00000095,0.00000419,-0.00001268,0.00000301,-0.0000044
 2,0.00001706,0.00000708,-0.00001327,-0.00001512,-0.00000522,0.00000025
 ,-0.00000315,-0.00000015,-0.00000128,-0.00000013,0.00000234,0.00000443
 ,-0.00000051,0.00000061,0.00000093,0.00000405,-0.00000010,-0.00000156,
 0.00000025,0.00000193,0.00000206,0.00000098,0.00000285,-0.00001148,0.0
 0000261,0.00000881,0.00000396,-0.00000342,0.00000473,-0.00000678,-0.00
 000275,0.00000514,-0.00000643,0.00000018,0.00000604,0.00000063,0.00000
 148,0.00000309,0.00000016,0.00000315,0.00000140,0.00000303,0.,-0.00000
 212,0.00000135,-0.00000474,-0.00000519,0.00000072,0.00000110,0.0000024
 3\\\@


      THE ONE-EYED VIEW OF OUR UNIVERSE SAYS YOU MUST NOT LOOK
      FAR AFIELD FOR PROBLEMS.  SUCH PROBLEMS MAY NEVER ARRIVE. 
      INSTEAD, TEND TO THE WOLF WITHIN YOUR FENCES.
      THE PACKS RANGING OUTSIDE MAY NOT EVEN EXIST.

                              -- THE AZHAR BOOK SHAMRA I:4
                                 CHILDREN OF DUNE, BY FRANK HERBERT
 Job cpu time:       0 days  2 hours 37 minutes 37.3 seconds.
 Elapsed time:       0 days  0 hours 39 minutes 24.9 seconds.
 File lengths (MBytes):  RWF=    189 Int=      0 D2E=      0 Chk=     10 Scr=      1
 Normal termination of Gaussian 16 at Thu Aug  4 00:30:33 2022.
### All Done ###
