### Starting Gaussian ###
 Entering Gaussian System, Link 0=g16
 Initial command:
 /cluster/software/gaussian/gaussian-16-A.03/avx2/g16/l1.exe "/local/scratch/ks29c/Gau-24109.inp" -scrdir="/local/scratch/ks29c/"
 Entering Link 1 = /cluster/software/gaussian/gaussian-16-A.03/avx2/g16/l1.exe PID=     24110.
  
 Copyright (c) 1988,1990,1992,1993,1995,1998,2003,2009,2016,
            Gaussian, Inc.  All Rights Reserved.
  
 This is part of the Gaussian(R) 16 program.  It is based on
 the Gaussian(R) 09 system (copyright 2009, Gaussian, Inc.),
 the Gaussian(R) 03 system (copyright 2003, Gaussian, Inc.),
 the Gaussian(R) 98 system (copyright 1998, Gaussian, Inc.),
 the Gaussian(R) 94 system (copyright 1995, Gaussian, Inc.),
 the Gaussian 92(TM) system (copyright 1992, Gaussian, Inc.),
 the Gaussian 90(TM) system (copyright 1990, Gaussian, Inc.),
 the Gaussian 88(TM) system (copyright 1988, Gaussian, Inc.),
 the Gaussian 86(TM) system (copyright 1986, Carnegie Mellon
 University), and the Gaussian 82(TM) system (copyright 1983,
 Carnegie Mellon University). Gaussian is a federally registered
 trademark of Gaussian, Inc.
  
 This software contains proprietary and confidential information,
 including trade secrets, belonging to Gaussian, Inc.
  
 This software is provided under written license and may be
 used, copied, transmitted, or stored only in accord with that
 written license.
  
 The following legend is applicable only to US Government
 contracts under FAR:
  
                    RESTRICTED RIGHTS LEGEND
  
 Use, reproduction and disclosure by the US Government is
 subject to restrictions as set forth in subparagraphs (a)
 and (c) of the Commercial Computer Software - Restricted
 Rights clause in FAR 52.227-19.
  
 Gaussian, Inc.
 340 Quinnipiac St., Bldg. 40, Wallingford CT 06492
  
  
 ---------------------------------------------------------------
 Warning -- This program may not be used in any manner that
 competes with the business of Gaussian, Inc. or will provide
 assistance to any competitor of Gaussian, Inc.  The licensee
 of this program is prohibited from giving any competitor of
 Gaussian, Inc. access to this program.  By using this program,
 the user acknowledges that Gaussian, Inc. is engaged in the
 business of creating and licensing software in the field of
 computational chemistry and represents and warrants to the
 licensee that it is not a competitor of Gaussian, Inc. and that
 it will not use this program in any manner prohibited above.
 ---------------------------------------------------------------
  

 Cite this work as:
 Gaussian 16, Revision A.03,
 M. J. Frisch, G. W. Trucks, H. B. Schlegel, G. E. Scuseria, 
 M. A. Robb, J. R. Cheeseman, G. Scalmani, V. Barone, 
 G. A. Petersson, H. Nakatsuji, X. Li, M. Caricato, A. V. Marenich, 
 J. Bloino, B. G. Janesko, R. Gomperts, B. Mennucci, H. P. Hratchian, 
 J. V. Ortiz, A. F. Izmaylov, J. L. Sonnenberg, D. Williams-Young, 
 F. Ding, F. Lipparini, F. Egidi, J. Goings, B. Peng, A. Petrone, 
 T. Henderson, D. Ranasinghe, V. G. Zakrzewski, J. Gao, N. Rega, 
 G. Zheng, W. Liang, M. Hada, M. Ehara, K. Toyota, R. Fukuda, 
 J. Hasegawa, M. Ishida, T. Nakajima, Y. Honda, O. Kitao, H. Nakai, 
 T. Vreven, K. Throssell, J. A. Montgomery, Jr., J. E. Peralta, 
 F. Ogliaro, M. J. Bearpark, J. J. Heyd, E. N. Brothers, K. N. Kudin, 
 V. N. Staroverov, T. A. Keith, R. Kobayashi, J. Normand, 
 K. Raghavachari, A. P. Rendell, J. C. Burant, S. S. Iyengar, 
 J. Tomasi, M. Cossi, J. M. Millam, M. Klene, C. Adamo, R. Cammi, 
 J. W. Ochterski, R. L. Martin, K. Morokuma, O. Farkas, 
 J. B. Foresman, and D. J. Fox, Gaussian, Inc., Wallingford CT, 2016.
 
 ******************************************
 Gaussian 16:  ES64L-G16RevA.03 25-Dec-2016
                 4-Aug-2022 
 ******************************************
 %chk=CCC1pCOOpCC1dO.chk
 %NProcShared=20
 Will use up to   20 processors via shared memory.
 -----------------------------
 # opt freq b3lyp/6-31g(2df,p)
 -----------------------------
 1/18=20,19=15,26=3,38=1/1,3;
 2/9=110,12=2,17=6,18=5,40=1/2;
 3/5=1,6=6,7=104,11=2,25=1,30=1,71=1,74=-5/1,2,3;
 4//1;
 5/5=2,38=5/2;
 6/7=2,8=2,9=2,10=2,28=1/1;
 7//1,2,3,16;
 1/18=20,19=15,26=3/3(2);
 2/9=110/2;
 99//99;
 2/9=110/2;
 3/5=1,6=6,7=104,11=2,25=1,30=1,71=1,74=-5/1,2,3;
 4/5=5,16=3,69=1/1;
 5/5=2,38=5/2;
 7//1,2,3,16;
 1/18=20,19=15,26=3/3(-5);
 2/9=110/2;
 6/7=2,8=2,9=2,10=2,19=2,28=1/1;
 99/9=1/99;
 -------------------
 Title Card Required
 -------------------
 Symbolic Z-matrix:
 Charge =  0 Multiplicity = 1
 C                     0.90595   0.08937   0.16244 
 C                     2.41514   0.13602   0.14565 
 C                     3.07026   0.38934  -1.20901 
 C                     4.41771  -0.28843  -1.20389 
 O                     5.19919  -0.09187  -2.37395 
 O                     6.42375  -0.8424   -2.08743 
 C                     2.18208   0.53153  -2.46759 
 C                     2.94001   1.63542  -1.94016 
 O                     2.58611   2.75668  -1.60043 
 H                     0.55421  -0.20198   1.15655 
 H                     0.53641  -0.65664  -0.54877 
 H                     0.48116   1.06392  -0.08801 
 H                     2.74813  -0.8501    0.50028 
 H                     2.79327   0.85853   0.87853 
 H                     4.26896  -1.36522  -1.0698 
 H                     4.9883    0.09466  -0.34699 
 H                     6.88473  -0.63787  -2.91802 
 H                     1.10389   0.62001  -2.36952 
 H                     2.48952   0.16321  -3.43526 
 

 GradGradGradGradGradGradGradGradGradGradGradGradGradGradGradGradGradGrad
 Berny optimization.
 Initialization pass.
                           ----------------------------
                           !    Initial Parameters    !
                           ! (Angstroms and Degrees)  !
 --------------------------                            --------------------------
 ! Name  Definition              Value          Derivative Info.                !
 --------------------------------------------------------------------------------
 ! R1    R(1,2)                  1.51           estimate D2E/DX2                !
 ! R2    R(1,10)                 1.094          estimate D2E/DX2                !
 ! R3    R(1,11)                 1.0949         estimate D2E/DX2                !
 ! R4    R(1,12)                 1.0922         estimate D2E/DX2                !
 ! R5    R(2,3)                  1.5259         estimate D2E/DX2                !
 ! R6    R(2,13)                 1.0996         estimate D2E/DX2                !
 ! R7    R(2,14)                 1.0964         estimate D2E/DX2                !
 ! R8    R(3,4)                  1.5083         estimate D2E/DX2                !
 ! R9    R(3,7)                  1.547          estimate D2E/DX2                !
 ! R10   R(3,8)                  1.4506         estimate D2E/DX2                !
 ! R11   R(4,5)                  1.4207         estimate D2E/DX2                !
 ! R12   R(4,15)                 1.0953         estimate D2E/DX2                !
 ! R13   R(4,16)                 1.0985         estimate D2E/DX2                !
 ! R14   R(5,6)                  1.4646         estimate D2E/DX2                !
 ! R15   R(6,17)                 0.9717         estimate D2E/DX2                !
 ! R16   R(7,8)                  1.4392         estimate D2E/DX2                !
 ! R17   R(7,18)                 1.0863         estimate D2E/DX2                !
 ! R18   R(7,19)                 1.0801         estimate D2E/DX2                !
 ! R19   R(8,9)                  1.2239         estimate D2E/DX2                !
 ! A1    A(2,1,10)             109.8569         estimate D2E/DX2                !
 ! A2    A(2,1,11)             110.5571         estimate D2E/DX2                !
 ! A3    A(2,1,12)             111.0144         estimate D2E/DX2                !
 ! A4    A(10,1,11)            107.4738         estimate D2E/DX2                !
 ! A5    A(10,1,12)            108.7201         estimate D2E/DX2                !
 ! A6    A(11,1,12)            109.1305         estimate D2E/DX2                !
 ! A7    A(1,2,3)              116.3654         estimate D2E/DX2                !
 ! A8    A(1,2,13)             105.7463         estimate D2E/DX2                !
 ! A9    A(1,2,14)             110.9541         estimate D2E/DX2                !
 ! A10   A(3,2,13)             107.7691         estimate D2E/DX2                !
 ! A11   A(3,2,14)             109.6302         estimate D2E/DX2                !
 ! A12   A(13,2,14)            105.7214         estimate D2E/DX2                !
 ! A13   A(2,3,4)              107.8138         estimate D2E/DX2                !
 ! A14   A(2,3,7)              119.4082         estimate D2E/DX2                !
 ! A15   A(2,3,8)              123.4709         estimate D2E/DX2                !
 ! A16   A(4,3,7)              123.8467         estimate D2E/DX2                !
 ! A17   A(4,3,8)              117.8996         estimate D2E/DX2                !
 ! A18   A(3,4,5)              115.2415         estimate D2E/DX2                !
 ! A19   A(3,4,15)             108.7154         estimate D2E/DX2                !
 ! A20   A(3,4,16)             108.058          estimate D2E/DX2                !
 ! A21   A(5,4,15)             108.1531         estimate D2E/DX2                !
 ! A22   A(5,4,16)             107.9681         estimate D2E/DX2                !
 ! A23   A(15,4,16)            108.5369         estimate D2E/DX2                !
 ! A24   A(4,5,6)              103.1737         estimate D2E/DX2                !
 ! A25   A(5,6,17)              96.9828         estimate D2E/DX2                !
 ! A26   A(3,7,18)             120.2595         estimate D2E/DX2                !
 ! A27   A(3,7,19)             122.2853         estimate D2E/DX2                !
 ! A28   A(8,7,18)             115.2881         estimate D2E/DX2                !
 ! A29   A(8,7,19)             116.104          estimate D2E/DX2                !
 ! A30   A(18,7,19)            113.0291         estimate D2E/DX2                !
 ! A31   A(3,8,9)              132.3015         estimate D2E/DX2                !
 ! A32   A(7,8,9)              130.7047         estimate D2E/DX2                !
 ! D1    D(10,1,2,3)           174.0003         estimate D2E/DX2                !
 ! D2    D(10,1,2,13)           54.4198         estimate D2E/DX2                !
 ! D3    D(10,1,2,14)          -59.7496         estimate D2E/DX2                !
 ! D4    D(11,1,2,3)            55.5498         estimate D2E/DX2                !
 ! D5    D(11,1,2,13)          -64.0307         estimate D2E/DX2                !
 ! D6    D(11,1,2,14)         -178.2001         estimate D2E/DX2                !
 ! D7    D(12,1,2,3)           -65.7161         estimate D2E/DX2                !
 ! D8    D(12,1,2,13)          174.7034         estimate D2E/DX2                !
 ! D9    D(12,1,2,14)           60.534          estimate D2E/DX2                !
 ! D10   D(1,2,3,4)           -150.5891         estimate D2E/DX2                !
 ! D11   D(1,2,3,7)             -2.0849         estimate D2E/DX2                !
 ! D12   D(1,2,3,8)             66.1233         estimate D2E/DX2                !
 ! D13   D(13,2,3,4)           -32.106          estimate D2E/DX2                !
 ! D14   D(13,2,3,7)           116.3981         estimate D2E/DX2                !
 ! D15   D(13,2,3,8)          -175.3936         estimate D2E/DX2                !
 ! D16   D(14,2,3,4)            82.5012         estimate D2E/DX2                !
 ! D17   D(14,2,3,7)          -128.9946         estimate D2E/DX2                !
 ! D18   D(14,2,3,8)           -60.7864         estimate D2E/DX2                !
 ! D19   D(2,3,4,5)           -176.8031         estimate D2E/DX2                !
 ! D20   D(2,3,4,15)            61.6368         estimate D2E/DX2                !
 ! D21   D(2,3,4,16)           -55.977          estimate D2E/DX2                !
 ! D22   D(7,3,4,5)             36.4257         estimate D2E/DX2                !
 ! D23   D(7,3,4,15)           -85.1344         estimate D2E/DX2                !
 ! D24   D(7,3,4,16)           157.2518         estimate D2E/DX2                !
 ! D25   D(8,3,4,5)            -31.153          estimate D2E/DX2                !
 ! D26   D(8,3,4,15)          -152.7132         estimate D2E/DX2                !
 ! D27   D(8,3,4,16)            89.673          estimate D2E/DX2                !
 ! D28   D(2,3,7,18)            10.3514         estimate D2E/DX2                !
 ! D29   D(2,3,7,19)          -144.3825         estimate D2E/DX2                !
 ! D30   D(4,3,7,18)           153.5616         estimate D2E/DX2                !
 ! D31   D(4,3,7,19)            -1.1723         estimate D2E/DX2                !
 ! D32   D(2,3,8,9)             17.1056         estimate D2E/DX2                !
 ! D33   D(4,3,8,9)           -122.8045         estimate D2E/DX2                !
 ! D34   D(3,4,5,6)            179.767          estimate D2E/DX2                !
 ! D35   D(15,4,5,6)           -58.3696         estimate D2E/DX2                !
 ! D36   D(16,4,5,6)            58.892          estimate D2E/DX2                !
 ! D37   D(4,5,6,17)          -179.1021         estimate D2E/DX2                !
 ! D38   D(18,7,8,9)           -13.9267         estimate D2E/DX2                !
 ! D39   D(19,7,8,9)           121.5769         estimate D2E/DX2                !
 --------------------------------------------------------------------------------
 Trust Radius=3.00D-01 FncErr=1.00D-07 GrdErr=1.00D-06 EigMax=2.50D+02 EigMin=1.00D-04
 Number of steps in this run=    100 maximum allowed number of steps=    114.
 GradGradGradGradGradGradGradGradGradGradGradGradGradGradGradGradGradGrad

                          Input orientation:                          
 ---------------------------------------------------------------------
 Center     Atomic      Atomic             Coordinates (Angstroms)
 Number     Number       Type             X           Y           Z
 ---------------------------------------------------------------------
      1          6           0        0.905950    0.089370    0.162440
      2          6           0        2.415140    0.136020    0.145650
      3          6           0        3.070260    0.389340   -1.209010
      4          6           0        4.417710   -0.288430   -1.203890
      5          8           0        5.199190   -0.091870   -2.373950
      6          8           0        6.423750   -0.842400   -2.087430
      7          6           0        2.182080    0.531530   -2.467590
      8          6           0        2.940010    1.635420   -1.940160
      9          8           0        2.586110    2.756680   -1.600430
     10          1           0        0.554210   -0.201980    1.156550
     11          1           0        0.536410   -0.656640   -0.548770
     12          1           0        0.481160    1.063920   -0.088010
     13          1           0        2.748130   -0.850100    0.500280
     14          1           0        2.793270    0.858530    0.878530
     15          1           0        4.268960   -1.365220   -1.069800
     16          1           0        4.988300    0.094660   -0.346990
     17          1           0        6.884730   -0.637870   -2.918020
     18          1           0        1.103890    0.620010   -2.369520
     19          1           0        2.489520    0.163210   -3.435260
 ---------------------------------------------------------------------
                    Distance matrix (angstroms):
                    1          2          3          4          5
     1  C    0.000000
     2  C    1.510004   0.000000
     3  C    2.579747   1.525928   0.000000
     4  C    3.787090   2.451877   1.508317   0.000000
     5  O    4.989793   3.761815   2.474064   1.420700   0.000000
     6  O    6.031271   4.691791   3.678954   2.260912   1.464560
     7  C    2.956530   2.653256   1.546966   2.695796   3.082264
     8  C    3.308866   2.621887   1.450607   2.535131   2.876734
     9  O    3.611813   3.153710   2.447838   3.575570   3.942177
    10  H    1.094011   2.144580   3.503718   4.528331   5.835443
    11  H    1.094948   2.154102   2.819643   3.953385   5.039024
    12  H    1.092209   2.157747   2.900886   4.309346   5.368536
    13  H    2.095320   1.099581   2.135802   2.450952   3.852766
    14  H    2.160178   1.096411   2.157472   2.879374   4.155760
    15  H    3.865758   2.677254   2.129493   1.095255   2.046352
    16  H    4.114016   2.620221   2.123392   1.098457   2.046420
    17  H    6.764904   5.473775   4.304191   3.024324   1.853422
    18  H    2.594529   2.877447   2.294908   3.628410   4.156714
    19  H    3.931487   3.581786   2.311835   2.983439   2.921259
                    6          7          8          9         10
     6  O    0.000000
     7  C    4.474815   0.000000
     8  C    4.277584   1.439171   0.000000
     9  O    5.283751   2.422086   1.223881   0.000000
    10  H    6.736842   4.040098   4.319455   4.525840   0.000000
    11  H    6.087919   2.793179   3.600944   4.118011   1.764978
    12  H    6.553328   2.973040   3.130977   3.095750   1.776730
    13  H    4.495162   3.322283   3.488606   4.177092   2.379923
    14  H    4.987030   3.417163   2.927474   3.129078   2.493064
    15  H    2.439679   3.147467   3.395214   4.483705   4.484320
    16  H    2.442894   3.544386   3.017884   3.798418   4.691458
    17  H    0.971707   4.866755   4.656702   5.633573   7.541061
    18  H    5.524412   1.086250   2.141669   2.711795   3.662101
    19  H    4.278559   1.080076   2.146082   3.178367   4.996349
                   11         12         13         14         15
    11  H    0.000000
    12  H    1.782044   0.000000
    13  H    2.455532   3.024684   0.000000
    14  H    3.070235   2.514406   1.750579   0.000000
    15  H    3.834773   4.605655   2.245757   3.304348   0.000000
    16  H    4.519346   4.617450   2.574646   2.627461   1.780773
    17  H    6.776051   7.204912   5.370407   5.778672   3.284389
    18  H    2.294994   2.406270   3.619461   3.668886   3.955765
    19  H    3.580310   4.006104   4.072119   4.380013   3.331352
                   16         17         18         19
    16  H    0.000000
    17  H    3.277689   0.000000
    18  H    4.410812   5.941483   0.000000
    19  H    3.973161   4.497459   1.806776   0.000000
 Stoichiometry    C6H10O3
 Framework group  C1[X(C6H10O3)]
 Deg. of freedom    51
 Full point group                 C1      NOp   1
 Largest Abelian subgroup         C1      NOp   1
 Largest concise Abelian subgroup C1      NOp   1
                         Standard orientation:                         
 ---------------------------------------------------------------------
 Center     Atomic      Atomic             Coordinates (Angstroms)
 Number     Number       Type             X           Y           Z
 ---------------------------------------------------------------------
      1          6           0        2.634071   -1.247782    0.193658
      2          6           0        1.283070   -1.187603   -0.478121
      3          6           0        0.319518   -0.120028    0.032081
      4          6           0       -1.084938   -0.631885   -0.169228
      5          8           0       -2.117660    0.275067    0.190370
      6          8           0       -3.339575   -0.473908   -0.111119
      7          6           0        0.745412    0.786773    1.210823
      8          6           0        0.550968    1.304109   -0.117999
      9          8           0        1.300698    1.944916   -0.842677
     10          1           0        3.194985   -2.111071   -0.176435
     11          1           0        2.520259   -1.369040    1.275903
     12          1           0        3.211599   -0.342581   -0.006326
     13          1           0        0.819188   -2.169200   -0.303888
     14          1           0        1.389589   -1.098192   -1.565676
     15          1           0       -1.213506   -1.546323    0.419717
     16          1           0       -1.207529   -0.880889   -1.232044
     17          1           0       -3.969742    0.219001    0.147688
     18          1           0        1.773605    0.782269    1.561163
     19          1           0        0.045239    1.125930    1.960019
 ---------------------------------------------------------------------
 Rotational constants (GHZ):           2.5765443           1.0043970           0.8307056
 Standard basis: 6-31G(2df,p) (6D, 7F)
 There are   329 symmetry adapted cartesian basis functions of A   symmetry.
 There are   302 symmetry adapted basis functions of A   symmetry.
   302 basis functions,   466 primitive gaussians,   329 cartesian basis functions
    35 alpha electrons       35 beta electrons
       nuclear repulsion energy       462.3233770706 Hartrees.
 NAtoms=   19 NActive=   19 NUniq=   19 SFac= 1.00D+00 NAtFMM=   60 NAOKFM=F Big=F
 Integral buffers will be    131072 words long.
 Raffenetti 2 integral format.
 Two-electron integral symmetry is turned on.
 One-electron integrals computed using PRISM.
 PrsmSu:  requested number of processors reduced to:  13 ShMem   1 Linda.
 NBasis=   302 RedAO= T EigKep=  6.32D-04  NBF=   302
 NBsUse=   302 1.00D-06 EigRej= -1.00D+00 NBFU=   302
 ExpMin= 1.61D-01 ExpMax= 5.48D+03 ExpMxC= 8.25D+02 IAcc=3 IRadAn=         5 AccDes= 0.00D+00
 Harris functional with IExCor=  402 and IRadAn=       5 diagonalized for initial guess.
 HarFok:  IExCor=  402 AccDes= 0.00D+00 IRadAn=         5 IDoV= 1 UseB2=F ITyADJ=14
 ICtDFT=  3500011 ScaDFX=  1.000000  1.000000  1.000000  1.000000
 FoFCou: FMM=F IPFlag=           0 FMFlag=      100000 FMFlg1=           0
         NFxFlg=           0 DoJE=T BraDBF=F KetDBF=T FulRan=T
         wScrn=  0.000000 ICntrl=       500 IOpCl=  0 I1Cent=   200000004 NGrid=           0
         NMat0=    1 NMatS0=      1 NMatT0=    0 NMatD0=    1 NMtDS0=    0 NMtDT0=    0
 Petite list used in FoFCou.
 Requested convergence on RMS density matrix=1.00D-08 within 128 cycles.
 Requested convergence on MAX density matrix=1.00D-06.
 Requested convergence on             energy=1.00D-06.
 No special actions if energy rises.
 Integral accuracy reduced to 1.0D-05 until final iterations.
 Initial convergence to 1.0D-05 achieved.  Increase integral accuracy.
 SCF Done:  E(RB3LYP) =  -460.163843593     A.U. after   16 cycles
            NFock= 16  Conv=0.37D-08     -V/T= 2.0065

 **********************************************************************

            Population analysis using the SCF density.

 **********************************************************************

 Orbital symmetries:
       Occupied  (A) (A) (A) (A) (A) (A) (A) (A) (A) (A) (A) (A)
                 (A) (A) (A) (A) (A) (A) (A) (A) (A) (A) (A) (A)
                 (A) (A) (A) (A) (A) (A) (A) (A) (A) (A) (A)
       Virtual   (A) (A) (A) (A) (A) (A) (A) (A) (A) (A) (A) (A)
                 (A) (A) (A) (A) (A) (A) (A) (A) (A) (A) (A) (A)
                 (A) (A) (A) (A) (A) (A) (A) (A) (A) (A) (A) (A)
                 (A) (A) (A) (A) (A) (A) (A) (A) (A) (A) (A) (A)
                 (A) (A) (A) (A) (A) (A) (A) (A) (A) (A) (A) (A)
                 (A) (A) (A) (A) (A) (A) (A) (A) (A) (A) (A) (A)
                 (A) (A) (A) (A) (A) (A) (A) (A) (A) (A) (A) (A)
                 (A) (A) (A) (A) (A) (A) (A) (A) (A) (A) (A) (A)
                 (A) (A) (A) (A) (A) (A) (A) (A) (A) (A) (A) (A)
                 (A) (A) (A) (A) (A) (A) (A) (A) (A) (A) (A) (A)
                 (A) (A) (A) (A) (A) (A) (A) (A) (A) (A) (A) (A)
                 (A) (A) (A) (A) (A) (A) (A) (A) (A) (A) (A) (A)
                 (A) (A) (A) (A) (A) (A) (A) (A) (A) (A) (A) (A)
                 (A) (A) (A) (A) (A) (A) (A) (A) (A) (A) (A) (A)
                 (A) (A) (A) (A) (A) (A) (A) (A) (A) (A) (A) (A)
                 (A) (A) (A) (A) (A) (A) (A) (A) (A) (A) (A) (A)
                 (A) (A) (A) (A) (A) (A) (A) (A) (A) (A) (A) (A)
                 (A) (A) (A) (A) (A) (A) (A) (A) (A) (A) (A) (A)
                 (A) (A) (A) (A) (A) (A) (A) (A) (A) (A) (A) (A)
                 (A) (A) (A) (A) (A) (A) (A) (A) (A) (A) (A) (A)
                 (A) (A) (A) (A) (A) (A) (A) (A) (A) (A) (A) (A)
                 (A) (A) (A) (A) (A) (A) (A) (A) (A) (A) (A) (A)
                 (A) (A) (A)
 The electronic state is 1-A.
 Alpha  occ. eigenvalues --  -19.20114 -19.19911 -19.13955 -10.26672 -10.24231
 Alpha  occ. eigenvalues --  -10.22033 -10.19959 -10.19830 -10.18464  -1.11815
 Alpha  occ. eigenvalues --   -1.03664  -0.92495  -0.87420  -0.77735  -0.71358
 Alpha  occ. eigenvalues --   -0.62954  -0.59357  -0.53739  -0.51736  -0.48747
 Alpha  occ. eigenvalues --   -0.48424  -0.47077  -0.45292  -0.44802  -0.41127
 Alpha  occ. eigenvalues --   -0.40238  -0.38351  -0.36598  -0.36249  -0.35795
 Alpha  occ. eigenvalues --   -0.34824  -0.34294  -0.31141  -0.24900  -0.22160
 Alpha virt. eigenvalues --   -0.06476   0.01189   0.07928   0.08732   0.10518
 Alpha virt. eigenvalues --    0.11601   0.14029   0.14886   0.15369   0.15626
 Alpha virt. eigenvalues --    0.15930   0.17418   0.18613   0.21654   0.23682
 Alpha virt. eigenvalues --    0.25442   0.25686   0.28316   0.30859   0.31615
 Alpha virt. eigenvalues --    0.42314   0.43345   0.45097   0.47351   0.48407
 Alpha virt. eigenvalues --    0.50281   0.52064   0.53809   0.55284   0.57050
 Alpha virt. eigenvalues --    0.57470   0.59650   0.61749   0.62534   0.64020
 Alpha virt. eigenvalues --    0.66167   0.66790   0.68972   0.70755   0.71287
 Alpha virt. eigenvalues --    0.72797   0.73670   0.74433   0.74784   0.75326
 Alpha virt. eigenvalues --    0.77215   0.78130   0.79145   0.81363   0.81879
 Alpha virt. eigenvalues --    0.82672   0.83338   0.86006   0.88516   0.90662
 Alpha virt. eigenvalues --    0.91195   0.92044   0.93346   0.94965   0.97337
 Alpha virt. eigenvalues --    0.97934   1.00421   1.01715   1.02072   1.03957
 Alpha virt. eigenvalues --    1.07212   1.10657   1.12518   1.15324   1.17807
 Alpha virt. eigenvalues --    1.19102   1.22430   1.25207   1.27007   1.30382
 Alpha virt. eigenvalues --    1.31666   1.34782   1.37129   1.38603   1.39414
 Alpha virt. eigenvalues --    1.41737   1.45565   1.46201   1.46769   1.48349
 Alpha virt. eigenvalues --    1.50728   1.52339   1.53972   1.58644   1.59835
 Alpha virt. eigenvalues --    1.59980   1.61237   1.64947   1.68864   1.70361
 Alpha virt. eigenvalues --    1.72272   1.74304   1.77702   1.81195   1.84368
 Alpha virt. eigenvalues --    1.85325   1.88976   1.91892   1.94270   1.94935
 Alpha virt. eigenvalues --    1.95987   1.98219   2.00428   2.05340   2.10333
 Alpha virt. eigenvalues --    2.14648   2.16720   2.21070   2.24488   2.28276
 Alpha virt. eigenvalues --    2.29362   2.32802   2.36354   2.38953   2.48095
 Alpha virt. eigenvalues --    2.49001   2.51988   2.53597   2.57616   2.60951
 Alpha virt. eigenvalues --    2.63415   2.68078   2.71578   2.73320   2.77203
 Alpha virt. eigenvalues --    2.77596   2.79446   2.80807   2.82712   2.85361
 Alpha virt. eigenvalues --    2.86606   2.87260   2.89605   2.91562   2.93548
 Alpha virt. eigenvalues --    2.94104   2.97117   2.98782   3.01741   3.08302
 Alpha virt. eigenvalues --    3.13520   3.15117   3.18458   3.18690   3.22110
 Alpha virt. eigenvalues --    3.26508   3.27677   3.30350   3.34160   3.35593
 Alpha virt. eigenvalues --    3.36050   3.38873   3.40799   3.45725   3.48261
 Alpha virt. eigenvalues --    3.51386   3.53635   3.56876   3.57985   3.61933
 Alpha virt. eigenvalues --    3.66399   3.70199   3.71577   3.72784   3.77801
 Alpha virt. eigenvalues --    3.79734   3.82311   3.87162   3.90041   3.93484
 Alpha virt. eigenvalues --    3.98697   4.00813   4.04968   4.06273   4.09792
 Alpha virt. eigenvalues --    4.10674   4.12239   4.13918   4.14940   4.18751
 Alpha virt. eigenvalues --    4.21389   4.24786   4.26343   4.28313   4.34395
 Alpha virt. eigenvalues --    4.35696   4.37774   4.39907   4.40666   4.45194
 Alpha virt. eigenvalues --    4.47211   4.48670   4.50690   4.51460   4.54700
 Alpha virt. eigenvalues --    4.57524   4.59267   4.60063   4.64284   4.64681
 Alpha virt. eigenvalues --    4.66497   4.69090   4.70798   4.71779   4.73387
 Alpha virt. eigenvalues --    4.74254   4.76117   4.77146   4.79538   4.80087
 Alpha virt. eigenvalues --    4.81385   4.84714   4.86983   4.91475   4.92574
 Alpha virt. eigenvalues --    4.95402   4.95792   4.98205   4.99604   5.05046
 Alpha virt. eigenvalues --    5.07107   5.10353   5.11024   5.17643   5.21906
 Alpha virt. eigenvalues --    5.27208   5.30267   5.35825   5.39928   5.40619
 Alpha virt. eigenvalues --    5.42444   5.44446   5.45735   5.48374   5.56158
 Alpha virt. eigenvalues --    5.59845   5.62384   5.67718   5.70322   5.74279
 Alpha virt. eigenvalues --    5.78855   5.88950   6.01151   6.09360   6.19738
 Alpha virt. eigenvalues --    6.22867   6.25016   6.31565   6.40447   6.55442
 Alpha virt. eigenvalues --    6.79580   6.88660   7.11778  10.85078  11.43452
 Alpha virt. eigenvalues --   11.72730  11.92855  12.12375  12.66153  12.93520
 Alpha virt. eigenvalues --   13.05729  13.41008
          Condensed to atoms (all electrons):
               1          2          3          4          5          6
     1  C    4.969898   0.393640  -0.020025   0.001439  -0.000028   0.000000
     2  C    0.393640   4.913399   0.404818  -0.050361   0.001112  -0.000030
     3  C   -0.020025   0.404818   4.827682   0.386249  -0.025726   0.002355
     4  C    0.001439  -0.050361   0.386249   4.767871   0.341051  -0.045324
     5  O   -0.000028   0.001112  -0.025726   0.341051   7.866938   0.115079
     6  O    0.000000  -0.000030   0.002355  -0.045324   0.115079   7.949190
     7  C   -0.007503  -0.036425   0.144909  -0.011815   0.003215  -0.000034
     8  C    0.000705  -0.030420   0.316331  -0.019589   0.006981  -0.000128
     9  O   -0.000633  -0.000449  -0.073644   0.000044  -0.000095  -0.000000
    10  H    0.376968  -0.021421   0.002707  -0.000088   0.000000  -0.000000
    11  H    0.378360  -0.028327  -0.005605   0.000226  -0.000002   0.000000
    12  H    0.378146  -0.023877  -0.006208   0.000095   0.000001   0.000000
    13  H   -0.039485   0.369928  -0.034752  -0.011885   0.000123  -0.000007
    14  H   -0.034356   0.360587  -0.023511   0.002574  -0.000012   0.000001
    15  H   -0.000121  -0.004578  -0.024410   0.339683  -0.033359   0.004812
    16  H    0.000148  -0.002283  -0.021767   0.349697  -0.031527   0.004823
    17  H   -0.000000   0.000001  -0.000504   0.001027  -0.029382   0.291154
    18  H    0.006549  -0.012442  -0.001215   0.002510   0.000033   0.000000
    19  H   -0.000080   0.003610  -0.005276  -0.008160   0.003196  -0.000071
               7          8          9         10         11         12
     1  C   -0.007503   0.000705  -0.000633   0.376968   0.378360   0.378146
     2  C   -0.036425  -0.030420  -0.000449  -0.021421  -0.028327  -0.023877
     3  C    0.144909   0.316331  -0.073644   0.002707  -0.005605  -0.006208
     4  C   -0.011815  -0.019589   0.000044  -0.000088   0.000226   0.000095
     5  O    0.003215   0.006981  -0.000095   0.000000  -0.000002   0.000001
     6  O   -0.000034  -0.000128  -0.000000  -0.000000   0.000000   0.000000
     7  C    5.404763   0.255199  -0.049524   0.000303   0.002460  -0.002375
     8  C    0.255199   4.450862   0.731584  -0.000064  -0.000015   0.002069
     9  O   -0.049524   0.731584   7.676158  -0.000024   0.000005   0.002375
    10  H    0.000303  -0.000064  -0.000024   0.586226  -0.030465  -0.029427
    11  H    0.002460  -0.000015   0.000005  -0.030465   0.590641  -0.033650
    12  H   -0.002375   0.002069   0.002375  -0.029427  -0.033650   0.572248
    13  H   -0.000471   0.004389   0.000046  -0.004069  -0.004390   0.005964
    14  H    0.005832  -0.006257   0.002242  -0.001962   0.005397  -0.005044
    15  H   -0.008598   0.006817  -0.000085  -0.000009   0.000083   0.000007
    16  H    0.006805  -0.009264   0.000504  -0.000000   0.000014  -0.000010
    17  H    0.000008  -0.000003  -0.000000   0.000000  -0.000000  -0.000000
    18  H    0.357216  -0.018686  -0.004441  -0.000277   0.001651   0.002413
    19  H    0.332654  -0.004139   0.001635  -0.000006  -0.000039   0.000117
              13         14         15         16         17         18
     1  C   -0.039485  -0.034356  -0.000121   0.000148  -0.000000   0.006549
     2  C    0.369928   0.360587  -0.004578  -0.002283   0.000001  -0.012442
     3  C   -0.034752  -0.023511  -0.024410  -0.021767  -0.000504  -0.001215
     4  C   -0.011885   0.002574   0.339683   0.349697   0.001027   0.002510
     5  O    0.000123  -0.000012  -0.033359  -0.031527  -0.029382   0.000033
     6  O   -0.000007   0.000001   0.004812   0.004823   0.291154   0.000000
     7  C   -0.000471   0.005832  -0.008598   0.006805   0.000008   0.357216
     8  C    0.004389  -0.006257   0.006817  -0.009264  -0.000003  -0.018686
     9  O    0.000046   0.002242  -0.000085   0.000504  -0.000000  -0.004441
    10  H   -0.004069  -0.001962  -0.000009  -0.000000   0.000000  -0.000277
    11  H   -0.004390   0.005397   0.000083   0.000014  -0.000000   0.001651
    12  H    0.005964  -0.005044   0.000007  -0.000010  -0.000000   0.002413
    13  H    0.637774  -0.041028   0.008959  -0.000470   0.000001   0.000415
    14  H   -0.041028   0.609218  -0.000572   0.002737  -0.000000  -0.000080
    15  H    0.008959  -0.000572   0.664568  -0.057858   0.000342   0.000160
    16  H   -0.000470   0.002737  -0.057858   0.639691   0.000210  -0.000086
    17  H    0.000001  -0.000000   0.000342   0.000210   0.417846  -0.000000
    18  H    0.000415  -0.000080   0.000160  -0.000086  -0.000000   0.554033
    19  H    0.000097  -0.000119   0.001021   0.000108   0.000009  -0.031475
              19
     1  C   -0.000080
     2  C    0.003610
     3  C   -0.005276
     4  C   -0.008160
     5  O    0.003196
     6  O   -0.000071
     7  C    0.332654
     8  C   -0.004139
     9  O    0.001635
    10  H   -0.000006
    11  H   -0.000039
    12  H    0.000117
    13  H    0.000097
    14  H   -0.000119
    15  H    0.001021
    16  H    0.000108
    17  H    0.000009
    18  H   -0.031475
    19  H    0.571368
 Mulliken charges:
               1
     1  C   -0.403624
     2  C   -0.236482
     3  C    0.157592
     4  C   -0.045242
     5  O   -0.217596
     6  O   -0.321820
     7  C   -0.396621
     8  C    0.313629
     9  O   -0.285697
    10  H    0.121609
    11  H    0.123655
    12  H    0.137157
    13  H    0.108860
    14  H    0.124352
    15  H    0.103138
    16  H    0.118529
    17  H    0.319292
    18  H    0.143722
    19  H    0.135548
 Sum of Mulliken charges =  -0.00000
 Mulliken charges with hydrogens summed into heavy atoms:
               1
     1  C   -0.021204
     2  C   -0.003269
     3  C    0.157592
     4  C    0.176425
     5  O   -0.217596
     6  O   -0.002528
     7  C   -0.117351
     8  C    0.313629
     9  O   -0.285697
 Electronic spatial extent (au):  <R**2>=           1430.2633
 Charge=              0.0000 electrons
 Dipole moment (field-independent basis, Debye):
    X=             -0.8030    Y=             -1.8356    Z=              1.4940  Tot=              2.4993
 Quadrupole moment (field-independent basis, Debye-Ang):
   XX=            -47.8726   YY=            -57.0031   ZZ=            -53.5644
   XY=             -7.1534   XZ=              1.0365   YZ=              3.8386
 Traceless Quadrupole moment (field-independent basis, Debye-Ang):
   XX=              4.9408   YY=             -4.1898   ZZ=             -0.7510
   XY=             -7.1534   XZ=              1.0365   YZ=              3.8386
 Octapole moment (field-independent basis, Debye-Ang**2):
  XXX=            -56.8113  YYY=             -6.9446  ZZZ=             -0.6732  XYY=            -12.2254
  XXY=              9.8056  XXZ=              6.8150  XZZ=             -6.2738  YZZ=              0.5462
  YYZ=              4.7732  XYZ=              4.3142
 Hexadecapole moment (field-independent basis, Debye-Ang**3):
 XXXX=           -909.7947 YYYY=           -449.5279 ZZZZ=           -177.3649 XXXY=            -50.5051
 XXXZ=            -25.5350 YYYX=            -12.6488 YYYZ=              5.0910 ZZZX=             -2.0493
 ZZZY=              2.0412 XXYY=           -270.6845 XXZZ=           -222.3577 YYZZ=           -105.0660
 XXYZ=              7.7455 YYXZ=              4.0261 ZZXY=              0.3295
 N-N= 4.623233770706D+02 E-N=-2.000722151627D+03  KE= 4.571733278318D+02
 PrsmSu:  requested number of processors reduced to:  13 ShMem   1 Linda.
 Calling FoFJK, ICntrl=      2127 FMM=F ISym2X=0 I1Cent= 0 IOpClX= 0 NMat=1 NMatS=1 NMatT=0.
 ***** Axes restored to original set *****
 -------------------------------------------------------------------
 Center     Atomic                   Forces (Hartrees/Bohr)
 Number     Number              X              Y              Z
 -------------------------------------------------------------------
      1        6          -0.007046656    0.003124171   -0.001691594
      2        6           0.007023390   -0.000907235    0.009283858
      3        6           0.031903960   -0.013750729    0.004056412
      4        6           0.005996898   -0.019591890   -0.004605475
      5        8          -0.007770918    0.002569172    0.002517558
      6        8          -0.002926983    0.006019592   -0.008697500
      7        6           0.003408053   -0.010096255   -0.044449630
      8        6          -0.064590086    0.049347720    0.053341027
      9        8           0.029767061    0.001009439   -0.017646389
     10        1          -0.000596102    0.001672680   -0.000111883
     11        1          -0.001642094    0.000917852    0.000687227
     12        1          -0.003838924    0.000348293    0.000047438
     13        1           0.004256727    0.001607300   -0.001400759
     14        1          -0.000770317    0.001078377   -0.000665397
     15        1           0.003245410   -0.003863561    0.001622200
     16        1          -0.002300019   -0.000185610    0.001885455
     17        1           0.000596064   -0.002529135    0.004674479
     18        1           0.001306887    0.000197601    0.001196276
     19        1           0.003977649   -0.016967784   -0.000043301
 -------------------------------------------------------------------
 Cartesian Forces:  Max     0.064590086 RMS     0.016338709

 GradGradGradGradGradGradGradGradGradGradGradGradGradGradGradGradGradGrad
 Berny optimization.
 FormGI is forming the generalized inverse of G from B-inverse, IUseBI=4.
 Internal  Forces:  Max     0.040376785 RMS     0.011236428
 Search for a local minimum.
 Step number   1 out of a maximum of  100
 All quantities printed in internal units (Hartrees-Bohrs-Radians)
 Mixed Optimization -- RFO/linear search
 Second derivative matrix not updated -- first step.
 ITU=  0
     Eigenvalues ---    0.00423   0.00441   0.00634   0.00656   0.01418
     Eigenvalues ---    0.01995   0.02382   0.03201   0.03269   0.04558
     Eigenvalues ---    0.04772   0.04908   0.05705   0.05886   0.05890
     Eigenvalues ---    0.06083   0.09045   0.11890   0.12410   0.12725
     Eigenvalues ---    0.12762   0.14144   0.16000   0.16000   0.16000
     Eigenvalues ---    0.16000   0.16649   0.18330   0.21039   0.21963
     Eigenvalues ---    0.22147   0.25000   0.25280   0.29803   0.30277
     Eigenvalues ---    0.31350   0.31520   0.33729   0.33853   0.34082
     Eigenvalues ---    0.34212   0.34247   0.34353   0.34559   0.35250
     Eigenvalues ---    0.35985   0.36399   0.37323   0.42355   0.53030
     Eigenvalues ---    0.93684
 RFO step:  Lambda=-4.45369129D-02 EMin= 4.22966797D-03
 Linear search not attempted -- first point.
 Maximum step size (   0.300) exceeded in Quadratic search.
    -- Step size scaled by   0.766
 Iteration  1 RMS(Cart)=  0.10062302 RMS(Int)=  0.00658541
 Iteration  2 RMS(Cart)=  0.00990265 RMS(Int)=  0.00247262
 Iteration  3 RMS(Cart)=  0.00013034 RMS(Int)=  0.00247195
 Iteration  4 RMS(Cart)=  0.00000110 RMS(Int)=  0.00247195
 Iteration  5 RMS(Cart)=  0.00000001 RMS(Int)=  0.00247195
 Variable       Old X    -DE/DX   Delta X   Delta X   Delta X     New X
                                 (Linear)    (Quad)   (Total)
    R1        2.85349   0.01292   0.00000   0.02762   0.02762   2.88112
    R2        2.06738  -0.00036   0.00000  -0.00070  -0.00070   2.06668
    R3        2.06915  -0.00052   0.00000  -0.00103  -0.00103   2.06813
    R4        2.06397   0.00179   0.00000   0.00352   0.00352   2.06749
    R5        2.88359   0.00528   0.00000   0.01180   0.01180   2.89539
    R6        2.07791  -0.00060   0.00000  -0.00121  -0.00121   2.07669
    R7        2.07192   0.00000   0.00000   0.00000   0.00000   2.07192
    R8        2.85031   0.00507   0.00000   0.01079   0.01079   2.86109
    R9        2.92334   0.01824   0.00000   0.04757   0.03881   2.96215
   R10        2.74125   0.01633   0.00000   0.02470   0.02566   2.76691
   R11        2.68473  -0.00348   0.00000  -0.00569  -0.00569   2.67904
   R12        2.06973   0.00356   0.00000   0.00704   0.00704   2.07677
   R13        2.07578   0.00021   0.00000   0.00042   0.00042   2.07621
   R14        2.76762  -0.00452   0.00000  -0.00848  -0.00848   2.75914
   R15        1.83626  -0.00425   0.00000  -0.00565  -0.00565   1.83061
   R16        2.71964   0.02240   0.00000   0.03987   0.04829   2.76793
   R17        2.05272  -0.00117   0.00000  -0.00226  -0.00226   2.05045
   R18        2.04105   0.00696   0.00000   0.01317   0.01317   2.05422
   R19        2.31280  -0.01258   0.00000  -0.00982  -0.00982   2.30298
    A1        1.91736  -0.00028   0.00000  -0.00178  -0.00177   1.91560
    A2        1.92958   0.00206   0.00000   0.00858   0.00853   1.93811
    A3        1.93757   0.00419   0.00000   0.01553   0.01548   1.95305
    A4        1.87577  -0.00077   0.00000  -0.00258  -0.00258   1.87319
    A5        1.89752  -0.00257   0.00000  -0.01130  -0.01128   1.88624
    A6        1.90469  -0.00288   0.00000  -0.00943  -0.00952   1.89517
    A7        2.03096  -0.00019   0.00000  -0.00076  -0.00085   2.03011
    A8        1.84562   0.00462   0.00000   0.02827   0.02830   1.87392
    A9        1.93651  -0.00173   0.00000  -0.01148  -0.01152   1.92500
   A10        1.88093  -0.00240   0.00000  -0.00714  -0.00725   1.87367
   A11        1.91341  -0.00005   0.00000  -0.00723  -0.00734   1.90607
   A12        1.84519  -0.00010   0.00000  -0.00002   0.00000   1.84519
   A13        1.88171   0.00974   0.00000   0.02616   0.02471   1.90642
   A14        2.08407   0.02531   0.00000   0.07087   0.07504   2.15911
   A15        2.15497  -0.02625   0.00000  -0.07706  -0.07703   2.07794
   A16        2.16153  -0.03615   0.00000  -0.10283  -0.10373   2.05780
   A17        2.05774   0.01667   0.00000   0.05682   0.05981   2.11755
   A18        2.01134  -0.02502   0.00000  -0.07358  -0.07350   1.93785
   A19        1.89744   0.01069   0.00000   0.03800   0.03825   1.93569
   A20        1.88597   0.00243   0.00000  -0.00056  -0.00084   1.88513
   A21        1.88763   0.00631   0.00000   0.01736   0.01795   1.90557
   A22        1.88440   0.00975   0.00000   0.02523   0.02446   1.90886
   A23        1.89433  -0.00350   0.00000  -0.00406  -0.00443   1.88990
   A24        1.80072   0.00411   0.00000   0.01069   0.01069   1.81141
   A25        1.69267   0.00597   0.00000   0.02233   0.02233   1.71500
   A26        2.09892   0.01964   0.00000   0.04288   0.04592   2.14484
   A27        2.13428  -0.02608   0.00000  -0.09054  -0.09366   2.04062
   A28        2.01216  -0.02018   0.00000  -0.03906  -0.03930   1.97286
   A29        2.02640   0.02501   0.00000   0.09427   0.09641   2.12280
   A30        1.97273   0.00299   0.00000   0.01376   0.01137   1.98410
   A31        2.30910   0.03344   0.00000   0.10843   0.09813   2.40722
   A32        2.28123   0.04038   0.00000   0.12625   0.11539   2.39661
    D1        3.03688   0.00122   0.00000   0.01695   0.01697   3.05385
    D2        0.94980   0.00101   0.00000   0.00585   0.00579   0.95560
    D3       -1.04283  -0.00056   0.00000  -0.00405  -0.00400  -1.04683
    D4        0.96953   0.00108   0.00000   0.01598   0.01602   0.98555
    D5       -1.11755   0.00088   0.00000   0.00487   0.00484  -1.11271
    D6       -3.11018  -0.00070   0.00000  -0.00503  -0.00496  -3.11514
    D7       -1.14696   0.00051   0.00000   0.01165   0.01164  -1.13532
    D8        3.04915   0.00031   0.00000   0.00055   0.00046   3.04961
    D9        1.05652  -0.00127   0.00000  -0.00935  -0.00934   1.04718
   D10       -2.62827   0.00520   0.00000   0.00328   0.00330  -2.62498
   D11       -0.03639  -0.00964   0.00000  -0.04309  -0.04135  -0.07774
   D12        1.15407  -0.00342   0.00000  -0.03294  -0.03462   1.11945
   D13       -0.56036   0.00923   0.00000   0.03380   0.03376  -0.52659
   D14        2.03153  -0.00560   0.00000  -0.01257  -0.01088   2.02065
   D15       -3.06120   0.00061   0.00000  -0.00242  -0.00416  -3.06535
   D16        1.43992   0.00780   0.00000   0.02620   0.02620   1.46611
   D17       -2.25138  -0.00704   0.00000  -0.02017  -0.01845  -2.26983
   D18       -1.06092  -0.00082   0.00000  -0.01002  -0.01172  -1.07265
   D19       -3.08580   0.00713   0.00000   0.02389   0.02358  -3.06221
   D20        1.07576   0.00796   0.00000   0.02292   0.02324   1.09901
   D21       -0.97698   0.00495   0.00000   0.00734   0.00759  -0.96939
   D22        0.63575  -0.00224   0.00000   0.00213  -0.00117   0.63458
   D23       -1.48588  -0.00141   0.00000   0.00116  -0.00151  -1.48739
   D24        2.74456  -0.00442   0.00000  -0.01442  -0.01716   2.72740
   D25       -0.54372  -0.00286   0.00000   0.00171   0.00413  -0.53959
   D26       -2.66535  -0.00203   0.00000   0.00074   0.00379  -2.66156
   D27        1.56509  -0.00504   0.00000  -0.01484  -0.01186   1.55323
   D28        0.18067  -0.00717   0.00000  -0.05259  -0.05096   0.12970
   D29       -2.51995   0.00120   0.00000   0.03523   0.03415  -2.48580
   D30        2.68016  -0.00480   0.00000  -0.05134  -0.05022   2.62993
   D31       -0.02046   0.00357   0.00000   0.03649   0.03489   0.01443
   D32        0.29855   0.00832   0.00000   0.04904   0.05175   0.35030
   D33       -2.14334   0.00339   0.00000   0.02640   0.02937  -2.11398
   D34        3.13753  -0.00280   0.00000  -0.01690  -0.01710   3.12043
   D35       -1.01874  -0.00112   0.00000  -0.00439  -0.00452  -1.02326
   D36        1.02786   0.00334   0.00000   0.01361   0.01394   1.04180
   D37       -3.12592   0.00028   0.00000   0.00437   0.00437  -3.12156
   D38       -0.24307  -0.01127   0.00000  -0.08181  -0.08690  -0.32997
   D39        2.12192  -0.00091   0.00000   0.00491   0.00476   2.12668
         Item               Value     Threshold  Converged?
 Maximum Force            0.040377     0.000450     NO 
 RMS     Force            0.011236     0.000300     NO 
 Maximum Displacement     0.505120     0.001800     NO 
 RMS     Displacement     0.106888     0.001200     NO 
 Predicted change in Energy=-2.358840D-02
 GradGradGradGradGradGradGradGradGradGradGradGradGradGradGradGradGradGrad

                          Input orientation:                          
 ---------------------------------------------------------------------
 Center     Atomic      Atomic             Coordinates (Angstroms)
 Number     Number       Type             X           Y           Z
 ---------------------------------------------------------------------
      1          6           0        0.873293    0.129923    0.190892
      2          6           0        2.397906    0.135024    0.190184
      3          6           0        3.075762    0.368888   -1.163837
      4          6           0        4.413369   -0.340189   -1.180936
      5          8           0        5.120590   -0.063517   -2.378071
      6          8           0        6.376919   -0.789524   -2.215706
      7          6           0        2.295072    0.495138   -2.517220
      8          6           0        2.886011    1.652719   -1.841784
      9          8           0        2.551098    2.788024   -1.551757
     10          1           0        0.504976   -0.133112    1.186484
     11          1           0        0.482448   -0.615464   -0.508652
     12          1           0        0.461793    1.107948   -0.075801
     13          1           0        2.729396   -0.846206    0.557565
     14          1           0        2.776075    0.866534    0.914061
     15          1           0        4.282494   -1.426836   -1.081786
     16          1           0        4.997874    0.016399   -0.321694
     17          1           0        6.794538   -0.533739   -3.051515
     18          1           0        1.212346    0.541831   -2.570741
     19          1           0        2.756818    0.050338   -3.395066
 ---------------------------------------------------------------------
                    Distance matrix (angstroms):
                    1          2          3          4          5
     1  C    0.000000
     2  C    1.524621   0.000000
     3  C    2.596780   1.532173   0.000000
     4  C    3.825579   2.483524   1.514026   0.000000
     5  O    4.967547   3.748115   2.417160   1.417689   0.000000
     6  O    6.076758   4.740848   3.653215   2.264548   1.460072
     7  C    3.080375   2.733184   1.567502   2.640191   2.883576
     8  C    3.240635   2.582738   1.464186   2.596387   2.868173
     9  O    3.594072   3.177456   2.505588   3.659409   3.926368
    10  H    1.093640   2.155852   3.519227   4.574177   5.832221
    11  H    1.094405   2.172690   2.850174   3.997484   5.031077
    12  H    1.094071   2.183085   2.926238   4.351250   5.327023
    13  H    2.128941   1.098939   2.135333   2.472692   3.866313
    14  H    2.164752   1.096411   2.157574   2.919919   4.147274
    15  H    3.958011   2.758440   2.165077   1.098982   2.059466
    16  H    4.157860   2.652532   2.127902   1.098681   2.061585
    17  H    6.783420   5.503293   4.267008   3.034220   1.864601
    18  H    2.812692   3.032119   2.341283   3.599454   3.959538
    19  H    4.051308   3.604165   2.276309   2.792677   2.575784
                    6          7          8          9         10
     6  O    0.000000
     7  C    4.289842   0.000000
     8  C    4.276776   1.464724   0.000000
     9  O    5.279828   2.500998   1.218687   0.000000
    10  H    6.818027   4.161318   4.246049   4.496400   0.000000
    11  H    6.139146   2.924618   3.563567   4.117172   1.762571
    12  H    6.570259   3.113997   3.048328   3.060440   1.770722
    13  H    4.582430   3.382624   3.467857   4.205788   2.419109
    14  H    5.050153   3.484680   2.867901   3.134166   2.496277
    15  H    2.465473   3.115173   3.465750   4.580791   4.592213
    16  H    2.477612   3.514920   3.073789   3.896366   4.741634
    17  H    0.968715   4.646424   4.639034   5.593762   7.594718
    18  H    5.345220   1.085054   2.136962   2.806415   3.882352
    19  H    3.898896   1.087047   2.235398   3.306816   5.108332
                   11         12         13         14         15
    11  H    0.000000
    12  H    1.777058   0.000000
    13  H    2.497766   3.059721   0.000000
    14  H    3.079149   2.528638   1.750071   0.000000
    15  H    3.927742   4.694134   2.331677   3.392971   0.000000
    16  H    4.563253   4.672042   2.581313   2.680711   1.781134
    17  H    6.805535   7.187049   5.445041   5.816752   3.314788
    18  H    2.474730   2.666185   3.743579   3.833344   3.939346
    19  H    3.734627   4.171715   4.053127   4.385787   3.140223
                   16         17         18         19
    16  H    0.000000
    17  H    3.313997   0.000000
    18  H    4.434469   5.705161   0.000000
    19  H    3.803827   4.094186   1.818371   0.000000
 Stoichiometry    C6H10O3
 Framework group  C1[X(C6H10O3)]
 Deg. of freedom    51
 Full point group                 C1      NOp   1
 Largest Abelian subgroup         C1      NOp   1
 Largest concise Abelian subgroup C1      NOp   1
                         Standard orientation:                         
 ---------------------------------------------------------------------
 Center     Atomic      Atomic             Coordinates (Angstroms)
 Number     Number       Type             X           Y           Z
 ---------------------------------------------------------------------
      1          6           0        2.690031   -1.175105    0.230917
      2          6           0        1.337827   -1.183473   -0.473316
      3          6           0        0.309453   -0.159717    0.018545
      4          6           0       -1.084241   -0.713428   -0.189531
      5          8           0       -2.069522    0.245341    0.156633
      6          8           0       -3.330548   -0.433158   -0.128432
      7          6           0        0.545685    0.791922    1.241508
      8          6           0        0.593511    1.267534   -0.143022
      9          8           0        1.316697    1.974624   -0.822892
     10          1           0        3.304989   -2.000004   -0.139782
     11          1           0        2.572127   -1.315744    1.309824
     12          1           0        3.234268   -0.241823    0.058346
     13          1           0        0.900343   -2.181570   -0.331614
     14          1           0        1.471920   -1.068776   -1.555434
     15          1           0       -1.238625   -1.622096    0.409007
     16          1           0       -1.189857   -0.977631   -1.250729
     17          1           0       -3.933183    0.285720    0.113342
     18          1           0        1.500516    0.870911    1.750821
     19          1           0       -0.309109    0.990167    1.883144
 ---------------------------------------------------------------------
 Rotational constants (GHZ):           2.5787118           1.0031798           0.8327585
 Standard basis: 6-31G(2df,p) (6D, 7F)
 There are   329 symmetry adapted cartesian basis functions of A   symmetry.
 There are   302 symmetry adapted basis functions of A   symmetry.
   302 basis functions,   466 primitive gaussians,   329 cartesian basis functions
    35 alpha electrons       35 beta electrons
       nuclear repulsion energy       461.2137796243 Hartrees.
 NAtoms=   19 NActive=   19 NUniq=   19 SFac= 1.00D+00 NAtFMM=   60 NAOKFM=F Big=F
 Integral buffers will be    131072 words long.
 Raffenetti 2 integral format.
 Two-electron integral symmetry is turned on.
 One-electron integrals computed using PRISM.
 PrsmSu:  requested number of processors reduced to:  13 ShMem   1 Linda.
 NBasis=   302 RedAO= T EigKep=  6.59D-04  NBF=   302
 NBsUse=   302 1.00D-06 EigRej= -1.00D+00 NBFU=   302
 Initial guess from the checkpoint file:  "CCC1pCOOpCC1dO.chk"
 B after Tr=    -0.000000    0.000000   -0.000000
         Rot=    0.999926   -0.000481    0.010248   -0.006589 Ang=  -1.40 deg.
 ExpMin= 1.61D-01 ExpMax= 5.48D+03 ExpMxC= 8.25D+02 IAcc=2 IRadAn=         4 AccDes= 0.00D+00
 Harris functional with IExCor=  402 and IRadAn=       4 diagonalized for initial guess.
 HarFok:  IExCor=  402 AccDes= 0.00D+00 IRadAn=         4 IDoV= 1 UseB2=F ITyADJ=14
 ICtDFT=  3500011 ScaDFX=  1.000000  1.000000  1.000000  1.000000
 FoFCou: FMM=F IPFlag=           0 FMFlag=      100000 FMFlg1=           0
         NFxFlg=           0 DoJE=T BraDBF=F KetDBF=T FulRan=T
         wScrn=  0.000000 ICntrl=       500 IOpCl=  0 I1Cent=   200000004 NGrid=           0
         NMat0=    1 NMatS0=      1 NMatT0=    0 NMatD0=    1 NMtDS0=    0 NMtDT0=    0
 Petite list used in FoFCou.
 Requested convergence on RMS density matrix=1.00D-08 within 128 cycles.
 Requested convergence on MAX density matrix=1.00D-06.
 Requested convergence on             energy=1.00D-06.
 No special actions if energy rises.
 Integral accuracy reduced to 1.0D-05 until final iterations.
 Initial convergence to 1.0D-05 achieved.  Increase integral accuracy.
 SCF Done:  E(RB3LYP) =  -460.186891994     A.U. after   14 cycles
            NFock= 14  Conv=0.42D-08     -V/T= 2.0070
 PrsmSu:  requested number of processors reduced to:  13 ShMem   1 Linda.
 Calling FoFJK, ICntrl=      2127 FMM=F ISym2X=0 I1Cent= 0 IOpClX= 0 NMat=1 NMatS=1 NMatT=0.
 ***** Axes restored to original set *****
 -------------------------------------------------------------------
 Center     Atomic                   Forces (Hartrees/Bohr)
 Number     Number              X              Y              Z
 -------------------------------------------------------------------
      1        6          -0.001903361    0.001885629   -0.001344646
      2        6           0.000257864   -0.004878087    0.002703741
      3        6           0.014030114   -0.002789058    0.007979018
      4        6           0.003190670   -0.003113907   -0.004406445
      5        8          -0.001908558    0.000024824    0.003273777
      6        8          -0.002098642    0.002850254   -0.003782701
      7        6           0.003963885    0.003022735   -0.021300527
      8        6          -0.036954837    0.022648842    0.022679378
      9        8           0.021375619   -0.013353696   -0.012475267
     10        1          -0.000336172    0.001076136    0.000227712
     11        1          -0.000452799    0.000387644   -0.000154650
     12        1          -0.000592707   -0.000012310   -0.000308836
     13        1           0.000713056    0.000541965    0.000030747
     14        1           0.000012131    0.001192603   -0.001541713
     15        1          -0.000328954   -0.000465391   -0.000100263
     16        1           0.000296028   -0.000682278    0.000506954
     17        1           0.000243611   -0.000891827    0.001658968
     18        1          -0.002128705   -0.004443050    0.002802868
     19        1           0.002621755   -0.003001028    0.003551886
 -------------------------------------------------------------------
 Cartesian Forces:  Max     0.036954837 RMS     0.008505397

 GradGradGradGradGradGradGradGradGradGradGradGradGradGradGradGradGradGrad
 Berny optimization.
 Using GEDIIS/GDIIS optimizer.
 FormGI is forming the generalized inverse of G from B-inverse, IUseBI=4.
 Internal  Forces:  Max     0.021282847 RMS     0.004571528
 Search for a local minimum.
 Step number   2 out of a maximum of  100
 All quantities printed in internal units (Hartrees-Bohrs-Radians)
 Mixed Optimization -- RFO/linear search
 Update second derivatives using D2CorX and points    1    2
 DE= -2.30D-02 DEPred=-2.36D-02 R= 9.77D-01
 TightC=F SS=  1.41D+00  RLast= 3.38D-01 DXNew= 5.0454D-01 1.0142D+00
 Trust test= 9.77D-01 RLast= 3.38D-01 DXMaxT set to 5.05D-01
 ITU=  1  0
 Use linear search instead of GDIIS.
     Eigenvalues ---    0.00423   0.00441   0.00634   0.00656   0.01418
     Eigenvalues ---    0.01985   0.02362   0.03268   0.03277   0.03410
     Eigenvalues ---    0.04889   0.05168   0.05588   0.05847   0.06075
     Eigenvalues ---    0.06565   0.09044   0.11464   0.12301   0.12403
     Eigenvalues ---    0.12732   0.13919   0.15983   0.16000   0.16000
     Eigenvalues ---    0.16026   0.16360   0.18906   0.21403   0.21883
     Eigenvalues ---    0.23828   0.24985   0.25165   0.29854   0.30130
     Eigenvalues ---    0.31404   0.31598   0.33728   0.33853   0.34082
     Eigenvalues ---    0.34227   0.34248   0.34354   0.34562   0.35283
     Eigenvalues ---    0.36112   0.36349   0.37488   0.42347   0.53018
     Eigenvalues ---    0.94115
 RFO step:  Lambda=-6.80201487D-03 EMin= 4.22868993D-03
 Quartic linear search produced a step of  0.49138.
 Iteration  1 RMS(Cart)=  0.09362448 RMS(Int)=  0.00586789
 Iteration  2 RMS(Cart)=  0.01012310 RMS(Int)=  0.00370874
 Iteration  3 RMS(Cart)=  0.00007220 RMS(Int)=  0.00370850
 Iteration  4 RMS(Cart)=  0.00000041 RMS(Int)=  0.00370850
 Variable       Old X    -DE/DX   Delta X   Delta X   Delta X     New X
                                 (Linear)    (Quad)   (Total)
    R1        2.88112   0.00327   0.01357  -0.00181   0.01176   2.89288
    R2        2.06668   0.00006  -0.00034   0.00069   0.00035   2.06703
    R3        2.06813  -0.00000  -0.00050   0.00061   0.00011   2.06824
    R4        2.06749   0.00029   0.00173  -0.00093   0.00080   2.06830
    R5        2.89539   0.00065   0.00580  -0.00422   0.00158   2.89697
    R6        2.07669  -0.00026  -0.00060  -0.00038  -0.00098   2.07572
    R7        2.07192  -0.00022   0.00000  -0.00094  -0.00094   2.07097
    R8        2.86109   0.00056   0.00530  -0.00406   0.00124   2.86233
    R9        2.96215   0.00471   0.01907   0.02736   0.03561   2.99776
   R10        2.76691   0.00336   0.01261  -0.00677   0.01008   2.77699
   R11        2.67904  -0.00246  -0.00280  -0.00522  -0.00802   2.67103
   R12        2.07677   0.00049   0.00346  -0.00220   0.00126   2.07804
   R13        2.07621   0.00033   0.00021   0.00119   0.00139   2.07760
   R14        2.75914  -0.00281  -0.00417  -0.00622  -0.01039   2.74875
   R15        1.83061  -0.00156  -0.00278  -0.00111  -0.00389   1.82672
   R16        2.76793   0.00810   0.02373  -0.01350   0.01764   2.78557
   R17        2.05045   0.00179  -0.00111   0.00888   0.00777   2.05822
   R18        2.05422  -0.00053   0.00647  -0.01016  -0.00369   2.05053
   R19        2.30298  -0.02128  -0.00482  -0.02850  -0.03332   2.26967
    A1        1.91560   0.00034  -0.00087   0.00601   0.00512   1.92072
    A2        1.93811   0.00061   0.00419   0.00031   0.00445   1.94257
    A3        1.95305   0.00036   0.00761  -0.01062  -0.00303   1.95002
    A4        1.87319   0.00000  -0.00127   0.00717   0.00586   1.87905
    A5        1.88624  -0.00065  -0.00554   0.00034  -0.00519   1.88105
    A6        1.89517  -0.00072  -0.00468  -0.00255  -0.00728   1.88789
    A7        2.03011  -0.00344  -0.00042  -0.02619  -0.02723   2.00288
    A8        1.87392   0.00226   0.01390   0.01600   0.03012   1.90403
    A9        1.92500   0.00072  -0.00566  -0.00431  -0.01117   1.91383
   A10        1.87367   0.00130  -0.00356   0.02954   0.02625   1.89992
   A11        1.90607  -0.00026  -0.00361  -0.02082  -0.02532   1.88075
   A12        1.84519  -0.00023   0.00000   0.01133   0.01163   1.85682
   A13        1.90642   0.00686   0.01214   0.03812   0.04971   1.95613
   A14        2.15911   0.00771   0.03688  -0.01888   0.02202   2.18113
   A15        2.07794  -0.00708  -0.03785   0.00783  -0.03198   2.04595
   A16        2.05780  -0.01422  -0.05097  -0.02289  -0.07606   1.98174
   A17        2.11755   0.00175   0.02939  -0.02274   0.00880   2.12635
   A18        1.93785  -0.00941  -0.03611  -0.01568  -0.05180   1.88604
   A19        1.93569   0.00183   0.01880  -0.02017  -0.00146   1.93424
   A20        1.88513   0.00281  -0.00041   0.02459   0.02416   1.90928
   A21        1.90557   0.00344   0.00882   0.00626   0.01491   1.92049
   A22        1.90886   0.00260   0.01202   0.00046   0.01235   1.92122
   A23        1.88990  -0.00108  -0.00218   0.00536   0.00281   1.89271
   A24        1.81141   0.00348   0.00525   0.01344   0.01870   1.83011
   A25        1.71500   0.00197   0.01097   0.00155   0.01253   1.72753
   A26        2.14484   0.00695   0.02256  -0.03114  -0.00568   2.13916
   A27        2.04062  -0.01163  -0.04602  -0.02649  -0.07826   1.96236
   A28        1.97286  -0.00236  -0.01931   0.06334   0.04063   2.01349
   A29        2.12280   0.00502   0.04737  -0.02681   0.01995   2.14276
   A30        1.98410   0.00266   0.00559   0.01999   0.01945   2.00355
   A31        2.40722   0.01019   0.04822   0.04779   0.07512   2.48234
   A32        2.39661   0.01190   0.05670   0.05287   0.08956   2.48617
    D1        3.05385   0.00175   0.00834   0.04576   0.05399   3.10784
    D2        0.95560   0.00060   0.00285   0.01257   0.01543   0.97103
    D3       -1.04683  -0.00074  -0.00197  -0.00744  -0.00927  -1.05610
    D4        0.98555   0.00116   0.00787   0.03289   0.04063   1.02617
    D5       -1.11271   0.00000   0.00238  -0.00031   0.00207  -1.11064
    D6       -3.11514  -0.00133  -0.00244  -0.02032  -0.02263  -3.13777
    D7       -1.13532   0.00139   0.00572   0.04336   0.04893  -1.08639
    D8        3.04961   0.00024   0.00023   0.01016   0.01038   3.05999
    D9        1.04718  -0.00110  -0.00459  -0.00985  -0.01432   1.03286
   D10       -2.62498   0.00096   0.00162  -0.04456  -0.04260  -2.66758
   D11       -0.07774  -0.00348  -0.02032  -0.05584  -0.07531  -0.15305
   D12        1.11945  -0.00236  -0.01701  -0.07087  -0.08821   1.03123
   D13       -0.52659   0.00263   0.01659  -0.01863  -0.00196  -0.52855
   D14        2.02065  -0.00181  -0.00535  -0.02992  -0.03467   1.98598
   D15       -3.06535  -0.00069  -0.00204  -0.04494  -0.04757  -3.11292
   D16        1.46611   0.00291   0.01287  -0.00033   0.01228   1.47839
   D17       -2.26983  -0.00154  -0.00907  -0.01162  -0.02044  -2.29027
   D18       -1.07265  -0.00042  -0.00576  -0.02664  -0.03334  -1.10598
   D19       -3.06221   0.00158   0.01159   0.00205   0.01356  -3.04865
   D20        1.09901   0.00239   0.01142   0.01867   0.03003   1.12904
   D21       -0.96939   0.00093   0.00373   0.00876   0.01239  -0.95701
   D22        0.63458  -0.00220  -0.00058   0.01270   0.01049   0.64507
   D23       -1.48739  -0.00139  -0.00074   0.02932   0.02696  -1.46043
   D24        2.72740  -0.00285  -0.00843   0.01942   0.00931   2.73671
   D25       -0.53959   0.00146   0.00203   0.04224   0.04599  -0.49360
   D26       -2.66156   0.00227   0.00186   0.05886   0.06246  -2.59910
   D27        1.55323   0.00081  -0.00583   0.04895   0.04481   1.59804
   D28        0.12970  -0.00443  -0.02504  -0.08278  -0.10613   0.02357
   D29       -2.48580  -0.00053   0.01678  -0.00803   0.00786  -2.47794
   D30        2.62993  -0.00194  -0.02468  -0.07627  -0.09971   2.53023
   D31        0.01443   0.00196   0.01715  -0.00153   0.01428   0.02872
   D32        0.35030   0.00866   0.02543   0.14868   0.17668   0.52697
   D33       -2.11398   0.00370   0.01443   0.09612   0.11417  -1.99981
   D34        3.12043   0.00040  -0.00840   0.03057   0.02213  -3.14063
   D35       -1.02326  -0.00116  -0.00222  -0.00088  -0.00330  -1.02656
   D36        1.04180   0.00108   0.00685   0.00955   0.01665   1.05844
   D37       -3.12156   0.00023   0.00214   0.01463   0.01677  -3.10478
   D38       -0.32997  -0.01035  -0.04270  -0.18129  -0.23030  -0.56027
   D39        2.12668  -0.00180   0.00234  -0.08794  -0.08646   2.04022
         Item               Value     Threshold  Converged?
 Maximum Force            0.021283     0.000450     NO 
 RMS     Force            0.004572     0.000300     NO 
 Maximum Displacement     0.328057     0.001800     NO 
 RMS     Displacement     0.101660     0.001200     NO 
 Predicted change in Energy=-8.133644D-03
 GradGradGradGradGradGradGradGradGradGradGradGradGradGradGradGradGradGrad

                          Input orientation:                          
 ---------------------------------------------------------------------
 Center     Atomic      Atomic             Coordinates (Angstroms)
 Number     Number       Type             X           Y           Z
 ---------------------------------------------------------------------
      1          6           0        0.847187    0.185946    0.175934
      2          6           0        2.374446    0.103063    0.239939
      3          6           0        3.086537    0.334222   -1.097823
      4          6           0        4.426619   -0.369172   -1.158448
      5          8           0        5.060236   -0.001542   -2.367253
      6          8           0        6.329665   -0.711583   -2.353918
      7          6           0        2.363678    0.443018   -2.505704
      8          6           0        2.855606    1.621068   -1.768779
      9          8           0        2.612151    2.776377   -1.548493
     10          1           0        0.418679   -0.023902    1.160209
     11          1           0        0.438396   -0.546419   -0.527188
     12          1           0        0.507879    1.180173   -0.131156
     13          1           0        2.664765   -0.881393    0.631208
     14          1           0        2.754210    0.843485    0.953085
     15          1           0        4.297523   -1.460448   -1.117476
     16          1           0        5.040793   -0.059123   -0.300905
     17          1           0        6.698059   -0.377638   -3.182892
     18          1           0        1.281934    0.379763   -2.615747
     19          1           0        2.930418   -0.031711   -3.299975
 ---------------------------------------------------------------------
                    Distance matrix (angstroms):
                    1          2          3          4          5
     1  C    0.000000
     2  C    1.530845   0.000000
     3  C    2.580530   1.533009   0.000000
     4  C    3.860190   2.527826   1.514681   0.000000
     5  O    4.924707   3.744578   2.370586   1.413447   0.000000
     6  O    6.104365   4.799531   3.631716   2.273319   1.454574
     7  C    3.091442   2.766630   1.586345   2.594316   2.736463
     8  C    3.142488   2.563358   1.469518   2.607995   2.802039
     9  O    3.577580   3.225152   2.528293   3.652247   3.792139
    10  H    1.093824   2.165189   3.513464   4.643163   5.829884
    11  H    1.094463   2.181422   2.848474   4.041761   5.004412
    12  H    1.094496   2.186767   2.880895   4.337318   5.207738
    13  H    2.156403   1.098421   2.155263   2.563078   3.937409
    14  H    2.161725   1.095911   2.139161   2.953990   4.129948
    15  H    4.035882   2.825839   2.165113   1.099649   2.066902
    16  H    4.227738   2.725476   2.146838   1.099418   2.067242
    17  H    6.769936   5.535383   4.230525   3.042677   1.867934
    18  H    2.831970   3.070031   2.358550   3.545937   3.805616
    19  H    4.058223   3.585842   2.237801   2.634129   2.325296
                    6          7          8          9         10
     6  O    0.000000
     7  C    4.133424   0.000000
     8  C    4.225249   1.474061   0.000000
     9  O    5.160860   2.534276   1.201056   0.000000
    10  H    6.910988   4.176117   4.150122   4.471012   0.000000
    11  H    6.170192   2.932614   3.475983   4.099909   1.766556
    12  H    6.512496   3.102558   2.896208   2.997445   1.767873
    13  H    4.729831   3.418323   3.472559   4.258303   2.461714
    14  H    5.112571   3.503727   2.832571   3.164513   2.499993
    15  H    2.493830   3.047969   3.463966   4.580059   4.721964
    16  H    2.510330   3.504316   3.122937   3.936348   4.847683
    17  H    0.966659   4.463061   4.556202   5.414213   7.643184
    18  H    5.170994   1.089165   2.175923   2.941474   3.894354
    19  H    3.593345   1.085094   2.254293   3.324806   5.118802
                   11         12         13         14         15
    11  H    0.000000
    12  H    1.772792   0.000000
    13  H    2.531957   3.079515   0.000000
    14  H    3.079941   2.516931   1.756932   0.000000
    15  H    4.009582   4.723040   2.461524   3.460801   0.000000
    16  H    4.633651   4.702338   2.681506   2.759647   1.784083
    17  H    6.801811   7.075182   5.573920   5.843918   3.346788
    18  H    2.435457   2.722684   3.747726   3.888341   3.837313
    19  H    3.763436   4.168786   4.030723   4.345749   2.945092
                   16         17         18         19
    16  H    0.000000
    17  H    3.339735   0.000000
    18  H    4.436230   5.498156   0.000000
    19  H    3.667268   3.785299   1.831660   0.000000
 Stoichiometry    C6H10O3
 Framework group  C1[X(C6H10O3)]
 Deg. of freedom    51
 Full point group                 C1      NOp   1
 Largest Abelian subgroup         C1      NOp   1
 Largest concise Abelian subgroup C1      NOp   1
                         Standard orientation:                         
 ---------------------------------------------------------------------
 Center     Atomic      Atomic             Coordinates (Angstroms)
 Number     Number       Type             X           Y           Z
 ---------------------------------------------------------------------
      1          6           0        2.755280   -1.024924    0.243183
      2          6           0        1.414449   -1.180434   -0.478949
      3          6           0        0.317316   -0.217865   -0.010039
      4          6           0       -1.069567   -0.788920   -0.221483
      5          8           0       -2.010980    0.208197    0.121053
      6          8           0       -3.308068   -0.410127   -0.104833
      7          6           0        0.423920    0.736596    1.252550
      8          6           0        0.589451    1.221272   -0.129675
      9          8           0        1.191705    2.021719   -0.792327
     10          1           0        3.468150   -1.768141   -0.125459
     11          1           0        2.645909   -1.176050    1.321631
     12          1           0        3.190948   -0.034248    0.079853
     13          1           0        1.057825   -2.212085   -0.356293
     14          1           0        1.555446   -1.027899   -1.554995
     15          1           0       -1.223587   -1.682230    0.401014
     16          1           0       -1.189679   -1.075005   -1.276210
     17          1           0       -3.874158    0.341346    0.117113
     18          1           0        1.316235    0.787931    1.874980
     19          1           0       -0.513439    0.813704    1.793697
 ---------------------------------------------------------------------
 Rotational constants (GHZ):           2.6299195           1.0143987           0.8452220
 Standard basis: 6-31G(2df,p) (6D, 7F)
 There are   329 symmetry adapted cartesian basis functions of A   symmetry.
 There are   302 symmetry adapted basis functions of A   symmetry.
   302 basis functions,   466 primitive gaussians,   329 cartesian basis functions
    35 alpha electrons       35 beta electrons
       nuclear repulsion energy       462.8897257031 Hartrees.
 NAtoms=   19 NActive=   19 NUniq=   19 SFac= 1.00D+00 NAtFMM=   60 NAOKFM=F Big=F
 Integral buffers will be    131072 words long.
 Raffenetti 2 integral format.
 Two-electron integral symmetry is turned on.
 One-electron integrals computed using PRISM.
 PrsmSu:  requested number of processors reduced to:  13 ShMem   1 Linda.
 NBasis=   302 RedAO= T EigKep=  6.54D-04  NBF=   302
 NBsUse=   302 1.00D-06 EigRej= -1.00D+00 NBFU=   302
 Initial guess from the checkpoint file:  "CCC1pCOOpCC1dO.chk"
 B after Tr=     0.000000   -0.000000    0.000000
         Rot=    0.999872   -0.006284    0.003572   -0.014248 Ang=  -1.83 deg.
 ExpMin= 1.61D-01 ExpMax= 5.48D+03 ExpMxC= 8.25D+02 IAcc=2 IRadAn=         4 AccDes= 0.00D+00
 Harris functional with IExCor=  402 and IRadAn=       4 diagonalized for initial guess.
 HarFok:  IExCor=  402 AccDes= 0.00D+00 IRadAn=         4 IDoV= 1 UseB2=F ITyADJ=14
 ICtDFT=  3500011 ScaDFX=  1.000000  1.000000  1.000000  1.000000
 FoFCou: FMM=F IPFlag=           0 FMFlag=      100000 FMFlg1=           0
         NFxFlg=           0 DoJE=T BraDBF=F KetDBF=T FulRan=T
         wScrn=  0.000000 ICntrl=       500 IOpCl=  0 I1Cent=   200000004 NGrid=           0
         NMat0=    1 NMatS0=      1 NMatT0=    0 NMatD0=    1 NMtDS0=    0 NMtDT0=    0
 Petite list used in FoFCou.
 Requested convergence on RMS density matrix=1.00D-08 within 128 cycles.
 Requested convergence on MAX density matrix=1.00D-06.
 Requested convergence on             energy=1.00D-06.
 No special actions if energy rises.
 Integral accuracy reduced to 1.0D-05 until final iterations.
 Initial convergence to 1.0D-05 achieved.  Increase integral accuracy.
 SCF Done:  E(RB3LYP) =  -460.194571391     A.U. after   13 cycles
            NFock= 13  Conv=0.72D-08     -V/T= 2.0069
 PrsmSu:  requested number of processors reduced to:  13 ShMem   1 Linda.
 Calling FoFJK, ICntrl=      2127 FMM=F ISym2X=0 I1Cent= 0 IOpClX= 0 NMat=1 NMatS=1 NMatT=0.
 ***** Axes restored to original set *****
 -------------------------------------------------------------------
 Center     Atomic                   Forces (Hartrees/Bohr)
 Number     Number              X              Y              Z
 -------------------------------------------------------------------
      1        6          -0.000155944    0.000144211    0.000684928
      2        6          -0.001892852   -0.001850323   -0.001743443
      3        6           0.003549244   -0.000724133    0.004644484
      4        6           0.001126892    0.002544115   -0.000296249
      5        8           0.003011670   -0.000588234    0.000989211
      6        8          -0.000525664   -0.000207930    0.000215070
      7        6          -0.003827145    0.002008048   -0.003465246
      8        6          -0.011431164   -0.002129095    0.002581090
      9        8           0.008242271    0.000189038   -0.004241718
     10        1          -0.000214458    0.000469018   -0.000070106
     11        1          -0.000002099   -0.000133894    0.000395158
     12        1           0.000224398   -0.000037878   -0.000061860
     13        1          -0.000380138    0.000160680   -0.000792610
     14        1           0.000410673   -0.000048155    0.000511279
     15        1          -0.000130821   -0.000156372   -0.000506320
     16        1           0.000476638   -0.000403289   -0.000232928
     17        1           0.000027813    0.000375483   -0.000179824
     18        1           0.000743807   -0.002405987    0.001567084
     19        1           0.000746881    0.002794699    0.000002000
 -------------------------------------------------------------------
 Cartesian Forces:  Max     0.011431164 RMS     0.002450113

 GradGradGradGradGradGradGradGradGradGradGradGradGradGradGradGradGradGrad
 Berny optimization.
 Using GEDIIS/GDIIS optimizer.
 FormGI is forming the generalized inverse of G from B-inverse, IUseBI=4.
 Internal  Forces:  Max     0.004304222 RMS     0.001358215
 Search for a local minimum.
 Step number   3 out of a maximum of  100
 All quantities printed in internal units (Hartrees-Bohrs-Radians)
 Mixed Optimization -- RFO/linear search
 Update second derivatives using D2CorX and points    2    3
 DE= -7.68D-03 DEPred=-8.13D-03 R= 9.44D-01
 TightC=F SS=  1.41D+00  RLast= 4.57D-01 DXNew= 8.4853D-01 1.3711D+00
 Trust test= 9.44D-01 RLast= 4.57D-01 DXMaxT set to 8.49D-01
 ITU=  1  1  0
 Use linear search instead of GDIIS.
     Eigenvalues ---    0.00420   0.00441   0.00632   0.00647   0.01418
     Eigenvalues ---    0.01876   0.02108   0.02443   0.03440   0.03494
     Eigenvalues ---    0.04918   0.05499   0.05605   0.05790   0.06057
     Eigenvalues ---    0.07770   0.08763   0.11182   0.12344   0.12538
     Eigenvalues ---    0.12762   0.13701   0.15977   0.16000   0.16003
     Eigenvalues ---    0.16032   0.16546   0.20049   0.21749   0.22170
     Eigenvalues ---    0.24541   0.24949   0.28525   0.29866   0.30894
     Eigenvalues ---    0.31489   0.32011   0.33735   0.33853   0.34090
     Eigenvalues ---    0.34230   0.34248   0.34354   0.34565   0.35279
     Eigenvalues ---    0.35977   0.36320   0.37406   0.42346   0.53028
     Eigenvalues ---    0.92602
 RFO step:  Lambda=-2.87233074D-03 EMin= 4.19679542D-03
 Quartic linear search produced a step of  0.17467.
 Iteration  1 RMS(Cart)=  0.06679595 RMS(Int)=  0.00254976
 Iteration  2 RMS(Cart)=  0.00275883 RMS(Int)=  0.00130954
 Iteration  3 RMS(Cart)=  0.00000726 RMS(Int)=  0.00130953
 Iteration  4 RMS(Cart)=  0.00000006 RMS(Int)=  0.00130953
 Variable       Old X    -DE/DX   Delta X   Delta X   Delta X     New X
                                 (Linear)    (Quad)   (Total)
    R1        2.89288   0.00013   0.00205   0.00118   0.00324   2.89611
    R2        2.06703  -0.00007   0.00006  -0.00030  -0.00024   2.06679
    R3        2.06824  -0.00016   0.00002  -0.00062  -0.00060   2.06764
    R4        2.06830  -0.00009   0.00014  -0.00014  -0.00000   2.06829
[...]
 0.00093338,0.48238351,-0.00086938,-0.00130835,0.00227766,-0.00761477,0
 .00554573,-0.00082189,0.05038152,-0.09347678,0.00230500,-0.00027640,0.
 57189996,0.00116931,0.00187144,-0.00545827,0.02917045,-0.01104691,-0.0
 0252316,-0.00289313,0.00468917,-0.07194314,0.06062771,0.01973847,0.506
 76769,0.00006066,-0.00039518,0.00109372,-0.00450300,0.00170876,-0.0005
 1387,-0.02527134,-0.00654378,0.02889509,-0.07625725,-0.02315231,0.0463
 6036,0.35114694,0.00046191,0.00062849,-0.00080453,0.00243371,-0.001982
 83,0.00031783,0.00589464,0.00450500,-0.01167084,0.00411561,-0.09490757
 ,0.05365799,-0.06549298,0.16277854,-0.00039790,0.00009386,0.00086574,-
 0.00095147,0.00045943,-0.00087655,0.00936229,-0.00286065,-0.00083969,0
 .00639225,0.07062081,-0.18845589,-0.07017821,-0.10012158,0.28023437,0.
 00003494,-0.00066323,0.00123435,-0.00203108,0.00158373,-0.00201542,0.0
 0102968,-0.00266796,0.00664750,-0.03926629,0.01886513,0.00252362,-0.20
 422272,0.08204856,0.02741981,0.41224316,-0.00001232,0.00003679,0.00009
 028,-0.00015962,0.00074609,0.00042625,-0.00308540,0.00133312,0.0010588
 7,-0.00566920,0.00426099,-0.00777136,0.05712076,-0.08712332,0.00384439
 ,0.13952772,0.43480246,-0.00003355,0.00033974,-0.00053789,0.00141789,-
 0.00058882,0.00078672,0.00184276,0.00139067,-0.00406000,0.03548011,-0.
 02045558,-0.00006450,-0.00996991,0.01508432,-0.03500629,0.00729680,0.0
 7028091,0.04651203,-0.00037782,0.00016833,0.00095965,0.00929250,0.0183
 6837,0.00847668,-0.06470986,0.00741160,-0.05180068,-0.01755822,-0.0196
 5872,-0.02332507,-0.00332780,0.00029799,-0.00089750,0.00003709,-0.0000
 1413,0.00021035,0.57732584,-0.00038518,0.00036352,-0.00118595,0.003448
 30,0.00005990,0.00616011,-0.01140700,-0.01910323,-0.02047161,0.0070445
 6,0.00407916,0.00982535,-0.00064712,0.00126108,-0.00049040,-0.00073855
 ,0.00008658,0.00031070,0.06585288,0.33601844,0.00044717,0.00046770,-0.
 00005045,-0.01304716,-0.01269073,-0.01982137,-0.05289100,0.01475985,-0
 .12034187,-0.00208202,0.00963858,-0.00363584,0.00035908,-0.00028395,0.
 00017836,0.00003540,0.00017321,0.00017791,-0.05715625,0.15644800,0.459
 43000,0.00096285,-0.00165759,0.00153226,-0.00188837,-0.02210955,-0.007
 36980,-0.06822222,0.03235164,-0.00044919,-0.00269869,0.03428577,-0.005
 15521,0.00047940,0.00039654,-0.00034806,0.00143798,-0.00161984,-0.0004
 7108,-0.08074118,-0.04114425,-0.00535423,0.22047810,-0.00031315,0.0039
 8767,0.00024120,-0.00726189,-0.00276271,0.01261119,0.03175146,-0.16254
 617,0.06682144,0.01506454,-0.00989292,-0.00236335,0.00023164,-0.001359
 06,0.00031402,-0.00286982,-0.00115660,0.00113662,-0.05025039,-0.173293
 09,-0.06888570,0.02274937,1.16744576,0.00124778,0.00104900,0.00147077,
 0.00235819,0.02527815,-0.01434200,0.00253337,0.06714874,-0.08145262,-0
 .01521952,-0.00820146,-0.00350880,0.00023053,-0.00084698,0.00004757,0.
 00151183,0.00057756,-0.00226026,-0.00821834,-0.05395177,-0.07043717,0.
 03439381,-0.03246215,0.25863053,-0.00050297,0.00090808,0.00023773,0.00
 112636,0.00516775,0.00290701,0.01505129,0.00437393,-0.00118878,-0.0006
 8774,-0.00405691,-0.00061911,-0.00057289,0.00075701,0.00005370,-0.0001
 3200,0.00040162,0.00011404,0.01395024,-0.00915884,-0.00287236,-0.05975
 359,-0.01087031,-0.01403671,0.02916306,0.00065288,-0.00163212,-0.00027
 748,0.00329483,-0.00260542,-0.00552658,0.01204056,-0.02365546,0.019975
 70,-0.00860976,-0.00289671,0.00200350,0.00058762,0.00095315,0.00000800
 ,0.00152394,0.00077030,-0.00086267,-0.01159906,-0.02934384,-0.01705775
 ,-0.01225796,-0.82668508,0.02486069,0.01440305,0.89237806,-0.00000513,
 -0.00105793,-0.00070538,-0.00034777,-0.00183320,0.00157185,-0.00462158
 ,0.01048706,0.01104266,0.00410369,0.00463424,0.00130312,0.00020482,-0.
 00028697,0.00030806,-0.00043357,-0.00022073,0.00056937,-0.00029712,-0.
 01272858,0.01343407,-0.01354961,0.02906792,-0.07535832,0.01477348,-0.0
 2931124,0.04593105,-0.07737072,-0.02204644,0.08347264,-0.01246772,-0.0
 0787137,0.02872471,-0.00524788,0.00276155,-0.00074532,0.00031332,-0.00
 066521,0.00166799,-0.00039732,0.00028748,-0.00015269,-0.00043801,-0.00
 003134,0.00022167,0.00003011,0.00020714,-0.00035691,-0.00073275,0.0009
 3339,-0.00135421,0.00023635,-0.00046176,0.00021410,0.08691595,-0.02263
 207,-0.06151131,0.05788126,0.00494928,0.00228372,-0.01310280,0.0024170
 0,-0.00040950,-0.00021604,0.00009906,0.00050738,-0.00051258,0.00014777
 ,-0.00009264,0.00004970,0.00017819,0.00000616,-0.00007918,0.00028787,0
 .00007181,0.00012661,0.00039493,-0.00147536,-0.00026720,-0.00036318,0.
 00088526,0.00023166,0.02224665,0.06305170,0.08543176,0.05709611,-0.265
 45356,-0.00023589,0.00057244,-0.00210872,-0.00003920,-0.00042785,0.001
 19843,-0.00018374,0.00020157,-0.00019382,0.00013778,-0.00007569,0.0000
 0761,0.00005739,0.00003637,-0.00001312,0.00004002,-0.00000099,0.000054
 97,-0.00037567,-0.00042757,-0.00000070,0.00006386,0.00014222,0.0000635
 2,-0.09315174,-0.06255712,0.28647956,-0.15160835,-0.06043124,-0.112601
 91,-0.01986478,-0.01153569,-0.02140629,0.00074310,-0.00077688,-0.00111
 216,-0.00017993,0.00012280,-0.00020128,0.00001534,-0.00001087,0.000283
 01,0.00001175,0.00001446,0.00006194,0.00014796,0.00018142,0.00020975,-
 0.00093357,-0.00039937,-0.00101247,0.00021105,0.00020790,0.00035813,0.
 00752292,0.00476535,0.00766865,0.16722483,-0.06123860,-0.08338463,-0.0
 6561200,0.00903189,0.00479054,0.01077446,-0.00052962,0.00029085,-0.000
 01431,0.00001805,0.00007175,0.00021289,-0.00001664,-0.00000703,-0.0000
 7014,0.00000029,-0.00000334,0.00001938,-0.00006778,-0.00014095,-0.0004
 8789,-0.00048287,-0.00050471,-0.00033149,0.00005046,0.00015329,0.00024
 330,0.00571525,0.00229301,0.00573488,0.06481184,0.08569193,-0.11367387
 ,-0.06546017,-0.16857836,0.00270645,0.00241335,0.00339356,-0.00001590,
 0.00049487,0.00020733,0.00008315,-0.00016455,0.00009823,-0.00001579,0.
 00001569,-0.00003934,-0.00008214,0.00000406,0.00004451,0.00048253,-0.0
 0005527,-0.00067696,-0.00009781,0.00014461,-0.00008942,0.00001289,-0.0
 0010498,-0.00000206,-0.01900966,-0.01178403,-0.01982187,0.12466894,0.0
 7251571,0.18332787,-0.04800295,-0.00934041,0.00020213,0.00064810,0.032
 95691,-0.00264327,0.00198596,-0.00013635,-0.00059973,-0.00011271,0.000
 19035,-0.00031151,-0.00004712,-0.00019192,0.00013120,0.00006387,-0.000
 01302,-0.00001910,-0.00027372,-0.00003009,0.00011938,-0.00032519,0.001
 12212,0.00088016,0.00007460,-0.00113152,-0.00006394,-0.00109109,-0.011
 10185,-0.00015886,-0.00077088,-0.02024369,0.00316656,0.05230222,-0.007
 56841,-0.30937340,0.02049190,0.00024046,-0.01236358,0.00092887,-0.0005
 0882,0.00073310,0.00020362,0.00004739,0.00004662,0.00002628,0.00006033
 ,0.00007550,-0.00008715,0.00002294,0.00001566,-0.00002793,-0.00009498,
 0.00011956,-0.00016366,0.00061940,-0.00149110,-0.00055445,-0.00072169,
 0.00089979,0.00067070,-0.00050471,-0.00636598,0.00006768,-0.00033250,-
 0.01044279,0.00155936,0.00607152,0.33682470,-0.00005537,0.02132040,-0.
 04978419,-0.00004517,-0.00426913,-0.00055967,-0.00063779,-0.00071468,0
 .00063066,0.00022439,-0.00006412,0.00009617,0.00000309,0.00004860,-0.0
 0006434,-0.00007484,0.00001730,0.00000407,0.00019354,0.00019843,-0.000
 16008,0.00074967,-0.00129651,-0.00054943,-0.00016480,0.00104391,-0.000
 15711,0.00052412,0.03005794,-0.00150540,-0.00010323,-0.02321345,0.0020
 5451,-0.00135919,-0.02327204,0.04916183,-0.00010019,0.03310713,-0.0020
 9870,-0.04783961,-0.01556259,-0.00014275,-0.00236925,-0.01580068,0.004
 16633,0.00071744,-0.00156300,-0.00012626,0.00008345,0.00029786,-0.0002
 0223,-0.00010930,0.00013907,-0.00000655,0.00176632,0.00067321,0.000111
 51,-0.00297645,0.00284181,0.00013670,0.00079495,-0.00174500,0.00021720
 ,0.00123191,-0.00066761,0.00009888,0.00144491,-0.00068295,-0.00056004,
 -0.00595256,0.00261415,0.00083303,0.05474488,0.00035983,-0.01307770,0.
 00051761,-0.01421292,-0.29311003,0.01865832,-0.00216400,-0.00876484,0.
 00458752,0.00053547,-0.00017203,-0.00015764,0.00017215,0.00056944,-0.0
 0025270,-0.00019840,0.00000194,0.00007259,0.00154094,0.00077668,0.0008
 9484,-0.00193548,0.00313265,-0.00174219,0.00017393,-0.00104773,0.00047
 299,0.00009289,0.00039355,-0.00046476,0.00000154,0.00081675,0.00037510
 ,0.00270888,0.00073538,-0.00040482,0.01440781,0.32056615,-0.00056397,-
 0.00312946,0.00031935,-0.00105126,0.01999883,-0.04865071,0.00627833,0.
 03344952,-0.01129848,-0.00154451,0.00073531,0.00048441,-0.00030017,-0.
 00022732,0.00026907,0.00015028,-0.00021493,-0.00002523,-0.00359490,-0.
 00184402,0.00251951,0.00721304,-0.00155049,0.00006846,-0.00186390,0.00
 196149,-0.00069513,-0.00027198,-0.00031626,0.00010137,0.00029316,0.000
 61631,0.00022529,0.00092460,-0.00002889,0.00087246,-0.00473184,-0.0239
 0125,0.05392897,-0.02129133,-0.00999476,-0.02225520,-0.13051658,-0.050
 26718,-0.10865304,0.00764651,0.00494583,0.01113820,0.00074684,0.000374
 44,0.00114168,0.00010420,0.00002151,0.00002981,0.00008932,0.00000953,-
 0.00008389,-0.00150173,-0.00026448,0.00249577,0.00077861,0.00036987,-0
 .00072707,-0.00028992,-0.00008569,0.00010780,0.00109254,-0.00063589,0.
 00027420,-0.00517000,0.00335447,0.00132018,0.00132565,0.00019189,0.000
 04878,-0.00135364,-0.00085378,-0.00131563,0.14823735,0.00935138,0.0045
 4578,0.01037232,-0.05012834,-0.07817753,-0.06345055,0.00455153,0.00207
 896,0.00738718,-0.00010771,-0.00000421,-0.00052963,0.00021698,-0.00003
 029,0.00026379,0.00004601,-0.00006439,-0.00005065,-0.00110441,0.000637
 85,0.00188770,0.00121558,0.00161723,-0.00103418,-0.00047071,-0.0002462
 7,-0.00001398,-0.00086997,0.00037483,-0.00002488,0.00306789,-0.0001707
 6,0.00001304,-0.00056561,0.00063632,0.00055055,-0.01897568,-0.01127182
 ,-0.02417856,0.05325006,0.08010727,0.00280665,0.00136375,0.00329145,-0
 .10920287,-0.06268688,-0.18394303,-0.01468046,-0.00843249,-0.02747285,
 -0.00210976,-0.00016679,-0.00052734,0.00000311,0.00011198,0.00103444,0
 .00012437,0.00003755,0.00010910,0.00493782,0.00009679,-0.00234623,-0.0
 0164498,-0.00148718,0.00078654,0.00063620,0.00112602,-0.00004201,-0.00
 021005,0.00025992,0.00083775,0.00137393,-0.00041353,0.00091479,-0.0002
 9605,0.00018794,-0.00008243,0.00157566,0.00040460,0.00217347,0.1158630
 2,0.06875153,0.20533101,-0.00008634,-0.00013547,-0.00006091,0.00157219
 ,0.00021015,-0.00152792,-0.00692839,0.03501193,-0.00172703,-0.04765547
 ,0.00296529,-0.00552347,-0.00344069,-0.01635616,0.01207650,0.00290461,
 -0.00194646,-0.00086085,0.00354206,-0.00291032,-0.00184750,-0.00340079
 ,-0.00044809,0.00706121,0.00019446,0.00207793,-0.00233060,-0.00001612,
 -0.00006309,0.00002486,0.00002845,0.00000537,0.00000371,0.00012691,-0.
 00013601,-0.00004037,-0.00013607,-0.00078172,0.00049341,-0.00014862,-0
 .00007844,0.00022506,0.05231205,0.00027820,0.00046453,-0.00010126,-0.0
 0046486,-0.00005798,0.00031307,0.00356362,-0.01204358,0.00024675,-0.00
 219814,-0.29489733,-0.00307897,-0.00387178,-0.01030534,0.01260159,0.00
 006057,0.00213719,-0.00076286,0.00020554,0.00127093,0.00165186,-0.0005
 1508,0.00303362,-0.00303092,0.00041118,-0.00126196,0.00063192,0.000058
 42,-0.00001109,-0.00003063,-0.00000979,-0.00003395,0.00000378,-0.00023
 237,0.00009729,0.00008413,0.00055818,0.00050871,-0.00073167,0.00001860
 ,0.00001336,0.00001713,0.00044923,0.32251227,-0.00001629,0.00003292,-0
 .00004032,-0.00032974,-0.00048488,0.00035511,-0.00124894,-0.00038966,0
 .00082525,-0.00163559,-0.00948928,-0.04955084,0.00889676,0.04104927,-0
 .01479274,-0.00282472,-0.00092547,0.00145396,0.00069446,-0.00013729,0.
 00113889,0.00035745,0.00211468,-0.00050283,-0.00007692,-0.00093179,0.0
 0010746,0.00000899,-0.00001850,-0.00001131,-0.00001430,0.00000749,0.00
 000659,-0.00001535,0.00003947,-0.00002989,0.00023765,0.00018531,0.0001
 4858,-0.00002352,-0.00011537,0.00005710,-0.00278346,-0.00671994,0.0591
 0682,0.00012173,0.00025918,0.00040633,0.00092599,-0.00025408,-0.002037
 78,-0.01837259,-0.00919760,-0.02264067,-0.11936112,-0.04922886,-0.1020
 0171,0.00611146,0.00441372,0.01987331,0.00423335,-0.00001666,-0.000442
 72,-0.00458572,0.00145955,0.00271888,0.00137003,-0.00183430,-0.0013348
 2,-0.00036681,0.00115158,0.00066650,-0.00003349,0.00001451,0.00004928,
 0.00030786,-0.00003861,-0.00002011,0.00000453,-0.00003589,-0.00005775,
 -0.00008432,-0.00001477,0.00018003,-0.00007840,0.00022925,0.00134243,0
 .00160188,0.00082677,-0.00112863,0.12806987,-0.00001186,-0.00003548,0.
 00022268,-0.00049585,0.00005080,0.00021534,0.00860033,0.00348920,0.009
 20285,-0.05175046,-0.08939959,-0.07037313,0.00762408,0.00897479,0.0142
 7143,0.00035200,-0.00066690,-0.00025938,0.00290335,0.00027531,-0.00008
 293,-0.00152438,0.00211630,0.00024890,0.00022824,-0.00031672,-0.000380
 89,-0.00007170,0.00000031,-0.00000753,0.00001578,-0.00003492,0.0000142
 9,0.00001806,-0.00001303,0.00000484,0.00002294,-0.00000806,-0.00019231
 ,-0.00020169,0.00026325,0.00001714,-0.01771333,-0.01155803,-0.02397873
 ,0.05231318,0.08717163,0.00003772,0.00025098,0.00036550,0.00064052,-0.
 00002514,0.00031488,-0.00191533,0.00073214,0.00065291,-0.09689852,-0.0
 6985171,-0.18208772,-0.00663901,-0.00119218,-0.04252263,-0.00050718,0.
 00107224,0.00419257,0.00112804,-0.00055114,0.00095017,0.00006604,-0.00
 013529,0.00026619,0.00002358,0.00039879,-0.00009218,-0.00003159,0.0000
 0626,0.00000774,0.00018224,-0.00003496,-0.00002048,-0.00002459,-0.0000
 0745,-0.00002599,0.00006984,0.00002350,0.00001782,0.00004241,-0.000119
 72,0.00061029,-0.00245724,-0.00131648,0.00181291,0.10543162,0.07100700
 ,0.21630190,-0.00001572,-0.00000569,0.00006806,-0.00013928,0.00023264,
 0.00007297,-0.00017372,-0.00016973,0.00082746,-0.00495453,0.00002850,-
 0.00127124,-0.03767132,-0.01947533,-0.00154060,-0.17565590,-0.18489638
 ,-0.03529888,0.00008615,0.00007904,0.00015949,-0.00047306,-0.00015893,
 -0.00010783,0.00019761,0.00004022,-0.00001227,0.00000178,0.00001170,-0
 .00001877,0.00001206,-0.00000698,0.00000875,-0.00000225,0.00000115,0.0
 0001339,0.00002116,0.00000357,-0.00004564,-0.00000277,-0.00000632,0.00
 003792,0.00009620,0.00034688,-0.00047737,0.00018743,-0.00025894,0.0003
 8559,0.21840475,0.00000152,0.00009132,-0.00015873,0.00034499,-0.000272
 18,0.00016726,0.00040655,0.00042009,-0.00081994,0.00106521,-0.00177233
 ,0.00331687,0.03199346,0.01649422,0.00119557,-0.23746926,-0.35514541,-
 0.06591953,0.00012840,0.00001933,-0.00008101,-0.00012189,0.00093070,-0
 .00018896,-0.00011172,-0.00056554,0.00010422,0.00006438,-0.00002563,-0
 .00001799,0.00000333,-0.00000501,0.00001076,0.00000586,-0.00001536,0.0
 0000645,-0.00001387,-0.00000730,0.00001274,-0.00001844,0.00001791,-0.0
 0000098,0.00030781,0.00023434,-0.00048876,-0.00075613,0.00001466,-0.00
 038023,0.20422156,0.33969739,0.00001144,0.00000495,-0.00008359,0.00020
 071,-0.00008614,0.00009656,0.00037674,-0.00031487,-0.00106996,0.004051
 99,0.00148472,0.00187656,0.00025262,0.00518336,-0.00091118,-0.04134554
 ,-0.06871655,-0.01277911,-0.00028662,0.00001103,-0.00008005,0.00007978
 ,-0.00008872,0.00018621,-0.00001964,0.00005705,-0.00011377,0.00002384,
 -0.00000393,-0.00000256,-0.00002438,0.00000261,-0.00000440,-0.00000419
 ,0.00000669,0.00000853,0.00000241,0.00000966,-0.00000814,-0.00000085,-
 0.00002343,-0.00007741,-0.00027383,-0.00035941,-0.00018341,-0.00012375
 ,-0.00055898,-0.00087277,0.03711790,0.06338747,0.01400337,-0.00005319,
 -0.00017321,0.00059658,0.00006102,0.00094946,0.00210999,-0.00759862,-0
 .00286886,0.00120432,-0.00008452,-0.00219076,-0.00085758,-0.00009419,0
 .00010434,-0.00042885,-0.00021209,-0.00001800,0.00011041,-0.31704347,-
 0.06042325,0.01068729,-0.00245071,-0.00045425,-0.00431494,-0.00016583,
 0.00073588,0.00118922,0.00021340,-0.00009335,0.00016582,0.00045712,0.0
 0017105,0.00087004,0.00002635,0.00004504,-0.00003434,0.00009491,0.0000
 0919,-0.00052898,-0.00003522,0.00001029,0.00011724,0.00007858,0.000105
 76,-0.00000504,-0.00053661,0.00024413,0.00014811,0.00002879,0.00006473
 ,-0.00004369,0.33688738,-0.00078342,-0.00024190,0.00036053,-0.00222519
 ,0.00248445,-0.00130641,0.01730376,-0.00247206,-0.01230689,0.00163107,
 0.00009230,0.00361791,-0.00019148,0.00002405,0.00043131,0.00005488,0.0
 0015251,-0.00012444,-0.06976880,-0.05100391,0.00212667,-0.03084623,0.0
 0320505,0.00682204,0.00378712,-0.00326622,-0.00257183,0.00015228,-0.00
 002894,0.00016840,0.00018998,0.00062050,0.00011348,-0.00009013,-0.0002
 0783,-0.00014729,0.00035189,0.00005853,-0.00069941,0.00017034,0.000006
 60,-0.00037860,0.00009378,0.00000162,0.00011607,0.00118735,-0.00036481
 ,-0.00005227,-0.00001139,-0.00006412,0.00005073,0.06785583,0.04707958,
 -0.00071595,-0.00030133,-0.00083880,0.00120298,0.00242732,0.00267556,-
 0.02095290,-0.00759714,0.00389398,-0.00055942,-0.00424132,-0.00418872,
 0.00069668,-0.00007788,0.00008121,0.00001447,0.00002526,0.00051513,0.0
 0956987,-0.00006484,-0.04036040,-0.00179713,-0.00273034,-0.00958102,-0
 .00122792,0.00088572,0.00300924,0.00029643,0.00027448,0.00030121,0.001
 26075,-0.00001063,-0.00117242,0.00006827,0.00000579,0.00014203,0.00038
 158,0.00050686,-0.00066254,-0.00007428,-0.00021233,0.00066154,0.000334
 06,0.00026245,0.00014256,-0.00146254,0.00076750,0.00014183,0.00004537,
 -0.00000371,-0.00005466,-0.00890618,0.00291763,0.04267835,-0.00044323,
 -0.00023314,-0.00003311,-0.00240583,-0.00266947,-0.00084219,0.00442119
 ,-0.00576899,-0.01113933,0.00241513,0.00206252,-0.00037555,-0.00219580
 ,-0.00000359,-0.00052437,-0.00001836,0.00026920,0.00043056,-0.11605875
 ,0.04816299,0.11826371,-0.00091040,-0.00020370,-0.00402767,0.00147177,
 -0.00082565,-0.00017334,0.00023680,0.00004472,0.00015137,0.00040014,0.
 00014907,0.00015214,0.00002030,-0.00001125,-0.00001715,0.00002146,0.00
 015486,0.00027990,0.00036717,0.00036821,-0.00089924,-0.00064491,0.0004
 0908,0.00038459,0.00048492,-0.00029387,0.00031775,0.00005264,-0.000116
 49,0.00000507,-0.00957309,0.01113835,0.02182586,0.12235884,0.00037393,
 -0.00018962,-0.00010943,0.00263664,-0.00010738,0.00296777,-0.01865749,
 0.00324272,0.01103587,0.00015004,0.00222392,-0.00312631,0.00044772,-0.
 00045618,-0.00027126,0.00034325,-0.00018982,0.00049611,0.05539298,-0.0
 7215513,-0.08844140,0.02220190,-0.00430219,-0.02337333,-0.00490902,-0.
 00251679,0.00186133,0.00000308,0.00005272,0.00001533,0.00011406,-0.000
 00052,-0.00010910,0.00000328,0.00008917,0.00004949,-0.00000268,-0.0001
 0026,0.00024039,-0.00038463,-0.00033411,0.00119211,-0.00055241,-0.0001
 0461,0.00013446,-0.00047820,0.00004127,0.00017566,0.00002443,-0.000047
 09,-0.00004622,-0.00407402,0.00392460,0.00716650,-0.05263285,0.0709292
 9,-0.00046487,0.00009430,0.00008111,-0.00340176,-0.00362644,-0.0013836
 0,0.01108898,-0.00939868,-0.01637210,0.00274323,0.00182035,0.00151185,
 0.00048332,0.00011889,0.00048222,0.00026761,0.00020480,0.00038100,0.11
 888351,-0.08156854,-0.21997346,-0.00777927,-0.00102438,-0.00337371,0.0
 0324765,0.00160940,-0.00017444,0.00012966,-0.00003020,0.00005889,0.000
 11553,0.00006137,0.00013261,0.00000348,-0.00004671,-0.00005174,0.00003
 759,0.00021446,0.00021146,0.00067164,0.00052717,-0.00131619,-0.0007856
 2,0.00031945,-0.00004387,0.00058209,-0.00013811,-0.00001294,0.00003568
 ,-0.00014151,0.00006977,-0.00207942,0.00086235,0.00261593,-0.12377901,
 0.09014203,0.23715721\\0.00001470,-0.00000535,-0.00000500,0.00002266,0
 .00002756,-0.00001286,-0.00003556,-0.00001983,0.00004229,-0.00002768,0
 .00000074,0.00001081,0.00001835,0.00000327,-0.00001787,-0.00000261,-0.
 00000691,-0.00000918,-0.00003847,-0.00003341,0.00003650,0.00004261,0.0
 0002367,-0.00007434,-0.00001672,0.00001335,0.00002777,0.00000009,-0.00
 000141,0.00000003,-0.00000652,-0.00000250,-0.00000469,0.00000036,-0.00
 000142,-0.00000146,-0.00000648,-0.00000564,-0.00000130,0.00000338,-0.0
 0001166,0.00000455,0.00000704,-0.00000277,-0.00000202,-0.00000298,-0.0
 0000421,-0.00000060,-0.00000415,0.00000580,0.00000564,0.00000191,0.000
 00963,-0.00000461,0.00003008,0.00001109,0.00000635\\\@


 A HARD FALL SHOULD MEAN A HIGH BOUNCE 
 IF ONE IS MADE OF THE RIGHT MATERIAL.

                -- THE CHEMIST ANALYST, MARCH 1950
 Job cpu time:       0 days  2 hours  0 minutes  4.9 seconds.
 Elapsed time:       0 days  0 hours 30 minutes  2.2 seconds.
 File lengths (MBytes):  RWF=    140 Int=      0 D2E=      0 Chk=      9 Scr=      1
 Normal termination of Gaussian 16 at Thu Aug  4 14:53:25 2022.
### All Done ###
