### Starting Gaussian ###
 Entering Gaussian System, Link 0=g16
 Initial command:
 /cluster/software/gaussian/gaussian-16-A.03/avx2/g16/l1.exe "/local/scratch/linjian/Gau-23240.inp" -scrdir="/local/scratch/linjian/"
 Entering Link 1 = /cluster/software/gaussian/gaussian-16-A.03/avx2/g16/l1.exe PID=     23241.
  
 Copyright (c) 1988,1990,1992,1993,1995,1998,2003,2009,2016,
            Gaussian, Inc.  All Rights Reserved.
  
 This is part of the Gaussian(R) 16 program.  It is based on
 the Gaussian(R) 09 system (copyright 2009, Gaussian, Inc.),
 the Gaussian(R) 03 system (copyright 2003, Gaussian, Inc.),
 the Gaussian(R) 98 system (copyright 1998, Gaussian, Inc.),
 the Gaussian(R) 94 system (copyright 1995, Gaussian, Inc.),
 the Gaussian 92(TM) system (copyright 1992, Gaussian, Inc.),
 the Gaussian 90(TM) system (copyright 1990, Gaussian, Inc.),
 the Gaussian 88(TM) system (copyright 1988, Gaussian, Inc.),
 the Gaussian 86(TM) system (copyright 1986, Carnegie Mellon
 University), and the Gaussian 82(TM) system (copyright 1983,
 Carnegie Mellon University). Gaussian is a federally registered
 trademark of Gaussian, Inc.
  
 This software contains proprietary and confidential information,
 including trade secrets, belonging to Gaussian, Inc.
  
 This software is provided under written license and may be
 used, copied, transmitted, or stored only in accord with that
 written license.
  
 The following legend is applicable only to US Government
 contracts under FAR:
  
                    RESTRICTED RIGHTS LEGEND
  
 Use, reproduction and disclosure by the US Government is
 subject to restrictions as set forth in subparagraphs (a)
 and (c) of the Commercial Computer Software - Restricted
 Rights clause in FAR 52.227-19.
  
 Gaussian, Inc.
 340 Quinnipiac St., Bldg. 40, Wallingford CT 06492
  
  
 ---------------------------------------------------------------
 Warning -- This program may not be used in any manner that
 competes with the business of Gaussian, Inc. or will provide
 assistance to any competitor of Gaussian, Inc.  The licensee
 of this program is prohibited from giving any competitor of
 Gaussian, Inc. access to this program.  By using this program,
 the user acknowledges that Gaussian, Inc. is engaged in the
 business of creating and licensing software in the field of
 computational chemistry and represents and warrants to the
 licensee that it is not a competitor of Gaussian, Inc. and that
 it will not use this program in any manner prohibited above.
 ---------------------------------------------------------------
  

 Cite this work as:
 Gaussian 16, Revision A.03,
 M. J. Frisch, G. W. Trucks, H. B. Schlegel, G. E. Scuseria, 
 M. A. Robb, J. R. Cheeseman, G. Scalmani, V. Barone, 
 G. A. Petersson, H. Nakatsuji, X. Li, M. Caricato, A. V. Marenich, 
 J. Bloino, B. G. Janesko, R. Gomperts, B. Mennucci, H. P. Hratchian, 
 J. V. Ortiz, A. F. Izmaylov, J. L. Sonnenberg, D. Williams-Young, 
 F. Ding, F. Lipparini, F. Egidi, J. Goings, B. Peng, A. Petrone, 
 T. Henderson, D. Ranasinghe, V. G. Zakrzewski, J. Gao, N. Rega, 
 G. Zheng, W. Liang, M. Hada, M. Ehara, K. Toyota, R. Fukuda, 
 J. Hasegawa, M. Ishida, T. Nakajima, Y. Honda, O. Kitao, H. Nakai, 
 T. Vreven, K. Throssell, J. A. Montgomery, Jr., J. E. Peralta, 
 F. Ogliaro, M. J. Bearpark, J. J. Heyd, E. N. Brothers, K. N. Kudin, 
 V. N. Staroverov, T. A. Keith, R. Kobayashi, J. Normand, 
 K. Raghavachari, A. P. Rendell, J. C. Burant, S. S. Iyengar, 
 J. Tomasi, M. Cossi, J. M. Millam, M. Klene, C. Adamo, R. Cammi, 
 J. W. Ochterski, R. L. Martin, K. Morokuma, O. Farkas, 
 J. B. Foresman, and D. J. Fox, Gaussian, Inc., Wallingford CT, 2016.
 
 ******************************************
 Gaussian 16:  ES64L-G16RevA.03 25-Dec-2016
                 2-Aug-2022 
 ******************************************
 %chk=CCC1pCOCpCCC1C.chk
 %NProcShared=20
 Will use up to   20 processors via shared memory.
 -----------------------------
 # opt freq b3lyp/6-31g(2df,p)
 -----------------------------
 1/18=20,19=15,26=3,38=1/1,3;
 2/9=110,12=2,17=6,18=5,40=1/2;
 3/5=1,6=6,7=104,11=2,25=1,30=1,71=1,74=-5/1,2,3;
 4//1;
 5/5=2,38=5/2;
 6/7=2,8=2,9=2,10=2,28=1/1;
 7//1,2,3,16;
 1/18=20,19=15,26=3/3(2);
 2/9=110/2;
 99//99;
 2/9=110/2;
 3/5=1,6=6,7=104,11=2,25=1,30=1,71=1,74=-5/1,2,3;
 4/5=5,16=3,69=1/1;
 5/5=2,38=5/2;
 7//1,2,3,16;
 1/18=20,19=15,26=3/3(-5);
 2/9=110/2;
 6/7=2,8=2,9=2,10=2,19=2,28=1/1;
 99/9=1/99;
 -------------------
 Title Card Required
 -------------------
 Symbolic Z-matrix:
 Charge =  0 Multiplicity = 1
 C                     1.01492   0.18803  -0.35871 
 C                     2.52455   0.10215  -0.15284 
 C                     2.93705  -0.82636   1.01548 
 C                     2.27072  -0.42335   2.34764 
 O                     0.8808   -0.74128   2.28604 
 C                     0.0845    0.05966   3.14767 
 C                     4.49198  -0.89736   1.18274 
 C                     4.50323  -2.26094   0.48284 
 C                     2.98028  -2.3734    0.71089 
 C                     2.21367  -2.92593  -0.48054 
 H                     0.77697   0.65124  -1.3192 
 H                     0.5544    0.81346   0.41411 
 H                     0.52651  -0.78798  -0.32662 
 H                     2.9065    1.11235   0.02359 
 H                     2.98995  -0.23835  -1.08767 
 H                     2.42707   0.64703   2.51877 
 H                     2.69944  -0.96963   3.1979 
 H                    -0.9535   -0.00774   2.80572 
 H                     0.37903   1.11332   3.11598 
 H                     0.14484  -0.32231   4.16871 
 H                     4.85007  -0.95617   2.21858 
 H                     5.07514  -0.12305   0.67369 
 H                     5.10387  -3.0295    0.98136 
 H                     4.81498  -2.21049  -0.56681 
 H                     2.75975  -2.97978   1.60222 
 H                     2.4113   -2.358    -1.39623 
 H                     1.13771  -2.89978  -0.28893 
 H                     2.49013  -3.96454  -0.67973 
 

 GradGradGradGradGradGradGradGradGradGradGradGradGradGradGradGradGradGrad
 Berny optimization.
 Initialization pass.
                           ----------------------------
                           !    Initial Parameters    !
                           ! (Angstroms and Degrees)  !
 --------------------------                            --------------------------
 ! Name  Definition              Value          Derivative Info.                !
 --------------------------------------------------------------------------------
 ! R1    R(1,2)                  1.526          estimate D2E/DX2                !
 ! R2    R(1,11)                 1.0926         estimate D2E/DX2                !
 ! R3    R(1,12)                 1.0957         estimate D2E/DX2                !
 ! R4    R(1,13)                 1.0919         estimate D2E/DX2                !
 ! R5    R(2,3)                  1.5483         estimate D2E/DX2                !
 ! R6    R(2,14)                 1.0943         estimate D2E/DX2                !
 ! R7    R(2,15)                 1.0984         estimate D2E/DX2                !
 ! R8    R(3,4)                  1.5431         estimate D2E/DX2                !
 ! R9    R(3,7)                  1.5655         estimate D2E/DX2                !
 ! R10   R(3,9)                  1.5773         estimate D2E/DX2                !
 ! R11   R(4,5)                  1.4271         estimate D2E/DX2                !
 ! R12   R(4,16)                 1.0952         estimate D2E/DX2                !
 ! R13   R(4,17)                 1.0978         estimate D2E/DX2                !
 ! R14   R(5,6)                  1.4206         estimate D2E/DX2                !
 ! R15   R(6,18)                 1.095          estimate D2E/DX2                !
 ! R16   R(6,19)                 1.0945         estimate D2E/DX2                !
 ! R17   R(6,20)                 1.0918         estimate D2E/DX2                !
 ! R18   R(7,8)                  1.5328         estimate D2E/DX2                !
 ! R19   R(7,21)                 1.0976         estimate D2E/DX2                !
 ! R20   R(7,22)                 1.0949         estimate D2E/DX2                !
 ! R21   R(8,9)                  1.544          estimate D2E/DX2                !
 ! R22   R(8,23)                 1.0954         estimate D2E/DX2                !
 ! R23   R(8,24)                 1.0961         estimate D2E/DX2                !
 ! R24   R(9,10)                 1.5207         estimate D2E/DX2                !
 ! R25   R(9,25)                 1.1004         estimate D2E/DX2                !
 ! R26   R(10,26)                1.0955         estimate D2E/DX2                !
 ! R27   R(10,27)                1.0932         estimate D2E/DX2                !
 ! R28   R(10,28)                1.0931         estimate D2E/DX2                !
 ! A1    A(2,1,11)             110.9716         estimate D2E/DX2                !
 ! A2    A(2,1,12)             110.6564         estimate D2E/DX2                !
 ! A3    A(2,1,13)             112.8451         estimate D2E/DX2                !
 ! A4    A(11,1,12)            106.65           estimate D2E/DX2                !
 ! A5    A(11,1,13)            107.9021         estimate D2E/DX2                !
 ! A6    A(12,1,13)            107.5483         estimate D2E/DX2                !
 ! A7    A(1,2,3)              113.5222         estimate D2E/DX2                !
 ! A8    A(1,2,14)             108.3658         estimate D2E/DX2                !
 ! A9    A(1,2,15)             108.7712         estimate D2E/DX2                !
 ! A10   A(3,2,14)             109.8131         estimate D2E/DX2                !
 ! A11   A(3,2,15)             110.0859         estimate D2E/DX2                !
 ! A12   A(14,2,15)            105.9919         estimate D2E/DX2                !
 ! A13   A(2,3,4)              112.3195         estimate D2E/DX2                !
 ! A14   A(2,3,7)              111.866          estimate D2E/DX2                !
 ! A15   A(2,3,9)              116.7286         estimate D2E/DX2                !
 ! A16   A(4,3,7)              110.3962         estimate D2E/DX2                !
 ! A17   A(4,3,9)              115.7665         estimate D2E/DX2                !
 ! A18   A(7,3,9)               87.0725         estimate D2E/DX2                !
 ! A19   A(3,4,5)              108.9723         estimate D2E/DX2                !
 ! A20   A(3,4,16)             109.1783         estimate D2E/DX2                !
 ! A21   A(3,4,17)             111.7187         estimate D2E/DX2                !
 ! A22   A(5,4,16)             111.3157         estimate D2E/DX2                !
 ! A23   A(5,4,17)             107.6328         estimate D2E/DX2                !
 ! A24   A(16,4,17)            108.0331         estimate D2E/DX2                !
 ! A25   A(4,5,6)              113.2127         estimate D2E/DX2                !
 ! A26   A(5,6,18)             107.8947         estimate D2E/DX2                !
 ! A27   A(5,6,19)             111.9854         estimate D2E/DX2                !
 ! A28   A(5,6,20)             109.8154         estimate D2E/DX2                !
 ! A29   A(18,6,19)            107.7772         estimate D2E/DX2                !
 ! A30   A(18,6,20)            108.8389         estimate D2E/DX2                !
 ! A31   A(19,6,20)            110.4259         estimate D2E/DX2                !
 ! A32   A(3,7,8)               89.9341         estimate D2E/DX2                !
 ! A33   A(3,7,21)             115.2973         estimate D2E/DX2                !
 ! A34   A(3,7,22)             116.5691         estimate D2E/DX2                !
 ! A35   A(8,7,21)             112.3885         estimate D2E/DX2                !
 ! A36   A(8,7,22)             114.3897         estimate D2E/DX2                !
 ! A37   A(21,7,22)            107.6324         estimate D2E/DX2                !
 ! A38   A(7,8,9)               89.4335         estimate D2E/DX2                !
 ! A39   A(7,8,23)             114.8588         estimate D2E/DX2                !
 ! A40   A(7,8,24)             113.4787         estimate D2E/DX2                !
 ! A41   A(9,8,23)             114.9931         estimate D2E/DX2                !
 ! A42   A(9,8,24)             115.1706         estimate D2E/DX2                !
 ! A43   A(23,8,24)            108.1881         estimate D2E/DX2                !
 ! A44   A(3,9,8)               89.09           estimate D2E/DX2                !
 ! A45   A(3,9,10)             119.5934         estimate D2E/DX2                !
 ! A46   A(3,9,25)             112.2455         estimate D2E/DX2                !
 ! A47   A(8,9,10)             114.0783         estimate D2E/DX2                !
 ! A48   A(8,9,25)             110.9441         estimate D2E/DX2                !
 ! A49   A(10,9,25)            109.4743         estimate D2E/DX2                !
 ! A50   A(9,10,26)            112.0602         estimate D2E/DX2                !
 ! A51   A(9,10,27)            110.4968         estimate D2E/DX2                !
 ! A52   A(9,10,28)            111.1314         estimate D2E/DX2                !
 ! A53   A(26,10,27)           108.1596         estimate D2E/DX2                !
 ! A54   A(26,10,28)           107.1363         estimate D2E/DX2                !
 ! A55   A(27,10,28)           107.6739         estimate D2E/DX2                !
 ! D1    D(11,1,2,3)          -166.5776         estimate D2E/DX2                !
 ! D2    D(11,1,2,14)           71.145          estimate D2E/DX2                !
 ! D3    D(11,1,2,15)          -43.6535         estimate D2E/DX2                !
 ! D4    D(12,1,2,3)            75.2299         estimate D2E/DX2                !
 ! D5    D(12,1,2,14)          -47.0474         estimate D2E/DX2                !
 ! D6    D(12,1,2,15)         -161.846          estimate D2E/DX2                !
 ! D7    D(13,1,2,3)           -45.3326         estimate D2E/DX2                !
 ! D8    D(13,1,2,14)         -167.61           estimate D2E/DX2                !
 ! D9    D(13,1,2,15)           77.5915         estimate D2E/DX2                !
 ! D10   D(1,2,3,4)            -55.7823         estimate D2E/DX2                !
 ! D11   D(1,2,3,7)            179.4196         estimate D2E/DX2                !
 ! D12   D(1,2,3,9)             81.3443         estimate D2E/DX2                !
 ! D13   D(14,2,3,4)            65.6895         estimate D2E/DX2                !
 ! D14   D(14,2,3,7)           -59.1086         estimate D2E/DX2                !
 ! D15   D(14,2,3,9)          -157.1838         estimate D2E/DX2                !
 ! D16   D(15,2,3,4)          -177.9802         estimate D2E/DX2                !
 ! D17   D(15,2,3,7)            57.2216         estimate D2E/DX2                !
 ! D18   D(15,2,3,9)           -40.8536         estimate D2E/DX2                !
 ! D19   D(2,3,4,5)             71.201          estimate D2E/DX2                !
 ! D20   D(2,3,4,16)           -50.5716         estimate D2E/DX2                !
 ! D21   D(2,3,4,17)          -170.0005         estimate D2E/DX2                !
 ! D22   D(7,3,4,5)           -163.1956         estimate D2E/DX2                !
 ! D23   D(7,3,4,16)            75.0318         estimate D2E/DX2                !
 ! D24   D(7,3,4,17)           -44.3971         estimate D2E/DX2                !
 ! D25   D(9,3,4,5)            -66.3628         estimate D2E/DX2                !
 ! D26   D(9,3,4,16)           171.8647         estimate D2E/DX2                !
 ! D27   D(9,3,4,17)            52.4358         estimate D2E/DX2                !
 ! D28   D(2,3,7,8)           -101.8972         estimate D2E/DX2                !
 ! D29   D(2,3,7,21)           143.2213         estimate D2E/DX2                !
 ! D30   D(2,3,7,22)            15.5624         estimate D2E/DX2                !
 ! D31   D(4,3,7,8)            132.2435         estimate D2E/DX2                !
 ! D32   D(4,3,7,21)            17.362          estimate D2E/DX2                !
 ! D33   D(4,3,7,22)          -110.2969         estimate D2E/DX2                !
 ! D34   D(9,3,7,8)             15.7963         estimate D2E/DX2                !
 ! D35   D(9,3,7,21)           -99.0851         estimate D2E/DX2                !
 ! D36   D(9,3,7,22)           133.2559         estimate D2E/DX2                !
 ! D37   D(2,3,9,8)             97.3857         estimate D2E/DX2                !
 ! D38   D(2,3,9,10)           -20.0161         estimate D2E/DX2                !
 ! D39   D(2,3,9,25)          -150.2959         estimate D2E/DX2                !
 ! D40   D(4,3,9,8)           -126.9528         estimate D2E/DX2                !
 ! D41   D(4,3,9,10)           115.6455         estimate D2E/DX2                !
 ! D42   D(4,3,9,25)           -14.6344         estimate D2E/DX2                !
 ! D43   D(7,3,9,8)            -15.68           estimate D2E/DX2                !
 ! D44   D(7,3,9,10)          -133.0818         estimate D2E/DX2                !
 ! D45   D(7,3,9,25)            96.6384         estimate D2E/DX2                !
 ! D46   D(3,4,5,6)           -154.5541         estimate D2E/DX2                !
 ! D47   D(16,4,5,6)           -34.0876         estimate D2E/DX2                !
 ! D48   D(17,4,5,6)            84.1224         estimate D2E/DX2                !
 ! D49   D(4,5,6,18)           161.49           estimate D2E/DX2                !
 ! D50   D(4,5,6,19)            43.042          estimate D2E/DX2                !
 ! D51   D(4,5,6,20)           -80.0186         estimate D2E/DX2                !
 ! D52   D(3,7,8,9)            -16.1254         estimate D2E/DX2                !
 ! D53   D(3,7,8,23)          -133.5832         estimate D2E/DX2                !
 ! D54   D(3,7,8,24)           101.2251         estimate D2E/DX2                !
 ! D55   D(21,7,8,9)           101.37           estimate D2E/DX2                !
 ! D56   D(21,7,8,23)          -16.0878         estimate D2E/DX2                !
 ! D57   D(21,7,8,24)         -141.2794         estimate D2E/DX2                !
 ! D58   D(22,7,8,9)          -135.5043         estimate D2E/DX2                !
 ! D59   D(22,7,8,23)          107.0379         estimate D2E/DX2                !
 ! D60   D(22,7,8,24)          -18.1537         estimate D2E/DX2                !
 ! D61   D(7,8,9,3)             16.0034         estimate D2E/DX2                !
 ! D62   D(7,8,9,10)           138.2711         estimate D2E/DX2                !
 ! D63   D(7,8,9,25)           -97.5329         estimate D2E/DX2                !
 ! D64   D(23,8,9,3)           133.3407         estimate D2E/DX2                !
 ! D65   D(23,8,9,10)         -104.3915         estimate D2E/DX2                !
 ! D66   D(23,8,9,25)           19.8045         estimate D2E/DX2                !
 ! D67   D(24,8,9,3)           -99.8191         estimate D2E/DX2                !
 ! D68   D(24,8,9,10)           22.4487         estimate D2E/DX2                !
 ! D69   D(24,8,9,25)          146.6447         estimate D2E/DX2                !
 ! D70   D(3,9,10,26)           49.1053         estimate D2E/DX2                !
 ! D71   D(3,9,10,27)          -71.5921         estimate D2E/DX2                !
 ! D72   D(3,9,10,28)          168.9381         estimate D2E/DX2                !
 ! D73   D(8,9,10,26)          -54.4145         estimate D2E/DX2                !
 ! D74   D(8,9,10,27)         -175.1119         estimate D2E/DX2                !
 ! D75   D(8,9,10,28)           65.4182         estimate D2E/DX2                !
 ! D76   D(25,9,10,26)        -179.3951         estimate D2E/DX2                !
 ! D77   D(25,9,10,27)          59.9075         estimate D2E/DX2                !
 ! D78   D(25,9,10,28)         -59.5624         estimate D2E/DX2                !
 --------------------------------------------------------------------------------
 Trust Radius=3.00D-01 FncErr=1.00D-07 GrdErr=1.00D-06 EigMax=2.50D+02 EigMin=1.00D-04
 Number of steps in this run=    168 maximum allowed number of steps=    168.
 GradGradGradGradGradGradGradGradGradGradGradGradGradGradGradGradGradGrad

                          Input orientation:                          
 ---------------------------------------------------------------------
 Center     Atomic      Atomic             Coordinates (Angstroms)
 Number     Number       Type             X           Y           Z
 ---------------------------------------------------------------------
      1          6           0        1.014920    0.188030   -0.358710
      2          6           0        2.524550    0.102150   -0.152840
      3          6           0        2.937050   -0.826360    1.015480
      4          6           0        2.270720   -0.423350    2.347640
      5          8           0        0.880800   -0.741280    2.286040
      6          6           0        0.084500    0.059660    3.147670
      7          6           0        4.491980   -0.897360    1.182740
      8          6           0        4.503230   -2.260940    0.482840
      9          6           0        2.980280   -2.373400    0.710890
     10          6           0        2.213670   -2.925930   -0.480540
     11          1           0        0.776970    0.651240   -1.319200
     12          1           0        0.554400    0.813460    0.414110
     13          1           0        0.526510   -0.787980   -0.326620
     14          1           0        2.906500    1.112350    0.023590
     15          1           0        2.989950   -0.238350   -1.087670
     16          1           0        2.427070    0.647030    2.518770
     17          1           0        2.699440   -0.969630    3.197900
     18          1           0       -0.953500   -0.007740    2.805720
     19          1           0        0.379030    1.113320    3.115980
     20          1           0        0.144840   -0.322310    4.168710
     21          1           0        4.850070   -0.956170    2.218580
     22          1           0        5.075140   -0.123050    0.673690
     23          1           0        5.103870   -3.029500    0.981360
     24          1           0        4.814980   -2.210490   -0.566810
     25          1           0        2.759750   -2.979780    1.602220
     26          1           0        2.411300   -2.358000   -1.396230
     27          1           0        1.137710   -2.899780   -0.288930
     28          1           0        2.490130   -3.964540   -0.679730
 ---------------------------------------------------------------------
                    Distance matrix (angstroms):
                    1          2          3          4          5
     1  C    0.000000
     2  C    1.526021   0.000000
     3  C    2.571375   1.548308   0.000000
     4  C    3.045513   2.567680   1.543069   0.000000
     5  O    2.806476   3.059644   2.418621   1.427148   0.000000
     6  C    3.629995   4.104755   3.669919   2.377584   1.420565
     7  C    3.955261   2.579452   1.565511   2.552582   3.779187
     8  C    4.344418   3.146976   2.189668   3.440686   4.322372
     9  C    3.401119   2.661215   1.577332   2.642938   3.090749
    10  C    3.338951   3.061585   2.677601   3.776872   3.768714
    11  H    1.092577   2.171620   3.507132   4.102651   3.866219
    12  H    1.095670   2.169997   2.954264   2.866006   2.455173
    13  H    1.091865   2.194241   2.759241   3.213548   2.636986
    14  H    2.139765   1.094311   2.177929   2.857236   3.557820
    15  H    2.148005   1.098383   2.184444   3.514665   4.010408
    16  H    3.238015   2.728351   2.165834   1.095191   2.091057
    17  H    4.102104   3.522323   2.199987   1.097800   2.047214
    18  H    3.731839   4.567492   4.360215   3.283011   2.042744
    19  H    3.651573   4.038676   3.836395   2.555424   2.092872
    20  H    4.638428   4.951664   4.241858   2.801048   2.064369
    21  H    4.760251   3.485931   2.263613   2.636968   3.975655
    22  H    4.200953   2.690609   2.276597   3.279796   4.535898
    23  H    5.372876   4.212663   3.090323   4.084786   4.977194
    24  H    4.498518   3.281119   2.818879   4.261590   5.076919
    25  H    4.113964   3.554412   2.238954   2.707422   3.001490
    26  H    3.083601   2.758837   2.904940   4.216538   4.302944
    27  H    3.091038   3.309597   3.039438   3.790504   3.369806
    28  H    4.418499   4.100825   3.594669   4.664026   4.666384
                    6          7          8          9         10
     6  C    0.000000
     7  C    4.919626   0.000000
     8  C    5.657886   1.532755   0.000000
     9  C    4.499247   2.164850   1.544031   0.000000
    10  C    5.158587   3.474521   2.571458   1.520686   0.000000
    11  H    4.558773   4.739110   5.060944   4.257263   3.945073
    12  H    2.874260   4.361449   5.004989   4.016099   4.187674
    13  H    3.603409   4.244418   4.317307   3.100157   2.727825
    14  H    4.339553   2.810037   3.760258   3.553629   4.128179
    15  H    5.144760   2.800919   2.974456   2.791657   2.862569
    16  H    2.495627   2.904130   4.112389   3.563351   4.669844
    17  H    2.810671   2.698016   3.506093   2.869610   4.194521
    18  H    1.094950   5.751412   6.344177   5.045719   5.417223
    19  H    1.094510   4.969568   5.943743   4.970732   5.711077
    20  H    1.091817   5.305123   6.028224   4.919676   5.716154
    21  H    4.960421   1.097566   2.198981   2.788868   4.256267
    22  H    5.573190   1.094881   2.221279   3.074719   4.168500
    23  H    6.279322   2.227327   1.095434   2.239030   3.240545
    24  H    6.428716   2.211236   1.096129   2.241692   2.699280
    25  H    4.334002   2.740996   2.193049   1.100363   2.153832
    26  H    5.648549   3.621296   2.813627   2.182643   1.095486
    27  H    4.655938   4.174521   3.511477   2.161430   1.093201
    28  H    6.052291   4.108989   2.882081   2.169285   1.093077
                   11         12         13         14         15
    11  H    0.000000
    12  H    1.755054   0.000000
    13  H    1.766154   1.764672   0.000000
    14  H    2.559415   2.402960   3.065657   0.000000
    15  H    2.396301   3.048533   2.636252   1.751072   0.000000
    16  H    4.177662   2.822089   3.710475   2.583079   3.755947
    17  H    5.169846   3.940824   4.144498   3.801810   4.357210
    18  H    4.521476   2.944135   3.551163   4.888195   5.546392
    19  H    4.476907   2.724109   3.935503   3.993868   5.129775
    20  H    5.609327   3.943949   4.535473   5.183342   5.977561
    21  H    5.629369   4.984023   5.019911   3.588066   3.860907
    22  H    4.800563   4.624016   4.704550   2.579117   2.731977
    23  H    6.128824   5.982290   5.261886   4.785465   4.066947
    24  H    5.006108   5.315921   4.524622   3.877130   2.737036
    25  H    5.064624   4.545750   3.675836   4.388523   3.847589
    26  H    3.425273   4.096775   2.676091   3.782121   2.218775
    27  H    3.715014   3.823960   2.198792   4.395847   3.339459
    28  H    4.964803   5.269992   3.751136   5.142260   3.781630
                   16         17         18         19         20
    16  H    0.000000
    17  H    1.774540   0.000000
    18  H    3.455332   3.797764   0.000000
    19  H    2.183702   3.119246   1.768806   0.000000
    20  H    2.978338   2.808465   1.778496   1.795583   0.000000
    21  H    2.920838   2.363146   5.909795   5.007825   5.132638
    22  H    3.318074   3.568233   6.395573   5.435701   6.046712
    23  H    4.800600   3.864893   7.010781   6.636541   6.486914
    24  H    4.836149   4.493137   7.035725   6.654946   6.913796
    25  H    3.755595   2.567204   4.906084   4.971193   4.526232
    26  H    4.935350   4.807975   5.873839   6.044851   6.344244
    27  H    4.703774   4.280475   4.723760   5.317328   5.244015
    28  H    5.612571   4.904010   6.297874   6.681977   6.501815
                   21         22         23         24         25
    21  H    0.000000
    22  H    1.769585   0.000000
    23  H    2.427720   2.922830   0.000000
    24  H    3.054987   2.442116   1.775124   0.000000
    25  H    2.973943   3.792638   2.425456   3.085526   0.000000
    26  H    4.580347   4.046679   3.654282   2.547032   3.082001
    27  H    4.883323   4.913270   4.166640   3.751620   2.492762
    28  H    4.797896   4.824010   3.234989   2.914510   2.499949
                   26         27         28
    26  H    0.000000
    27  H    1.772476   0.000000
    28  H    1.760840   1.765072   0.000000
 Stoichiometry    C9H18O
 Framework group  C1[X(C9H18O)]
 Deg. of freedom    78
 Full point group                 C1      NOp   1
 Largest Abelian subgroup         C1      NOp   1
 Largest concise Abelian subgroup C1      NOp   1
                         Standard orientation:                         
 ---------------------------------------------------------------------
 Center     Atomic      Atomic             Coordinates (Angstroms)
 Number     Number       Type             X           Y           Z
 ---------------------------------------------------------------------
      1          6           0        0.827472    1.925235   -0.779934
      2          6           0       -0.213568    0.934831   -1.293819
      3          6           0       -0.374034   -0.315252   -0.394486
      4          6           0        0.961570   -1.057351   -0.178811
      5          8           0        1.796379   -0.272417    0.671909
      6          6           0        3.181497   -0.529365    0.489067
      7          6           0       -1.460251   -1.296852   -0.948937
      8          6           0       -2.457037   -0.780503    0.094680
      9          6           0       -1.284978   -0.157573    0.883519
     10          6           0       -1.574918    1.230627    1.432448
     11          1           0        0.744148    2.883856   -1.297455
     12          1           0        1.840765    1.553610   -0.968678
     13          1           0        0.740326    2.113815    0.291986
     14          1           0        0.070607    0.629851   -2.305624
     15          1           0       -1.176387    1.453965   -1.393432
     16          1           0        1.436218   -1.233442   -1.149967
     17          1           0        0.811908   -2.030035    0.307657
     18          1           0        3.738583    0.314040    0.910066
     19          1           0        3.447001   -0.610085   -0.569679
     20          1           0        3.462751   -1.439310    1.022883
     21          1           0       -1.236906   -2.363890   -0.821661
     22          1           0       -1.773309   -1.145069   -1.987070
     23          1           0       -3.010991   -1.560718    0.627947
     24          1           0       -3.180326   -0.063017   -0.309753
     25          1           0       -0.968489   -0.818055    1.704736
     26          1           0       -1.904847    1.922063    0.649407
     27          1           0       -0.682034    1.650212    1.903398
     28          1           0       -2.364561    1.198764    2.187607
 ---------------------------------------------------------------------
 Rotational constants (GHZ):           1.8088224           0.9374874           0.8595231
 Standard basis: 6-31G(2df,p) (6D, 7F)
 There are   400 symmetry adapted cartesian basis functions of A   symmetry.
 There are   370 symmetry adapted basis functions of A   symmetry.
   370 basis functions,   566 primitive gaussians,   400 cartesian basis functions
    40 alpha electrons       40 beta electrons
       nuclear repulsion energy       596.4236304857 Hartrees.
 NAtoms=   28 NActive=   28 NUniq=   28 SFac= 1.00D+00 NAtFMM=   60 NAOKFM=F Big=F
 Integral buffers will be    131072 words long.
 Raffenetti 2 integral format.
 Two-electron integral symmetry is turned on.
 One-electron integrals computed using PRISM.
 PrsmSu:  requested number of processors reduced to:  13 ShMem   1 Linda.
 NBasis=   370 RedAO= T EigKep=  3.75D-04  NBF=   370
 NBsUse=   370 1.00D-06 EigRej= -1.00D+00 NBFU=   370
 ExpMin= 1.61D-01 ExpMax= 5.48D+03 ExpMxC= 8.25D+02 IAcc=3 IRadAn=         5 AccDes= 0.00D+00
 Harris functional with IExCor=  402 and IRadAn=       5 diagonalized for initial guess.
 HarFok:  IExCor=  402 AccDes= 0.00D+00 IRadAn=         5 IDoV= 1 UseB2=F ITyADJ=14
 ICtDFT=  3500011 ScaDFX=  1.000000  1.000000  1.000000  1.000000
 FoFCou: FMM=F IPFlag=           0 FMFlag=      100000 FMFlg1=           0
         NFxFlg=           0 DoJE=T BraDBF=F KetDBF=T FulRan=T
         wScrn=  0.000000 ICntrl=       500 IOpCl=  0 I1Cent=   200000004 NGrid=           0
         NMat0=    1 NMatS0=      1 NMatT0=    0 NMatD0=    1 NMtDS0=    0 NMtDT0=    0
 Petite list used in FoFCou.
 Requested convergence on RMS density matrix=1.00D-08 within 128 cycles.
 Requested convergence on MAX density matrix=1.00D-06.
 Requested convergence on             energy=1.00D-06.
 No special actions if energy rises.
 Integral accuracy reduced to 1.0D-05 until final iterations.
 Initial convergence to 1.0D-05 achieved.  Increase integral accuracy.
 SCF Done:  E(RB3LYP) =  -429.009858551     A.U. after   12 cycles
            NFock= 12  Conv=0.71D-08     -V/T= 2.0083

 **********************************************************************

            Population analysis using the SCF density.

 **********************************************************************

 Orbital symmetries:
       Occupied  (A) (A) (A) (A) (A) (A) (A) (A) (A) (A) (A) (A)
                 (A) (A) (A) (A) (A) (A) (A) (A) (A) (A) (A) (A)
                 (A) (A) (A) (A) (A) (A) (A) (A) (A) (A) (A) (A)
                 (A) (A) (A) (A)
       Virtual   (A) (A) (A) (A) (A) (A) (A) (A) (A) (A) (A) (A)
                 (A) (A) (A) (A) (A) (A) (A) (A) (A) (A) (A) (A)
                 (A) (A) (A) (A) (A) (A) (A) (A) (A) (A) (A) (A)
                 (A) (A) (A) (A) (A) (A) (A) (A) (A) (A) (A) (A)
                 (A) (A) (A) (A) (A) (A) (A) (A) (A) (A) (A) (A)
                 (A) (A) (A) (A) (A) (A) (A) (A) (A) (A) (A) (A)
                 (A) (A) (A) (A) (A) (A) (A) (A) (A) (A) (A) (A)
                 (A) (A) (A) (A) (A) (A) (A) (A) (A) (A) (A) (A)
                 (A) (A) (A) (A) (A) (A) (A) (A) (A) (A) (A) (A)
                 (A) (A) (A) (A) (A) (A) (A) (A) (A) (A) (A) (A)
                 (A) (A) (A) (A) (A) (A) (A) (A) (A) (A) (A) (A)
                 (A) (A) (A) (A) (A) (A) (A) (A) (A) (A) (A) (A)
                 (A) (A) (A) (A) (A) (A) (A) (A) (A) (A) (A) (A)
                 (A) (A) (A) (A) (A) (A) (A) (A) (A) (A) (A) (A)
                 (A) (A) (A) (A) (A) (A) (A) (A) (A) (A) (A) (A)
                 (A) (A) (A) (A) (A) (A) (A) (A) (A) (A) (A) (A)
                 (A) (A) (A) (A) (A) (A) (A) (A) (A) (A) (A) (A)
                 (A) (A) (A) (A) (A) (A) (A) (A) (A) (A) (A) (A)
                 (A) (A) (A) (A) (A) (A) (A) (A) (A) (A) (A) (A)
                 (A) (A) (A) (A) (A) (A) (A) (A) (A) (A) (A) (A)
                 (A) (A) (A) (A) (A) (A) (A) (A) (A) (A) (A) (A)
                 (A) (A) (A) (A) (A) (A) (A) (A) (A) (A) (A) (A)
                 (A) (A) (A) (A) (A) (A) (A) (A) (A) (A) (A) (A)
                 (A) (A) (A) (A) (A) (A) (A) (A) (A) (A) (A) (A)
                 (A) (A) (A) (A) (A) (A) (A) (A) (A) (A) (A) (A)
                 (A) (A) (A) (A) (A) (A) (A) (A) (A) (A) (A) (A)
                 (A) (A) (A) (A) (A) (A) (A) (A) (A) (A) (A) (A)
                 (A) (A) (A) (A) (A) (A)
 The electronic state is 1-A.
 Alpha  occ. eigenvalues --  -19.13104 -10.21987 -10.21808 -10.18524 -10.17773
 Alpha  occ. eigenvalues --  -10.17410 -10.16937 -10.16693 -10.16242 -10.15691
 Alpha  occ. eigenvalues --   -1.01895  -0.84759  -0.75586  -0.72438  -0.71100
 Alpha  occ. eigenvalues --   -0.65749  -0.61683  -0.60807  -0.58374  -0.51277
 Alpha  occ. eigenvalues --   -0.48263  -0.47347  -0.47111  -0.44019  -0.43243
 Alpha  occ. eigenvalues --   -0.42581  -0.40268  -0.39493  -0.38732  -0.38252
 Alpha  occ. eigenvalues --   -0.36668  -0.35194  -0.34737  -0.33429  -0.31617
 Alpha  occ. eigenvalues --   -0.30837  -0.29809  -0.28049  -0.27331  -0.24341
 Alpha virt. eigenvalues --    0.07680   0.09557   0.10404   0.10697   0.12627
 Alpha virt. eigenvalues --    0.13293   0.14195   0.15086   0.15892   0.16492
 Alpha virt. eigenvalues --    0.16738   0.17136   0.18046   0.18179   0.19153
 Alpha virt. eigenvalues --    0.19724   0.20260   0.20654   0.22558   0.23136
 Alpha virt. eigenvalues --    0.23468   0.25284   0.26033   0.26516   0.27235
 Alpha virt. eigenvalues --    0.27527   0.32711   0.37308   0.42644   0.44082
 Alpha virt. eigenvalues --    0.46076   0.46479   0.47299   0.49228   0.49964
 Alpha virt. eigenvalues --    0.50335   0.52143   0.52203   0.53776   0.56063
 Alpha virt. eigenvalues --    0.56686   0.57262   0.60210   0.60542   0.61364
 Alpha virt. eigenvalues --    0.62016   0.64819   0.66531   0.66944   0.68292
 Alpha virt. eigenvalues --    0.69571   0.71020   0.71823   0.71991   0.72544
 Alpha virt. eigenvalues --    0.73343   0.74522   0.75161   0.76138   0.76888
 Alpha virt. eigenvalues --    0.77463   0.78394   0.78823   0.79682   0.80089
 Alpha virt. eigenvalues --    0.82231   0.82482   0.83338   0.84558   0.85948
 Alpha virt. eigenvalues --    0.86335   0.86695   0.88354   0.90387   0.92331
 Alpha virt. eigenvalues --    0.95379   0.96841   0.97765   0.99535   1.02561
 Alpha virt. eigenvalues --    1.07755   1.08126   1.10438   1.11812   1.12843
 Alpha virt. eigenvalues --    1.17095   1.19754   1.23059   1.23250   1.25973
 Alpha virt. eigenvalues --    1.26571   1.28462   1.29972   1.32582   1.35333
 Alpha virt. eigenvalues --    1.37712   1.38387   1.40500   1.42234   1.44384
 Alpha virt. eigenvalues --    1.45686   1.46957   1.47853   1.48429   1.49819
 Alpha virt. eigenvalues --    1.51902   1.53841   1.54567   1.57491   1.58833
 Alpha virt. eigenvalues --    1.60049   1.61323   1.62493   1.64800   1.65756
 Alpha virt. eigenvalues --    1.68413   1.70852   1.72246   1.75809   1.76174
 Alpha virt. eigenvalues --    1.76973   1.79868   1.81052   1.83468   1.84556
 Alpha virt. eigenvalues --    1.87200   1.90069   1.90680   1.92053   1.93734
 Alpha virt. eigenvalues --    1.95150   1.97767   1.98068   1.99914   2.01804
 Alpha virt. eigenvalues --    2.04380   2.07716   2.12338   2.16685   2.17020
 Alpha virt. eigenvalues --    2.18934   2.24230   2.26227   2.28098   2.29695
 Alpha virt. eigenvalues --    2.30157   2.32475   2.34198   2.35543   2.36919
 Alpha virt. eigenvalues --    2.37699   2.41244   2.43262   2.44721   2.46121
 Alpha virt. eigenvalues --    2.48727   2.50700   2.52241   2.53374   2.59943
 Alpha virt. eigenvalues --    2.62456   2.67154   2.68910   2.70163   2.72362
 Alpha virt. eigenvalues --    2.72704   2.74804   2.76792   2.78055   2.78821
 Alpha virt. eigenvalues --    2.81495   2.82533   2.84465   2.85475   2.85879
 Alpha virt. eigenvalues --    2.88181   2.88710   2.89909   2.90800   2.92975
 Alpha virt. eigenvalues --    2.93285   2.94727   2.95853   2.96852   2.97430
 Alpha virt. eigenvalues --    2.98175   2.99828   3.01989   3.04168   3.06475
 Alpha virt. eigenvalues --    3.07147   3.08256   3.10354   3.12264   3.15095
 Alpha virt. eigenvalues --    3.16291   3.19929   3.22248   3.23326   3.26304
 Alpha virt. eigenvalues --    3.27526   3.30044   3.32943   3.34739   3.34975
 Alpha virt. eigenvalues --    3.37999   3.39664   3.40048   3.40898   3.43251
 Alpha virt. eigenvalues --    3.44611   3.48066   3.49128   3.50987   3.54261
 Alpha virt. eigenvalues --    3.54561   3.56762   3.57080   3.59574   3.60952
 Alpha virt. eigenvalues --    3.62950   3.64463   3.66420   3.68042   3.68343
 Alpha virt. eigenvalues --    3.71450   3.73986   3.80428   3.80982   3.85014
 Alpha virt. eigenvalues --    3.85959   3.88316   3.89382   3.92934   3.94140
 Alpha virt. eigenvalues --    3.95269   3.97978   3.98811   4.03505   4.06263
 Alpha virt. eigenvalues --    4.10284   4.14707   4.17567   4.19807   4.29508
 Alpha virt. eigenvalues --    4.32270   4.34414   4.35856   4.38782   4.40965
 Alpha virt. eigenvalues --    4.41467   4.42963   4.44147   4.45838   4.47085
 Alpha virt. eigenvalues --    4.48493   4.49921   4.51326   4.52822   4.56180
 Alpha virt. eigenvalues --    4.57074   4.58408   4.59399   4.61004   4.61526
 Alpha virt. eigenvalues --    4.64678   4.67118   4.67397   4.68655   4.69351
 Alpha virt. eigenvalues --    4.69770   4.71755   4.72924   4.73059   4.74917
 Alpha virt. eigenvalues --    4.75716   4.77490   4.77981   4.80107   4.81604
 Alpha virt. eigenvalues --    4.82885   4.83942   4.85077   4.86742   4.88372
 Alpha virt. eigenvalues --    4.88493   4.91514   4.94083   4.95931   4.96668
 Alpha virt. eigenvalues --    4.98659   5.00795   5.02218   5.06669   5.12581
 Alpha virt. eigenvalues --    5.14684   5.15074   5.22465   5.28755   5.31621
 Alpha virt. eigenvalues --    5.33875   5.38584   5.41860   5.44195   5.48685
 Alpha virt. eigenvalues --    5.52461   5.54850   5.58752   5.62138   5.69442
 Alpha virt. eigenvalues --    5.83010   5.84404   5.93334   6.00254   6.07199
 Alpha virt. eigenvalues --    6.12505   6.22753   6.34439   7.12068   7.47012
 Alpha virt. eigenvalues --   11.12227  11.30262  11.63145  11.78928  11.92771
 Alpha virt. eigenvalues --   12.30224  12.37462  12.61029  13.38215  13.56566
          Condensed to atoms (all electrons):
               1          2          3          4          5          6
     1  C    4.956420   0.395296  -0.018645  -0.005621   0.001722  -0.000718
     2  C    0.395296   4.961320   0.401673  -0.056708  -0.004437   0.000473
     3  C   -0.018645   0.401673   4.382928   0.403231  -0.029448   0.003579
     4  C   -0.005621  -0.056708   0.403231   4.983565   0.326757  -0.080965
     5  O    0.001722  -0.004437  -0.029448   0.326757   7.724292   0.355292
     6  C   -0.000718   0.000473   0.003579  -0.080965   0.355292   4.834755
     7  C    0.004476  -0.037709   0.340551  -0.034031   0.001769  -0.000195
     8  C   -0.000414   0.007379  -0.065826   0.003537   0.000180  -0.000004
     9  C   -0.005504  -0.038010   0.411549  -0.037651   0.003862  -0.000130
    10  C   -0.000578  -0.013038  -0.018313   0.004135  -0.000914   0.000015
    11  H    0.358633  -0.023046   0.002315  -0.000255   0.000818  -0.000040
    12  H    0.378767  -0.023067  -0.005138   0.003276  -0.000891   0.001468
    13  H    0.383111  -0.027232  -0.005240  -0.001530   0.002828   0.000121
    14  H   -0.038768   0.354294  -0.016609  -0.006424  -0.000189  -0.000023
    15  H   -0.040813   0.357062  -0.018238   0.006113  -0.000129   0.000016
    16  H    0.000205  -0.010273  -0.013764   0.331569  -0.028679  -0.013875
    17  H    0.000329   0.005645  -0.009159   0.326690  -0.025375   0.001057
    18  H   -0.000076   0.000025  -0.000189   0.005896  -0.021413   0.382518
    19  H    0.000024  -0.000133   0.000516  -0.010966  -0.030897   0.366651
    20  H    0.000122  -0.000028  -0.000058  -0.003078  -0.030497   0.376315
    21  H   -0.000158   0.004739  -0.013314  -0.011787   0.000138  -0.000004
    22  H    0.000179  -0.011647  -0.015011   0.002662  -0.000034   0.000004
    23  H    0.000006  -0.000301   0.003360  -0.000470   0.000001  -0.000000
    24  H   -0.000041   0.000995  -0.002271  -0.000207   0.000001   0.000000
    25  H   -0.000111   0.005830  -0.032207  -0.013305   0.001221  -0.000132
    26  H   -0.000158   0.002759  -0.010838  -0.000013   0.000007  -0.000001
    27  H   -0.002196   0.000664  -0.002024   0.000041   0.000870  -0.000012
    28  H    0.000163  -0.000047   0.003313  -0.000081   0.000001   0.000000
               7          8          9         10         11         12
     1  C    0.004476  -0.000414  -0.005504  -0.000578   0.358633   0.378767
     2  C   -0.037709   0.007379  -0.038010  -0.013038  -0.023046  -0.023067
     3  C    0.340551  -0.065826   0.411549  -0.018313   0.002315  -0.005138
     4  C   -0.034031   0.003537  -0.037651   0.004135  -0.000255   0.003276
     5  O    0.001769   0.000180   0.003862  -0.000914   0.000818  -0.000891
     6  C   -0.000195  -0.000004  -0.000130   0.000015  -0.000040   0.001468
     7  C    5.110336   0.338523  -0.096654   0.007132  -0.000129   0.000014
     8  C    0.338523   4.975306   0.369778  -0.039007   0.000012   0.000002
     9  C   -0.096654   0.369778   4.734251   0.387316   0.000216  -0.000140
    10  C    0.007132  -0.039007   0.387316   5.034432  -0.000182   0.000059
    11  H   -0.000129   0.000012   0.000216  -0.000182   0.646148  -0.035333
    12  H    0.000014   0.000002  -0.000140   0.000059  -0.035333   0.600220
    13  H    0.000119   0.000041   0.002014   0.000568  -0.032436  -0.031832
    14  H   -0.006735  -0.000340   0.005144   0.000044   0.000090  -0.007166
    15  H   -0.004109   0.002108  -0.009341   0.000144  -0.007630   0.005632
    16  H    0.000401  -0.000030   0.005592  -0.000212  -0.000062  -0.000522
    17  H   -0.007808   0.000833  -0.008331  -0.000040   0.000013  -0.000015
    18  H    0.000002  -0.000000   0.000006   0.000000  -0.000030   0.000464
    19  H   -0.000013   0.000002   0.000052  -0.000003  -0.000023   0.000837
    20  H    0.000009  -0.000000  -0.000008  -0.000000   0.000002   0.000010
    21  H    0.343899  -0.019697   0.000774  -0.000388   0.000003   0.000003
    22  H    0.349277  -0.026979   0.007990  -0.000432  -0.000008   0.000002
    23  H   -0.020929   0.353977  -0.016946   0.003596  -0.000000   0.000000
    24  H   -0.021611   0.361822  -0.019855  -0.010898  -0.000001   0.000001
    25  H    0.007017  -0.035703   0.353273  -0.050612   0.000007   0.000008
    26  H    0.001134  -0.007875  -0.019187   0.373010   0.000110   0.000031
    27  H   -0.000457   0.005192  -0.021022   0.366750   0.000054   0.000071
    28  H   -0.000066  -0.003266  -0.019618   0.365717  -0.000004  -0.000004
              13         14         15         16         17         18
     1  C    0.383111  -0.038768  -0.040813   0.000205   0.000329  -0.000076
     2  C   -0.027232   0.354294   0.357062  -0.010273   0.005645   0.000025
     3  C   -0.005240  -0.016609  -0.018238  -0.013764  -0.009159  -0.000189
     4  C   -0.001530  -0.006424   0.006113   0.331569   0.326690   0.005896
     5  O    0.002828  -0.000189  -0.000129  -0.028679  -0.025375  -0.021413
     6  C    0.000121  -0.000023   0.000016  -0.013875   0.001057   0.382518
     7  C    0.000119  -0.006735  -0.004109   0.000401  -0.007808   0.000002
     8  C    0.000041  -0.000340   0.002108  -0.000030   0.000833  -0.000000
     9  C    0.002014   0.005144  -0.009341   0.005592  -0.008331   0.000006
    10  C    0.000568   0.000044   0.000144  -0.000212  -0.000040   0.000000
    11  H   -0.032436   0.000090  -0.007630  -0.000062   0.000013  -0.000030
    12  H   -0.031832  -0.007166   0.005632  -0.000522  -0.000015   0.000464
    13  H    0.573054   0.005436  -0.001358   0.000286  -0.000027   0.000001
    14  H    0.005436   0.652309  -0.040651   0.005054  -0.000133   0.000003
    15  H   -0.001358  -0.040651   0.651962  -0.000099  -0.000200  -0.000000
    16  H    0.000286   0.005054  -0.000099   0.678005  -0.056175   0.000326
    17  H   -0.000027  -0.000133  -0.000200  -0.056175   0.673176  -0.000393
    18  H    0.000001   0.000003  -0.000000   0.000326  -0.000393   0.581543
    19  H    0.000046   0.000017   0.000002   0.017267  -0.001721  -0.033412
    20  H    0.000003  -0.000001  -0.000000  -0.001550   0.005610  -0.039986
    21  H    0.000000   0.000133  -0.000085   0.000803   0.007809   0.000000
    22  H    0.000012   0.004628   0.001396   0.000219  -0.000287  -0.000000
    23  H   -0.000000   0.000013  -0.000126   0.000023  -0.000095   0.000000
    24  H    0.000000   0.000001   0.000777   0.000016   0.000004   0.000000
    25  H   -0.000153  -0.000134  -0.000039   0.000104   0.004795   0.000003
    26  H   -0.000179  -0.000133   0.003887   0.000002   0.000006   0.000000
    27  H    0.004652  -0.000012   0.000209   0.000002   0.000011  -0.000005
    28  H   -0.000034   0.000002  -0.000133   0.000003  -0.000005   0.000000
              19         20         21         22         23         24
     1  C    0.000024   0.000122  -0.000158   0.000179   0.000006  -0.000041
     2  C   -0.000133  -0.000028   0.004739  -0.011647  -0.000301   0.000995
     3  C    0.000516  -0.000058  -0.013314  -0.015011   0.003360  -0.002271
     4  C   -0.010966  -0.003078  -0.011787   0.002662  -0.000470  -0.000207
     5  O   -0.030897  -0.030497   0.000138  -0.000034   0.000001   0.000001
     6  C    0.366651   0.376315  -0.000004   0.000004  -0.000000   0.000000
     7  C   -0.000013   0.000009   0.343899   0.349277  -0.020929  -0.021611
     8  C    0.000002  -0.000000  -0.019697  -0.026979   0.353977   0.361822
     9  C    0.000052  -0.000008   0.000774   0.007990  -0.016946  -0.019855
    10  C   -0.000003  -0.000000  -0.000388  -0.000432   0.003596  -0.010898
    11  H   -0.000023   0.000002   0.000003  -0.000008  -0.000000  -0.000001
    12  H    0.000837   0.000010   0.000003   0.000002   0.000000   0.000001
    13  H    0.000046   0.000003   0.000000   0.000012  -0.000000   0.000000
    14  H    0.000017  -0.000001   0.000133   0.004628   0.000013   0.000001
    15  H    0.000002  -0.000000  -0.000085   0.001396  -0.000126   0.000777
    16  H    0.017267  -0.001550   0.000803   0.000219   0.000023   0.000016
    17  H   -0.001721   0.005610   0.007809  -0.000287  -0.000095   0.000004
    18  H   -0.033412  -0.039986   0.000000  -0.000000   0.000000   0.000000
    19  H    0.633059  -0.046819  -0.000002   0.000000  -0.000000  -0.000000
    20  H   -0.046819   0.633488   0.000004  -0.000000   0.000000   0.000000
    21  H   -0.000002   0.000004   0.641825  -0.042571  -0.009437   0.004902
    22  H    0.000000  -0.000000  -0.042571   0.648585   0.003628  -0.009305
    23  H   -0.000000   0.000000  -0.009437   0.003628   0.647980  -0.043306
    24  H   -0.000000   0.000000   0.004902  -0.009305  -0.043306   0.633428
    25  H    0.000002   0.000005   0.001043  -0.000631  -0.009362   0.005342
    26  H   -0.000000   0.000000  -0.000005  -0.000102  -0.000128   0.004891
    27  H    0.000002   0.000000   0.000016   0.000015  -0.000189   0.000068
    28  H    0.000000   0.000000   0.000011   0.000022   0.000738   0.000792
              25         26         27         28
     1  C   -0.000111  -0.000158  -0.002196   0.000163
     2  C    0.005830   0.002759   0.000664  -0.000047
     3  C   -0.032207  -0.010838  -0.002024   0.003313
     4  C   -0.013305  -0.000013   0.000041  -0.000081
     5  O    0.001221   0.000007   0.000870   0.000001
     6  C   -0.000132  -0.000001  -0.000012   0.000000
     7  C    0.007017   0.001134  -0.000457  -0.000066
     8  C   -0.035703  -0.007875   0.005192  -0.003266
     9  C    0.353273  -0.019187  -0.021022  -0.019618
    10  C   -0.050612   0.373010   0.366750   0.365717
    11  H    0.000007   0.000110   0.000054  -0.000004
    12  H    0.000008   0.000031   0.000071  -0.000004
    13  H   -0.000153  -0.000179   0.004652  -0.000034
    14  H   -0.000134  -0.000133  -0.000012   0.000002
    15  H   -0.000039   0.003887   0.000209  -0.000133
    16  H    0.000104   0.000002   0.000002   0.000003
    17  H    0.004795   0.000006   0.000011  -0.000005
    18  H    0.000003   0.000000  -0.000005   0.000000
    19  H    0.000002  -0.000000   0.000002   0.000000
    20  H    0.000005   0.000000   0.000000   0.000000
    21  H    0.001043  -0.000005   0.000016   0.000011
    22  H   -0.000631  -0.000102   0.000015   0.000022
    23  H   -0.009362  -0.000128  -0.000189   0.000738
    24  H    0.005342   0.004891   0.000068   0.000792
    25  H    0.693441   0.006138  -0.002865  -0.003437
    26  H    0.006138   0.603990  -0.034524  -0.034725
    27  H   -0.002865  -0.034524   0.592830  -0.030017
    28  H   -0.003437  -0.034725  -0.030017   0.614691
 Mulliken charges:
               1
     1  C   -0.365652
     2  C   -0.252477
     3  C    0.323277
     4  C   -0.134381
     5  O   -0.246857
     6  C   -0.226166
     7  C   -0.274213
     8  C   -0.219551
     9  C    0.010582
    10  C   -0.408302
    11  H    0.090757
    12  H    0.113243
    13  H    0.127727
    14  H    0.090152
    15  H    0.093645
    16  H    0.085364
    17  H    0.083788
    18  H    0.124717
    19  H    0.105511
    20  H    0.106457
    21  H    0.091348
    22  H    0.088388
    23  H    0.087967
    24  H    0.094454
    25  H    0.070459
    26  H    0.111904
    27  H    0.121873
    28  H    0.105984
 Sum of Mulliken charges =  -0.00000
 Mulliken charges with hydrogens summed into heavy atoms:
               1
     1  C   -0.033925
     2  C   -0.068680
     3  C    0.323277
     4  C    0.034772
     5  O   -0.246857
     6  C    0.110519
     7  C   -0.094477
     8  C   -0.037130
     9  C    0.081041
    10  C   -0.068541
 Electronic spatial extent (au):  <R**2>=           1672.3122
 Charge=             -0.0000 electrons
 Dipole moment (field-independent basis, Debye):
    X=              0.4835    Y=             -0.6958    Z=             -0.5654  Tot=              1.0186
 Quadrupole moment (field-independent basis, Debye-Ang):
   XX=            -61.2979   YY=            -64.4144   ZZ=            -64.9550
   XY=             -1.5057   XZ=             -0.7250   YZ=             -0.4962
 Traceless Quadrupole moment (field-independent basis, Debye-Ang):
   XX=              2.2579   YY=             -0.8586   ZZ=             -1.3992
   XY=             -1.5057   XZ=             -0.7250   YZ=             -0.4962
 Octapole moment (field-independent basis, Debye-Ang**2):
  XXX=             27.2635  YYY=             -5.1103  ZZZ=              2.9762  XYY=              3.5029
  XXY=             -0.9875  XXZ=              2.0408  XZZ=              2.9059  YZZ=             -0.6761
  YYZ=              2.8320  XYZ=              2.0025
 Hexadecapole moment (field-independent basis, Debye-Ang**3):
 XXXX=          -1224.9524 YYYY=           -579.6240 ZZZZ=           -416.8203 XXXY=            -11.2739
 XXXZ=             15.1733 YYYX=             -4.0989 YYYZ=             -6.6621 ZZZX=              2.7761
 ZZZY=             -1.1637 XXYY=           -309.3004 XXZZ=           -278.6306 YYZZ=           -166.9483
 XXYZ=             -3.0325 YYXZ=              5.5191 ZZXY=             -0.8773
 N-N= 5.964236304857D+02 E-N=-2.188548114062D+03  KE= 4.254783845815D+02
 PrsmSu:  requested number of processors reduced to:  13 ShMem   1 Linda.
 Calling FoFJK, ICntrl=      2127 FMM=F ISym2X=0 I1Cent= 0 IOpClX= 0 NMat=1 NMatS=1 NMatT=0.
 ***** Axes restored to original set *****
 -------------------------------------------------------------------
 Center     Atomic                   Forces (Hartrees/Bohr)
 Number     Number              X              Y              Z
 -------------------------------------------------------------------
      1        6          -0.008630177    0.007075803   -0.002395726
      2        6          -0.003088019   -0.010180778    0.002578866
      3        6           0.009514043    0.006688536    0.019114333
      4        6          -0.010214061   -0.012320838   -0.012340916
      5        8          -0.000452198    0.012228008    0.003575281
      6        6           0.000196325   -0.011214908   -0.007455445
      7        6           0.009238968    0.008611786   -0.006701891
      8        6           0.008818688   -0.010361362    0.010880142
      9        6          -0.000980187   -0.002034531   -0.016567373
     10        6          -0.008648176   -0.000658295    0.002338021
     11        1           0.000898159    0.000932306   -0.003030712
     12        1          -0.000384212   -0.002795445   -0.002098431
     13        1           0.000829270    0.001916703    0.000089500
     14        1           0.003553732    0.000302279    0.002276981
     15        1           0.002298083   -0.000423849    0.002990836
     16        1          -0.000708450    0.004153215    0.001058391
     17        1           0.005919031   -0.000205356   -0.000090490
     18        1           0.000435533   -0.001919733    0.000393952
     19        1           0.001952974    0.002405972    0.001395003
     20        1          -0.000560310    0.003003093    0.006857218
     21        1          -0.004719231    0.001148972   -0.000921679
     22        1          -0.001726920    0.002942734    0.002040329
     23        1           0.001112227   -0.000572909   -0.003364996
     24        1          -0.004153560   -0.000430688    0.000915411
     25        1          -0.000141277    0.005821739   -0.001404449
     26        1          -0.000128726   -0.000391344    0.001262361
     27        1          -0.001644885   -0.001866625   -0.002206272
     28        1           0.001413357   -0.001854482    0.000811753
 -------------------------------------------------------------------
 Cartesian Forces:  Max     0.019114333 RMS     0.005651892

 GradGradGradGradGradGradGradGradGradGradGradGradGradGradGradGradGradGrad
 Berny optimization.
 FormGI is forming the generalized inverse of G from B-inverse, IUseBI=4.
 Internal  Forces:  Max     0.023255880 RMS     0.003607030
 Search for a local minimum.
 Step number   1 out of a maximum of  168
 All quantities printed in internal units (Hartrees-Bohrs-Radians)
 Mixed Optimization -- RFO/linear search
 Second derivative matrix not updated -- first step.
 ITU=  0
     Eigenvalues ---    0.00230   0.00230   0.00316   0.00422   0.00492
     Eigenvalues ---    0.01333   0.01420   0.02436   0.02542   0.02805
     Eigenvalues ---    0.03101   0.03400   0.04076   0.04735   0.04763
     Eigenvalues ---    0.04858   0.05007   0.05106   0.05323   0.05495
     Eigenvalues ---    0.05613   0.05636   0.05693   0.05913   0.06249
     Eigenvalues ---    0.06528   0.06915   0.08020   0.08292   0.08488
     Eigenvalues ---    0.09395   0.10066   0.10535   0.11006   0.11291
     Eigenvalues ---    0.12314   0.13699   0.16000   0.16000   0.16000
     Eigenvalues ---    0.16000   0.16000   0.16000   0.16000   0.16000
     Eigenvalues ---    0.16000   0.17746   0.21904   0.21983   0.23337
     Eigenvalues ---    0.24541   0.25000   0.27136   0.27705   0.27795
     Eigenvalues ---    0.28249   0.29794   0.30301   0.33642   0.33862
     Eigenvalues ---    0.33927   0.33953   0.34114   0.34166   0.34186
     Eigenvalues ---    0.34192   0.34220   0.34247   0.34255   0.34297
     Eigenvalues ---    0.34319   0.34445   0.34459   0.34517   0.34598
     Eigenvalues ---    0.34603   0.41402   0.42375
 RFO step:  Lambda=-1.40968909D-02 EMin= 2.30000000D-03
 Linear search not attempted -- first point.
 Iteration  1 RMS(Cart)=  0.14446718 RMS(Int)=  0.00486692
 Iteration  2 RMS(Cart)=  0.00855561 RMS(Int)=  0.00052325
 Iteration  3 RMS(Cart)=  0.00004823 RMS(Int)=  0.00052294
 Iteration  4 RMS(Cart)=  0.00000003 RMS(Int)=  0.00052294
 Variable       Old X    -DE/DX   Delta X   Delta X   Delta X     New X
                                 (Linear)    (Quad)   (Total)
    R1        2.88376   0.00861   0.00000   0.02760   0.02760   2.91136
    R2        2.06467   0.00286   0.00000   0.00797   0.00797   2.07264
    R3        2.07052  -0.00292   0.00000  -0.00820  -0.00820   2.06232
    R4        2.06333  -0.00208   0.00000  -0.00578  -0.00578   2.05755
    R5        2.92588  -0.00101   0.00000  -0.00345  -0.00345   2.92243
    R6        2.06795   0.00189   0.00000   0.00528   0.00528   2.07323
    R7        2.07564  -0.00144   0.00000  -0.00408  -0.00408   2.07156
    R8        2.91598  -0.00523   0.00000  -0.01765  -0.01765   2.89833
    R9        2.95839   0.00023   0.00000   0.00348   0.00292   2.96131
   R10        2.98073   0.00379   0.00000   0.01049   0.01085   2.99158
   R11        2.69692  -0.00273   0.00000  -0.00639  -0.00639   2.69053
   R12        2.06961   0.00412   0.00000   0.01157   0.01157   2.08119
   R13        2.07454   0.00234   0.00000   0.00663   0.00663   2.08117
   R14        2.68448  -0.00477   0.00000  -0.01089  -0.01089   2.67359
   R15        2.06916  -0.00042   0.00000  -0.00117  -0.00117   2.06799
   R16        2.06832   0.00280   0.00000   0.00785   0.00785   2.07617
   R17        2.06324   0.00533   0.00000   0.01480   0.01480   2.07803
   R18        2.89649   0.00821   0.00000   0.03184   0.03152   2.92801
   R19        2.07410  -0.00247   0.00000  -0.00699  -0.00699   2.06711
   R20        2.06902   0.00021   0.00000   0.00060   0.00060   2.06962
   R21        2.91780   0.00669   0.00000   0.01833   0.01885   2.93664
   R22        2.07007  -0.00052   0.00000  -0.00146  -0.00146   2.06861
   R23        2.07138  -0.00208   0.00000  -0.00585  -0.00585   2.06553
   R24        2.87368   0.00454   0.00000   0.01433   0.01433   2.88801
   R25        2.07939  -0.00432   0.00000  -0.01232  -0.01232   2.06707
   R26        2.07017  -0.00128   0.00000  -0.00360  -0.00360   2.06657
   R27        2.06585   0.00119   0.00000   0.00331   0.00331   2.06916
   R28        2.06562   0.00197   0.00000   0.00550   0.00550   2.07111
    A1        1.93682  -0.00256   0.00000  -0.01545  -0.01546   1.92136
    A2        1.93132   0.00284   0.00000   0.01887   0.01890   1.95022
    A3        1.96952  -0.00010   0.00000  -0.00243  -0.00248   1.96704
    A4        1.86139   0.00039   0.00000   0.00587   0.00595   1.86734
    A5        1.88325   0.00081   0.00000   0.00003  -0.00006   1.88319
    A6        1.87707  -0.00136   0.00000  -0.00657  -0.00658   1.87049
    A7        1.98134   0.02326   0.00000   0.10874   0.10862   2.08995
    A8        1.89134  -0.00461   0.00000  -0.00110  -0.00002   1.89132
    A9        1.89842  -0.00530   0.00000  -0.00461  -0.00385   1.89457
   A10        1.91660  -0.00931   0.00000  -0.05098  -0.05279   1.86381
   A11        1.92136  -0.00869   0.00000  -0.04473  -0.04659   1.87477
   A12        1.84991   0.00344   0.00000  -0.01463  -0.01667   1.83324
   A13        1.96035   0.00590   0.00000   0.03620   0.03626   1.99661
   A14        1.95243  -0.00522   0.00000  -0.04773  -0.04789   1.90454
   A15        2.03730  -0.00183   0.00000  -0.00046  -0.00045   2.03685
   A16        1.92678  -0.00071   0.00000   0.00647   0.00702   1.93380
   A17        2.02051  -0.00343   0.00000  -0.02098  -0.02113   1.99937
   A18        1.51970   0.00403   0.00000   0.01570   0.01571   1.53542
   A19        1.90193   0.01099   0.00000   0.05239   0.05214   1.95407
   A20        1.90552   0.00057   0.00000   0.01313   0.01223   1.91775
   A21        1.94986  -0.00856   0.00000  -0.05855  -0.05843   1.89143
   A22        1.94283  -0.00392   0.00000  -0.00183  -0.00291   1.93992
   A23        1.87855  -0.00056   0.00000   0.00436   0.00533   1.88387
   A24        1.88553   0.00116   0.00000  -0.01114  -0.01145   1.87408
   A25        1.97593   0.00593   0.00000   0.02245   0.02245   1.99839
   A26        1.88312  -0.00176   0.00000  -0.00859  -0.00862   1.87450
   A27        1.95451  -0.00136   0.00000  -0.00914  -0.00911   1.94540
   A28        1.91664   0.00670   0.00000   0.03821   0.03823   1.95487
   A29        1.88107   0.00165   0.00000   0.00984   0.00982   1.89089
   A30        1.89960  -0.00107   0.00000  -0.00347  -0.00351   1.89609
   A31        1.92730  -0.00423   0.00000  -0.02701  -0.02694   1.90035
   A32        1.56965  -0.00102   0.00000   0.00227   0.00148   1.57113
   A33        2.01232  -0.00233   0.00000  -0.04087  -0.04075   1.97156
   A34        2.03451  -0.00020   0.00000  -0.00650  -0.00695   2.02757
   A35        1.96155  -0.00095   0.00000   0.00042   0.00026   1.96181
   A36        1.99648   0.00442   0.00000   0.04496   0.04514   2.04162
   A37        1.87854   0.00012   0.00000   0.00214   0.00105   1.87959
   A38        1.56091   0.00047   0.00000   0.00395   0.00378   1.56469
   A39        2.00466   0.00116   0.00000   0.02399   0.02347   2.02814
   A40        1.98058   0.00006   0.00000  -0.00175  -0.00191   1.97867
   A41        2.00701   0.00200   0.00000   0.02378   0.02328   2.03029
   A42        2.01011  -0.00337   0.00000  -0.04308  -0.04298   1.96713
   A43        1.88824  -0.00022   0.00000  -0.00505  -0.00491   1.88333
   A44        1.55491  -0.00168   0.00000   0.00442   0.00307   1.55798
   A45        2.08730   0.00412   0.00000   0.03764   0.03611   2.12341
   A46        1.95905  -0.00312   0.00000  -0.05126  -0.05101   1.90804
   A47        1.99104   0.00331   0.00000   0.04856   0.04748   2.03852
   A48        1.93634  -0.00051   0.00000  -0.01495  -0.01511   1.92123
   A49        1.91069  -0.00197   0.00000  -0.02011  -0.01933   1.89136
   A50        1.95582  -0.00079   0.00000  -0.00447  -0.00462   1.95120
   A51        1.92853   0.00493   0.00000   0.03156   0.03158   1.96012
   A52        1.93961  -0.00299   0.00000  -0.02048  -0.02047   1.91914
   A53        1.88774  -0.00137   0.00000  -0.00176  -0.00188   1.88586
   A54        1.86988   0.00115   0.00000   0.00062   0.00045   1.87033
   A55        1.87926  -0.00105   0.00000  -0.00614  -0.00596   1.87331
    D1       -2.90733   0.00023   0.00000   0.00001   0.00002  -2.90730
    D2        1.24172  -0.00006   0.00000  -0.00660  -0.00734   1.23437
    D3       -0.76190   0.00109   0.00000   0.01363   0.01423  -0.74766
    D4        1.31301  -0.00044   0.00000  -0.00953  -0.00946   1.30355
    D5       -0.82113  -0.00073   0.00000  -0.01614  -0.01682  -0.83795
    D6       -2.82474   0.00042   0.00000   0.00409   0.00476  -2.81999
    D7       -0.79120  -0.00065   0.00000  -0.01287  -0.01279  -0.80399
    D8       -2.92535  -0.00094   0.00000  -0.01948  -0.02016  -2.94550
    D9        1.35423   0.00021   0.00000   0.00076   0.00142   1.35565
   D10       -0.97358  -0.00022   0.00000  -0.01563  -0.01575  -0.98933
   D11        3.13146   0.00023   0.00000  -0.01507  -0.01482   3.11664
   D12        1.41973  -0.00085   0.00000  -0.00696  -0.00676   1.41297
   D13        1.14650   0.00305   0.00000   0.02060   0.01905   1.16555
   D14       -1.03164   0.00350   0.00000   0.02115   0.01998  -1.01166
   D15       -2.74338   0.00243   0.00000   0.02927   0.02804  -2.71533
   D16       -3.10634  -0.00329   0.00000  -0.05312  -0.05215   3.12469
   D17        0.99871  -0.00284   0.00000  -0.05257  -0.05123   0.94748
   D18       -0.71303  -0.00392   0.00000  -0.04446  -0.04317  -0.75620
   D19        1.24269   0.00265   0.00000   0.10227   0.10277   1.34546
   D20       -0.88264   0.00027   0.00000   0.06379   0.06357  -0.81907
   D21       -2.96707   0.00380   0.00000   0.10560   0.10515  -2.86192
   D22       -2.84830  -0.00035   0.00000   0.07163   0.07221  -2.77609
   D23        1.30955  -0.00273   0.00000   0.03314   0.03301   1.34256
   D24       -0.77488   0.00080   0.00000   0.07495   0.07459  -0.70029
   D25       -1.15825   0.00259   0.00000   0.08470   0.08528  -1.07297
   D26        2.99960   0.00022   0.00000   0.04621   0.04608   3.04568
   D27        0.91518   0.00374   0.00000   0.08802   0.08766   1.00284
   D28       -1.77844  -0.00192   0.00000  -0.04468  -0.04452  -1.82296
   D29        2.49968   0.00019   0.00000  -0.03742  -0.03717   2.46251
   D30        0.27162   0.00252   0.00000   0.00650   0.00630   0.27791
   D31        2.30808  -0.00521   0.00000  -0.06139  -0.06134   2.24674
   D32        0.30302  -0.00309   0.00000  -0.05413  -0.05400   0.24903
   D33       -1.92504  -0.00076   0.00000  -0.01020  -0.01053  -1.93557
   D34        0.27570  -0.00300   0.00000  -0.04579  -0.04577   0.22992
   D35       -1.72936  -0.00089   0.00000  -0.03853  -0.03843  -1.76779
   D36        2.32575   0.00145   0.00000   0.00539   0.00504   2.33079
   D37        1.69970  -0.00126   0.00000  -0.00166  -0.00153   1.69817
   D38       -0.34935  -0.00526   0.00000  -0.07229  -0.07229  -0.42164
   D39       -2.62316  -0.00302   0.00000  -0.02377  -0.02350  -2.64666
   D40       -2.21574   0.00206   0.00000   0.03187   0.03188  -2.18387
   D41        2.01839  -0.00193   0.00000  -0.03875  -0.03888   1.97951
   D42       -0.25542   0.00030   0.00000   0.00977   0.00991  -0.24551
   D43       -0.27367   0.00282   0.00000   0.04414   0.04441  -0.22925
   D44       -2.32272  -0.00118   0.00000  -0.02649  -0.02635  -2.34906
   D45        1.68666   0.00106   0.00000   0.02203   0.02244   1.70910
   D46       -2.69748  -0.00529   0.00000  -0.10393  -0.10382  -2.80130
   D47       -0.59494   0.00015   0.00000  -0.05443  -0.05428  -0.64922
   D48        1.46821  -0.00102   0.00000  -0.06633  -0.06659   1.40162
   D49        2.81853   0.00108   0.00000   0.05010   0.05008   2.86862
   D50        0.75123   0.00096   0.00000   0.04882   0.04875   0.79997
   D51       -1.39659   0.00253   0.00000   0.06240   0.06249  -1.33410
   D52       -0.28144   0.00330   0.00000   0.04738   0.04728  -0.23416
   D53       -2.33147   0.00054   0.00000   0.01305   0.01293  -2.31853
   D54        1.76671  -0.00020   0.00000   0.00105   0.00106   1.76777
   D55        1.76924   0.00006   0.00000   0.00346   0.00317   1.77241
   D56       -0.28079  -0.00270   0.00000  -0.03086  -0.03118  -0.31196
   D57       -2.46579  -0.00344   0.00000  -0.04287  -0.04305  -2.50884
   D58       -2.36500   0.00293   0.00000   0.04210   0.04213  -2.32287
   D59        1.86816   0.00017   0.00000   0.00778   0.00778   1.87595
   D60       -0.31684  -0.00057   0.00000  -0.00422  -0.00409  -0.32093
   D61        0.27931  -0.00361   0.00000  -0.04769  -0.04754   0.23177
   D62        2.41329   0.00103   0.00000   0.00978   0.01004   2.42332
   D63       -1.70227   0.00052   0.00000   0.00815   0.00818  -1.69409
   D64        2.32723  -0.00160   0.00000  -0.01313  -0.01298   2.31425
   D65       -1.82198   0.00304   0.00000   0.04434   0.04460  -1.77737
   D66        0.34565   0.00254   0.00000   0.04270   0.04275   0.38840
   D67       -1.74217  -0.00319   0.00000  -0.03844  -0.03852  -1.78069
   D68        0.39180   0.00144   0.00000   0.01904   0.01906   0.41087
   D69        2.55943   0.00094   0.00000   0.01740   0.01721   2.57664
   D70        0.85705   0.00237   0.00000   0.04274   0.04338   0.90043
   D71       -1.24952   0.00122   0.00000   0.02613   0.02670  -1.22282
   D72        2.94853   0.00124   0.00000   0.02640   0.02714   2.97567
   D73       -0.94971  -0.00020   0.00000  -0.01899  -0.01973  -0.96945
   D74       -3.05628  -0.00135   0.00000  -0.03561  -0.03642  -3.09270
   D75        1.14176  -0.00133   0.00000  -0.03534  -0.03597   1.10579
   D76       -3.13104  -0.00043   0.00000  -0.01939  -0.01933   3.13282
   D77        1.04558  -0.00158   0.00000  -0.03601  -0.03601   1.00957
   D78       -1.03956  -0.00156   0.00000  -0.03573  -0.03557  -1.07513
         Item               Value     Threshold  Converged?
 Maximum Force            0.023256     0.000450     NO 
 RMS     Force            0.003607     0.000300     NO 
 Maximum Displacement     0.574922     0.001800     NO 
 RMS     Displacement     0.147143     0.001200     NO 
 Predicted change in Energy=-8.403046D-03
 GradGradGradGradGradGradGradGradGradGradGradGradGradGradGradGradGradGrad

                          Input orientation:                          
 ---------------------------------------------------------------------
 Center     Atomic      Atomic             Coordinates (Angstroms)
 Number     Number       Type             X           Y           Z
 ---------------------------------------------------------------------
      1          6           0        1.078965    0.322883   -0.590255
      2          6           0        2.554780    0.121663   -0.196548
      3          6           0        2.912404   -0.793630    0.997584
      4          6           0        2.246102   -0.397695    2.321066
      5          8           0        0.878235   -0.790074    2.366808
      6          6           0        0.102208   -0.101468    3.328718
      7          6           0        4.470702   -0.848465    1.153678
      8          6           0        4.483261   -2.268757    0.534516
      9          6           0        2.942104   -2.351196    0.716101
     10          6           0        2.145691   -2.974686   -0.429582
     11          1           0        1.013633    0.792849   -1.579106
     12          1           0        0.559767    0.979587    0.109874
     13          1           0        0.522525   -0.612285   -0.626789
     14          1           0        2.993137    1.104811    0.015354
     15          1           0        3.101260   -0.250944   -1.070749
     16          1           0        2.354351    0.685902    2.485370
     17          1           0        2.773288   -0.909083    3.141698
     18          1           0       -0.950442   -0.273137    3.083725
     19          1           0        0.292138    0.980240    3.298860
     20          1           0        0.289964   -0.467738    4.348433
     21          1           0        4.795291   -0.846167    2.198277
     22          1           0        5.036465   -0.072166    0.627632
     23          1           0        5.075471   -3.021750    1.064209
     24          1           0        4.785645   -2.281198   -0.515782
     25          1           0        2.700764   -2.890072    1.636898
     26          1           0        2.339138   -2.470071   -1.380298
     27          1           0        1.066413   -2.951253   -0.246465
     28          1           0        2.432600   -4.024801   -0.556577
 ---------------------------------------------------------------------
                    Distance matrix (angstroms):
                    1          2          3          4          5
     1  C    0.000000
     2  C    1.540625   0.000000
     3  C    2.670081   1.546483   0.000000
     4  C    3.218265   2.589092   1.533729   0.000000
     5  O    3.165942   3.195757   2.452067   1.423768   0.000000
     6  C    4.061092   4.300279   3.716244   2.387341   1.414802
     7  C    3.989642   2.536734   1.567057   2.552417   3.792218
     8  C    4.423905   3.157151   2.204092   3.420162   4.305811
     9  C    3.511204   2.664204   1.583075   2.622307   3.069445
    10  C    3.469536   3.131938   2.716920   3.770547   3.768126
    11  H    1.096796   2.176485   3.572335   4.260013   4.253729
    12  H    1.091333   2.193172   3.076886   3.103224   2.885632
    13  H    1.088806   2.203145   2.895340   3.421493   3.019894
    14  H    2.154584   1.097105   2.139013   2.851648   3.686834
    15  H    2.156347   1.096222   2.146666   3.501034   4.129080
    16  H    3.349308   2.747949   2.171162   1.101316   2.090809
    17  H    4.279713   3.500582   2.151722   1.101309   2.050816
    18  H    4.239323   4.816912   4.420913   3.288626   2.031072
    19  H    4.021993   4.251421   3.912579   2.583169   2.084764
    20  H    5.063422   5.112108   4.267503   2.818085   2.092081
    21  H    4.790999   3.419324   2.233761   2.591248   3.921081
    22  H    4.159462   2.622137   2.273547   3.280215   4.564100
    23  H    5.467713   4.221900   3.106093   4.058408   4.928888
    24  H    4.530591   3.294299   2.830577   4.247889   5.079432
    25  H    4.232436   3.528935   2.201949   2.624260   2.874782
    26  H    3.164300   2.857421   2.965369   4.243052   4.358605
    27  H    3.292159   3.414753   3.100109   3.808483   3.396366
    28  H    4.553660   4.163858   3.617470   4.633735   4.628789
                    6          7          8          9         10
     6  C    0.000000
     7  C    4.936856   0.000000
     8  C    5.630127   1.549435   0.000000
     9  C    4.466772   2.187758   1.554005   0.000000
    10  C    5.153253   3.526075   2.625272   1.528269   0.000000
    11  H    5.071216   4.702483   5.087155   4.344191   4.098448
    12  H    3.426221   4.441477   5.111346   4.139705   4.294466
    13  H    4.010440   4.337505   4.447467   3.268261   2.873064
    14  H    4.559711   2.700790   3.724374   3.526704   4.190278
    15  H    5.326534   2.679641   2.925469   2.762105   2.956852
    16  H    2.530482   2.933705   4.131355   3.563668   4.684057
    17  H    2.796764   2.614787   3.401487   2.826961   4.173085
    18  H    1.094333   5.783156   6.325037   5.007584   5.406268
    19  H    1.098662   5.040472   5.980224   4.979099   5.742680
    20  H    1.099648   5.275413   5.947551   4.875972   5.705957
    21  H    4.884414   1.093870   2.211159   2.810028   4.296117
    22  H    5.625266   1.095196   2.267095   3.096475   4.230709
    23  H    6.195917   2.257635   1.094663   2.263200   3.288958
    24  H    6.439408   2.222388   1.093032   2.218350   2.730881
    25  H    4.170258   2.744875   2.185995   1.093846   2.141403
    26  H    5.726165   3.687032   2.881719   2.184626   1.093581
    27  H    4.672569   4.239257   3.570795   2.191990   1.094952
    28  H    5.993228   4.143421   2.911938   2.163390   1.095987
                   11         12         13         14         15
    11  H    0.000000
    12  H    1.758840   0.000000
    13  H    1.767059   1.754456   0.000000
    14  H    2.560871   2.438423   3.076474   0.000000
    15  H    2.388748   3.060599   2.641504   1.740512   0.000000
    16  H    4.281230   2.991616   3.837501   2.585443   3.752537
    17  H    5.317796   4.202227   4.399491   3.725337   4.276146
    18  H    5.170677   3.562841   4.006565   5.183190   5.803140
    19  H    4.934594   3.200196   4.242632   4.253507   5.338582
    20  H    6.103155   4.486973   4.982752   5.343747   6.108840
    21  H    5.590700   5.063049   5.127595   3.437911   3.729687
    22  H    4.669167   4.627644   4.716032   2.436257   2.580984
    23  H    6.167399   6.108440   5.421653   4.739696   4.016580
    24  H    4.980812   5.374217   4.579496   3.867848   2.695750
    25  H    5.172330   4.678667   3.880376   4.321340   3.802202
    26  H    3.527483   4.157754   2.705408   3.892987   2.366680
    27  H    3.974546   3.979343   2.431303   4.498052   3.480188
    28  H    5.125308   5.384753   3.911340   5.191746   3.866972
                   16         17         18         19         20
    16  H    0.000000
    17  H    1.774895   0.000000
    18  H    3.492771   3.778089   0.000000
    19  H    2.236319   3.122555   1.777988   0.000000
    20  H    3.010579   2.796050   1.782124   1.788365   0.000000
    21  H    2.896177   2.232151   5.841732   4.982512   5.006431
    22  H    3.349566   3.484671   6.474245   5.545417   6.044015
    23  H    4.813613   3.752248   6.924229   6.624942   6.341150
    24  H    4.870501   4.394251   7.063388   6.736473   6.867341
    25  H    3.691544   2.488775   4.719424   4.852103   4.362577
    26  H    4.990370   4.803501   5.964509   6.163552   6.405218
    27  H    4.727643   4.308542   4.725482   5.350277   5.280513
    28  H    5.608056   4.847783   6.226697   6.670562   6.426719
                   21         22         23         24         25
    21  H    0.000000
    22  H    1.767532   0.000000
    23  H    2.469367   2.981974   0.000000
    24  H    3.070102   2.500026   1.768839   0.000000
    25  H    2.979889   3.796672   2.446334   3.058021   0.000000
    26  H    4.634216   4.130049   3.710457   2.601626   3.067678
    27  H    4.930789   4.981416   4.218457   3.788692   2.494374
    28  H    4.824442   4.879118   3.258501   2.928931   2.484120
                   26         27         28
    26  H    0.000000
    27  H    1.771141   0.000000
    28  H    1.761942   1.764976   0.000000
 Stoichiometry    C9H18O
 Framework group  C1[X(C9H18O)]
 Deg. of freedom    78
 Full point group                 C1      NOp   1
 Largest Abelian subgroup         C1      NOp   1
 Largest concise Abelian subgroup C1      NOp   1
                         Standard orientation:                         
 ---------------------------------------------------------------------
 Center     Atomic      Atomic             Coordinates (Angstroms)
 Number     Number       Type             X           Y           Z
 ---------------------------------------------------------------------
      1          6           0        0.576925    2.292645   -0.519849
      2          6           0       -0.350673    1.203742   -1.092017
      3          6           0       -0.353757   -0.209357   -0.463725
[...]
 .00001791,0.00031033,-0.00019121,-0.00009978,0.00013276,0.00013402,-0.
 00013326,0.00107515,-0.00000449,0.00000200,0.00000336,-0.00000177,-0.0
 0000140,-0.00000200,-0.00001699,-0.00001886,0.00002484,0.06951086,-0.0
 1217376,0.31446988,0.00021714,0.00030399,0.00000891,0.00201965,-0.0018
 2906,0.00220712,-0.01154658,-0.01749997,0.01432811,-0.00132457,-0.0020
 5198,-0.00243995,-0.00133837,0.00066916,0.00128157,-0.00015681,-0.0001
 0136,-0.00037502,-0.12832319,-0.09766518,0.06938585,0.00115625,0.00202
 270,-0.00474310,-0.00321421,-0.00091377,-0.00225648,0.00042031,-0.0011
 4658,0.00062879,-0.00000204,0.00001681,-0.00002380,0.00013968,-0.00009
 867,0.00003277,0.00027119,0.00000543,0.00011194,-0.00003198,0.00134334
 ,-0.00018880,0.00004940,-0.00008287,-0.00063375,-0.00009421,0.00038066
 ,0.00028541,-0.00015203,-0.00002484,0.00004303,-0.00010934,0.00001885,
 0.00011915,-0.00003719,0.00007100,0.00008161,0.00001236,-0.00000300,0.
 00006536,0.00530798,0.00608032,-0.00410225,0.13614350,0.00004764,0.000
 18822,-0.00031798,0.00041729,0.00114825,0.00044128,0.00260283,0.003368
 48,-0.00585112,0.00069447,0.00006379,0.00031397,0.00059256,-0.00010728
 ,-0.00030602,0.00012696,-0.00001838,0.00001822,-0.09831445,-0.17202087
 ,0.08601136,-0.01285599,-0.01301609,0.01488342,-0.00158053,-0.00293852
 ,-0.00284159,-0.00099803,0.00045018,0.00095964,-0.00009464,0.00002737,
 -0.00001216,0.00006095,0.00001566,0.00002159,0.00008562,-0.00005667,0.
 00006427,-0.00014817,0.00027912,-0.00036350,-0.00020203,-0.00022409,-0
 .00026622,0.00000593,0.00003016,0.00001305,0.00011684,0.00000966,0.000
 01995,0.00003277,-0.00000592,-0.00003539,0.00000055,0.00000511,-0.0000
 0460,-0.00000839,0.00000037,-0.00001138,-0.00058136,-0.00021826,0.0002
 5481,0.11054181,0.18300675,0.00005368,-0.00016244,-0.00002633,-0.00134
 557,0.00020536,0.00053872,-0.00343916,-0.00230164,-0.00037462,0.000081
 35,0.00037333,-0.00071792,0.00060554,-0.00024815,0.00008991,-0.0000827
 2,0.00008585,0.00018609,0.07019838,0.08601143,-0.10580866,-0.00830057,
 -0.00965310,0.00674996,-0.00121789,-0.00210437,-0.00095568,-0.00078451
 ,-0.00027674,0.00030484,0.00003122,0.00000928,0.00002146,0.00003061,0.
 00002880,-0.00002831,-0.00001324,0.00002903,-0.00001601,0.00015045,-0.
 00018407,0.00030013,-0.00006732,-0.00032300,0.00005455,0.00013396,-0.0
 0019501,0.00006599,0.00009364,-0.00009208,0.00056715,0.00003258,-0.000
 00668,-0.00002173,0.00001226,-0.00003212,-0.00001582,-0.00002181,-0.00
 001034,-0.00001189,0.01766432,0.02150887,-0.01377519,-0.07349002,-0.09
 214446,0.11166929,0.00004150,-0.00006170,0.00000500,0.00017252,-0.0000
 7215,0.00057325,-0.00410102,0.00112891,0.00192332,0.00024465,0.0014363
 1,-0.00044779,0.00000068,-0.00003583,0.00006265,0.00011068,-0.00001583
 ,-0.00020210,0.00180615,-0.00382332,0.00548506,-0.12326756,0.09959071,
 -0.06404294,-0.00935012,0.02041210,-0.01446041,-0.00172783,0.00146193,
 0.00128906,-0.00000784,0.00002943,-0.00002287,0.00002980,-0.00000635,0
 .00001773,0.00004259,-0.00002230,0.00003688,0.00014032,0.00016231,-0.0
 0012533,0.00002415,-0.00006824,-0.00019188,-0.00022642,0.00018980,0.00
 048781,0.00003866,-0.00004635,0.00009811,-0.00003090,-0.00001332,0.000
 00766,-0.00000447,0.00000857,0.00003190,0.00000680,-0.00000057,0.00004
 741,0.00075148,0.00096109,0.00043921,-0.00009825,-0.00114364,-0.000342
 19,0.12919122,0.00000468,0.00003608,0.00016700,0.00012455,0.00027746,-
 0.00023998,0.00150271,-0.00247151,-0.00243050,0.00041392,0.00002549,0.
 00115422,0.00056667,-0.00009000,-0.00055877,0.00000209,0.00010247,0.00
 024473,0.01191108,-0.01340817,0.01394350,0.09910902,-0.18524162,0.0847
 7864,-0.00205996,0.00331318,-0.00530524,-0.00051621,0.00031849,0.00018
 295,0.00006399,-0.00001691,0.00005982,-0.00001067,0.00001489,-0.000014
 15,0.00007467,0.00000767,0.00003225,0.00002954,0.00016121,-0.00012558,
 -0.00006063,-0.00002355,0.00002731,-0.00009978,-0.00002285,-0.00001555
 ,0.00000637,0.00008471,-0.00009280,0.00006099,-0.00000470,-0.00005339,
 -0.00000157,-0.00002220,-0.00002211,-0.00000811,0.00000196,-0.00005143
 ,-0.00056530,0.00244557,0.00024728,0.00091413,-0.00238718,-0.00103360,
 -0.11275102,0.19673391,-0.00000545,0.00006440,0.00028931,0.00049292,-0
 .00021770,-0.00049109,0.00202336,-0.00258151,-0.00083618,0.00056261,-0
 .00035649,0.00034814,0.00008104,-0.00001008,-0.00017501,0.00005648,0.0
 0000733,0.00001175,0.00805165,-0.00960945,0.00592964,-0.06453527,0.085
 68093,-0.09949055,0.00461200,-0.00454974,0.00049110,-0.00034977,0.0000
 0509,-0.00016337,0.00004112,-0.00000658,0.00001760,-0.00009689,0.00002
 736,-0.00002859,0.00002132,-0.00000703,-0.00000594,-0.00010576,0.00008
 962,0.00005309,-0.00004196,-0.00011368,0.00041780,-0.00004805,-0.00005
 319,-0.00005804,-0.00003746,0.00007409,-0.00002225,0.00001392,0.000000
 49,-0.00002056,-0.00000079,0.00000443,-0.00000188,0.00000020,0.0000008
 9,-0.00000824,-0.00027531,0.00071391,0.00139790,0.00023440,-0.00096240
 ,-0.00016264,0.06666398,-0.09097049,0.10459363,0.00002087,-0.00002583,
 -0.00015385,-0.00015696,0.00058678,0.00054338,-0.00031900,-0.00081082,
 -0.00066625,-0.00016733,0.00003239,0.00001461,0.00005454,0.00024289,0.
 00003424,0.00011113,0.00001032,-0.00007417,0.00070975,0.00015168,-0.00
 839934,-0.05837910,0.00062697,0.05477320,-0.00705551,-0.00308928,0.032
 19441,0.00325539,-0.00022915,0.00110734,-0.00001677,0.00000369,-0.0000
 0525,0.00008016,-0.00004838,0.00001327,-0.00002746,0.00000666,0.000020
 74,-0.00001166,0.00002331,-0.00021998,-0.00011135,0.00043610,-0.000385
 78,-0.00007585,0.00019851,0.00002277,-0.00003537,-0.00000206,-0.000127
 98,-0.00000531,-0.00000753,-0.00000267,-0.00002217,0.00002595,0.000030
 79,-0.00000535,-0.00000920,-0.00000369,0.00013299,-0.00195146,-0.00097
 402,0.00086882,0.00076336,0.00033629,0.00432141,0.00051576,-0.01719988
 ,0.06258521,-0.00003416,-0.00003612,0.00028101,0.00063643,-0.00030678,
 -0.00037933,-0.00079808,-0.00065423,0.00017903,0.00003349,0.00015146,-
 0.00004014,0.00030237,0.00004042,0.00000737,0.00000585,0.00003991,0.00
 004250,0.00533765,0.00053289,-0.02959403,0.00084738,-0.04673958,0.0108
 3485,-0.00177050,-0.00134647,0.00656520,0.00058960,0.00079802,0.000055
 36,0.00005722,-0.00002126,0.00001273,-0.00008627,0.00002002,-0.0000323
 8,-0.00001963,-0.00000146,-0.00001839,-0.00004540,0.00004604,0.0000060
 6,0.00036714,-0.00039912,0.00041769,-0.00011657,0.00003017,0.00005648,
 0.00005691,-0.00011678,0.00017656,0.00001653,-0.00000156,-0.00001568,-
 0.00000591,0.00000016,-0.00000367,-0.00000603,-0.00001063,-0.00001105,
 0.00150696,-0.00477545,-0.00241334,-0.00079392,0.00249303,0.00072764,-
 0.00539025,-0.00030419,0.02312788,0.00097191,0.05031154,-0.00003640,0.
 00010136,0.00033864,0.00018915,0.00021631,-0.00097249,-0.00012426,-0.0
 0007949,-0.00047427,-0.00005091,-0.00005109,-0.00000556,0.00029854,-0.
 00007428,-0.00003757,-0.00007165,0.00007093,0.00010336,0.00131803,0.00
 070181,-0.01173255,0.05433457,0.01041943,-0.29464638,0.00096591,0.0011
 5294,-0.00340035,-0.00085185,-0.00036944,0.00096453,0.00004722,-0.0000
 2336,0.00002814,-0.00013784,0.00004374,-0.00004895,0.00000174,-0.00000
 290,-0.00002791,-0.00014247,0.00008365,0.00016115,-0.00033147,0.000211
 92,0.00071506,0.00001089,-0.00007377,-0.00003268,0.00004439,-0.0000478
 7,0.00021356,0.00003060,0.00000267,-0.00001669,0.00000349,-0.00002419,
 -0.00001870,-0.00000208,-0.00000757,-0.00000687,0.00079505,-0.00234576
 ,0.00024689,-0.00032690,0.00025250,0.00140490,0.00341656,0.00035637,-0
 .01361035,-0.06073255,-0.00989312,0.31897868,0.00006251,-0.00011694,-0
 .00002305,-0.00004550,0.00150383,0.00033796,0.00064171,0.00296473,-0.0
 0525779,0.00105532,0.00003712,0.00032675,0.00013200,-0.00027513,-0.000
 17158,-0.00011845,-0.00001481,0.00028635,0.00015774,0.00097106,-0.0003
 1018,-0.00921923,-0.01231188,0.02995289,-0.05383702,-0.02200758,0.0420
 4948,0.00270090,0.00764470,-0.02021888,-0.00002706,0.00000637,-0.00001
 249,0.00000625,0.00008123,0.00000164,0.00009167,-0.00002563,0.00001072
 ,-0.00003918,0.00032363,-0.00031615,-0.00006417,-0.00009166,-0.0000316
 9,0.00001844,-0.00018900,-0.00032986,-0.00009655,-0.00008893,-0.000141
 41,0.00001243,0.00000823,-0.00002372,0.00001477,-0.00006866,-0.0000682
 9,0.00000224,0.00003373,-0.00003648,-0.00013280,-0.00058388,-0.0002951
 8,0.00004788,0.00007332,-0.00029507,0.00241363,0.00084066,-0.00011055,
 -0.00588920,-0.00184517,0.00049912,0.06261528,-0.00041703,0.00006760,0
 .00000716,-0.00238598,-0.00473622,-0.00312981,-0.00383799,-0.01772013,
 0.02763390,0.00013884,0.00036906,0.00271473,0.00013041,0.00060968,-0.0
 0036113,0.00041719,-0.00000144,-0.00027499,0.00076352,-0.00004111,-0.0
 0050708,0.00204990,0.00228850,-0.00519445,-0.02168966,-0.09022237,0.09
 517081,0.00122313,0.00567288,-0.01408395,0.00017470,0.00001215,0.00003
 190,0.00011861,-0.00007915,0.00002337,0.00021643,0.00008741,-0.0000171
 1,0.00035668,-0.00135846,0.00164776,-0.00012342,0.00030958,-0.00007560
 ,-0.00044411,0.00056722,-0.00005381,-0.00012374,0.00004602,-0.00116053
 ,-0.00001182,-0.00001102,-0.00003645,-0.00006031,0.00008342,0.00009512
 ,0.00001302,-0.00001314,-0.00002078,-0.00067820,-0.00008719,-0.0001670
 3,0.00002177,0.00003406,-0.00023555,-0.00074982,0.00081017,-0.00013159
 ,0.00143812,0.00022658,-0.00092962,0.02435184,0.10243368,-0.00001062,-
 0.00012153,-0.00000619,0.00012581,-0.00094245,0.00047244,-0.00101393,-
 0.00088635,0.00196709,0.00127697,-0.00129012,0.00031265,-0.00033557,-0
 .00092365,0.00022563,-0.00020473,0.00004602,0.00007023,-0.00007398,-0.
 00020794,-0.00051903,0.00179713,0.00201157,-0.00588804,0.04094329,0.09
 509830,-0.24668059,0.00288744,0.00945645,-0.02326483,-0.00002243,0.000
 05017,0.00002470,-0.00002942,0.00011137,0.00001114,0.00014393,-0.00001
 297,-0.00000635,0.00004697,0.00003223,0.00021671,-0.00011380,-0.000134
 42,0.00014001,0.00013563,-0.00013344,0.00021912,-0.00023365,0.00016045
 ,0.00067008,-0.00001725,0.00002023,0.00001601,0.00003225,-0.00005711,-
 0.00004215,0.00001282,0.00002810,0.00004293,0.00000966,0.00010112,0.00
 029081,0.00018035,0.00025949,0.00009413,-0.00009067,-0.00042780,0.0011
 0926,0.00115065,-0.00000089,0.00097039,-0.04365299,-0.09930381,0.27007
 843,0.00031326,0.00028936,0.00009463,0.00040573,-0.00034763,-0.0002501
 8,0.00059551,0.00016596,0.00076934,-0.00016026,-0.00003548,0.00002005,
 0.00009631,0.00018449,0.00009222,0.00000287,0.00000146,-0.00002472,0.0
 0025115,0.00013027,-0.00007240,0.00179003,0.00077245,-0.00097192,0.001
 89130,0.00887836,-0.01845723,-0.05332994,-0.01539508,0.03494319,-0.000
 02710,-0.00009047,-0.00002374,-0.00011957,-0.00019313,-0.00006441,-0.0
 0058029,0.00023835,0.00017324,-0.00018530,0.00007493,0.00010574,-0.000
 11298,-0.00035443,0.00021746,0.00006064,-0.00000532,0.00002264,0.00001
 181,0.00004159,0.00008450,0.00002605,-0.00001808,-0.00000889,0.0000001
 1,0.00002773,0.00002332,-0.00000460,-0.00000099,0.00000476,-0.00002757
 ,0.00006312,0.00010979,0.00004668,0.00001178,0.00007192,0.00001521,-0.
 00001520,0.00021762,-0.00021587,0.00000778,0.00068895,-0.00188020,-0.0
 0188441,-0.00327725,0.05435803,0.00026851,-0.00045984,-0.00002588,0.00
 004716,-0.00051140,-0.00033587,0.00054289,0.00066401,-0.00010410,0.000
 18000,0.00006822,-0.00003903,-0.00003363,-0.00007954,0.00001767,-0.000
 00380,-0.00001176,-0.00002121,0.00011317,0.00026721,-0.00014666,0.0006
 5521,0.00022552,0.00042967,0.00246353,0.00629893,-0.01424018,-0.015664
 23,-0.08795902,0.09523054,0.00000999,-0.00004088,-0.00000173,-0.000047
 25,0.00010964,0.00000334,0.00041716,-0.00055650,-0.00013589,-0.0000610
 9,0.00019668,0.00011939,-0.00037042,-0.00065851,0.00002598,0.00000243,
 -0.00005609,0.00003764,-0.00002126,0.00000827,0.00011916,-0.00000295,-
 0.00000103,0.00000332,0.00000636,-0.00000395,-0.00000721,-0.00000114,-
 0.00000007,0.00000876,0.00008019,-0.00007109,0.00004294,0.00003198,0.0
 0002137,0.00006382,-0.00000207,0.00001405,0.00000684,0.00015464,0.0000
 9840,0.00025332,-0.00200529,-0.00046092,-0.00273043,0.01809202,0.09467
 544,-0.00033589,-0.00024282,0.00033582,0.00010544,-0.00030771,-0.00065
 629,0.00044150,0.00127463,0.00017364,-0.00002233,0.00006000,0.00000236
 ,0.00010147,-0.00028304,0.00000073,-0.00009244,0.00005446,0.00007100,0
 .00024553,0.00010009,0.00038686,0.00111505,0.00015398,0.00075690,0.003
 27892,0.00894202,-0.02250755,0.03451534,0.09352574,-0.25831682,0.00008
 092,0.00012223,0.00002736,0.00001502,0.00033313,0.00002313,0.00058440,
 0.00024157,0.00005184,0.00001509,0.00004808,0.00043059,-0.00054429,-0.
 00013848,0.00061076,0.00008311,-0.00019060,-0.00004099,0.00000667,-0.0
 0002960,0.00023795,0.00000580,0.00001313,-0.00000393,0.00000987,-0.000
 04947,-0.00003255,0.00000579,-0.00000083,0.00001966,0.00011951,0.00010
 925,0.00012459,-0.00010562,-0.00009668,0.00001394,0.00002504,0.0000874
 5,0.00028057,-0.00100231,-0.00022917,0.00059412,-0.00350640,-0.0026133
 5,-0.00222884,-0.03552225,-0.10320213,0.28438939,-0.00051311,-0.000237
 90,-0.00051110,-0.00022545,-0.00023142,-0.00009419,0.00010336,-0.00038
 836,0.00013863,-0.00075536,-0.00035620,0.00003377,0.00021624,0.0004568
 8,0.00049937,0.00025516,0.00006657,-0.00013551,-0.00066996,-0.00017213
 ,0.00017545,0.00100740,-0.00125547,-0.00333574,-0.01960660,0.00285849,
 0.00535566,-0.29050272,0.02604842,0.06394998,0.00017936,0.00027433,0.0
 0005751,0.00007321,0.00007322,0.00004009,0.00047848,0.00041417,0.00030
 814,0.00015535,-0.00005828,0.00009651,0.00006261,0.00004586,-0.0001354
 9,0.00016528,0.00005538,-0.00005229,0.00006085,-0.00000719,0.00007564,
 0.00003167,-0.00001378,-0.00002402,-0.00003397,0.00007495,0.00007185,-
 0.00001677,-0.00000957,0.00006308,0.00003390,-0.00016820,-0.00012326,-
 0.00002686,-0.00039303,-0.00015107,-0.00057958,-0.00018288,-0.00010924
 ,0.00046630,0.00012840,-0.00004931,0.00076930,0.00035191,-0.00023432,-
 0.00342198,0.00070315,0.00067383,0.31780549,-0.00008037,-0.00044140,-0
 .00001015,-0.00042017,-0.00013361,0.00015577,0.00040566,0.00029834,0.0
 0067804,-0.00055799,0.00001393,0.00003659,0.00015447,0.00000455,0.0003
 0927,0.00037700,0.00007225,-0.00030171,-0.00030589,0.00024874,0.000147
 22,-0.00157700,0.00016942,-0.00245080,-0.01531047,0.00135092,0.0045881
 0,0.02754141,-0.04913250,-0.00618298,0.00011446,0.00010892,-0.00000095
 ,0.00006621,0.00000458,0.00002400,0.00011124,-0.00078536,0.00058919,0.
 00016285,-0.00007749,-0.00002461,0.00011577,-0.00004326,-0.00020292,0.
 00005603,0.00005196,0.00002610,0.00011066,0.00000002,0.00005919,-0.000
 03129,-0.00000685,-0.00002424,-0.00005563,0.00005566,0.00009947,-0.000
 00483,0.00000691,0.00011461,0.00005585,-0.00005997,-0.00002630,0.00004
 048,-0.00016965,-0.00004560,-0.00071476,-0.00030493,-0.00018893,0.0003
 1089,-0.00001730,-0.00008809,0.00068126,0.00028800,0.00016767,-0.01355
 430,0.00067614,0.00306284,-0.02856689,0.05035044,0.00031141,0.00017639
 ,0.00030055,0.00046207,-0.00013894,-0.00029974,0.00056012,-0.00050210,
 0.00075576,-0.00058414,-0.00011810,0.00018460,0.00029225,0.00035054,0.
 00009547,0.00031979,0.00003388,-0.00027473,-0.00066302,-0.00010084,0.0
 0037561,-0.00118565,-0.00189860,-0.00327587,-0.02447104,0.00422994,0.0
 0635606,0.06506441,-0.00599886,-0.06428845,-0.00002903,-0.00018887,-0.
 00003920,-0.00004382,-0.00016209,-0.00002595,-0.00017702,0.00014834,-0
 .00014741,-0.00014101,0.00007600,0.00010583,-0.00016816,0.00006563,0.0
 0013237,0.00010075,0.00009873,-0.00002115,0.00006689,0.00001447,0.0000
 1023,-0.00000278,-0.00004038,-0.00001280,-0.00005366,0.00008903,0.0001
 0207,-0.00001471,-0.00000583,0.00004416,-0.00000795,0.00000308,-0.0000
 4173,0.00006654,-0.00039242,-0.00016349,-0.00043283,-0.00005250,0.0001
 1210,-0.00010638,-0.00005069,0.00022353,0.00049540,0.00061564,0.000952
 52,0.02787754,-0.00430318,-0.00668571,-0.06811651,0.00782579,0.0667984
 2,-0.00046105,-0.00016047,-0.00033595,-0.00030365,0.00030849,-0.000269
 57,-0.00147523,-0.00073671,-0.00314942,-0.00096217,-0.00071603,0.00021
 782,0.00022981,0.00025777,0.00025222,0.00011161,0.00002181,-0.00004723
 ,0.00049271,-0.00052856,-0.00000011,0.00089860,0.00054678,0.00105632,0
 .00376455,-0.02173774,-0.00122412,-0.05805019,0.05355132,0.00338909,0.
 00013393,0.00022263,0.00005410,0.00003122,0.00007227,0.00001631,0.0003
 2967,0.00020926,0.00027744,0.00008406,-0.00004456,0.00004189,0.0001092
 2,0.00003504,0.00001753,0.00026806,-0.00006855,-0.00023562,0.00003905,
 -0.00000112,-0.00000761,0.00002135,-0.00000065,-0.00002894,-0.00001950
 ,0.00002744,0.00002811,-0.00000065,-0.00000171,0.00003916,-0.00004363,
 0.00009238,0.00004423,-0.00024521,0.00014557,0.00005497,0.00004255,0.0
 0013052,-0.00015621,-0.00011232,0.00004627,0.00021349,0.00060728,0.000
 64043,0.00056773,0.00020096,-0.00555528,-0.00029677,-0.00551160,0.0308
 7535,0.00058055,0.05982057,0.00020486,0.00025996,0.00005258,0.00010718
 ,0.00052186,-0.00013204,-0.00062672,0.00235982,-0.00173386,-0.00054860
 ,-0.00060440,0.00025288,0.00024807,0.00006934,-0.00021824,-0.00015219,
 0.00002931,0.00024507,-0.00017415,-0.00025084,0.00004412,-0.00034919,0
 .00050229,0.00025709,0.00284658,-0.01547694,-0.00111190,0.05374268,-0.
 29126375,-0.01226323,0.00000301,-0.00009377,0.00001001,-0.00003080,-0.
 00011687,-0.00001834,-0.00022843,-0.00024647,-0.00007560,-0.00005038,-
 0.00007669,-0.00002816,0.00010113,0.00008112,0.00000647,0.00016140,-0.
 00009276,-0.00022166,0.00000158,0.00002314,-0.00007202,0.00004452,-0.0
 0000047,-0.00001108,0.00000495,-0.00002118,-0.00003384,-0.00000905,-0.
 00000183,-0.00005961,-0.00013073,0.00007384,-0.00002166,-0.00025123,0.
 00002133,0.00000553,-0.00046362,-0.00004948,-0.00004440,-0.00032623,-0
 .00005769,0.00014361,0.00010286,0.00082511,-0.00037029,0.00291488,-0.0
 1245328,-0.00074471,0.00048959,-0.00252847,0.00022593,-0.05763196,0.31
 856775,-0.00027525,-0.00004714,0.00017881,-0.00002534,0.00020440,-0.00
 045752,-0.00221869,0.00110414,-0.00285718,-0.00060633,-0.00056350,0.00
 041929,0.00030924,-0.00002667,-0.00019707,-0.00010022,0.00001581,0.000
 18029,0.00010165,-0.00050310,-0.00004046,-0.00009535,0.00054583,0.0008
 9652,0.00548881,-0.02567942,-0.00260744,0.00338848,-0.01225997,-0.0466
 4215,0.00006488,0.00006263,0.00003916,0.00002097,0.00019739,0.00001718
 ,0.00038564,0.00011638,-0.00001256,0.00002826,-0.00006627,0.00021017,-
 0.00023945,-0.00011544,0.00024243,0.00021542,-0.00021174,-0.00026474,-
 0.00002540,-0.00001327,-0.00002358,0.00003818,0.00000109,-0.00001551,-
 0.00000139,-0.00001954,-0.00003771,-0.00000639,-0.00000665,-0.00004091
 ,-0.00006395,0.00000063,-0.00001167,-0.00037523,0.00009237,0.00001724,
 -0.00025164,0.00011237,0.00002282,-0.00018760,0.00019153,0.00008838,0.
 00084144,0.00035625,0.00075175,-0.00684392,0.02893113,0.00194147,0.001
 53258,-0.00833660,-0.00127308,-0.00109943,0.01591737,0.04947604\\-0.00
 000468,0.00000945,0.00000192,-0.00001594,-0.00000350,-0.00000081,0.000
 00394,0.00000770,-0.00001507,0.00001215,-0.00002125,-0.00000013,-0.000
 00589,0.00001408,-0.00002539,-0.00000785,-0.00001054,0.00001619,-0.000
 00038,-0.00000171,0.00000932,0.00000365,0.00000479,-0.00001118,-0.0000
 1422,0.00000590,0.00002022,0.00000877,0.00000260,0.00000029,0.00000194
 ,-0.00000563,-0.00000031,0.00000367,-0.00000368,0.00000110,-0.00000280
 ,-0.00000053,-0.00000047,0.00000605,0.00000434,0.00000119,0.00000175,-
 0.00000129,-0.00000044,0.00000397,0.00000370,-0.00000314,-0.00000524,-
 0.00000083,0.00000135,0.00000528,-0.00000500,0.00000689,-0.00000043,0.
 00000387,-0.00000072,0.00000432,0.00000597,0.00000123,0.00000647,0.000
 00263,0.00000233,0.00000037,-0.00000282,0.00000070,-0.00000128,0.00000
 558,-0.00000171,-0.00000057,-0.00000236,-0.00000615,-0.00000313,-0.000
 00628,0.00000264,-0.00000163,0.00000224,-0.00000251,0.00000151,-0.0000
 0581,0.00000027,0.00000020,-0.00000160,0.00000241\\\@


 FIREWORKS ENDED
 AND SPECTATORS GONE AWAY....
 AH, HOW VAST AND DARK
                     SHIKI
 Job cpu time:       0 days  4 hours 24 minutes  4.5 seconds.
 Elapsed time:       0 days  1 hours  6 minutes  3.8 seconds.
 File lengths (MBytes):  RWF=    276 Int=      0 D2E=      0 Chk=     13 Scr=      1
 Normal termination of Gaussian 16 at Wed Aug  3 00:41:45 2022.
### All Done ###
