### Starting Gaussian ###
 Entering Gaussian System, Link 0=g16
 Initial command:
 /cluster/software/gaussian/gaussian-16-A.03/avx2/g16/l1.exe "/local/scratch/ks29c/Gau-32057.inp" -scrdir="/local/scratch/ks29c/"
 Entering Link 1 = /cluster/software/gaussian/gaussian-16-A.03/avx2/g16/l1.exe PID=     32058.
  
 Copyright (c) 1988,1990,1992,1993,1995,1998,2003,2009,2016,
            Gaussian, Inc.  All Rights Reserved.
  
 This is part of the Gaussian(R) 16 program.  It is based on
 the Gaussian(R) 09 system (copyright 2009, Gaussian, Inc.),
 the Gaussian(R) 03 system (copyright 2003, Gaussian, Inc.),
 the Gaussian(R) 98 system (copyright 1998, Gaussian, Inc.),
 the Gaussian(R) 94 system (copyright 1995, Gaussian, Inc.),
 the Gaussian 92(TM) system (copyright 1992, Gaussian, Inc.),
 the Gaussian 90(TM) system (copyright 1990, Gaussian, Inc.),
 the Gaussian 88(TM) system (copyright 1988, Gaussian, Inc.),
 the Gaussian 86(TM) system (copyright 1986, Carnegie Mellon
 University), and the Gaussian 82(TM) system (copyright 1983,
 Carnegie Mellon University). Gaussian is a federally registered
 trademark of Gaussian, Inc.
  
 This software contains proprietary and confidential information,
 including trade secrets, belonging to Gaussian, Inc.
  
 This software is provided under written license and may be
 used, copied, transmitted, or stored only in accord with that
 written license.
  
 The following legend is applicable only to US Government
 contracts under FAR:
  
                    RESTRICTED RIGHTS LEGEND
  
 Use, reproduction and disclosure by the US Government is
 subject to restrictions as set forth in subparagraphs (a)
 and (c) of the Commercial Computer Software - Restricted
 Rights clause in FAR 52.227-19.
  
 Gaussian, Inc.
 340 Quinnipiac St., Bldg. 40, Wallingford CT 06492
  
  
 ---------------------------------------------------------------
 Warning -- This program may not be used in any manner that
 competes with the business of Gaussian, Inc. or will provide
 assistance to any competitor of Gaussian, Inc.  The licensee
 of this program is prohibited from giving any competitor of
 Gaussian, Inc. access to this program.  By using this program,
 the user acknowledges that Gaussian, Inc. is engaged in the
 business of creating and licensing software in the field of
 computational chemistry and represents and warrants to the
 licensee that it is not a competitor of Gaussian, Inc. and that
 it will not use this program in any manner prohibited above.
 ---------------------------------------------------------------
  

 Cite this work as:
 Gaussian 16, Revision A.03,
 M. J. Frisch, G. W. Trucks, H. B. Schlegel, G. E. Scuseria, 
 M. A. Robb, J. R. Cheeseman, G. Scalmani, V. Barone, 
 G. A. Petersson, H. Nakatsuji, X. Li, M. Caricato, A. V. Marenich, 
 J. Bloino, B. G. Janesko, R. Gomperts, B. Mennucci, H. P. Hratchian, 
 J. V. Ortiz, A. F. Izmaylov, J. L. Sonnenberg, D. Williams-Young, 
 F. Ding, F. Lipparini, F. Egidi, J. Goings, B. Peng, A. Petrone, 
 T. Henderson, D. Ranasinghe, V. G. Zakrzewski, J. Gao, N. Rega, 
 G. Zheng, W. Liang, M. Hada, M. Ehara, K. Toyota, R. Fukuda, 
 J. Hasegawa, M. Ishida, T. Nakajima, Y. Honda, O. Kitao, H. Nakai, 
 T. Vreven, K. Throssell, J. A. Montgomery, Jr., J. E. Peralta, 
 F. Ogliaro, M. J. Bearpark, J. J. Heyd, E. N. Brothers, K. N. Kudin, 
 V. N. Staroverov, T. A. Keith, R. Kobayashi, J. Normand, 
 K. Raghavachari, A. P. Rendell, J. C. Burant, S. S. Iyengar, 
 J. Tomasi, M. Cossi, J. M. Millam, M. Klene, C. Adamo, R. Cammi, 
 J. W. Ochterski, R. L. Martin, K. Morokuma, O. Farkas, 
 J. B. Foresman, and D. J. Fox, Gaussian, Inc., Wallingford CT, 2016.
 
 ******************************************
 Gaussian 16:  ES64L-G16RevA.03 25-Dec-2016
                 4-Aug-2022 
 ******************************************
 %chk=CCC1NCCpNpC1dO.chk
 %NProcShared=20
 Will use up to   20 processors via shared memory.
 -----------------------------
 # opt freq b3lyp/6-31g(2df,p)
 -----------------------------
 1/18=20,19=15,26=3,38=1/1,3;
 2/9=110,12=2,17=6,18=5,40=1/2;
 3/5=1,6=6,7=104,11=2,25=1,30=1,71=1,74=-5/1,2,3;
 4//1;
 5/5=2,38=5/2;
 6/7=2,8=2,9=2,10=2,28=1/1;
 7//1,2,3,16;
 1/18=20,19=15,26=3/3(2);
 2/9=110/2;
 99//99;
 2/9=110/2;
 3/5=1,6=6,7=104,11=2,25=1,30=1,71=1,74=-5/1,2,3;
 4/5=5,16=3,69=1/1;
 5/5=2,38=5/2;
 7//1,2,3,16;
 1/18=20,19=15,26=3/3(-5);
 2/9=110/2;
 6/7=2,8=2,9=2,10=2,19=2,28=1/1;
 99/9=1/99;
 -------------------
 Title Card Required
 -------------------
 Symbolic Z-matrix:
 Charge =  0 Multiplicity = 1
 C                     0.95367   0.05965  -0.1576 
 C                     2.47407   0.09716  -0.05814 
 C                     2.99118   1.08512   0.98552 
 N                     2.92231   2.49293   0.52874 
 C                     2.79367   3.29184   1.76135 
 C                     1.94498   2.49167   2.75804 
 N                     2.38272   2.61966   4.15293 
 C                     2.18002   1.083     2.27254 
 O                     1.77864   0.08087   2.86206 
 H                     0.63534  -0.63237  -0.94055 
 H                     0.54611   1.05024  -0.37627 
 H                     0.50323  -0.29162   0.77575 
 H                     2.89609   0.34312  -1.04139 
 H                     2.8387   -0.90816   0.18737 
 H                     4.03156   0.85582   1.24665 
 H                     2.09153   2.62776  -0.04786 
 H                     2.33225   4.26229   1.54629 
 H                     3.79515   3.49503   2.15877 
 H                     0.88184   2.73257   2.64737 
 H                     3.34888   2.29139   4.22288 
 H                     1.84946   1.94037   4.7042 
 

 GradGradGradGradGradGradGradGradGradGradGradGradGradGradGradGradGradGrad
 Berny optimization.
 Initialization pass.
                           ----------------------------
                           !    Initial Parameters    !
                           ! (Angstroms and Degrees)  !
 --------------------------                            --------------------------
 ! Name  Definition              Value          Derivative Info.                !
 --------------------------------------------------------------------------------
 ! R1    R(1,2)                  1.5241         estimate D2E/DX2                !
 ! R2    R(1,10)                 1.0924         estimate D2E/DX2                !
 ! R3    R(1,11)                 1.0932         estimate D2E/DX2                !
 ! R4    R(1,12)                 1.0943         estimate D2E/DX2                !
 ! R5    R(2,3)                  1.5273         estimate D2E/DX2                !
 ! R6    R(2,13)                 1.0979         estimate D2E/DX2                !
 ! R7    R(2,14)                 1.0972         estimate D2E/DX2                !
 ! R8    R(3,4)                  1.4817         estimate D2E/DX2                !
 ! R9    R(3,8)                  1.5213         estimate D2E/DX2                !
 ! R10   R(3,15)                 1.0969         estimate D2E/DX2                !
 ! R11   R(4,5)                  1.4745         estimate D2E/DX2                !
 ! R12   R(4,16)                 1.0202         estimate D2E/DX2                !
 ! R13   R(5,6)                  1.5343         estimate D2E/DX2                !
 ! R14   R(5,17)                 1.0959         estimate D2E/DX2                !
 ! R15   R(5,18)                 1.0964         estimate D2E/DX2                !
 ! R16   R(6,7)                  1.4676         estimate D2E/DX2                !
 ! R17   R(6,8)                  1.5084         estimate D2E/DX2                !
 ! R18   R(6,19)                 1.0957         estimate D2E/DX2                !
 ! R19   R(7,20)                 1.0228         estimate D2E/DX2                !
 ! R20   R(7,21)                 1.0245         estimate D2E/DX2                !
 ! R21   R(8,9)                  1.23           estimate D2E/DX2                !
 ! A1    A(2,1,10)             110.6753         estimate D2E/DX2                !
 ! A2    A(2,1,11)             111.2626         estimate D2E/DX2                !
 ! A3    A(2,1,12)             111.2767         estimate D2E/DX2                !
 ! A4    A(10,1,11)            108.7852         estimate D2E/DX2                !
 ! A5    A(10,1,12)            106.7401         estimate D2E/DX2                !
 ! A6    A(11,1,12)            107.9395         estimate D2E/DX2                !
 ! A7    A(1,2,3)              113.4696         estimate D2E/DX2                !
 ! A8    A(1,2,13)             109.3006         estimate D2E/DX2                !
 ! A9    A(1,2,14)             108.8786         estimate D2E/DX2                !
 ! A10   A(3,2,13)             109.689          estimate D2E/DX2                !
 ! A11   A(3,2,14)             109.1029         estimate D2E/DX2                !
 ! A12   A(13,2,14)            106.1357         estimate D2E/DX2                !
 ! A13   A(2,3,4)              112.8437         estimate D2E/DX2                !
 ! A14   A(2,3,8)              113.3697         estimate D2E/DX2                !
 ! A15   A(2,3,15)             110.4008         estimate D2E/DX2                !
 ! A16   A(4,3,8)              103.7302         estimate D2E/DX2                !
 ! A17   A(4,3,15)             108.4276         estimate D2E/DX2                !
 ! A18   A(8,3,15)             107.7002         estimate D2E/DX2                !
 ! A19   A(3,4,5)              105.1385         estimate D2E/DX2                !
 ! A20   A(3,4,16)             109.7343         estimate D2E/DX2                !
 ! A21   A(5,4,16)             109.2572         estimate D2E/DX2                !
 ! A22   A(4,5,6)              107.9832         estimate D2E/DX2                !
 ! A23   A(4,5,17)             110.6397         estimate D2E/DX2                !
 ! A24   A(4,5,18)             108.8882         estimate D2E/DX2                !
 ! A25   A(6,5,17)             110.8807         estimate D2E/DX2                !
 ! A26   A(6,5,18)             111.496          estimate D2E/DX2                !
 ! A27   A(17,5,18)            106.9543         estimate D2E/DX2                !
 ! A28   A(5,6,7)              114.0152         estimate D2E/DX2                !
 ! A29   A(5,6,8)              101.056          estimate D2E/DX2                !
 ! A30   A(5,6,19)             110.8821         estimate D2E/DX2                !
 ! A31   A(7,6,8)              109.9313         estimate D2E/DX2                !
 ! A32   A(7,6,19)             111.4842         estimate D2E/DX2                !
 ! A33   A(8,6,19)             108.9052         estimate D2E/DX2                !
 ! A34   A(6,7,20)             108.5888         estimate D2E/DX2                !
 ! A35   A(6,7,21)             107.3584         estimate D2E/DX2                !
 ! A36   A(20,7,21)            104.0085         estimate D2E/DX2                !
 ! A37   A(3,8,6)              110.7366         estimate D2E/DX2                !
 ! A38   A(3,8,9)              125.4928         estimate D2E/DX2                !
 ! A39   A(6,8,9)              123.7627         estimate D2E/DX2                !
 ! D1    D(10,1,2,3)           177.9104         estimate D2E/DX2                !
 ! D2    D(10,1,2,13)           55.1433         estimate D2E/DX2                !
 ! D3    D(10,1,2,14)          -60.3852         estimate D2E/DX2                !
 ! D4    D(11,1,2,3)            56.8342         estimate D2E/DX2                !
 ! D5    D(11,1,2,13)          -65.9329         estimate D2E/DX2                !
 ! D6    D(11,1,2,14)          178.5386         estimate D2E/DX2                !
 ! D7    D(12,1,2,3)           -63.5783         estimate D2E/DX2                !
 ! D8    D(12,1,2,13)          173.6546         estimate D2E/DX2                !
 ! D9    D(12,1,2,14)           58.1262         estimate D2E/DX2                !
 ! D10   D(1,2,3,4)            -76.4737         estimate D2E/DX2                !
 ! D11   D(1,2,3,8)             41.0811         estimate D2E/DX2                !
 ! D12   D(1,2,3,15)           162.0171         estimate D2E/DX2                !
 ! D13   D(13,2,3,4)            46.0789         estimate D2E/DX2                !
 ! D14   D(13,2,3,8)           163.6337         estimate D2E/DX2                !
 ! D15   D(13,2,3,15)          -75.4303         estimate D2E/DX2                !
 ! D16   D(14,2,3,4)           161.9471         estimate D2E/DX2                !
 ! D17   D(14,2,3,8)           -80.498          estimate D2E/DX2                !
 ! D18   D(14,2,3,15)           40.4379         estimate D2E/DX2                !
 ! D19   D(2,3,4,5)            152.7406         estimate D2E/DX2                !
 ! D20   D(2,3,4,16)            35.3512         estimate D2E/DX2                !
 ! D21   D(8,3,4,5)             29.6469         estimate D2E/DX2                !
 ! D22   D(8,3,4,16)           -87.7425         estimate D2E/DX2                !
 ! D23   D(15,3,4,5)           -84.6399         estimate D2E/DX2                !
 ! D24   D(15,3,4,16)          157.9706         estimate D2E/DX2                !
 ! D25   D(2,3,8,6)           -137.2901         estimate D2E/DX2                !
 ! D26   D(2,3,8,9)             43.7047         estimate D2E/DX2                !
 ! D27   D(4,3,8,6)            -14.5431         estimate D2E/DX2                !
 ! D28   D(4,3,8,9)            166.4517         estimate D2E/DX2                !
 ! D29   D(15,3,8,6)           100.2633         estimate D2E/DX2                !
 ! D30   D(15,3,8,9)           -78.7419         estimate D2E/DX2                !
 ! D31   D(3,4,5,6)            -35.1484         estimate D2E/DX2                !
 ! D32   D(3,4,5,17)          -156.6617         estimate D2E/DX2                !
 ! D33   D(3,4,5,18)            86.066          estimate D2E/DX2                !
 ! D34   D(16,4,5,6)            82.5648         estimate D2E/DX2                !
 ! D35   D(16,4,5,17)          -38.9485         estimate D2E/DX2                !
 ! D36   D(16,4,5,18)         -156.2208         estimate D2E/DX2                !
 ! D37   D(4,5,6,7)            142.5941         estimate D2E/DX2                !
 ! D38   D(4,5,6,8)             24.7341         estimate D2E/DX2                !
 ! D39   D(4,5,6,19)           -90.5992         estimate D2E/DX2                !
 ! D40   D(17,5,6,7)           -96.042          estimate D2E/DX2                !
 ! D41   D(17,5,6,8)           146.098          estimate D2E/DX2                !
 ! D42   D(17,5,6,19)           30.7647         estimate D2E/DX2                !
 ! D43   D(18,5,6,7)            23.0148         estimate D2E/DX2                !
 ! D44   D(18,5,6,8)           -94.8453         estimate D2E/DX2                !
 ! D45   D(18,5,6,19)          149.8215         estimate D2E/DX2                !
 ! D46   D(5,6,7,20)           -59.4211         estimate D2E/DX2                !
 ! D47   D(5,6,7,21)          -171.3035         estimate D2E/DX2                !
 ! D48   D(8,6,7,20)            53.2151         estimate D2E/DX2                !
 ! D49   D(8,6,7,21)           -58.6673         estimate D2E/DX2                !
 ! D50   D(19,6,7,20)          174.0859         estimate D2E/DX2                !
 ! D51   D(19,6,7,21)           62.2034         estimate D2E/DX2                !
 ! D52   D(5,6,8,3)             -5.8094         estimate D2E/DX2                !
 ! D53   D(5,6,8,9)            173.2163         estimate D2E/DX2                !
 ! D54   D(7,6,8,3)           -126.6031         estimate D2E/DX2                !
 ! D55   D(7,6,8,9)             52.4227         estimate D2E/DX2                !
 ! D56   D(19,6,8,3)           110.9865         estimate D2E/DX2                !
 ! D57   D(19,6,8,9)           -69.9878         estimate D2E/DX2                !
 --------------------------------------------------------------------------------
 Trust Radius=3.00D-01 FncErr=1.00D-07 GrdErr=1.00D-06 EigMax=2.50D+02 EigMin=1.00D-04
 Number of steps in this run=    126 maximum allowed number of steps=    126.
 GradGradGradGradGradGradGradGradGradGradGradGradGradGradGradGradGradGrad

                          Input orientation:                          
 ---------------------------------------------------------------------
 Center     Atomic      Atomic             Coordinates (Angstroms)
 Number     Number       Type             X           Y           Z
 ---------------------------------------------------------------------
      1          6           0        0.953670    0.059650   -0.157600
      2          6           0        2.474070    0.097160   -0.058140
      3          6           0        2.991180    1.085120    0.985520
      4          7           0        2.922310    2.492930    0.528740
      5          6           0        2.793670    3.291840    1.761350
      6          6           0        1.944980    2.491670    2.758040
      7          7           0        2.382720    2.619660    4.152930
      8          6           0        2.180020    1.083000    2.272540
      9          8           0        1.778640    0.080870    2.862060
     10          1           0        0.635340   -0.632370   -0.940550
     11          1           0        0.546110    1.050240   -0.376270
     12          1           0        0.503230   -0.291620    0.775750
     13          1           0        2.896090    0.343120   -1.041390
     14          1           0        2.838700   -0.908160    0.187370
     15          1           0        4.031560    0.855820    1.246650
     16          1           0        2.091530    2.627760   -0.047860
     17          1           0        2.332250    4.262290    1.546290
     18          1           0        3.795150    3.495030    2.158770
     19          1           0        0.881840    2.732570    2.647370
     20          1           0        3.348880    2.291390    4.222880
     21          1           0        1.849460    1.940370    4.704200
 ---------------------------------------------------------------------
                    Distance matrix (angstroms):
                    1          2          3          4          5
     1  C    0.000000
     2  C    1.524111   0.000000
     3  C    2.551423   1.527316   0.000000
     4  N    3.204287   2.507002   1.481661   0.000000
     5  C    4.185095   3.690348   2.347453   1.474494   0.000000
     6  C    3.924076   3.734231   2.492939   2.434123   1.534255
     7  N    5.213109   4.909629   3.571767   3.666329   2.518007
     8  C    2.908051   2.547629   1.521317   2.362146   2.348799
     9  O    3.130395   3.001909   2.449525   3.545476   3.542905
    10  H    1.092354   2.166054   3.494209   4.142046   5.230495
    11  H    1.093248   2.174074   2.798938   2.923478   3.826972
    12  H    1.094271   2.175025   2.851195   3.696847   4.365628
    13  H    2.152774   1.097897   2.160549   2.662269   4.069495
    14  H    2.146858   1.097223   2.152547   3.419201   4.485470
    15  H    3.475516   2.168828   1.096886   2.103796   2.780554
    16  H    2.811042   2.559371   2.063246   1.020217   2.051157
    17  H    4.739821   4.465716   3.292880   2.124668   1.095871
    18  H    5.024083   4.266786   2.798312   2.103105   1.096445
    19  H    3.875244   4.098825   3.150421   2.951193   2.180117
    20  H    5.468665   4.889486   3.473260   3.724144   2.714459
    21  H    5.289295   5.144652   3.982908   4.346354   3.373184
                    6          7          8          9         10
     6  C    0.000000
     7  N    1.467554   0.000000
     8  C    1.508411   2.436858   0.000000
     9  O    2.418769   2.911479   1.230002   0.000000
    10  H    5.015411   6.290674   3.956321   4.034314   0.000000
    11  H    3.722695   5.133212   3.112383   3.597998   1.776950
    12  H    3.708749   4.838737   2.634689   2.473481   1.754779
    13  H    4.467275   5.694484   3.470203   4.068709   2.464293
    14  H    4.354988   5.327204   2.957450   3.042347   2.490594
    15  H    3.051904   3.778395   2.128911   2.878497   4.304981
    16  H    2.813018   4.210878   2.788973   3.879714   3.680466
    17  H    2.180232   3.081453   3.264736   4.418372   5.746440
    18  H    2.188375   2.595748   2.905078   4.027086   6.051910
    19  H    1.095695   2.128873   2.132334   2.807464   4.925115
    20  H    2.038824   1.022800   2.574930   3.033790   6.524774
    21  H    2.024992   1.024549   2.599485   2.618441   6.321098
                   11         12         13         14         15
    11  H    0.000000
    12  H    1.769061   0.000000
    13  H    2.542599   3.070940   0.000000
    14  H    3.067408   2.486108   1.754664   0.000000
    15  H    3.849679   3.739984   2.605241   2.378364   0.000000
    16  H    2.232654   3.424005   2.618014   3.621647   2.929035
    17  H    4.147746   4.967609   4.730105   5.369982   3.818570
    18  H    4.791627   5.204633   4.580815   4.918262   2.802371
    19  H    3.476399   3.576595   4.834628   4.809970   3.924913
    20  H    5.527038   5.162593   5.631457   5.175205   3.374146
    21  H    5.319984   4.714534   6.054622   5.430881   4.229948
                   16         17         18         19         20
    16  H    0.000000
    17  H    2.295855   0.000000
    18  H    2.919537   1.761788   0.000000
    19  H    2.956112   2.378258   3.050811   0.000000
    20  H    4.464672   3.475934   2.430732   2.960263   0.000000
    21  H    4.807617   3.949278   3.561164   2.407160   1.613426
                   21
    21  H    0.000000
 Stoichiometry    C6H12N2O
 Framework group  C1[X(C6H12N2O)]
 Deg. of freedom    57
 Full point group                 C1      NOp   1
 Largest Abelian subgroup         C1      NOp   1
 Largest concise Abelian subgroup C1      NOp   1
                         Standard orientation:                         
 ---------------------------------------------------------------------
 Center     Atomic      Atomic             Coordinates (Angstroms)
 Number     Number       Type             X           Y           Z
 ---------------------------------------------------------------------
      1          6           0       -2.456923   -0.428356    0.856717
      2          6           0       -2.141517    0.108211   -0.534516
      3          6           0       -0.657945    0.398219   -0.752695
      4          7           0       -0.214642    1.651700   -0.098792
      5          6           0        1.219482    1.453760    0.180921
      6          6           0        1.433100   -0.023099    0.537564
      7          7           0        2.686637   -0.586545    0.022892
      8          6           0        0.257780   -0.661928   -0.159447
      9          8           0        0.090648   -1.877674   -0.242704
     10          1           0       -3.531514   -0.584622    0.975345
     11          1           0       -2.113213    0.259167    1.634126
     12          1           0       -1.976891   -1.396857    1.027022
     13          1           0       -2.726784    1.019759   -0.713179
     14          1           0       -2.478333   -0.621687   -1.281311
     15          1           0       -0.435758    0.468924   -1.824512
     16          1           0       -0.715029    1.776660    0.781458
     17          1           0        1.546792    2.104578    0.999600
     18          1           0        1.796966    1.740521   -0.705912
     19          1           0        1.334998   -0.182307    1.617183
     20          1           0        2.687648   -0.502409   -0.996441
     21          1           0        2.658107   -1.597253    0.188291
 ---------------------------------------------------------------------
 Rotational constants (GHZ):           2.6312650           1.3467296           1.0381340
 Standard basis: 6-31G(2df,p) (6D, 7F)
 There are   339 symmetry adapted cartesian basis functions of A   symmetry.
 There are   312 symmetry adapted basis functions of A   symmetry.
   312 basis functions,   480 primitive gaussians,   339 cartesian basis functions
    35 alpha electrons       35 beta electrons
       nuclear repulsion energy       484.4959081202 Hartrees.
 NAtoms=   21 NActive=   21 NUniq=   21 SFac= 1.00D+00 NAtFMM=   60 NAOKFM=F Big=F
 Integral buffers will be    131072 words long.
 Raffenetti 2 integral format.
 Two-electron integral symmetry is turned on.
 One-electron integrals computed using PRISM.
 PrsmSu:  requested number of processors reduced to:  13 ShMem   1 Linda.
 NBasis=   312 RedAO= T EigKep=  3.44D-04  NBF=   312
 NBsUse=   312 1.00D-06 EigRej= -1.00D+00 NBFU=   312
 ExpMin= 1.61D-01 ExpMax= 5.48D+03 ExpMxC= 8.25D+02 IAcc=3 IRadAn=         5 AccDes= 0.00D+00
 Harris functional with IExCor=  402 and IRadAn=       5 diagonalized for initial guess.
 HarFok:  IExCor=  402 AccDes= 0.00D+00 IRadAn=         5 IDoV= 1 UseB2=F ITyADJ=14
 ICtDFT=  3500011 ScaDFX=  1.000000  1.000000  1.000000  1.000000
 FoFCou: FMM=F IPFlag=           0 FMFlag=      100000 FMFlg1=           0
         NFxFlg=           0 DoJE=T BraDBF=F KetDBF=T FulRan=T
         wScrn=  0.000000 ICntrl=       500 IOpCl=  0 I1Cent=   200000004 NGrid=           0
         NMat0=    1 NMatS0=      1 NMatT0=    0 NMatD0=    1 NMtDS0=    0 NMtDT0=    0
 Petite list used in FoFCou.
 Requested convergence on RMS density matrix=1.00D-08 within 128 cycles.
 Requested convergence on MAX density matrix=1.00D-06.
 Requested convergence on             energy=1.00D-06.
 No special actions if energy rises.
 Integral accuracy reduced to 1.0D-05 until final iterations.
 Initial convergence to 1.0D-05 achieved.  Increase integral accuracy.
 SCF Done:  E(RB3LYP) =  -420.598285105     A.U. after   13 cycles
            NFock= 13  Conv=0.63D-08     -V/T= 2.0076

 **********************************************************************

            Population analysis using the SCF density.

 **********************************************************************

 Orbital symmetries:
       Occupied  (A) (A) (A) (A) (A) (A) (A) (A) (A) (A) (A) (A)
                 (A) (A) (A) (A) (A) (A) (A) (A) (A) (A) (A) (A)
                 (A) (A) (A) (A) (A) (A) (A) (A) (A) (A) (A)
       Virtual   (A) (A) (A) (A) (A) (A) (A) (A) (A) (A) (A) (A)
                 (A) (A) (A) (A) (A) (A) (A) (A) (A) (A) (A) (A)
                 (A) (A) (A) (A) (A) (A) (A) (A) (A) (A) (A) (A)
                 (A) (A) (A) (A) (A) (A) (A) (A) (A) (A) (A) (A)
                 (A) (A) (A) (A) (A) (A) (A) (A) (A) (A) (A) (A)
                 (A) (A) (A) (A) (A) (A) (A) (A) (A) (A) (A) (A)
                 (A) (A) (A) (A) (A) (A) (A) (A) (A) (A) (A) (A)
                 (A) (A) (A) (A) (A) (A) (A) (A) (A) (A) (A) (A)
                 (A) (A) (A) (A) (A) (A) (A) (A) (A) (A) (A) (A)
                 (A) (A) (A) (A) (A) (A) (A) (A) (A) (A) (A) (A)
                 (A) (A) (A) (A) (A) (A) (A) (A) (A) (A) (A) (A)
                 (A) (A) (A) (A) (A) (A) (A) (A) (A) (A) (A) (A)
                 (A) (A) (A) (A) (A) (A) (A) (A) (A) (A) (A) (A)
                 (A) (A) (A) (A) (A) (A) (A) (A) (A) (A) (A) (A)
                 (A) (A) (A) (A) (A) (A) (A) (A) (A) (A) (A) (A)
                 (A) (A) (A) (A) (A) (A) (A) (A) (A) (A) (A) (A)
                 (A) (A) (A) (A) (A) (A) (A) (A) (A) (A) (A) (A)
                 (A) (A) (A) (A) (A) (A) (A) (A) (A) (A) (A) (A)
                 (A) (A) (A) (A) (A) (A) (A) (A) (A) (A) (A) (A)
                 (A) (A) (A) (A) (A) (A) (A) (A) (A) (A) (A) (A)
                 (A) (A) (A) (A) (A) (A) (A) (A) (A) (A) (A) (A)
                 (A) (A) (A) (A) (A) (A) (A) (A) (A) (A) (A) (A)
                 (A) (A) (A) (A) (A) (A) (A) (A) (A) (A) (A) (A)
                 (A)
 The electronic state is 1-A.
 Alpha  occ. eigenvalues --  -19.13256 -14.32429 -14.32127 -10.26106 -10.21903
 Alpha  occ. eigenvalues --  -10.21795 -10.21278 -10.19099 -10.17713  -1.03285
 Alpha  occ. eigenvalues --   -0.93100  -0.88473  -0.78485  -0.72344  -0.70405
 Alpha  occ. eigenvalues --   -0.63117  -0.60241  -0.52908  -0.51099  -0.49147
 Alpha  occ. eigenvalues --   -0.46623  -0.45983  -0.44472  -0.42860  -0.41869
 Alpha  occ. eigenvalues --   -0.40020  -0.37592  -0.37393  -0.36368  -0.34853
 Alpha  occ. eigenvalues --   -0.33963  -0.33786  -0.27846  -0.25071  -0.21633
 Alpha virt. eigenvalues --   -0.03062   0.06710   0.08532   0.10985   0.11661
 Alpha virt. eigenvalues --    0.12883   0.14243   0.15452   0.16130   0.16600
 Alpha virt. eigenvalues --    0.17078   0.17930   0.19957   0.20765   0.21153
 Alpha virt. eigenvalues --    0.21820   0.25531   0.26576   0.28725   0.29631
 Alpha virt. eigenvalues --    0.33670   0.34966   0.45090   0.45160   0.45894
 Alpha virt. eigenvalues --    0.47624   0.48029   0.50322   0.51366   0.52349
 Alpha virt. eigenvalues --    0.52907   0.55640   0.55829   0.56819   0.57841
 Alpha virt. eigenvalues --    0.61207   0.61612   0.64055   0.64670   0.66250
 Alpha virt. eigenvalues --    0.68452   0.69557   0.71532   0.72110   0.73671
 Alpha virt. eigenvalues --    0.74077   0.75211   0.76103   0.76481   0.77453
 Alpha virt. eigenvalues --    0.78572   0.79919   0.81477   0.82340   0.82694
 Alpha virt. eigenvalues --    0.83327   0.85665   0.86940   0.88178   0.90115
 Alpha virt. eigenvalues --    0.91456   0.93544   0.97425   0.98811   1.00772
 Alpha virt. eigenvalues --    1.02976   1.04764   1.05454   1.08164   1.11722
 Alpha virt. eigenvalues --    1.14816   1.16110   1.20172   1.22408   1.23269
 Alpha virt. eigenvalues --    1.27427   1.27960   1.33001   1.34364   1.35757
 Alpha virt. eigenvalues --    1.38290   1.40311   1.42329   1.43739   1.45541
 Alpha virt. eigenvalues --    1.47101   1.50505   1.50797   1.51581   1.54965
 Alpha virt. eigenvalues --    1.55718   1.56353   1.59545   1.60139   1.61836
 Alpha virt. eigenvalues --    1.64419   1.64931   1.70303   1.72800   1.76193
 Alpha virt. eigenvalues --    1.77093   1.81272   1.83118   1.85555   1.86844
 Alpha virt. eigenvalues --    1.87280   1.90036   1.92205   1.95236   1.97228
 Alpha virt. eigenvalues --    1.98980   2.02424   2.05155   2.11026   2.14653
 Alpha virt. eigenvalues --    2.18453   2.19700   2.20858   2.24316   2.28256
 Alpha virt. eigenvalues --    2.31688   2.35816   2.36548   2.40327   2.41480
 Alpha virt. eigenvalues --    2.43895   2.44954   2.45662   2.50807   2.57230
 Alpha virt. eigenvalues --    2.59117   2.64416   2.68502   2.72413   2.73526
 Alpha virt. eigenvalues --    2.74680   2.77301   2.78557   2.80201   2.80664
 Alpha virt. eigenvalues --    2.82891   2.85478   2.88097   2.88861   2.91310
 Alpha virt. eigenvalues --    2.93112   2.94342   2.97271   2.98343   2.99035
 Alpha virt. eigenvalues --    3.01629   3.02736   3.04937   3.05835   3.09666
 Alpha virt. eigenvalues --    3.10187   3.16299   3.17992   3.19662   3.23085
 Alpha virt. eigenvalues --    3.25127   3.27451   3.29055   3.34370   3.35704
 Alpha virt. eigenvalues --    3.38239   3.41841   3.43562   3.44002   3.48009
 Alpha virt. eigenvalues --    3.52884   3.55102   3.56340   3.59254   3.59982
 Alpha virt. eigenvalues --    3.61192   3.64660   3.67000   3.69166   3.74031
 Alpha virt. eigenvalues --    3.75854   3.78471   3.80522   3.84640   3.91289
 Alpha virt. eigenvalues --    3.97361   3.97747   3.99762   4.02890   4.04139
 Alpha virt. eigenvalues --    4.06278   4.08010   4.10555   4.14798   4.16763
 Alpha virt. eigenvalues --    4.19836   4.21089   4.24869   4.27835   4.28253
 Alpha virt. eigenvalues --    4.31679   4.34170   4.38238   4.41073   4.41634
 Alpha virt. eigenvalues --    4.43610   4.45171   4.46457   4.48843   4.49521
 Alpha virt. eigenvalues --    4.52216   4.53822   4.55924   4.58627   4.60443
 Alpha virt. eigenvalues --    4.62026   4.63138   4.64619   4.65746   4.66197
 Alpha virt. eigenvalues --    4.68563   4.69467   4.71819   4.72604   4.73888
 Alpha virt. eigenvalues --    4.75287   4.76743   4.77182   4.78979   4.79692
 Alpha virt. eigenvalues --    4.81336   4.85767   4.87847   4.88984   4.90112
 Alpha virt. eigenvalues --    4.92441   4.92787   4.95451   4.98550   5.02785
 Alpha virt. eigenvalues --    5.04848   5.07055   5.08337   5.09697   5.11443
 Alpha virt. eigenvalues --    5.12172   5.20673   5.25260   5.26332   5.32004
 Alpha virt. eigenvalues --    5.38323   5.41552   5.43468   5.51439   5.52221
 Alpha virt. eigenvalues --    5.52987   5.55153   5.63159   5.65022   5.70762
 Alpha virt. eigenvalues --    6.03293   6.11614   6.29712   6.43021   6.70704
 Alpha virt. eigenvalues --    6.99581   9.51531  10.92347  11.34723  11.42065
 Alpha virt. eigenvalues --   11.67036  11.72684  12.06040  12.29360  12.93112
 Alpha virt. eigenvalues --   13.30737  15.01736
          Condensed to atoms (all electrons):
               1          2          3          4          5          6
     1  C    4.969320   0.409882  -0.027309  -0.003853   0.000274  -0.000428
     2  C    0.409882   4.830161   0.370227  -0.022843   0.004295   0.005655
     3  C   -0.027309   0.370227   5.096142   0.363201  -0.067932  -0.142725
     4  N   -0.003853  -0.022843   0.363201   6.424118   0.378509  -0.042704
     5  C    0.000274   0.004295  -0.067932   0.378509   4.988108   0.300034
     6  C   -0.000428   0.005655  -0.142725  -0.042704   0.300034   5.135336
     7  N    0.000010  -0.000064   0.006582   0.001785  -0.015306   0.365499
     8  C   -0.012012  -0.001184   0.285747  -0.055448  -0.050832   0.355066
     9  O   -0.006866  -0.001200  -0.068796   0.003084   0.002155  -0.059658
    10  H    0.374774  -0.023863   0.003445   0.000173   0.000006  -0.000002
    11  H    0.374853  -0.038083  -0.003653   0.001896  -0.000609   0.000293
    12  H    0.378954  -0.027480  -0.006952  -0.000135   0.000013   0.000282
    13  H   -0.039322   0.371897  -0.025725  -0.002896   0.000262  -0.000203
    14  H   -0.032683   0.363487  -0.020853   0.002891  -0.000333   0.000223
    15  H    0.005261  -0.032155   0.350908  -0.033785   0.000384   0.003475
    16  H    0.003571  -0.006254  -0.050612   0.342127  -0.045016   0.000323
    17  H    0.000009  -0.000248   0.005355  -0.017301   0.361659  -0.018809
    18  H    0.000003  -0.000059   0.000354  -0.026759   0.359139  -0.035313
    19  H    0.000369  -0.000466   0.008764   0.002385  -0.036293   0.346887
    20  H    0.000003  -0.000019   0.002004  -0.000183  -0.002838  -0.064381
    21  H   -0.000001   0.000004   0.001005  -0.000307   0.006256  -0.061620
               7          8          9         10         11         12
     1  C    0.000010  -0.012012  -0.006866   0.374774   0.374853   0.378954
     2  C   -0.000064  -0.001184  -0.001200  -0.023863  -0.038083  -0.027480
     3  C    0.006582   0.285747  -0.068796   0.003445  -0.003653  -0.006952
     4  N    0.001785  -0.055448   0.003084   0.000173   0.001896  -0.000135
     5  C   -0.015306  -0.050832   0.002155   0.000006  -0.000609   0.000013
     6  C    0.365499   0.355066  -0.059658  -0.000002   0.000293   0.000282
     7  N    6.545772  -0.041206  -0.011604   0.000000   0.000006   0.000019
     8  C   -0.041206   4.453561   0.736982   0.000116  -0.000773   0.008011
     9  O   -0.011604   0.736982   7.747200   0.000140   0.000213   0.008373
    10  H    0.000000   0.000116   0.000140   0.592658  -0.029324  -0.028653
    11  H    0.000006  -0.000773   0.000213  -0.029324   0.615999  -0.032234
    12  H    0.000019   0.008011   0.008373  -0.028653  -0.032234   0.548856
    13  H    0.000001   0.003251   0.000029  -0.002889  -0.004004   0.005112
    14  H   -0.000001  -0.001428   0.002726  -0.002007   0.005744  -0.004501
    15  H   -0.000175  -0.048121   0.001288  -0.000143   0.000094   0.000217
    16  H   -0.000030  -0.002956   0.000122  -0.000210   0.006902   0.000069
    17  H    0.001576   0.003089  -0.000058  -0.000001   0.000013   0.000002
    18  H   -0.003278  -0.007564   0.000124   0.000000   0.000012   0.000001
    19  H   -0.017375  -0.035602  -0.001587  -0.000005   0.000287  -0.000049
    20  H    0.339731  -0.001425   0.000550  -0.000000   0.000000  -0.000000
    21  H    0.334633   0.004248   0.010569  -0.000000  -0.000001  -0.000001
              13         14         15         16         17         18
     1  C   -0.039322  -0.032683   0.005261   0.003571   0.000009   0.000003
     2  C    0.371897   0.363487  -0.032155  -0.006254  -0.000248  -0.000059
     3  C   -0.025725  -0.020853   0.350908  -0.050612   0.005355   0.000354
     4  N   -0.002896   0.002891  -0.033785   0.342127  -0.017301  -0.026759
     5  C    0.000262  -0.000333   0.000384  -0.045016   0.361659   0.359139
     6  C   -0.000203   0.000223   0.003475   0.000323  -0.018809  -0.035313
     7  N    0.000001  -0.000001  -0.000175  -0.000030   0.001576  -0.003278
     8  C    0.003251  -0.001428  -0.048121  -0.002956   0.003089  -0.007564
     9  O    0.000029   0.002726   0.001288   0.000122  -0.000058   0.000124
    10  H   -0.002889  -0.002007  -0.000143  -0.000210  -0.000001   0.000000
    11  H   -0.004004   0.005744   0.000094   0.006902   0.000013   0.000012
    12  H    0.005112  -0.004501   0.000217   0.000069   0.000002   0.000001
    13  H    0.622169  -0.037491  -0.001735   0.000091   0.000002  -0.000020
    14  H   -0.037491   0.612009  -0.004371   0.000060   0.000004   0.000008
    15  H   -0.001735  -0.004371   0.643618   0.006732  -0.000120   0.003690
    16  H    0.000091   0.000060   0.006732   0.523180  -0.006988   0.005993
    17  H    0.000002   0.000004  -0.000120  -0.006988   0.604735  -0.037273
    18  H   -0.000020   0.000008   0.003690   0.005993  -0.037273   0.620610
    19  H    0.000013   0.000001   0.000088   0.000923  -0.007856   0.005166
    20  H    0.000000  -0.000001   0.000309   0.000018  -0.000196   0.005619
    21  H    0.000000  -0.000001  -0.000083   0.000003  -0.000209  -0.000295
              19         20         21
     1  C    0.000369   0.000003  -0.000001
     2  C   -0.000466  -0.000019   0.000004
     3  C    0.008764   0.002004   0.001005
     4  N    0.002385  -0.000183  -0.000307
     5  C   -0.036293  -0.002838   0.006256
     6  C    0.346887  -0.064381  -0.061620
     7  N   -0.017375   0.339731   0.334633
     8  C   -0.035602  -0.001425   0.004248
     9  O   -0.001587   0.000550   0.010569
    10  H   -0.000005  -0.000000  -0.000000
    11  H    0.000287   0.000000  -0.000001
    12  H   -0.000049  -0.000000  -0.000001
    13  H    0.000013   0.000000   0.000000
    14  H    0.000001  -0.000001  -0.000001
    15  H    0.000088   0.000309  -0.000083
    16  H    0.000923   0.000018   0.000003
    17  H   -0.007856  -0.000196  -0.000209
    18  H    0.005166   0.005619  -0.000295
    19  H    0.622229   0.006657  -0.001766
    20  H    0.006657   0.516405  -0.028930
    21  H   -0.001766  -0.028930   0.494986
 Mulliken charges:
               1
     1  C   -0.394809
     2  C   -0.201690
     3  C   -0.079176
     4  N   -0.313953
     5  C   -0.181936
     6  C   -0.087230
     7  N   -0.506573
     8  C    0.408477
     9  O   -0.363786
    10  H    0.115784
    11  H    0.102369
    12  H    0.150097
    13  H    0.111459
    14  H    0.116516
    15  H    0.104626
    16  H    0.221952
    17  H    0.112615
    18  H    0.109843
    19  H    0.107229
    20  H    0.226678
    21  H    0.241510
 Sum of Mulliken charges =  -0.00000
 Mulliken charges with hydrogens summed into heavy atoms:
               1
     1  C   -0.026559
     2  C    0.026285
     3  C    0.025450
     4  N   -0.092001
     5  C    0.040522
     6  C    0.019999
     7  N   -0.038385
     8  C    0.408477
     9  O   -0.363786
 Electronic spatial extent (au):  <R**2>=           1226.9055
 Charge=             -0.0000 electrons
 Dipole moment (field-independent basis, Debye):
    X=             -0.6606    Y=              1.0423    Z=              0.3078  Tot=              1.2719
 Quadrupole moment (field-independent basis, Debye-Ang):
   XX=            -56.4761   YY=            -61.3759   ZZ=            -51.2471
   XY=             -1.0384   XZ=             -2.2531   YZ=              1.5684
 Traceless Quadrupole moment (field-independent basis, Debye-Ang):
   XX=             -0.1098   YY=             -5.0095   ZZ=              5.1193
   XY=             -1.0384   XZ=             -2.2531   YZ=              1.5684
 Octapole moment (field-independent basis, Debye-Ang**2):
  XXX=            -21.9993  YYY=             -4.3554  ZZZ=             -2.5710  XYY=              8.4387
  XXY=             -6.6494  XXZ=             -9.0207  XZZ=              5.7643  YZZ=             -0.7108
  YYZ=              7.4498  XYZ=             -0.5234
 Hexadecapole moment (field-independent basis, Debye-Ang**3):
 XXXX=          -1057.9611 YYYY=           -466.4158 ZZZZ=           -175.7639 XXXY=            -15.8639
 XXXZ=            -24.2267 YYYX=             -9.3481 YYYZ=             10.2270 ZZZX=              0.2545
 ZZZY=              5.1679 XXYY=           -213.9597 XXZZ=           -186.3630 YYZZ=            -98.0423
 XXYZ=              3.3761 YYXZ=             -1.1275 ZZXY=             -2.6646
 N-N= 4.844959081202D+02 E-N=-1.948219693807D+03  KE= 4.174297877751D+02
 PrsmSu:  requested number of processors reduced to:  13 ShMem   1 Linda.
 Calling FoFJK, ICntrl=      2127 FMM=F ISym2X=0 I1Cent= 0 IOpClX= 0 NMat=1 NMatS=1 NMatT=0.
 ***** Axes restored to original set *****
 -------------------------------------------------------------------
 Center     Atomic                   Forces (Hartrees/Bohr)
 Number     Number              X              Y              Z
 -------------------------------------------------------------------
      1        6          -0.005199996   -0.003846387    0.001317083
      2        6           0.002633678   -0.008975792   -0.002193927
      3        6          -0.005431582    0.009782756   -0.007877676
      4        7           0.000430284    0.000049700    0.002734431
      5        6          -0.004720689    0.015729955   -0.006365522
      6        6           0.015045141   -0.002107192    0.001899959
      7        7          -0.006331650    0.000741310    0.005170791
      8        6          -0.015277135   -0.044613429    0.016628345
      9        8           0.011294159    0.022658678   -0.012751272
     10        1          -0.000457645    0.001910843   -0.002727521
     11        1          -0.002932347    0.000445238   -0.002311187
     12        1           0.000982484    0.001166569   -0.001033610
     13        1           0.002372771    0.001859158    0.002839721
     14        1          -0.000179569    0.001816988    0.000984481
     15        1           0.002407065   -0.000418884   -0.000810997
     16        1           0.002927175   -0.002201920    0.002663385
     17        1           0.003764741   -0.000740054   -0.001539559
     18        1          -0.000122460   -0.001454923    0.002821134
     19        1           0.000095356    0.001763064    0.004116566
     20        1          -0.002891946    0.002765315   -0.001508162
     21        1           0.001592167    0.003669006   -0.002056462
 -------------------------------------------------------------------
 Cartesian Forces:  Max     0.044613429 RMS     0.008366438

 GradGradGradGradGradGradGradGradGradGradGradGradGradGradGradGradGradGrad
 Berny optimization.
 FormGI is forming the generalized inverse of G from B-inverse, IUseBI=4.
 Internal  Forces:  Max     0.028258096 RMS     0.004166602
 Search for a local minimum.
 Step number   1 out of a maximum of  126
 All quantities printed in internal units (Hartrees-Bohrs-Radians)
 Mixed Optimization -- RFO/linear search
 Second derivative matrix not updated -- first step.
 ITU=  0
     Eigenvalues ---    0.00405   0.00447   0.00497   0.00567   0.00755
     Eigenvalues ---    0.00798   0.02942   0.03264   0.03490   0.04458
     Eigenvalues ---    0.04485   0.04670   0.04852   0.04912   0.05496
     Eigenvalues ---    0.05506   0.05622   0.05742   0.06812   0.07094
     Eigenvalues ---    0.07516   0.08515   0.08823   0.10285   0.12329
     Eigenvalues ---    0.12988   0.14291   0.16000   0.16000   0.16000
     Eigenvalues ---    0.16000   0.16000   0.20173   0.20309   0.21910
     Eigenvalues ---    0.24993   0.27252   0.29557   0.29673   0.29974
     Eigenvalues ---    0.30331   0.33109   0.33916   0.33980   0.33991
     Eigenvalues ---    0.34029   0.34078   0.34143   0.34163   0.34324
     Eigenvalues ---    0.34440   0.34542   0.36035   0.43620   0.43894
     Eigenvalues ---    0.44304   0.91086
 RFO step:  Lambda=-9.68456430D-03 EMin= 4.04610316D-03
 Linear search not attempted -- first point.
 Iteration  1 RMS(Cart)=  0.08885772 RMS(Int)=  0.00207344
 Iteration  2 RMS(Cart)=  0.00301413 RMS(Int)=  0.00052011
 Iteration  3 RMS(Cart)=  0.00000413 RMS(Int)=  0.00052010
 Iteration  4 RMS(Cart)=  0.00000000 RMS(Int)=  0.00052010
 Variable       Old X    -DE/DX   Delta X   Delta X   Delta X     New X
                                 (Linear)    (Quad)   (Total)
    R1        2.88015   0.00791   0.00000   0.02555   0.02555   2.90570
    R2        2.06425   0.00088   0.00000   0.00247   0.00247   2.06672
    R3        2.06594   0.00196   0.00000   0.00553   0.00553   2.07147
    R4        2.06787  -0.00166   0.00000  -0.00470  -0.00470   2.06317
    R5        2.88621   0.00671   0.00000   0.02191   0.02191   2.90812
    R6        2.07472  -0.00122   0.00000  -0.00348  -0.00348   2.07124
    R7        2.07345  -0.00150   0.00000  -0.00430  -0.00430   2.06915
    R8        2.79993  -0.00035   0.00000   0.00072   0.00078   2.80071
    R9        2.87487   0.00694   0.00000   0.02001   0.02018   2.89505
   R10        2.07281   0.00218   0.00000   0.00622   0.00622   2.07904
   R11        2.78639  -0.00037   0.00000   0.00079   0.00021   2.78660
   R12        1.92793  -0.00418   0.00000  -0.00923  -0.00923   1.91870
   R13        2.89932   0.00577   0.00000   0.02027   0.02034   2.91966
   R14        2.07090  -0.00194   0.00000  -0.00552  -0.00552   2.06538
   R15        2.07198   0.00064   0.00000   0.00183   0.00183   2.07381
   R16        2.77328  -0.00012   0.00000  -0.00034  -0.00034   2.77294
   R17        2.85048   0.01697   0.00000   0.04964   0.04990   2.90039
   R18        2.07056  -0.00012   0.00000  -0.00034  -0.00034   2.07022
   R19        1.93281  -0.00372   0.00000  -0.00830  -0.00830   1.92451
   R20        1.93612  -0.00437   0.00000  -0.00980  -0.00980   1.92632
   R21        2.32437  -0.02826   0.00000  -0.03070  -0.03070   2.29367
    A1        1.93165  -0.00033   0.00000  -0.00448  -0.00446   1.92719
    A2        1.94190   0.00324   0.00000   0.01633   0.01631   1.95820
    A3        1.94214  -0.00057   0.00000   0.00194   0.00189   1.94404
    A4        1.89866  -0.00290   0.00000  -0.02706  -0.02701   1.87164
    A5        1.86297   0.00120   0.00000   0.01248   0.01248   1.87545
    A6        1.88390  -0.00081   0.00000  -0.00004  -0.00013   1.88377
    A7        1.98042   0.01029   0.00000   0.04720   0.04713   2.02755
    A8        1.90765  -0.00158   0.00000  -0.00432  -0.00359   1.90407
    A9        1.90029  -0.00184   0.00000   0.01056   0.01029   1.91058
   A10        1.91443  -0.00604   0.00000  -0.04708  -0.04710   1.86733
   A11        1.90420  -0.00332   0.00000  -0.01003  -0.01101   1.89320
   A12        1.85242   0.00201   0.00000   0.00114   0.00065   1.85306
   A13        1.96949   0.00019   0.00000   0.01419   0.01214   1.98163
   A14        1.97867   0.00347   0.00000   0.04118   0.04071   2.01938
   A15        1.92686  -0.00192   0.00000  -0.03153  -0.03107   1.89579
   A16        1.81043   0.00113   0.00000   0.02131   0.02050   1.83093
   A17        1.89242  -0.00105   0.00000  -0.02027  -0.01980   1.87262
   A18        1.87972  -0.00187   0.00000  -0.02561  -0.02538   1.85435
   A19        1.83501   0.00710   0.00000   0.02966   0.02975   1.86476
   A20        1.91522  -0.00318   0.00000  -0.02224  -0.02198   1.89324
   A21        1.90690  -0.00068   0.00000  -0.00233  -0.00254   1.90436
   A22        1.88466  -0.00264   0.00000  -0.01616  -0.01660   1.86806
   A23        1.93103  -0.00080   0.00000   0.00041   0.00060   1.93163
   A24        1.90046   0.00234   0.00000   0.00612   0.00535   1.90581
   A25        1.93523   0.00468   0.00000   0.04378   0.04380   1.97903
   A26        1.94597  -0.00301   0.00000  -0.03408  -0.03385   1.91213
   A27        1.86670  -0.00057   0.00000  -0.00037  -0.00004   1.86667
   A28        1.98994  -0.00181   0.00000   0.00079  -0.00227   1.98767
   A29        1.76376   0.00225   0.00000   0.03087   0.03019   1.79395
   A30        1.93526   0.00064   0.00000  -0.01010  -0.01065   1.92461
   A31        1.91866   0.00578   0.00000   0.06212   0.06176   1.98043
   A32        1.94577  -0.00392   0.00000  -0.06387  -0.06383   1.88194
   A33        1.90075  -0.00223   0.00000  -0.00860  -0.00778   1.89297
   A34        1.89523  -0.00129   0.00000  -0.00429  -0.00430   1.89093
   A35        1.87376   0.00079   0.00000   0.00806   0.00805   1.88181
   A36        1.81529   0.00118   0.00000   0.01503   0.01501   1.83030
   A37        1.93272  -0.00565   0.00000  -0.03551  -0.03495   1.89777
   A38        2.19026   0.00222   0.00000   0.01519   0.01464   2.20490
   A39        2.16007   0.00343   0.00000   0.01973   0.01908   2.17915
    D1        3.10512  -0.00204   0.00000  -0.04095  -0.04111   3.06402
    D2        0.96243  -0.00022   0.00000  -0.00971  -0.00982   0.95261
    D3       -1.05392  -0.00073   0.00000  -0.01453  -0.01430  -1.06822
    D4        0.99194  -0.00033   0.00000  -0.01463  -0.01474   0.97721
    D5       -1.15075   0.00150   0.00000   0.01661   0.01655  -1.13420
    D6        3.11609   0.00098   0.00000   0.01179   0.01207   3.12816
    D7       -1.10965  -0.00112   0.00000  -0.02701  -0.02717  -1.13682
    D8        3.03085   0.00070   0.00000   0.00423   0.00411   3.03496
    D9        1.01449   0.00019   0.00000  -0.00059  -0.00037   1.01413
   D10       -1.33472  -0.00074   0.00000   0.05146   0.05139  -1.28332
   D11        0.71700   0.00329   0.00000   0.11795   0.11853   0.83553
   D12        2.82773   0.00188   0.00000   0.09049   0.09047   2.91820
   D13        0.80423  -0.00006   0.00000   0.04397   0.04336   0.84758
   D14        2.85595   0.00397   0.00000   0.11046   0.11049   2.96644
   D15       -1.31651   0.00256   0.00000   0.08300   0.08243  -1.23408
   D16        2.82651  -0.00290   0.00000   0.01338   0.01338   2.83989
   D17       -1.40496   0.00112   0.00000   0.07987   0.08051  -1.32444
   D18        0.70577  -0.00029   0.00000   0.05241   0.05245   0.75822
   D19        2.66583   0.00403   0.00000   0.04085   0.04035   2.70618
   D20        0.61699   0.00252   0.00000   0.03834   0.03833   0.65533
   D21        0.51744  -0.00107   0.00000  -0.03170  -0.03242   0.48502
   D22       -1.53140  -0.00258   0.00000  -0.03420  -0.03443  -1.56583
   D23       -1.47725   0.00096   0.00000  -0.00431  -0.00491  -1.48216
   D24        2.75711  -0.00055   0.00000  -0.00682  -0.00693   2.75018
   D25       -2.39616  -0.00055   0.00000  -0.02727  -0.02802  -2.42419
   D26        0.76279  -0.00042   0.00000   0.00961   0.00893   0.77172
   D27       -0.25382   0.00241   0.00000   0.02787   0.02749  -0.22633
   D28        2.90513   0.00254   0.00000   0.06475   0.06444   2.96957
   D29        1.74992   0.00097   0.00000   0.00420   0.00384   1.75377
   D30       -1.37431   0.00109   0.00000   0.04109   0.04079  -1.33351
   D31       -0.61346   0.00255   0.00000   0.04673   0.04631  -0.56714
   D32       -2.73426  -0.00103   0.00000   0.00293   0.00269  -2.73157
   D33        1.50214  -0.00129   0.00000  -0.00053  -0.00084   1.50129
   D34        1.44103   0.00231   0.00000   0.03556   0.03535   1.47638
   D35       -0.67978  -0.00127   0.00000  -0.00824  -0.00827  -0.68805
   D36       -2.72657  -0.00152   0.00000  -0.01169  -0.01181  -2.73838
   D37        2.48874   0.00434   0.00000   0.06351   0.06354   2.55228
   D38        0.43169  -0.00306   0.00000  -0.02928  -0.02915   0.40254
   D39       -1.58125  -0.00192   0.00000  -0.03134  -0.03143  -1.61269
   D40       -1.67625   0.00452   0.00000   0.08042   0.08042  -1.59582
   D41        2.54989  -0.00288   0.00000  -0.01236  -0.01227   2.53762
   D42        0.53695  -0.00174   0.00000  -0.01442  -0.01455   0.52239
   D43        0.40168   0.00493   0.00000   0.08662   0.08627   0.48795
   D44       -1.65536  -0.00246   0.00000  -0.00616  -0.00642  -1.66179
   D45        2.61488  -0.00133   0.00000  -0.00822  -0.00871   2.60617
   D46       -1.03709  -0.00229   0.00000  -0.02453  -0.02429  -1.06139
   D47       -2.98981  -0.00342   0.00000  -0.04381  -0.04358  -3.03339
   D48        0.92878   0.00311   0.00000   0.05353   0.05428   0.98306
   D49       -1.02394   0.00198   0.00000   0.03425   0.03499  -0.98895
   D50        3.03837   0.00163   0.00000   0.04263   0.04166   3.08003
   D51        1.08565   0.00050   0.00000   0.02335   0.02237   1.10803
   D52       -0.10139   0.00006   0.00000  -0.00211  -0.00173  -0.10312
   D53        3.02320  -0.00008   0.00000  -0.03827  -0.03805   2.98515
   D54       -2.20964  -0.00164   0.00000  -0.04719  -0.04806  -2.25770
   D55        0.91495  -0.00177   0.00000  -0.08336  -0.08437   0.83058
   D56        1.93708   0.00099   0.00000  -0.00197  -0.00230   1.93478
   D57       -1.22152   0.00085   0.00000  -0.03813  -0.03861  -1.26013
         Item               Value     Threshold  Converged?
 Maximum Force            0.028258     0.000450     NO 
 RMS     Force            0.004167     0.000300     NO 
 Maximum Displacement     0.345150     0.001800     NO 
 RMS     Displacement     0.088722     0.001200     NO 
 Predicted change in Energy=-5.590946D-03
 GradGradGradGradGradGradGradGradGradGradGradGradGradGradGradGradGradGrad

                          Input orientation:                          
 ---------------------------------------------------------------------
 Center     Atomic      Atomic             Coordinates (Angstroms)
 Number     Number       Type             X           Y           Z
 ---------------------------------------------------------------------
      1          6           0        0.921402    0.027538   -0.292999
      2          6           0        2.441169    0.069594   -0.063113
      3          6           0        2.939677    1.065694    0.998736
      4          7           0        2.881577    2.479417    0.557652
      5          6           0        2.786379    3.303750    1.776614
      6          6           0        1.992069    2.483010    2.817064
      7          7           0        2.423055    2.703488    4.202283
      8          6           0        2.193701    1.039351    2.336584
      9          8           0        1.864099    0.049427    2.956761
     10          1           0        0.678645   -0.650060   -1.116423
     11          1           0        0.514286    1.011910   -0.551583
     12          1           0        0.394530   -0.331925    0.593104
     13          1           0        2.939148    0.329009   -1.004417
     14          1           0        2.797512   -0.930450    0.204920
     15          1           0        3.991227    0.837623    1.228125
     16          1           0        2.041505    2.608927    0.002311
     17          1           0        2.334702    4.273415    1.552392
     18          1           0        3.796133    3.501659    2.158114
     19          1           0        0.924987    2.723226    2.755553
     20          1           0        3.399790    2.426379    4.281988
     21          1           0        1.915805    2.047359    4.794985
 ---------------------------------------------------------------------
                    Distance matrix (angstroms):
                    1          2          3          4          5
     1  C    0.000000
     2  C    1.537631   0.000000
     3  C    2.611471   1.538911   0.000000
     4  N    3.252322   2.527163   1.482073   0.000000
     5  C    4.300581   3.736780   2.374339   1.474604   0.000000
     6  C    4.104651   3.784400   2.492601   2.428204   1.545017
     7  N    5.442722   5.013115   3.634829   3.680188   2.525111
     8  C    3.091475   2.600041   1.531996   2.389887   2.406727
     9  O    3.383800   3.074582   2.454289   3.563122   3.582452
    10  H    1.093662   2.175742   3.539770   4.177207   5.333368
    11  H    1.096174   2.199873   2.879046   2.998006   3.979376
    12  H    1.091782   2.186451   2.931834   3.753704   4.509963
    13  H    2.160625   1.096054   2.134322   2.658501   4.075114
    14  H    2.164592   1.094948   2.152893   3.429093   4.516502
    15  H    3.520495   2.158667   1.100179   2.091971   2.798978
    16  H    2.829383   2.571425   2.044784   1.015331   2.045915
    17  H    4.840491   4.504809   3.310892   2.122972   1.092950
    18  H    5.132402   4.306837   2.830477   2.107812   1.097412
    19  H    4.069448   4.157576   3.145281   2.952702   2.181767
    20  H    5.729516   5.035205   3.583701   3.760590   2.724510
    21  H    5.563820   5.271496   4.052590   4.367422   3.383339
                    6          7          8          9         10
     6  C    0.000000
     7  N    1.467376   0.000000
     8  C    1.534818   2.510535   0.000000
     9  O    2.440946   2.984593   1.213757   0.000000
    10  H    5.197453   6.525172   4.131919   4.299466   0.000000
    11  H    3.961787   5.394819   3.341062   3.880316   1.763009
    12  H    3.927083   5.133694   2.856069   2.809259   1.761935
    13  H    4.487805   5.745801   3.496079   4.113980   2.465967
    14  H    4.373070   5.415222   2.964573   3.066603   2.512800
    15  H    3.037870   3.845287   2.121432   2.852036   4.322419
    16  H    2.818002   4.218327   2.817013   3.912965   3.705394
    17  H    2.218636   3.081299   3.330768   4.476137   5.840009
    18  H    2.174053   2.588638   2.943230   4.035902   6.138248
    19  H    1.095514   2.082697   2.149559   2.841059   5.141199
    20  H    2.032459   1.018408   2.676396   3.124816   6.783210
    21  H    2.026766   1.019364   2.671524   2.715414   6.614482
                   11         12         13         14         15
    11  H    0.000000
    12  H    1.769334   0.000000
    13  H    2.559564   3.076360   0.000000
    14  H    3.091631   2.506640   1.751797   0.000000
    15  H    3.909841   3.835012   2.519882   2.366006   0.000000
    16  H    2.278082   3.422013   2.649017   3.624885   2.905435
    17  H    4.286961   5.088581   4.739301   5.395377   3.828040
    18  H    4.930702   5.358780   4.560892   4.945281   2.828433
    19  H    3.746254   3.780412   4.891471   4.833366   3.910289
    20  H    5.804332   5.499790   5.705895   5.315404   3.492853
    21  H    5.623362   5.062714   6.134576   5.541972   4.300387
                   16         17         18         19         20
    16  H    0.000000
    17  H    2.293302   0.000000
    18  H    2.919448   1.760195   0.000000
    19  H    2.973217   2.416191   3.034199   0.000000
    20  H    4.493762   3.463619   2.413329   2.922802   0.000000
    21  H    4.827099   3.955403   3.550170   2.365967   1.615250
                   21
    21  H    0.000000
 Stoichiometry    C6H12N2O
 Framework group  C1[X(C6H12N2O)]
 Deg. of freedom    57
 Full point group                 C1      NOp   1
 Largest Abelian subgroup         C1      NOp   1
 Largest concise Abelian subgroup C1      NOp   1
                         Standard orientation:                         
 ---------------------------------------------------------------------
 Center     Atomic      Atomic             Coordinates (Angstroms)
 Number     Number       Type             X           Y           Z
 ---------------------------------------------------------------------
      1          6           0       -2.612844   -0.340713    0.870599
      2          6           0       -2.168293    0.052433   -0.547893
      3          6           0       -0.666210    0.329094   -0.736186
      4          7           0       -0.223156    1.615703   -0.148922
      5          6           0        1.215555    1.478745    0.144012
      6          6           0        1.462426    0.000227    0.518333
      7          7           0        2.771640   -0.509306    0.094628
      8          6           0        0.281657   -0.720259   -0.146763
      9          8           0        0.165047   -1.925155   -0.235279
     10          1           0       -3.701216   -0.438010    0.916165
     11          1           0       -2.321970    0.406717    1.617818
     12          1           0       -2.185489   -1.299636    1.170298
     13          1           0       -2.701768    0.960272   -0.852141
     14          1           0       -2.468362   -0.728754   -1.254020
     15          1           0       -0.448838    0.369435   -1.813922
     16          1           0       -0.726832    1.763038    0.720273
     17          1           0        1.518828    2.180531    0.925077
     18          1           0        1.792407    1.731398   -0.754721
     19          1           0        1.384906   -0.134818    1.602724
     20          1           0        2.828766   -0.441808   -0.919933
     21          1           0        2.796067   -1.509071    0.292054
 ---------------------------------------------------------------------
 Rotational constants (GHZ):           2.6338779           1.2680717           0.9908155
 Standard basis: 6-31G(2df,p) (6D, 7F)
 There are   339 symmetry adapted cartesian basis functions of A   symmetry.
 There are   312 symmetry adapted basis functions of A   symmetry.
   312 basis functions,   480 primitive gaussians,   339 cartesian basis functions
    35 alpha electrons       35 beta electrons
       nuclear repulsion energy       478.8500868560 Hartrees.
 NAtoms=   21 NActive=   21 NUniq=   21 SFac= 1.00D+00 NAtFMM=   60 NAOKFM=F Big=F
 Integral buffers will be    131072 words long.
 Raffenetti 2 integral format.
 Two-electron integral symmetry is turned on.
 One-electron integrals computed using PRISM.
 PrsmSu:  requested number of processors reduced to:  13 ShMem   1 Linda.
 NBasis=   312 RedAO= T EigKep=  3.47D-04  NBF=   312
 NBsUse=   312 1.00D-06 EigRej= -1.00D+00 NBFU=   312
 Initial guess from the checkpoint file:  "CCC1NCCpNpC1dO.chk"
 B after Tr=    -0.000000    0.000000    0.000000
         Rot=    0.999773    0.019651    0.006550   -0.004981 Ang=   2.44 deg.
 ExpMin= 1.61D-01 ExpMax= 5.48D+03 ExpMxC= 8.25D+02 IAcc=2 IRadAn=         4 AccDes= 0.00D+00
 Harris functional with IExCor=  402 and IRadAn=       4 diagonalized for initial guess.
 HarFok:  IExCor=  402 AccDes= 0.00D+00 IRadAn=         4 IDoV= 1 UseB2=F ITyADJ=14
 ICtDFT=  3500011 ScaDFX=  1.000000  1.000000  1.000000  1.000000
 FoFCou: FMM=F IPFlag=           0 FMFlag=      100000 FMFlg1=           0
         NFxFlg=           0 DoJE=T BraDBF=F KetDBF=T FulRan=T
         wScrn=  0.000000 ICntrl=       500 IOpCl=  0 I1Cent=   200000004 NGrid=           0
         NMat0=    1 NMatS0=      1 NMatT0=    0 NMatD0=    1 NMtDS0=    0 NMtDT0=    0
 Petite list used in FoFCou.
 Requested convergence on RMS density matrix=1.00D-08 within 128 cycles.
 Requested convergence on MAX density matrix=1.00D-06.
 Requested convergence on             energy=1.00D-06.
 No special actions if energy rises.
 Integral accuracy reduced to 1.0D-05 until final iterations.
 Initial convergence to 1.0D-05 achieved.  Increase integral accuracy.
 SCF Done:  E(RB3LYP) =  -420.603228020     A.U. after   13 cycles
            NFock= 13  Conv=0.16D-08     -V/T= 2.0078
 PrsmSu:  requested number of processors reduced to:  13 ShMem   1 Linda.
 Calling FoFJK, ICntrl=      2127 FMM=F ISym2X=0 I1Cent= 0 IOpClX= 0 NMat=1 NMatS=1 NMatT=0.
 ***** Axes restored to original set *****
 -------------------------------------------------------------------
 Center     Atomic                   Forces (Hartrees/Bohr)
 Number     Number              X              Y              Z
 -------------------------------------------------------------------
      1        6           0.001794066    0.001079341    0.001888592
      2        6           0.001289784   -0.000226893   -0.001460276
      3        6          -0.004845047    0.005996434   -0.004298097
      4        7          -0.000461958   -0.002557540   -0.000307546
      5        6          -0.001579079   -0.001613310   -0.000068974
      6        6           0.004862743    0.003340864    0.003084998
      7        7          -0.002404525   -0.000968738   -0.001717082
      8        6          -0.001597591   -0.012851493    0.005274583
      9        8           0.002230338    0.008129472   -0.004858536
     10        1           0.000646436    0.000372509   -0.000446575
     11        1          -0.000099384   -0.000106359   -0.000358145
     12        1          -0.000159995    0.000221398    0.001457813
     13        1           0.001151809    0.000004186    0.000175219
     14        1          -0.001175366    0.000482914    0.001428044
     15        1           0.000754146   -0.001390701   -0.000170472
     16        1          -0.000314321    0.000365499    0.000016545
     17        1           0.000218378   -0.001075897    0.000135570
     18        1           0.000716278   -0.000443351    0.000684453
     19        1          -0.001491430   -0.000244074   -0.000895653
     20        1           0.000269075    0.000784092    0.000490100
     21        1           0.000195641    0.000701646   -0.000054560
 -------------------------------------------------------------------
 Cartesian Forces:  Max     0.012851493 RMS     0.002712930

 GradGradGradGradGradGradGradGradGradGradGradGradGradGradGradGradGradGrad
 Berny optimization.
 Using GEDIIS/GDIIS optimizer.
 FormGI is forming the generalized inverse of G from B-inverse, IUseBI=4.
 Internal  Forces:  Max     0.009718342 RMS     0.001345262
 Search for a local minimum.
 Step number   2 out of a maximum of  126
 All quantities printed in internal units (Hartrees-Bohrs-Radians)
 Mixed Optimization -- RFO/linear search
 Update second derivatives using D2CorX and points    1    2
 DE= -4.94D-03 DEPred=-5.59D-03 R= 8.84D-01
 TightC=F SS=  1.41D+00  RLast= 3.85D-01 DXNew= 5.0454D-01 1.1552D+00
 Trust test= 8.84D-01 RLast= 3.85D-01 DXMaxT set to 5.05D-01
 ITU=  1  0
 Use linear search instead of GDIIS.
     Eigenvalues ---    0.00414   0.00449   0.00489   0.00591   0.00733
     Eigenvalues ---    0.00799   0.02873   0.03097   0.03342   0.04288
     Eigenvalues ---    0.04608   0.04747   0.04840   0.04923   0.05120
     Eigenvalues ---    0.05421   0.05601   0.05782   0.06665   0.07013
     Eigenvalues ---    0.07671   0.08709   0.08873   0.10348   0.12621
     Eigenvalues ---    0.13264   0.15111   0.15919   0.16000   0.16000
     Eigenvalues ---    0.16000   0.16093   0.20677   0.20772   0.23395
     Eigenvalues ---    0.24943   0.27384   0.28237   0.29855   0.30015
     Eigenvalues ---    0.31241   0.33661   0.33923   0.33952   0.34003
     Eigenvalues ---    0.34054   0.34095   0.34137   0.34241   0.34423
     Eigenvalues ---    0.34536   0.34791   0.36178   0.43558   0.43903
     Eigenvalues ---    0.44338   0.85629
 RFO step:  Lambda=-1.73598031D-03 EMin= 4.14128786D-03
 Quartic linear search produced a step of  0.08179.
 Iteration  1 RMS(Cart)=  0.05689655 RMS(Int)=  0.00155925
 Iteration  2 RMS(Cart)=  0.00229312 RMS(Int)=  0.00021299
 Iteration  3 RMS(Cart)=  0.00000278 RMS(Int)=  0.00021298
 Iteration  4 RMS(Cart)=  0.00000000 RMS(Int)=  0.00021298
 Variable       Old X    -DE/DX   Delta X   Delta X   Delta X     New X
                                 (Linear)    (Quad)   (Total)
    R1        2.90570  -0.00258   0.00209  -0.00820  -0.00611   2.89959
    R2        2.06672  -0.00004   0.00020  -0.00003   0.00018   2.06690
    R3        2.07147   0.00003   0.00045   0.00029   0.00074   2.07221
    R4        2.06317   0.00119  -0.00038   0.00351   0.00312   2.06629
    R5        2.90812  -0.00415   0.00179  -0.01406  -0.01227   2.89585
    R6        2.07124   0.00037  -0.00028   0.00104   0.00076   2.07200
    R7        2.06915  -0.00047  -0.00035  -0.00164  -0.00200   2.06716
    R8        2.80071  -0.00353   0.00006  -0.00990  -0.00984   2.79087
    R9        2.89505   0.00083   0.00165   0.00442   0.00614   2.90119
   R10        2.07904   0.00097   0.00051   0.00328   0.00379   2.08282
   R11        2.78660  -0.00034   0.00002  -0.00104  -0.00109   2.78550
   R12        1.91870   0.00030  -0.00076   0.00037  -0.00039   1.91831
   R13        2.91966  -0.00152   0.00166  -0.00602  -0.00440   2.91526
   R14        2.06538  -0.00107  -0.00045  -0.00355  -0.00400   2.06137
   R15        2.07381   0.00082   0.00015   0.00262   0.00277   2.07658
   R16        2.77294  -0.00170  -0.00003  -0.00504  -0.00507   2.76787
   R17        2.90039   0.00208   0.00408   0.00823   0.01235   2.91274
   R18        2.07022   0.00145  -0.00003   0.00450   0.00448   2.07470
   R19        1.92451   0.00008  -0.00068  -0.00011  -0.00079   1.92372
   R20        1.92632  -0.00058  -0.00080  -0.00178  -0.00258   1.92373
   R21        2.29367  -0.00972  -0.00251  -0.01254  -0.01505   2.27862
    A1        1.92719  -0.00076  -0.00036  -0.00513  -0.00549   1.92170
    A2        1.95820   0.00036   0.00133   0.00158   0.00291   1.96111
    A3        1.94404  -0.00055   0.00015  -0.00233  -0.00217   1.94187
    A4        1.87164  -0.00003  -0.00221  -0.00365  -0.00586   1.86578
    A5        1.87545   0.00097   0.00102   0.00954   0.01056   1.88601
    A6        1.88377   0.00009  -0.00001   0.00041   0.00040   1.88417
    A7        2.02755  -0.00420   0.00385  -0.02202  -0.01827   2.00928
    A8        1.90407   0.00186  -0.00029   0.01830   0.01809   1.92216
    A9        1.91058   0.00106   0.00084  -0.00256  -0.00205   1.90853
   A10        1.86733   0.00108  -0.00385   0.00714   0.00342   1.87075
   A11        1.89320   0.00076  -0.00090  -0.00872  -0.00988   1.88331
   A12        1.85306  -0.00027   0.00005   0.01091   0.01089   1.86396
   A13        1.98163   0.00011   0.00099   0.00715   0.00800   1.98963
   A14        2.01938  -0.00121   0.00333  -0.00591  -0.00262   2.01676
   A15        1.89579  -0.00034  -0.00254  -0.01277  -0.01540   1.88039
   A16        1.83093   0.00134   0.00168   0.01277   0.01416   1.84509
   A17        1.87262   0.00039  -0.00162   0.00863   0.00718   1.87980
   A18        1.85435  -0.00017  -0.00208  -0.00924  -0.01151   1.84284
   A19        1.86476  -0.00062   0.00243  -0.00607  -0.00398   1.86079
   A20        1.89324   0.00054  -0.00180   0.00358   0.00185   1.89510
   A21        1.90436  -0.00037  -0.00021  -0.00482  -0.00506   1.89930
   A22        1.86806   0.00145  -0.00136   0.00045  -0.00151   1.86655
   A23        1.93163  -0.00106   0.00005  -0.00692  -0.00676   1.92487
   A24        1.90581   0.00028   0.00044   0.00729   0.00793   1.91374
   A25        1.97903  -0.00048   0.00358  -0.00273   0.00103   1.98006
   A26        1.91213  -0.00070  -0.00277  -0.00229  -0.00492   1.90720
   A27        1.86667   0.00050  -0.00000   0.00458   0.00454   1.87121
   A28        1.98767   0.00045  -0.00019   0.00837   0.00804   1.99571
   A29        1.79395  -0.00098   0.00247  -0.00623  -0.00437   1.78958
   A30        1.92461   0.00009  -0.00087  -0.00495  -0.00595   1.91866
   A31        1.98043   0.00146   0.00505   0.02014   0.02515   2.00558
   A32        1.88194  -0.00063  -0.00522  -0.00749  -0.01267   1.86927
   A33        1.89297  -0.00041  -0.00064  -0.01076  -0.01114   1.88184
   A34        1.89093   0.00123  -0.00035   0.01067   0.01027   1.90120
   A35        1.88181   0.00052   0.00066   0.00653   0.00714   1.88895
   A36        1.83030  -0.00014   0.00123   0.00611   0.00722   1.83753
   A37        1.89777  -0.00121  -0.00286  -0.00805  -0.01212   1.88565
   A38        2.20490   0.00104   0.00120   0.00778   0.00806   2.21296
   A39        2.17915   0.00019   0.00156   0.00448   0.00513   2.18427
    D1        3.06402   0.00025  -0.00336   0.02382   0.02040   3.08441
    D2        0.95261   0.00032  -0.00080   0.01552   0.01476   0.96737
    D3       -1.06822  -0.00098  -0.00117  -0.00636  -0.00752  -1.07574
    D4        0.97721   0.00058  -0.00121   0.03088   0.02961   1.00682
    D5       -1.13420   0.00065   0.00135   0.02258   0.02398  -1.11022
    D6        3.12816  -0.00065   0.00099   0.00070   0.00170   3.12986
    D7       -1.13682   0.00061  -0.00222   0.03089   0.02861  -1.10822
    D8        3.03496   0.00068   0.00034   0.02260   0.02297   3.05793
    D9        1.01413  -0.00063  -0.00003   0.00071   0.00069   1.01482
   D10       -1.28332  -0.00027   0.00420   0.06398   0.06827  -1.21506
   D11        0.83553   0.00068   0.00969   0.08266   0.09239   0.92793
   D12        2.91820  -0.00059   0.00740   0.05738   0.06486   2.98306
   D13        0.84758   0.00016   0.00355   0.07854   0.08209   0.92967
   D14        2.96644   0.00112   0.00904   0.09722   0.10621   3.07265
   D15       -1.23408  -0.00016   0.00674   0.07194   0.07868  -1.15540
   D16        2.83989   0.00076   0.00109   0.09057   0.09162   2.93151
   D17       -1.32444   0.00171   0.00658   0.10925   0.11575  -1.20870
   D18        0.75822   0.00044   0.00429   0.08397   0.08822   0.84644
   D19        2.70618  -0.00059   0.00330  -0.01843  -0.01528   2.69089
   D20        0.65533  -0.00010   0.00314  -0.01138  -0.00818   0.64715
   D21        0.48502  -0.00012  -0.00265  -0.02521  -0.02824   0.45678
   D22       -1.56583   0.00037  -0.00282  -0.01817  -0.02114  -1.58697
   D23       -1.48216  -0.00069  -0.00040  -0.02413  -0.02473  -1.50689
   D24        2.75018  -0.00020  -0.00057  -0.01709  -0.01763   2.73255
   D25       -2.42419  -0.00044  -0.00229   0.04521   0.04282  -2.38137
   D26        0.77172  -0.00085   0.00073  -0.03799  -0.03730   0.73441
   D27       -0.22633  -0.00006   0.00225   0.06056   0.06279  -0.16354
   D28        2.96957  -0.00047   0.00527  -0.02265  -0.01734   2.95224
   D29        1.75377   0.00088   0.00031   0.07193   0.07208   1.82585
   D30       -1.33351   0.00047   0.00334  -0.01128  -0.00804  -1.34156
   D31       -0.56714  -0.00031   0.00379  -0.02022  -0.01638  -0.58352
   D32       -2.73157  -0.00001   0.00022  -0.01282  -0.01248  -2.74405
   D33        1.50129  -0.00017  -0.00007  -0.01876  -0.01882   1.48247
   D34        1.47638  -0.00021   0.00289  -0.02179  -0.01894   1.45743
   D35       -0.68805   0.00009  -0.00068  -0.01439  -0.01504  -0.70309
   D36       -2.73838  -0.00007  -0.00097  -0.02034  -0.02138  -2.75976
   D37        2.55228   0.00151   0.00520   0.08215   0.08744   2.63972
   D38        0.40254   0.00013  -0.00238   0.05692   0.05473   0.45727
   D39       -1.61269   0.00107  -0.00257   0.07461   0.07218  -1.54051
   D40       -1.59582   0.00089   0.00658   0.07200   0.07851  -1.51731
   D41        2.53762  -0.00049  -0.00100   0.04677   0.04581   2.58343
   D42        0.52239   0.00045  -0.00119   0.06447   0.06326   0.58565
   D43        0.48795   0.00073   0.00706   0.07445   0.08151   0.56946
   D44       -1.66179  -0.00065  -0.00053   0.04922   0.04880  -1.61298
   D45        2.60617   0.00029  -0.00071   0.06691   0.06625   2.67243
   D46       -1.06139   0.00042  -0.00199   0.01431   0.01237  -1.04902
   D47       -3.03339  -0.00028  -0.00356  -0.00126  -0.00485  -3.03824
   D48        0.98306   0.00050   0.00444   0.02666   0.03119   1.01425
   D49       -0.98895  -0.00019   0.00286   0.01109   0.01397  -0.97498
   D50        3.08003   0.00046   0.00341   0.02056   0.02393   3.10397
   D51        1.10803  -0.00024   0.00183   0.00498   0.00671   1.11474
   D52       -0.10312  -0.00012  -0.00014  -0.07143  -0.07123  -0.17436
   D53        2.98515   0.00031  -0.00311   0.01039   0.00737   2.99252
   D54       -2.25770  -0.00083  -0.00393  -0.08877  -0.09261  -2.35030
   D55        0.83058  -0.00039  -0.00690  -0.00695  -0.01401   0.81657
   D56        1.93478  -0.00067  -0.00019  -0.08465  -0.08464   1.85014
   D57       -1.26013  -0.00023  -0.00316  -0.00282  -0.00604  -1.26617
         Item               Value     Threshold  Converged?
 Maximum Force            0.009718     0.000450     NO 
 RMS     Force            0.001345     0.000300     NO 
 Maximum Displacement     0.231258     0.001800     NO 
 RMS     Displacement     0.056918     0.001200     NO 
 Predicted change in Energy=-9.651742D-04
 GradGradGradGradGradGradGradGradGradGradGradGradGradGradGradGradGradGrad

                          Input orientation:                          
 ---------------------------------------------------------------------
 Center     Atomic      Atomic             Coordinates (Angstroms)
 Number     Number       Type             X           Y           Z
 ---------------------------------------------------------------------
      1          6           0        0.918919    0.080941   -0.287058
      2          6           0        2.437210    0.061633   -0.066156
      3          6           0        2.956400    1.062094    0.972026
      4          7           0        2.864195    2.472910    0.545144
      5          6           0        2.781787    3.280936    1.775205
      6          6           0        2.005501    2.443242    2.812290
      7          7           0        2.364071    2.722755    4.204635
      8          6           0        2.279662    0.999071    2.348627
      9          8           0        1.980971    0.004639    2.961675
     10          1           0        0.645621   -0.619496   -1.081412
     11          1           0        0.554436    1.068672   -0.593645
     12          1           0        0.382498   -0.209549    0.620391
     13          1           0        2.958249    0.272028   -1.007679
     14          1           0        2.744996   -0.939787    0.248526
     15          1           0        4.019627    0.835786    1.154066
     16          1           0        2.007166    2.595098    0.014999
     17          1           0        2.319878    4.246183    1.563419
     18          1           0        3.793582    3.480855    2.154465
     19          1           0        0.928079    2.629272    2.712789
     20          1           0        3.353685    2.524180    4.337064
     21          1           0        1.874866    2.056877    4.799280
 ---------------------------------------------------------------------
                    Distance matrix (angstroms):
                    1          2          3          4          5
     1  C    0.000000
     2  C    1.534399   0.000000
     3  C    2.588297   1.532417   0.000000
     4  N    3.193458   2.523937   1.476865   0.000000
     5  C    4.238299   3.724682   2.366188   1.474024   0.000000
     6  C    4.045626   3.760836   2.489649   2.424497   1.542691
     7  N    5.407676   5.032552   3.682175   3.701949   2.527486
     8  C    3.105064   2.595148   1.535245   2.401339   2.405795
     9  O    3.418778   3.062542   2.455276   3.565399   3.575352
    10  H    1.093756   2.168980   3.519098   4.138928   5.285531
    11  H    1.096565   2.199366   2.867194   2.933208   3.932767
    12  H    1.093433   2.183284   2.892351   3.655142   4.390178
    13  H    2.171331   1.096455   2.131534   2.695178   4.102330
    14  H    2.159467   1.093892   2.139083   3.427636   4.488498
    15  H    3.501574   2.142965   1.102182   2.094274   2.810128
    16  H    2.756176   2.570986   2.041335   1.015127   2.041749
    17  H    4.768248   4.492187   3.300504   2.116049   1.090832
    18  H    5.077808   4.296741   2.819475   2.114149   1.098879
    19  H    3.936135   4.073424   3.098449   2.910614   2.177145
    20  H    5.768883   5.127612   3.690394   3.823726   2.731825
    21  H    5.539766   5.288639   4.099657   4.387429   3.386127
                    6          7          8          9         10
     6  C    0.000000
     7  N    1.464693   0.000000
     8  C    1.541355   2.534359   0.000000
     9  O    2.443298   3.013283   1.205795   0.000000
    10  H    5.137174   6.485831   4.129772   4.303401   0.000000
[...]
 112186,0.20251114,-0.04732739,-0.12040359,-0.14778065,-0.00083028,-0.0
 0290753,-0.00353225,-0.00101483,0.00113970,0.00084096,0.00011109,0.000
 01836,0.00029403,0.00013504,-0.00004810,-0.00012963,0.00007414,0.00007
 664,0.00008344,-0.00004052,-0.00012151,-0.00007659,0.00023582,0.000407
 03,0.00051835,-0.00016484,-0.00018465,-0.00001818,0.05316618,0.1318881
 9,0.15752993,-0.06279935,0.05501097,-0.02626917,-0.00728582,0.03067642
 ,-0.01418347,0.00110210,0.00120682,0.00012106,-0.00013675,-0.00049555,
 0.00031282,0.00038217,-0.00037443,-0.00015598,0.00006963,0.00003627,-0
 .00007992,-0.00003023,-0.00009834,0.00003761,-0.00027071,0.00003196,0.
 00014747,0.00020579,-0.00019967,-0.00001515,0.00166958,-0.00779510,0.0
 0466046,0.06904721,0.05482987,-0.24189062,0.09570661,0.00102066,-0.000
 55783,0.00029501,0.00025191,-0.00080782,-0.00032745,-0.00064364,-0.000
 36304,-0.00033234,-0.00021173,0.00028836,0.00020551,-0.00000165,-0.000
 01360,0.00000849,-0.00001477,0.00011274,0.00001631,0.00013812,-0.00031
 118,-0.00027311,0.00003659,0.00026908,0.00007457,0.00553941,-0.0213224
 7,0.01126449,-0.06080739,0.26541785,-0.02638370,0.09637189,-0.09412858
 ,-0.00084686,0.00338415,-0.00262597,-0.00014359,0.00145566,-0.00010004
 ,0.00004171,-0.00015225,-0.00003280,0.00030888,-0.00022811,-0.00029512
 ,-0.00009055,-0.00001398,-0.00009766,0.00005636,-0.00008764,0.00007593
 ,0.00006359,0.00089094,-0.00025672,-0.00034119,-0.00067996,0.00008277,
 0.00541628,-0.01789004,0.00895216,0.03101402,-0.10556951,0.09749896,-0
 .11233369,-0.01285055,0.11188137,-0.01817169,-0.00320559,0.02977752,0.
 00193546,0.00014486,0.00097495,0.00008198,-0.00013717,-0.00050178,-0.0
 0004825,-0.00005306,0.00021412,-0.00013897,-0.00009452,-0.00035225,0.0
 0005983,0.00012693,-0.00000595,-0.00097951,-0.00217737,0.00030849,0.00
 083603,0.00132839,-0.00043492,0.00456384,0.00171263,-0.00831671,0.0037
 2666,-0.00003189,-0.00743020,0.12530438,-0.01300705,-0.05085362,0.0227
 0605,0.00088858,-0.00051314,-0.00265685,-0.00037388,0.00029729,0.00093
 115,0.00030840,-0.00021004,-0.00032226,-0.00009154,0.00000812,0.000094
 37,-0.00034695,-0.00010194,-0.00018695,0.00012130,0.00005667,0.0000761
 1,-0.00023466,0.00065381,-0.00043786,-0.00011320,-0.00048296,0.0000313
 3,0.01294141,0.00276666,-0.02090686,-0.01494095,-0.00228732,0.02488241
 ,0.01405761,0.04962419,0.11314883,0.02208085,-0.24046851,-0.00309876,-
 0.00090817,0.00602472,0.00031947,-0.00018496,0.00095120,-0.00013620,0.
 00014901,0.00016591,0.00007570,-0.00005160,-0.00012031,-0.00004313,-0.
 00001070,-0.00008020,-0.00012205,-0.00000371,0.00005774,0.00027353,-0.
 00006870,-0.00024409,-0.00043879,-0.00002671,-0.00039938,0.00953919,0.
 00307438,-0.01679375,0.00562042,0.00013941,-0.01097883,-0.12395219,-0.
 02409836,0.26032060,-0.01859084,-0.00350920,0.02897060,-0.10890293,-0.
 01139225,0.10964222,0.00503760,0.00135796,-0.01231330,0.00006375,0.000
 40609,0.00038927,0.00003483,0.00032605,-0.00010943,0.00041201,0.000239
 24,-0.00051723,0.00008656,-0.00028381,-0.00023294,-0.00084974,-0.00310
 924,-0.00085424,0.00030042,0.00053750,-0.00007337,0.00119861,-0.000441
 83,-0.00022408,0.00151915,0.00060844,-0.00015568,-0.00650058,0.0006829
 5,-0.00190306,0.12259921,0.00235943,0.00010927,-0.00303505,-0.01094489
 ,-0.04982163,0.02254045,0.00942143,0.00024518,-0.02538734,0.00011624,0
 .00191496,0.00139029,-0.00010320,0.00016405,-0.00043329,0.00125474,0.0
 0026774,-0.00046895,-0.00003074,-0.00036110,-0.00023073,-0.00327913,-0
 .00444898,0.00055864,0.00062329,0.00163507,-0.00055992,-0.00029292,-0.
 00002467,0.00032422,-0.00020209,0.00031392,-0.00058637,0.00081384,0.00
 099920,-0.00016863,0.01398784,0.05065907,-0.00347720,-0.00054012,0.006
 12214,0.10933746,0.02143245,-0.24052929,0.00836973,0.00156624,-0.02269
 817,0.00010110,0.00057848,0.00185136,0.00000831,0.00002023,-0.00036102
 ,0.00096178,0.00060075,-0.00023716,-0.00002542,-0.00060575,-0.00039466
 ,-0.00316002,-0.00357843,0.00066391,0.00048692,0.00045179,-0.00010462,
 0.00069344,0.00008554,0.00054051,0.00053760,-0.00015085,0.00044924,-0.
 00198507,0.00014918,0.00111046,-0.11709440,-0.02092153,0.26319394,-0.0
 0993693,0.03097939,-0.01367549,-0.05675159,0.04727602,-0.01895792,0.00
 109944,-0.01069088,0.00544704,-0.00035886,-0.00180980,-0.00283799,0.00
 042328,-0.00064196,0.00045449,0.00003636,-0.00009800,0.00009749,0.0000
 6286,0.00003686,-0.00002659,0.00030298,0.00072857,-0.00024849,-0.00048
 248,-0.00038604,-0.00017726,0.00159141,-0.00036341,0.00000474,-0.00680
 250,0.00033902,-0.00088227,0.00131962,-0.00001788,0.00060195,0.0027583
 6,-0.01460958,0.00524483,0.06668709,0.00055026,-0.00083941,0.00047530,
 0.04765866,-0.25968005,0.08787877,0.00432389,-0.02380930,0.00773874,-0
 .00211774,-0.00115183,-0.00479392,0.00002174,-0.00094008,0.00141247,-0
 .00010067,0.00004647,0.00019349,0.00004196,0.00024253,-0.00008673,0.00
 001289,-0.00212024,0.00197314,-0.00005779,0.00242496,-0.00006411,0.000
 28652,0.00077183,0.00008282,-0.00021595,0.00132275,-0.00027505,0.00024
 062,0.00010817,-0.00018331,0.00010447,-0.00199135,0.00089454,-0.050227
 57,0.28455998,-0.00165837,0.00389980,-0.00205748,-0.01904192,0.0906664
 9,-0.08447027,0.00411159,-0.02139677,0.00793194,-0.00172195,-0.0028097
 6,-0.00368725,0.00005867,-0.00110878,0.00089851,-0.00032735,-0.0000084
 2,0.00001229,0.00001607,0.00022778,0.00003106,0.00077622,-0.00106895,0
 .00123863,-0.00023049,0.00111632,0.00010571,-0.00005262,0.00013986,-0.
 00011759,-0.00101133,-0.00053999,0.00095094,-0.00006175,-0.00060716,0.
 00041636,-0.00593201,0.02576224,-0.01023329,0.02464145,-0.09466194,0.0
 8893433,0.00105446,-0.00221547,-0.00181824,-0.01329417,0.00053065,-0.0
 0131455,-0.27831040,0.03856796,-0.02114857,0.00252252,0.00718338,-0.00
 433050,-0.00045240,-0.00029148,-0.00023196,0.00068304,-0.00000420,0.00
 134468,-0.00007466,0.00047495,0.00043307,-0.01768314,0.00243026,0.0007
 8270,0.00249065,-0.00041584,0.00120266,-0.00082659,0.00020084,-0.00023
 960,0.00014670,0.00007055,0.00003288,0.00033360,0.00001684,0.00013381,
 0.00098126,0.00041371,-0.00020591,0.00027557,-0.00039611,0.00023133,0.
 30151586,-0.00049606,-0.00272249,-0.00309174,-0.02281467,0.00161859,-0
 .00353640,0.03710698,-0.04591492,0.00320664,0.03122687,-0.01831087,0.0
 1218082,0.00156398,0.00096219,0.00129877,-0.00050056,-0.00080270,-0.00
 019380,0.00019876,0.00025402,-0.00023748,-0.00116123,0.00170521,-0.001
 74214,0.00047425,-0.00014797,0.00037967,-0.00125104,0.00014026,-0.0004
 5434,-0.00015902,0.00013945,-0.00024487,0.00031779,-0.00004722,0.00012
 872,0.00067253,0.00072637,0.00051272,-0.00016845,0.00081367,0.00048680
 ,-0.04700829,0.06709210,-0.00018157,-0.00357555,-0.00251524,-0.0244811
 5,0.00110075,-0.00289109,-0.00739684,0.00184485,-0.04498063,-0.0133153
 4,0.00609404,-0.00172873,0.00060976,-0.00037270,-0.00045563,-0.0048063
 5,0.00026533,-0.00351190,0.00039123,-0.00177985,-0.00065139,0.03181921
 ,-0.00328841,0.00205011,-0.00330579,0.00030834,-0.00182786,-0.00130904
 ,0.00009257,-0.00020614,0.00019415,0.00014843,0.00007677,-0.00011266,-
 0.00003636,0.00010355,0.00005361,0.00124648,0.00068776,0.00064119,0.00
 026079,0.00100123,0.02307599,-0.00644471,0.05296386,0.00028865,-0.0007
 6732,0.00066432,0.00070680,-0.00075127,-0.00066163,-0.00689962,-0.0021
 2566,0.00421321,-0.31946025,0.05209921,-0.19506612,-0.00179828,-0.0004
 8758,0.00884173,0.00105395,0.00113792,0.00080708,-0.00024173,-0.000305
 67,0.00042023,0.00047984,-0.00178354,0.00087601,-0.00049429,-0.0001543
 0,0.00055774,0.00021177,0.00013364,-0.00011436,-0.00053170,-0.00109916
 ,-0.00075534,-0.00014723,-0.00009397,0.00007385,-0.00021215,0.00035233
 ,0.00022336,-0.00022531,-0.00011380,0.00012871,0.00051224,0.00319345,-
 0.00151913,0.32460776,-0.00016422,-0.00092103,0.00073113,0.00143100,0.
 00128329,-0.00023262,0.03419784,-0.00844168,0.02009061,0.03492974,-0.0
 5429500,0.00622757,-0.02146225,0.00070647,-0.01158331,0.00034057,-0.00
 031554,0.00047026,0.00006048,0.00035131,-0.00006176,0.00159896,-0.0018
 1126,-0.00066251,-0.00096886,-0.00018446,0.00093379,-0.00004860,0.0007
 1728,-0.00033268,-0.00174401,-0.00025409,-0.00127500,-0.00000372,0.000
 15818,-0.00003368,-0.00002815,-0.00022060,-0.00033123,-0.00014751,0.00
 062776,0.00014474,0.00011866,-0.00553783,0.00281039,-0.04761008,0.0699
 6021,0.00012470,-0.00087657,-0.00007478,0.00014806,-0.00130444,0.00145
 027,-0.00749730,0.00475072,-0.00630246,-0.14925370,0.01032452,-0.11253
 419,-0.02881953,0.00067445,-0.02109778,-0.00143211,-0.00007194,-0.0006
 7952,0.00062895,0.00014146,0.00003666,-0.00081783,0.00154462,-0.000967
 30,0.00034171,-0.00021521,-0.00010411,0.00017854,-0.00000543,-0.000239
 27,-0.00107096,-0.00053789,0.00029752,0.00018015,0.00050230,-0.0001713
 7,0.00032114,-0.00018073,-0.00022444,-0.00002168,-0.00015870,-0.000375
 68,0.00154264,-0.00142120,0.00063213,0.18224441,-0.01163629,0.14127442
 ,0.00005173,0.00006507,0.00013694,0.00015499,-0.00006247,-0.00031103,0
 .00084099,-0.00100420,0.00077701,-0.00088895,-0.00069770,-0.00083870,-
 0.10028620,0.10760346,-0.02057910,0.00673645,-0.01690456,0.00253421,0.
 00009077,0.00011508,-0.00041512,-0.00196136,-0.00172666,0.00278284,0.0
 0067444,-0.00186874,-0.00017102,0.00003430,0.00002607,-0.00000597,-0.0
 0001843,0.00003161,-0.00005234,0.00002261,-0.00001110,-0.00000297,-0.0
 0002491,-0.00003225,-0.00002728,0.00001187,0.00002802,0.00007186,0.000
 15499,-0.00038031,-0.00008031,0.00118976,-0.00041955,0.00026210,0.1045
 8071,0.00006243,-0.00008278,0.00000193,0.00048491,-0.00047477,0.000828
 93,-0.00040175,0.00024956,-0.00346863,0.00674471,-0.01567336,0.0012189
 8,0.10277184,-0.25643602,0.03940741,0.00627785,-0.01218824,0.00118581,
 -0.00017819,0.00009575,0.00043859,-0.00186580,-0.00082696,0.00181923,0
 .00042286,-0.00121478,0.00003618,-0.00006201,0.00000855,-0.00001896,-0
 .00002910,0.00003702,-0.00004305,0.00000166,-0.00000268,0.00002262,-0.
 00000944,0.00000309,-0.00004382,-0.00017601,-0.00025416,-0.00018569,0.
 00018804,-0.00002888,-0.00003101,-0.00050317,0.00022466,0.00036273,-0.
 11146545,0.28046833,0.00015341,0.00002406,-0.00002777,0.00043136,-0.00
 146962,0.00094181,-0.00078721,-0.00110233,-0.00569545,0.01423243,-0.03
 111160,0.00333988,-0.02476475,0.04617490,-0.05725788,-0.00968518,0.019
 73975,-0.00094009,0.00019409,-0.00033774,0.00034044,0.00354883,-0.0010
 0705,-0.00466342,-0.00102157,0.00245966,0.00073345,-0.00005316,0.00000
 597,-0.00000025,-0.00005219,0.00003063,0.00000023,-0.00006471,-0.00000
 398,0.00001467,0.00003853,0.00009412,0.00008098,-0.00028492,-0.0004478
 0,-0.00041581,0.00025680,-0.00026964,0.00038293,0.00009668,0.00022933,
 0.00227030,0.02152501,-0.04083631,0.06088459,0.00001625,0.00014563,0.0
 0005019,0.00022837,-0.00020501,0.00006833,0.00027910,-0.00000517,-0.00
 040690,0.00698247,-0.00071283,-0.00320059,-0.26651480,-0.03148902,-0.0
 7252928,-0.01836698,-0.00313736,-0.00482571,0.00173698,0.00126402,-0.0
 0075043,-0.00072748,0.00163255,0.00054094,0.00020724,-0.00093837,0.000
 33673,0.00003741,-0.00000135,-0.00002338,-0.00001765,-0.00002001,0.000
 03188,0.00001894,0.00003511,-0.00000975,-0.00000955,0.00001029,-0.0000
 2288,-0.00003861,-0.00004974,-0.00001321,-0.00008677,-0.00074462,-0.00
 010697,0.00123320,-0.00024200,0.00176696,-0.01278712,-0.00215692,-0.00
 405781,0.28748323,-0.00003451,-0.00001852,-0.00002925,0.00015463,-0.00
 022601,-0.00013642,-0.00164603,0.00104170,-0.00005906,-0.01408888,-0.0
 0200697,-0.01183005,-0.03065713,-0.05717370,-0.00726750,-0.01869853,-0
 .00269030,-0.00405124,0.00054737,0.00074329,-0.00136716,-0.00101353,0.
 00119278,0.00025463,0.00032624,-0.00046095,0.00014500,0.00005241,-0.00
 007688,0.00002117,0.00010063,-0.00005909,0.00008767,0.00001816,0.00002
 010,0.00000119,0.00000026,0.00001791,0.00000370,0.00000892,-0.00007567
 ,-0.00001974,0.00055212,0.00004243,0.00001428,-0.00129841,-0.00212535,
 -0.00179490,0.02644233,0.00514857,0.00919871,0.04018126,0.05824000,-0.
 00000645,0.00015447,-0.00022689,0.00006904,-0.00040278,0.00018619,-0.0
 0074009,0.00178894,-0.00011429,-0.02761581,-0.00662546,-0.02097791,-0.
 06810206,-0.00799963,-0.06685478,0.02087450,0.00437834,0.00497362,0.00
 056922,-0.00088536,0.00257098,0.00087653,-0.00192042,-0.00055657,-0.00
 047856,0.00056953,0.00030669,0.00001621,-0.00013689,0.00007677,0.00018
 387,-0.00013204,0.00017065,-0.00003641,-0.00005395,0.00004403,-0.00000
 971,0.00008890,0.00003765,-0.00000011,-0.00017544,-0.00009865,0.000362
 51,-0.00056455,0.00019436,-0.00120738,-0.00562806,-0.00287164,-0.00548
 427,-0.00042203,-0.00085686,0.07957161,0.01481908,0.08611136,-0.000114
 18,-0.00008189,0.00006448,-0.00060646,-0.00016681,0.00020871,-0.000097
 14,0.00184399,0.00122245,0.00201710,0.00033379,-0.00020763,-0.01720992
 ,0.00001572,-0.00191860,-0.27855470,0.02864893,-0.03765335,-0.00481065
 ,-0.00156839,-0.00592654,-0.01062731,0.00197491,-0.00026910,0.00113329
 ,0.00030299,0.00051370,0.00011905,-0.00005704,-0.00007025,0.00002927,-
 0.00004419,0.00010582,0.00010062,0.00017207,-0.00009845,0.00013123,0.0
 0015931,0.00010172,0.00003597,0.00000545,-0.00000179,0.00002450,-0.000
 06414,-0.00012939,-0.00009662,0.00006738,0.00084616,0.00151411,-0.0000
 2251,-0.00010772,-0.00031392,-0.00159655,0.00211390,0.30581652,0.00041
 322,0.00017160,-0.00018554,0.00097691,0.00071069,-0.00079808,-0.005338
 67,-0.00281315,-0.00235062,0.00236928,0.00053363,-0.00147770,-0.024369
 68,0.00058483,-0.00117120,0.04114573,-0.04723506,0.00600140,-0.0098402
 3,0.00229561,-0.00189252,0.03289433,-0.00439817,0.00449340,-0.00409291
 ,-0.00195953,-0.00065758,-0.00013390,0.00001219,0.00009994,-0.00002757
 ,0.00002272,-0.00006956,-0.00011801,-0.00017735,0.00016394,-0.00021224
 ,-0.00028258,-0.00034467,-0.00005479,0.00004068,0.00010811,-0.00037887
 ,0.00002938,0.00111615,0.00025160,0.00032833,0.00002733,0.00028595,0.0
 0105897,-0.00134796,-0.00288921,-0.00162494,0.00308242,-0.03049820,0.0
 5200933,0.00019678,0.00003549,-0.00000454,0.00026530,0.00012942,-0.000
 26493,-0.00213903,-0.00060924,-0.00087205,-0.00105555,0.00097018,0.001
 65089,0.02077258,-0.00003212,0.00135226,-0.02709712,0.00070595,-0.0475
 3700,-0.03760941,-0.00160723,-0.01422302,0.00488796,0.00199443,0.00305
 088,-0.00003896,-0.00067326,0.00024075,-0.00004280,0.00002039,0.000020
 62,-0.00001130,0.00000981,-0.00008900,-0.00002354,-0.00007284,0.000084
 22,-0.00004595,-0.00010036,-0.00009280,-0.00003060,0.00002072,0.000021
 52,-0.00018926,0.00012628,0.00044138,-0.00006614,-0.00001324,-0.000513
 98,-0.00055183,-0.00054919,0.00085991,0.00192568,0.00159782,-0.0022667
 0,0.04283245,-0.00306487,0.06436613,0.00001025,0.00000963,0.00000206,0
 .00004424,0.00001768,-0.00007480,-0.00071278,-0.00010211,-0.00033791,0
 .00025543,-0.00004553,0.00030461,0.00179249,0.00053759,0.00069054,-0.0
 0726325,0.00363282,0.00009209,-0.40322779,0.00112425,-0.06229521,0.001
 16557,0.00069435,0.00099569,0.00007687,-0.00073399,0.00036439,0.000008
 33,-0.00000428,-0.00000179,-0.00000208,-0.00000680,0.00001500,-0.00000
 372,0.00001635,0.00000048,0.00000844,-0.00001814,-0.00000105,0.0000030
 3,-0.00000780,-0.00000218,-0.00004976,0.00000897,0.00021172,-0.0001372
 9,0.00003013,0.00015662,-0.00010459,-0.00005866,0.00008341,0.00015931,
 0.00036331,-0.00081267,0.00152944,-0.00081094,-0.00202515,0.42578020,-
 0.00001680,0.00004489,-0.00001566,-0.00013115,-0.00023319,0.00017491,0
 .00022512,0.00069867,0.00021037,-0.00073680,-0.00028334,0.00011790,0.0
 0252323,0.00072016,0.00050618,-0.00924509,-0.00470755,-0.00820019,0.05
 139884,-0.02196114,0.02251564,-0.00219494,0.00124507,-0.00175979,0.000
 88941,-0.00036964,0.00122775,0.00001877,0.00000048,0.00002575,0.000019
 98,-0.00002663,0.00001645,-0.00004211,-0.00002559,-0.00001044,0.000038
 97,0.00008275,0.00012330,0.00000084,-0.00005778,-0.00007317,0.00007515
 ,-0.00002046,-0.00006141,-0.00005140,-0.00019642,-0.00011266,-0.000003
 20,-0.00007668,0.00020676,-0.00075347,0.00015022,0.00021587,0.00082997
 ,0.00063577,0.00051315,-0.01152183,0.02631464,-0.00004030,0.00000439,0
 .00006224,-0.00002641,-0.00002045,-0.00002546,-0.00029272,-0.00009884,
 0.00024637,0.00074573,0.00010048,0.00063576,-0.00228232,-0.00045215,0.
 00084417,-0.04105655,0.00085569,-0.01188201,-0.04753004,0.01314304,-0.
 06394255,-0.00112592,0.00155737,0.00007825,0.00007958,-0.00060401,0.00
 064034,0.00004293,0.00000455,-0.00000788,-0.00000903,-0.00000284,0.000
 01240,0.00001506,0.00003069,-0.00004178,0.00002787,0.00001005,0.000020
 28,0.00001956,0.00001507,0.00000330,0.00009672,-0.00000952,-0.00007580
 ,0.00005077,0.00016087,0.00029071,0.00033537,-0.00000686,0.00025551,0.
 00162233,0.00068675,-0.00019735,-0.00116061,-0.00178039,-0.00683826,0.
 06645665,-0.01121931,0.07551930,0.00002406,-0.00002560,-0.00004486,0.0
 0006853,0.00009044,0.00010510,0.00058965,-0.00042517,0.00039479,0.0007
 5541,-0.00000873,-0.00078923,-0.00026577,-0.00084995,-0.00092952,0.003
 64090,0.00694988,-0.00242129,-0.11069527,-0.10575400,0.06473791,-0.000
 11329,-0.00113434,-0.00027363,-0.00102837,-0.00006236,-0.00080632,-0.0
 0003285,-0.00001241,-0.00001345,-0.00000304,0.00001505,-0.00000471,0.0
 0002006,-0.00000944,0.00001811,-0.00004075,0.00000049,-0.00006701,-0.0
 0001159,0.00001267,0.00001905,0.00008252,-0.00001521,-0.00025231,-0.00
 003953,0.00006422,0.00017098,0.00001385,-0.00002528,0.00031868,0.00048
 037,0.00028594,-0.00014388,-0.00002018,0.00042820,0.00004588,-0.019332
 35,-0.03132350,0.02403133,0.12590763,0.00000449,0.00004418,0.00000034,
 -0.00007846,-0.00017514,-0.00013740,-0.00052916,0.00056835,-0.00063184
 ,0.00015331,-0.00083056,-0.00036926,0.00035839,0.00019358,-0.00085619,
 0.00691484,0.00365127,-0.01001075,-0.14561519,-0.22697190,0.17383181,0
 .00111881,0.00113574,-0.00169324,-0.00070274,0.00125811,0.00141145,0.0
 0003347,0.00001166,0.00002990,0.00000613,-0.00003021,0.00002624,-0.000
 04852,0.00000949,-0.00001114,0.00002387,0.00001235,0.00009749,0.000022
 29,-0.00003894,-0.00007177,-0.00011284,0.00000965,0.00028760,-0.000022
 82,-0.00005424,-0.00001218,-0.00002139,-0.00003519,-0.00022987,0.00007
 623,-0.00005861,-0.00015094,-0.00025480,0.00005706,0.00059870,0.006874
 99,-0.00193423,-0.00237458,0.13179911,0.22317758,0.00004241,0.00007164
 ,-0.00007089,-0.00001476,-0.00022091,0.00004128,-0.00104520,0.00128938
 ,-0.00019053,0.00126696,0.00005777,-0.00248420,-0.00420569,-0.00369231
 ,-0.00367931,0.01851260,0.02923513,-0.02861808,0.07266049,0.13549197,-
 0.15166188,0.00192997,0.00269166,-0.00102691,-0.00103751,-0.00062594,0
 .00281147,0.00000491,-0.00000595,0.00004542,0.00002902,-0.00003325,0.0
 0003715,-0.00007354,-0.00002018,0.00000478,0.00002217,0.00005752,0.000
 11722,-0.00000942,-0.00009887,-0.00008978,-0.00001719,-0.00011003,0.00
 031034,0.00019197,-0.00000829,-0.00009547,0.00009460,0.00028315,-0.000
 24716,0.00003227,-0.00027468,0.00034935,-0.00046595,0.00004799,0.00061
 372,-0.00382251,-0.00440140,0.00440247,-0.08409560,-0.15973439,0.17943
 101\\0.00000383,0.00000405,-0.00000079,0.00000395,-0.00000246,-0.00000
 616,-0.00000726,0.00001058,0.00000076,-0.00000299,-0.00000661,-0.00000
 859,-0.00000253,-0.00000805,0.00000795,0.00000195,0.00000963,-0.000012
 86,0.00000020,-0.00000031,0.00000599,0.00000812,0.00000919,-0.00000027
 ,-0.00000156,-0.00001034,0.00000593,-0.00000378,-0.00000254,0.00000313
 ,-0.00000150,-0.00000327,-0.00000124,0.00000026,-0.00000263,0.00000176
 ,0.00000031,0.00000194,0.00000304,0.00000072,0.00000020,-0.00000004,0.
 00000287,0.00000147,0.00000280,-0.00000004,-0.00000082,-0.00000207,-0.
 00000168,0.00000056,-0.00000117,-0.00000154,0.00000120,-0.00000006,0.0
 0000040,-0.00000233,0.00000203,-0.00000002,0.00000189,-0.00000439,0.00
 000028,-0.00000134,0.00000424\\\@


 IT IS DOUBTED WHETHER A MAN EVER BRINGS HIS FACULTIES TO BEAR WITH THEIR FULL FORCE
 ON A SUBJECT UNTIL HE WRITES UPON IT.

                          -- CICERO
 Job cpu time:       0 days  2 hours 32 minutes 15.4 seconds.
 Elapsed time:       0 days  0 hours 38 minutes 41.2 seconds.
 File lengths (MBytes):  RWF=    158 Int=      0 D2E=      0 Chk=      9 Scr=      1
 Normal termination of Gaussian 16 at Thu Aug  4 10:35:40 2022.
### All Done ###
