### Starting Gaussian ###
 Entering Gaussian System, Link 0=g16
 Initial command:
 /cluster/software/gaussian/gaussian-16-A.03/avx2/g16/l1.exe "/local/scratch/ks29c/Gau-12387.inp" -scrdir="/local/scratch/ks29c/"
 Entering Link 1 = /cluster/software/gaussian/gaussian-16-A.03/avx2/g16/l1.exe PID=     12388.
  
 Copyright (c) 1988,1990,1992,1993,1995,1998,2003,2009,2016,
            Gaussian, Inc.  All Rights Reserved.
  
 This is part of the Gaussian(R) 16 program.  It is based on
 the Gaussian(R) 09 system (copyright 2009, Gaussian, Inc.),
 the Gaussian(R) 03 system (copyright 2003, Gaussian, Inc.),
 the Gaussian(R) 98 system (copyright 1998, Gaussian, Inc.),
 the Gaussian(R) 94 system (copyright 1995, Gaussian, Inc.),
 the Gaussian 92(TM) system (copyright 1992, Gaussian, Inc.),
 the Gaussian 90(TM) system (copyright 1990, Gaussian, Inc.),
 the Gaussian 88(TM) system (copyright 1988, Gaussian, Inc.),
 the Gaussian 86(TM) system (copyright 1986, Carnegie Mellon
 University), and the Gaussian 82(TM) system (copyright 1983,
 Carnegie Mellon University). Gaussian is a federally registered
 trademark of Gaussian, Inc.
  
 This software contains proprietary and confidential information,
 including trade secrets, belonging to Gaussian, Inc.
  
 This software is provided under written license and may be
 used, copied, transmitted, or stored only in accord with that
 written license.
  
 The following legend is applicable only to US Government
 contracts under FAR:
  
                    RESTRICTED RIGHTS LEGEND
  
 Use, reproduction and disclosure by the US Government is
 subject to restrictions as set forth in subparagraphs (a)
 and (c) of the Commercial Computer Software - Restricted
 Rights clause in FAR 52.227-19.
  
 Gaussian, Inc.
 340 Quinnipiac St., Bldg. 40, Wallingford CT 06492
  
  
 ---------------------------------------------------------------
 Warning -- This program may not be used in any manner that
 competes with the business of Gaussian, Inc. or will provide
 assistance to any competitor of Gaussian, Inc.  The licensee
 of this program is prohibited from giving any competitor of
 Gaussian, Inc. access to this program.  By using this program,
 the user acknowledges that Gaussian, Inc. is engaged in the
 business of creating and licensing software in the field of
 computational chemistry and represents and warrants to the
 licensee that it is not a competitor of Gaussian, Inc. and that
 it will not use this program in any manner prohibited above.
 ---------------------------------------------------------------
  

 Cite this work as:
 Gaussian 16, Revision A.03,
 M. J. Frisch, G. W. Trucks, H. B. Schlegel, G. E. Scuseria, 
 M. A. Robb, J. R. Cheeseman, G. Scalmani, V. Barone, 
 G. A. Petersson, H. Nakatsuji, X. Li, M. Caricato, A. V. Marenich, 
 J. Bloino, B. G. Janesko, R. Gomperts, B. Mennucci, H. P. Hratchian, 
 J. V. Ortiz, A. F. Izmaylov, J. L. Sonnenberg, D. Williams-Young, 
 F. Ding, F. Lipparini, F. Egidi, J. Goings, B. Peng, A. Petrone, 
 T. Henderson, D. Ranasinghe, V. G. Zakrzewski, J. Gao, N. Rega, 
 G. Zheng, W. Liang, M. Hada, M. Ehara, K. Toyota, R. Fukuda, 
 J. Hasegawa, M. Ishida, T. Nakajima, Y. Honda, O. Kitao, H. Nakai, 
 T. Vreven, K. Throssell, J. A. Montgomery, Jr., J. E. Peralta, 
 F. Ogliaro, M. J. Bearpark, J. J. Heyd, E. N. Brothers, K. N. Kudin, 
 V. N. Staroverov, T. A. Keith, R. Kobayashi, J. Normand, 
 K. Raghavachari, A. P. Rendell, J. C. Burant, S. S. Iyengar, 
 J. Tomasi, M. Cossi, J. M. Millam, M. Klene, C. Adamo, R. Cammi, 
 J. W. Ochterski, R. L. Martin, K. Morokuma, O. Farkas, 
 J. B. Foresman, and D. J. Fox, Gaussian, Inc., Wallingford CT, 2016.
 
 ******************************************
 Gaussian 16:  ES64L-G16RevA.03 25-Dec-2016
                 4-Aug-2022 
 ******************************************
 %chk=CCCCpCpCpOpOC.chk
 %NProcShared=20
 Will use up to   20 processors via shared memory.
 -----------------------------
 # opt freq b3lyp/6-31g(2df,p)
 -----------------------------
 1/18=20,19=15,26=3,38=1/1,3;
 2/9=110,12=2,17=6,18=5,40=1/2;
 3/5=1,6=6,7=104,11=2,25=1,30=1,71=1,74=-5/1,2,3;
 4//1;
 5/5=2,38=5/2;
 6/7=2,8=2,9=2,10=2,28=1/1;
 7//1,2,3,16;
 1/18=20,19=15,26=3/3(2);
 2/9=110/2;
 99//99;
 2/9=110/2;
 3/5=1,6=6,7=104,11=2,25=1,30=1,71=1,74=-5/1,2,3;
 4/5=5,16=3,69=1/1;
 5/5=2,38=5/2;
 7//1,2,3,16;
 1/18=20,19=15,26=3/3(-5);
 2/9=110/2;
 6/7=2,8=2,9=2,10=2,19=2,28=1/1;
 99/9=1/99;
 -------------------
 Title Card Required
 -------------------
 Symbolic Z-matrix:
 Charge =  0 Multiplicity = 1
 C                     0.97467  -0.08912   0.06967 
 C                     2.49215  -0.0851    0.05485 
 C                     3.05544   0.64557   1.27349 
 C                     4.59656   0.68307   1.29794 
 C                     5.16401   1.38909   0.06013 
 C                     5.09205   1.37195   2.5862 
 O                     4.59098   0.69847   3.73032 
 O                     6.51286   1.34664   2.62707 
 C                     7.02095   2.07979   3.73399 
 H                     0.5936   -0.6055   -0.81625 
 H                     0.58713   0.93479   0.06006 
 H                     0.59078  -0.59729   0.95895 
 H                     2.8146    0.39948  -0.8712 
 H                     2.86572  -1.11533   0.03513 
 H                     2.68502   0.14636   2.17807 
 H                     2.66518   1.67104   1.30079 
 H                     4.96593  -0.35154   1.29319 
 H                     4.7966    2.41896  -0.00258 
 H                     4.88415   0.87301  -0.86287 
 H                     6.25738   1.41533   0.07967 
 H                     4.73769   2.40955   2.60758 
 H                     4.9057   -0.21343   3.64108 
 H                     8.11217   2.07429   3.67646 
 H                     6.72547   1.60661   4.67518 
 H                     6.67208   3.11641   3.70623 
 

 GradGradGradGradGradGradGradGradGradGradGradGradGradGradGradGradGradGrad
 Berny optimization.
 Initialization pass.
                           ----------------------------
                           !    Initial Parameters    !
                           ! (Angstroms and Degrees)  !
 --------------------------                            --------------------------
 ! Name  Definition              Value          Derivative Info.                !
 --------------------------------------------------------------------------------
 ! R1    R(1,2)                  1.5176         estimate D2E/DX2                !
 ! R2    R(1,10)                 1.0939         estimate D2E/DX2                !
 ! R3    R(1,11)                 1.0948         estimate D2E/DX2                !
 ! R4    R(1,12)                 1.0938         estimate D2E/DX2                !
 ! R5    R(2,3)                  1.5285         estimate D2E/DX2                !
 ! R6    R(2,13)                 1.0938         estimate D2E/DX2                !
 ! R7    R(2,14)                 1.096          estimate D2E/DX2                !
 ! R8    R(3,4)                  1.5418         estimate D2E/DX2                !
 ! R9    R(3,15)                 1.0976         estimate D2E/DX2                !
 ! R10   R(3,16)                 1.0976         estimate D2E/DX2                !
 ! R11   R(4,5)                  1.5338         estimate D2E/DX2                !
 ! R12   R(4,6)                  1.5426         estimate D2E/DX2                !
 ! R13   R(4,17)                 1.0986         estimate D2E/DX2                !
 ! R14   R(5,18)                 1.0952         estimate D2E/DX2                !
 ! R15   R(5,19)                 1.0939         estimate D2E/DX2                !
 ! R16   R(5,20)                 1.0939         estimate D2E/DX2                !
 ! R17   R(6,7)                  1.419          estimate D2E/DX2                !
 ! R18   R(6,8)                  1.4216         estimate D2E/DX2                !
 ! R19   R(6,21)                 1.0967         estimate D2E/DX2                !
 ! R20   R(7,22)                 0.9688         estimate D2E/DX2                !
 ! R21   R(8,9)                  1.4216         estimate D2E/DX2                !
 ! R22   R(9,23)                 1.0927         estimate D2E/DX2                !
 ! R23   R(9,24)                 1.0941         estimate D2E/DX2                !
 ! R24   R(9,25)                 1.0941         estimate D2E/DX2                !
 ! A1    A(2,1,10)             109.9786         estimate D2E/DX2                !
 ! A2    A(2,1,11)             110.5723         estimate D2E/DX2                !
 ! A3    A(2,1,12)             111.1074         estimate D2E/DX2                !
 ! A4    A(10,1,11)            108.122          estimate D2E/DX2                !
 ! A5    A(10,1,12)            108.4725         estimate D2E/DX2                !
 ! A6    A(11,1,12)            108.5053         estimate D2E/DX2                !
 ! A7    A(1,2,3)              111.2225         estimate D2E/DX2                !
 ! A8    A(1,2,13)             107.7118         estimate D2E/DX2                !
 ! A9    A(1,2,14)             109.7857         estimate D2E/DX2                !
 ! A10   A(3,2,13)             110.7686         estimate D2E/DX2                !
 ! A11   A(3,2,14)             109.7592         estimate D2E/DX2                !
 ! A12   A(13,2,14)            107.5006         estimate D2E/DX2                !
 ! A13   A(2,3,4)              113.1191         estimate D2E/DX2                !
 ! A14   A(2,3,15)             108.3785         estimate D2E/DX2                !
 ! A15   A(2,3,16)             109.5988         estimate D2E/DX2                !
 ! A16   A(4,3,15)             109.5931         estimate D2E/DX2                !
 ! A17   A(4,3,16)             109.4085         estimate D2E/DX2                !
 ! A18   A(15,3,16)            106.5262         estimate D2E/DX2                !
 ! A19   A(3,4,5)              111.6045         estimate D2E/DX2                !
 ! A20   A(3,4,6)              110.1922         estimate D2E/DX2                !
 ! A21   A(3,4,17)             108.2467         estimate D2E/DX2                !
 ! A22   A(5,4,6)              110.4602         estimate D2E/DX2                !
 ! A23   A(5,4,17)             107.7954         estimate D2E/DX2                !
 ! A24   A(6,4,17)             108.4319         estimate D2E/DX2                !
 ! A25   A(4,5,18)             110.7889         estimate D2E/DX2                !
 ! A26   A(4,5,19)             111.6616         estimate D2E/DX2                !
 ! A27   A(4,5,20)             111.4948         estimate D2E/DX2                !
 ! A28   A(18,5,19)            108.0285         estimate D2E/DX2                !
 ! A29   A(18,5,20)            108.2869         estimate D2E/DX2                !
 ! A30   A(19,5,20)            106.3865         estimate D2E/DX2                !
 ! A31   A(4,6,7)              110.3628         estimate D2E/DX2                !
 ! A32   A(4,6,8)              109.6987         estimate D2E/DX2                !
 ! A33   A(4,6,21)             109.5732         estimate D2E/DX2                !
 ! A34   A(7,6,8)              108.7401         estimate D2E/DX2                !
 ! A35   A(7,6,21)             108.6164         estimate D2E/DX2                !
 ! A36   A(8,6,21)             109.8299         estimate D2E/DX2                !
 ! A37   A(6,7,22)             104.9368         estimate D2E/DX2                !
 ! A38   A(6,8,9)              111.7407         estimate D2E/DX2                !
 ! A39   A(8,9,23)             108.2593         estimate D2E/DX2                !
 ! A40   A(8,9,24)             110.5031         estimate D2E/DX2                !
 ! A41   A(8,9,25)             110.7877         estimate D2E/DX2                !
 ! A42   A(23,9,24)            108.2282         estimate D2E/DX2                !
 ! A43   A(23,9,25)            108.7749         estimate D2E/DX2                !
 ! A44   A(24,9,25)            110.2107         estimate D2E/DX2                !
 ! D1    D(10,1,2,3)           179.303          estimate D2E/DX2                !
 ! D2    D(10,1,2,13)           57.7465         estimate D2E/DX2                !
 ! D3    D(10,1,2,14)          -59.0212         estimate D2E/DX2                !
 ! D4    D(11,1,2,3)            59.9657         estimate D2E/DX2                !
 ! D5    D(11,1,2,13)          -61.5907         estimate D2E/DX2                !
 ! D6    D(11,1,2,14)         -178.3584         estimate D2E/DX2                !
 ! D7    D(12,1,2,3)           -60.5832         estimate D2E/DX2                !
 ! D8    D(12,1,2,13)          177.8603         estimate D2E/DX2                !
 ! D9    D(12,1,2,14)           61.0926         estimate D2E/DX2                !
 ! D10   D(1,2,3,4)           -179.6567         estimate D2E/DX2                !
 ! D11   D(1,2,3,15)            58.6036         estimate D2E/DX2                !
 ! D12   D(1,2,3,16)           -57.2754         estimate D2E/DX2                !
 ! D13   D(13,2,3,4)           -59.9005         estimate D2E/DX2                !
 ! D14   D(13,2,3,15)          178.3598         estimate D2E/DX2                !
 ! D15   D(13,2,3,16)           62.4808         estimate D2E/DX2                !
 ! D16   D(14,2,3,4)            58.652          estimate D2E/DX2                !
 ! D17   D(14,2,3,15)          -63.0876         estimate D2E/DX2                !
 ! D18   D(14,2,3,16)         -178.9666         estimate D2E/DX2                !
 ! D19   D(2,3,4,5)             59.6848         estimate D2E/DX2                !
 ! D20   D(2,3,4,6)           -177.2062         estimate D2E/DX2                !
 ! D21   D(2,3,4,17)           -58.7838         estimate D2E/DX2                !
 ! D22   D(15,3,4,5)          -179.2603         estimate D2E/DX2                !
 ! D23   D(15,3,4,6)           -56.1512         estimate D2E/DX2                !
 ! D24   D(15,3,4,17)           62.2712         estimate D2E/DX2                !
 ! D25   D(16,3,4,5)           -62.8026         estimate D2E/DX2                !
 ! D26   D(16,3,4,6)            60.3064         estimate D2E/DX2                !
 ! D27   D(16,3,4,17)          178.7288         estimate D2E/DX2                !
 ! D28   D(3,4,5,18)            59.2796         estimate D2E/DX2                !
 ! D29   D(3,4,5,19)           -61.1833         estimate D2E/DX2                !
 ! D30   D(3,4,5,20)           179.958          estimate D2E/DX2                !
 ! D31   D(6,4,5,18)           -63.6768         estimate D2E/DX2                !
 ! D32   D(6,4,5,19)           175.8603         estimate D2E/DX2                !
 ! D33   D(6,4,5,20)            57.0017         estimate D2E/DX2                !
 ! D34   D(17,4,5,18)          178.0174         estimate D2E/DX2                !
 ! D35   D(17,4,5,19)           57.5545         estimate D2E/DX2                !
 ! D36   D(17,4,5,20)          -61.3041         estimate D2E/DX2                !
 ! D37   D(3,4,6,7)             57.5728         estimate D2E/DX2                !
 ! D38   D(3,4,6,8)            177.3663         estimate D2E/DX2                !
 ! D39   D(3,4,6,21)           -61.989          estimate D2E/DX2                !
 ! D40   D(5,4,6,7)           -178.6519         estimate D2E/DX2                !
 ! D41   D(5,4,6,8)            -58.8583         estimate D2E/DX2                !
 ! D42   D(5,4,6,21)            61.7863         estimate D2E/DX2                !
 ! D43   D(17,4,6,7)           -60.7359         estimate D2E/DX2                !
 ! D44   D(17,4,6,8)            59.0577         estimate D2E/DX2                !
 ! D45   D(17,4,6,21)          179.7024         estimate D2E/DX2                !
 ! D46   D(4,6,7,22)            57.8066         estimate D2E/DX2                !
 ! D47   D(8,6,7,22)           -62.5639         estimate D2E/DX2                !
 ! D48   D(21,6,7,22)          177.9455         estimate D2E/DX2                !
 ! D49   D(4,6,8,9)            174.5137         estimate D2E/DX2                !
 ! D50   D(7,6,8,9)            -64.706          estimate D2E/DX2                !
 ! D51   D(21,6,8,9)            54.0246         estimate D2E/DX2                !
 ! D52   D(6,8,9,23)          -176.6039         estimate D2E/DX2                !
 ! D53   D(6,8,9,24)            65.0341         estimate D2E/DX2                !
 ! D54   D(6,8,9,25)           -57.4102         estimate D2E/DX2                !
 --------------------------------------------------------------------------------
 Trust Radius=3.00D-01 FncErr=1.00D-07 GrdErr=1.00D-06 EigMax=2.50D+02 EigMin=1.00D-04
 Number of steps in this run=    132 maximum allowed number of steps=    150.
 GradGradGradGradGradGradGradGradGradGradGradGradGradGradGradGradGradGrad

                          Input orientation:                          
 ---------------------------------------------------------------------
 Center     Atomic      Atomic             Coordinates (Angstroms)
 Number     Number       Type             X           Y           Z
 ---------------------------------------------------------------------
      1          6           0        0.974670   -0.089120    0.069670
      2          6           0        2.492150   -0.085100    0.054850
      3          6           0        3.055440    0.645570    1.273490
      4          6           0        4.596560    0.683070    1.297940
      5          6           0        5.164010    1.389090    0.060130
      6          6           0        5.092050    1.371950    2.586200
      7          8           0        4.590980    0.698470    3.730320
      8          8           0        6.512860    1.346640    2.627070
      9          6           0        7.020950    2.079790    3.733990
     10          1           0        0.593600   -0.605500   -0.816250
     11          1           0        0.587130    0.934790    0.060060
     12          1           0        0.590780   -0.597290    0.958950
     13          1           0        2.814600    0.399480   -0.871200
     14          1           0        2.865720   -1.115330    0.035130
     15          1           0        2.685020    0.146360    2.178070
     16          1           0        2.665180    1.671040    1.300790
     17          1           0        4.965930   -0.351540    1.293190
     18          1           0        4.796600    2.418960   -0.002580
     19          1           0        4.884150    0.873010   -0.862870
     20          1           0        6.257380    1.415330    0.079670
     21          1           0        4.737690    2.409550    2.607580
     22          1           0        4.905700   -0.213430    3.641080
     23          1           0        8.112170    2.074290    3.676460
     24          1           0        6.725470    1.606610    4.675180
     25          1           0        6.672080    3.116410    3.706230
 ---------------------------------------------------------------------
                    Distance matrix (angstroms):
                    1          2          3          4          5
     1  C    0.000000
     2  C    1.517558   0.000000
     3  C    2.513674   1.528482   0.000000
     4  C    3.901668   2.562011   1.541770   0.000000
     5  C    4.442495   3.051573   2.543842   1.533831   0.000000
     6  C    5.041871   3.910269   2.529549   1.542621   2.527153
     7  O    5.205608   4.304434   2.897705   2.432435   3.778308
     8  O    6.266837   4.983202   3.778549   2.424689   2.900065
     9  C    7.395195   6.223572   4.882245   3.709829   4.174032
    10  H    1.093946   2.152701   3.463069   4.706793   5.063110
    11  H    1.094838   2.160857   2.765613   4.203717   4.599372
    12  H    1.093813   2.166782   2.778162   4.219065   5.066361
    13  H    2.123513   1.093783   2.172155   2.821520   2.714117
    14  H    2.151829   1.096046   2.161087   2.797273   3.399247
    15  H    2.725087   2.144490   1.097582   2.171790   3.489332
    16  H    2.733431   2.160170   1.097560   2.169406   2.804084
    17  H    4.182825   2.779220   2.155131   1.098578   2.142304
    18  H    4.571962   3.403543   2.793726   2.178229   1.095242
    19  H    4.132718   2.735297   2.821337   2.188124   1.093887
    20  H    5.492767   4.053253   3.502878   2.186026   1.093859
    21  H    5.181183   4.216890   2.778738   2.171591   2.777155
    22  H    5.312572   4.324666   3.125192   2.527763   3.931666
    23  H    8.284515   7.025927   5.778064   4.466807   4.715823
    24  H    7.560286   6.490788   5.095509   4.097674   4.876901
    25  H    7.480673   6.407344   5.010325   4.003597   4.307198
                    6          7          8          9         10
     6  C    0.000000
     7  O    1.419034   0.000000
     8  O    1.421623   2.308876   0.000000
     9  C    2.353532   2.795141   1.421596   0.000000
    10  H    5.976874   6.192793   7.120740   8.320234   0.000000
    11  H    5.183319   5.436678   6.470969   7.496854   1.772133
    12  H    5.175643   5.035979   6.452327   7.497646   1.775221
    13  H    4.252775   4.941549   5.178043   6.459458   2.438410
    14  H    4.201317   4.463275   5.106964   6.415317   2.479376
    15  H    2.731746   2.519323   4.036661   4.995931   3.728979
    16  H    2.762505   3.249187   4.082756   5.006023   3.735765
    17  H    2.158286   2.680058   2.656321   4.011481   4.861224
    18  H    2.808078   4.115447   3.318204   4.361734   5.241624
    19  H    3.491167   4.605845   3.880297   5.210888   4.538390
    20  H    2.764520   4.076521   2.561100   3.791913   6.079871
    21  H    1.096650   2.051795   2.069151   2.567259   6.163329
    22  H    1.913355   0.968800   2.458658   3.121181   6.214154
    23  H    3.286803   3.780815   2.046579   1.092749   9.159400
    24  H    2.662135   2.504701   2.075462   1.094096   8.523442
    25  H    2.606550   3.190296   2.078948   1.094103   8.441170
                   11         12         13         14         15
    11  H    0.000000
    12  H    1.776312   0.000000
    13  H    2.472938   3.047684   0.000000
    14  H    3.065222   2.509414   1.765983   0.000000
    15  H    3.083623   2.534780   3.062500   2.493332   0.000000
    16  H    2.529776   3.092784   2.521256   3.066915   1.759165
    17  H    4.727488   4.394775   3.142743   2.564561   2.496691
    18  H    4.463891   5.264145   2.959920   4.027521   3.791928
    19  H    4.395452   4.890178   2.123049   2.972198   3.822500
    20  H    5.690610   6.077345   3.713333   4.231971   4.333050
    21  H    5.088411   5.381071   4.454275   4.748321   3.085444
    22  H    5.726444   5.095067   5.010891   4.240026   2.683518
    23  H    8.426330   8.431697   7.179864   7.138501   5.951138
    24  H    7.709079   7.503463   6.893069   6.620928   4.969218
    25  H    7.421633   7.636840   6.573791   6.772959   5.201261
                   16         17         18         19         20
    16  H    0.000000
    17  H    3.063387   0.000000
    18  H    2.607894   3.063228   0.000000
    19  H    3.200329   2.480888   1.771363   0.000000
    20  H    3.802686   2.502459   1.774237   1.751643   0.000000
    21  H    2.558983   3.066485   2.610842   3.798214   3.112597
    22  H    3.748081   2.352720   4.496403   4.633183   4.142890
    23  H    5.956183   4.632867   4.964588   5.698132   4.100167
    24  H    5.279831   4.285813   5.124636   5.882060   4.623247
    25  H    4.891879   4.556357   4.214159   5.395017   4.027106
                   21         22         23         24         25
    21  H    0.000000
    22  H    2.824247   0.000000
    23  H    3.555562   3.939082   0.000000
    24  H    2.978414   2.773711   1.771751   0.000000
    25  H    2.334212   3.769904   1.777853   1.794773   0.000000
 Stoichiometry    C7H16O2
 Framework group  C1[X(C7H16O2)]
 Deg. of freedom    69
 Full point group                 C1      NOp   1
 Largest Abelian subgroup         C1      NOp   1
 Largest concise Abelian subgroup C1      NOp   1
                         Standard orientation:                         
 ---------------------------------------------------------------------
 Center     Atomic      Atomic             Coordinates (Angstroms)
 Number     Number       Type             X           Y           Z
 ---------------------------------------------------------------------
      1          6           0       -3.862440   -0.554427    0.226972
      2          6           0       -2.672359    0.213067   -0.318592
      3          6           0       -1.357161   -0.349283    0.220178
      4          6           0       -0.117624    0.405189   -0.300759
      5          6           0       -0.154463    1.888406    0.088275
      6          6           0        1.170764   -0.258914    0.227165
      7          8           0        1.217525   -1.623210   -0.160349
      8          8           0        2.307054    0.407075   -0.307919
      9          6           0        3.518061   -0.088911    0.247416
     10          1           0       -4.792042   -0.127953   -0.161199
     11          1           0       -3.890595   -0.494627    1.319813
     12          1           0       -3.817472   -1.608420   -0.061998
     13          1           0       -2.792497    1.261572   -0.031250
     14          1           0       -2.673071    0.169285   -1.413763
     15          1           0       -1.290692   -1.407207   -0.064539
     16          1           0       -1.366768   -0.321255    1.317338
     17          1           0       -0.114641    0.345785   -1.397726
     18          1           0       -0.194242    2.003934    1.176680
     19          1           0       -1.024496    2.396188   -0.338095
     20          1           0        0.726047    2.421760   -0.281540
     21          1           0        1.189577   -0.205211    1.322338
     22          1           0        1.164910   -1.609998   -1.127629
     23          1           0        4.345799    0.500098   -0.155102
     24          1           0        3.670935   -1.133921   -0.038291
     25          1           0        3.513958    0.008284    1.337186
 ---------------------------------------------------------------------
 Rotational constants (GHZ):           3.5187048           0.7191596           0.6280420
 Standard basis: 6-31G(2df,p) (6D, 7F)
 There are   359 symmetry adapted cartesian basis functions of A   symmetry.
 There are   332 symmetry adapted basis functions of A   symmetry.
   332 basis functions,   508 primitive gaussians,   359 cartesian basis functions
    37 alpha electrons       37 beta electrons
       nuclear repulsion energy       497.1211040507 Hartrees.
 NAtoms=   25 NActive=   25 NUniq=   25 SFac= 1.00D+00 NAtFMM=   60 NAOKFM=F Big=F
 Integral buffers will be    131072 words long.
 Raffenetti 2 integral format.
 Two-electron integral symmetry is turned on.
 One-electron integrals computed using PRISM.
 PrsmSu:  requested number of processors reduced to:  13 ShMem   1 Linda.
 NBasis=   332 RedAO= T EigKep=  5.98D-04  NBF=   332
 NBsUse=   332 1.00D-06 EigRej= -1.00D+00 NBFU=   332
 ExpMin= 1.61D-01 ExpMax= 5.48D+03 ExpMxC= 8.25D+02 IAcc=3 IRadAn=         5 AccDes= 0.00D+00
 Harris functional with IExCor=  402 and IRadAn=       5 diagonalized for initial guess.
 HarFok:  IExCor=  402 AccDes= 0.00D+00 IRadAn=         5 IDoV= 1 UseB2=F ITyADJ=14
 ICtDFT=  3500011 ScaDFX=  1.000000  1.000000  1.000000  1.000000
 FoFCou: FMM=F IPFlag=           0 FMFlag=      100000 FMFlg1=           0
         NFxFlg=           0 DoJE=T BraDBF=F KetDBF=T FulRan=T
         wScrn=  0.000000 ICntrl=       500 IOpCl=  0 I1Cent=   200000004 NGrid=           0
         NMat0=    1 NMatS0=      1 NMatT0=    0 NMatD0=    1 NMtDS0=    0 NMtDT0=    0
 Petite list used in FoFCou.
 Requested convergence on RMS density matrix=1.00D-08 within 128 cycles.
 Requested convergence on MAX density matrix=1.00D-06.
 Requested convergence on             energy=1.00D-06.
 No special actions if energy rises.
 Integral accuracy reduced to 1.0D-05 until final iterations.
 Initial convergence to 1.0D-05 achieved.  Increase integral accuracy.
 SCF Done:  E(RB3LYP) =  -426.857750235     A.U. after   12 cycles
            NFock= 12  Conv=0.34D-08     -V/T= 2.0078

 **********************************************************************

            Population analysis using the SCF density.

 **********************************************************************

 Orbital symmetries:
       Occupied  (A) (A) (A) (A) (A) (A) (A) (A) (A) (A) (A) (A)
                 (A) (A) (A) (A) (A) (A) (A) (A) (A) (A) (A) (A)
                 (A) (A) (A) (A) (A) (A) (A) (A) (A) (A) (A) (A)
                 (A)
       Virtual   (A) (A) (A) (A) (A) (A) (A) (A) (A) (A) (A) (A)
                 (A) (A) (A) (A) (A) (A) (A) (A) (A) (A) (A) (A)
                 (A) (A) (A) (A) (A) (A) (A) (A) (A) (A) (A) (A)
                 (A) (A) (A) (A) (A) (A) (A) (A) (A) (A) (A) (A)
                 (A) (A) (A) (A) (A) (A) (A) (A) (A) (A) (A) (A)
                 (A) (A) (A) (A) (A) (A) (A) (A) (A) (A) (A) (A)
                 (A) (A) (A) (A) (A) (A) (A) (A) (A) (A) (A) (A)
                 (A) (A) (A) (A) (A) (A) (A) (A) (A) (A) (A) (A)
                 (A) (A) (A) (A) (A) (A) (A) (A) (A) (A) (A) (A)
                 (A) (A) (A) (A) (A) (A) (A) (A) (A) (A) (A) (A)
                 (A) (A) (A) (A) (A) (A) (A) (A) (A) (A) (A) (A)
                 (A) (A) (A) (A) (A) (A) (A) (A) (A) (A) (A) (A)
                 (A) (A) (A) (A) (A) (A) (A) (A) (A) (A) (A) (A)
                 (A) (A) (A) (A) (A) (A) (A) (A) (A) (A) (A) (A)
                 (A) (A) (A) (A) (A) (A) (A) (A) (A) (A) (A) (A)
                 (A) (A) (A) (A) (A) (A) (A) (A) (A) (A) (A) (A)
                 (A) (A) (A) (A) (A) (A) (A) (A) (A) (A) (A) (A)
                 (A) (A) (A) (A) (A) (A) (A) (A) (A) (A) (A) (A)
                 (A) (A) (A) (A) (A) (A) (A) (A) (A) (A) (A) (A)
                 (A) (A) (A) (A) (A) (A) (A) (A) (A) (A) (A) (A)
                 (A) (A) (A) (A) (A) (A) (A) (A) (A) (A) (A) (A)
                 (A) (A) (A) (A) (A) (A) (A) (A) (A) (A) (A) (A)
                 (A) (A) (A) (A) (A) (A) (A) (A) (A) (A) (A) (A)
                 (A) (A) (A) (A) (A) (A) (A) (A) (A) (A) (A) (A)
                 (A) (A) (A) (A) (A) (A) (A)
 The electronic state is 1-A.
 Alpha  occ. eigenvalues --  -19.13879 -19.13874 -10.27115 -10.21786 -10.18512
 Alpha  occ. eigenvalues --  -10.17434 -10.17305 -10.16823 -10.16728  -1.05729
 Alpha  occ. eigenvalues --   -0.98921  -0.80931  -0.75873  -0.69628  -0.67283
 Alpha  occ. eigenvalues --   -0.63741  -0.59389  -0.56779  -0.50437  -0.48694
 Alpha  occ. eigenvalues --   -0.46607  -0.46237  -0.43509  -0.42025  -0.40992
 Alpha  occ. eigenvalues --   -0.40204  -0.39449  -0.37931  -0.36350  -0.35829
 Alpha  occ. eigenvalues --   -0.33731  -0.32838  -0.32012  -0.31600  -0.30045
 Alpha  occ. eigenvalues --   -0.28161  -0.26121
 Alpha virt. eigenvalues --    0.08020   0.09322   0.10453   0.11726   0.12894
 Alpha virt. eigenvalues --    0.13742   0.14208   0.15984   0.16691   0.16921
 Alpha virt. eigenvalues --    0.17649   0.18117   0.18469   0.18759   0.19292
 Alpha virt. eigenvalues --    0.20890   0.22157   0.23200   0.23873   0.24179
 Alpha virt. eigenvalues --    0.26049   0.27199   0.30012   0.30642   0.41081
 Alpha virt. eigenvalues --    0.44880   0.47585   0.47624   0.48514   0.49306
 Alpha virt. eigenvalues --    0.51865   0.52558   0.53307   0.54566   0.56414
 Alpha virt. eigenvalues --    0.57570   0.59915   0.60324   0.62241   0.62991
 Alpha virt. eigenvalues --    0.65872   0.66724   0.68499   0.70285   0.70755
 Alpha virt. eigenvalues --    0.71966   0.72552   0.73483   0.73963   0.74833
 Alpha virt. eigenvalues --    0.75068   0.75817   0.75961   0.76932   0.78020
 Alpha virt. eigenvalues --    0.79882   0.80616   0.80982   0.81287   0.83407
 Alpha virt. eigenvalues --    0.84898   0.85848   0.87751   0.88490   0.89196
 Alpha virt. eigenvalues --    0.90735   0.92098   0.93149   0.96303   0.99444
 Alpha virt. eigenvalues --    1.01697   1.04254   1.06419   1.08040   1.10782
 Alpha virt. eigenvalues --    1.14124   1.15843   1.18861   1.21650   1.22601
 Alpha virt. eigenvalues --    1.24683   1.26498   1.28320   1.30759   1.32417
 Alpha virt. eigenvalues --    1.34413   1.36553   1.38050   1.40476   1.41481
 Alpha virt. eigenvalues --    1.43311   1.46608   1.49205   1.51343   1.53558
 Alpha virt. eigenvalues --    1.54287   1.56323   1.57761   1.58636   1.61003
 Alpha virt. eigenvalues --    1.61874   1.63619   1.67802   1.68502   1.71008
 Alpha virt. eigenvalues --    1.73526   1.75018   1.76097   1.79381   1.82122
 Alpha virt. eigenvalues --    1.85224   1.86497   1.87466   1.88978   1.92538
 Alpha virt. eigenvalues --    1.93867   1.95633   1.96096   1.97754   2.01901
 Alpha virt. eigenvalues --    2.03933   2.06998   2.15660   2.17367   2.19233
 Alpha virt. eigenvalues --    2.21069   2.23543   2.26630   2.29077   2.29640
 Alpha virt. eigenvalues --    2.32072   2.35488   2.36501   2.39427   2.40646
 Alpha virt. eigenvalues --    2.44837   2.47490   2.51992   2.52538   2.53179
 Alpha virt. eigenvalues --    2.58786   2.62351   2.67222   2.69803   2.72254
 Alpha virt. eigenvalues --    2.73714   2.75733   2.77005   2.77306   2.78832
 Alpha virt. eigenvalues --    2.80372   2.81073   2.82018   2.85715   2.86635
 Alpha virt. eigenvalues --    2.87177   2.88625   2.90168   2.90787   2.91746
 Alpha virt. eigenvalues --    2.92884   2.93594   2.94748   2.96028   2.96998
 Alpha virt. eigenvalues --    2.97724   2.99889   3.01818   3.06791   3.09569
 Alpha virt. eigenvalues --    3.13178   3.14862   3.16935   3.18518   3.20333
 Alpha virt. eigenvalues --    3.21660   3.26554   3.30131   3.32388   3.35322
 Alpha virt. eigenvalues --    3.36946   3.39159   3.42624   3.44224   3.45139
 Alpha virt. eigenvalues --    3.46690   3.49608   3.53368   3.54394   3.56532
 Alpha virt. eigenvalues --    3.58821   3.60131   3.61971   3.63287   3.65625
 Alpha virt. eigenvalues --    3.66843   3.69039   3.73946   3.74280   3.75391
 Alpha virt. eigenvalues --    3.76565   3.81643   3.82243   3.89598   3.90476
 Alpha virt. eigenvalues --    3.92088   3.95108   3.99429   4.01441   4.05785
 Alpha virt. eigenvalues --    4.07676   4.17642   4.18730   4.23423   4.28764
 Alpha virt. eigenvalues --    4.32622   4.33602   4.37628   4.38551   4.41814
 Alpha virt. eigenvalues --    4.42047   4.44029   4.44552   4.46470   4.47405
 Alpha virt. eigenvalues --    4.48358   4.48906   4.52012   4.53380   4.55211
 Alpha virt. eigenvalues --    4.56329   4.56954   4.58625   4.62351   4.63461
 Alpha virt. eigenvalues --    4.65116   4.66317   4.68035   4.69103   4.71445
 Alpha virt. eigenvalues --    4.72908   4.74665   4.75093   4.75455   4.76357
 Alpha virt. eigenvalues --    4.77549   4.79041   4.82511   4.83928   4.85255
 Alpha virt. eigenvalues --    4.86794   4.88837   4.90109   4.90512   4.92780
 Alpha virt. eigenvalues --    4.94501   4.99078   5.02039   5.03542   5.10673
 Alpha virt. eigenvalues --    5.23425   5.29820   5.30375   5.32072   5.35105
 Alpha virt. eigenvalues --    5.38541   5.42297   5.44631   5.46121   5.47702
 Alpha virt. eigenvalues --    5.49928   5.55526   5.64092   5.65485   5.66092
 Alpha virt. eigenvalues --    5.84927   5.89996   5.95851   6.04224   6.04479
 Alpha virt. eigenvalues --    6.10542   6.17061   6.24461   6.28941   7.09129
 Alpha virt. eigenvalues --    7.10561  11.15563  11.25310  11.50815  11.94547
 Alpha virt. eigenvalues --   11.96271  12.30760  12.61096  13.29952  13.51518
          Condensed to atoms (all electrons):
               1          2          3          4          5          6
     1  C    4.951094   0.409470  -0.037691   0.001700   0.000470  -0.000112
     2  C    0.409470   4.789280   0.425475  -0.028562  -0.005341   0.001051
     3  C   -0.037691   0.425475   4.848919   0.395250  -0.034203  -0.030592
     4  C    0.001700  -0.028562   0.395250   4.783641   0.358159   0.414883
     5  C    0.000470  -0.005341  -0.034203   0.358159   5.046704  -0.023052
     6  C   -0.000112   0.001051  -0.030592   0.414883  -0.023052   4.604702
     7  O    0.000005   0.000396  -0.008275  -0.027390   0.003351   0.333613
     8  O    0.000000  -0.000009   0.001717  -0.029105  -0.002775   0.357455
     9  C   -0.000000  -0.000000  -0.000242   0.005799   0.000279  -0.080888
    10  H    0.372298  -0.022916   0.003389  -0.000145   0.000008   0.000001
    11  H    0.378936  -0.028996  -0.004517   0.000258  -0.000019   0.000008
    12  H    0.378210  -0.029288  -0.003575   0.000100  -0.000000   0.000002
    13  H   -0.035767   0.369600  -0.029898  -0.004073   0.000378   0.000066
    14  H   -0.036661   0.368780  -0.033970  -0.001186  -0.000918   0.000315
    15  H   -0.002352  -0.035974   0.353283  -0.026149   0.005756  -0.003433
    16  H   -0.003070  -0.037045   0.357243  -0.030646  -0.007403  -0.002983
    17  H    0.000030  -0.004465  -0.041988   0.334694  -0.041967  -0.023704
    18  H   -0.000050  -0.000217  -0.005338  -0.029016   0.372131  -0.005166
    19  H   -0.000104   0.000093  -0.005293  -0.016822   0.368920   0.002198
    20  H   -0.000005   0.000174   0.004163  -0.022351   0.368823  -0.003308
    21  H    0.000007  -0.000037  -0.002198  -0.044309  -0.006263   0.337098
    22  H    0.000002  -0.000086   0.000198  -0.003127  -0.000305  -0.067157
    23  H    0.000000  -0.000000   0.000001  -0.000176   0.000005   0.003641
    24  H   -0.000000  -0.000000   0.000012   0.000126  -0.000010  -0.003323
    25  H    0.000000   0.000000   0.000029   0.000247  -0.000147  -0.004007
               7          8          9         10         11         12
     1  C    0.000005   0.000000  -0.000000   0.372298   0.378936   0.378210
     2  C    0.000396  -0.000009  -0.000000  -0.022916  -0.028996  -0.029288
     3  C   -0.008275   0.001717  -0.000242   0.003389  -0.004517  -0.003575
     4  C   -0.027390  -0.029105   0.005799  -0.000145   0.000258   0.000100
     5  C    0.003351  -0.002775   0.000279   0.000008  -0.000019  -0.000000
     6  C    0.333613   0.357455  -0.080888   0.000001   0.000008   0.000002
     7  O    7.882040  -0.065314  -0.002666   0.000000  -0.000000  -0.000004
     8  O   -0.065314   7.738146   0.357401  -0.000000   0.000000  -0.000000
     9  C   -0.002666   0.357401   4.839788   0.000000   0.000000   0.000000
    10  H    0.000000  -0.000000   0.000000   0.609149  -0.031918  -0.031808
    11  H   -0.000000   0.000000   0.000000  -0.031918   0.600759  -0.033094
    12  H   -0.000004  -0.000000   0.000000  -0.031808  -0.033094   0.601735
    13  H   -0.000009  -0.000000   0.000000  -0.002483  -0.004665   0.005754
    14  H   -0.000002   0.000001   0.000000  -0.002378   0.005739  -0.004547
    15  H    0.013569   0.000185  -0.000006  -0.000051  -0.000383   0.004985
    16  H    0.000009  -0.000006  -0.000002  -0.000052   0.005188  -0.000441
    17  H   -0.004223  -0.000685  -0.000128   0.000003   0.000012  -0.000000
    18  H    0.000021  -0.000131  -0.000063   0.000001   0.000005   0.000001
    19  H   -0.000042   0.000249   0.000005   0.000007   0.000020   0.000002
    20  H    0.000122   0.009579  -0.000312  -0.000000  -0.000000   0.000000
    21  H   -0.029451  -0.037207  -0.006635   0.000000  -0.000001   0.000000
    22  H    0.304407   0.005611   0.000964  -0.000000  -0.000000   0.000000
    23  H    0.000255  -0.019479   0.382247  -0.000000   0.000000   0.000000
    24  H    0.016177  -0.033977   0.373761  -0.000000   0.000000   0.000000
    25  H   -0.001633  -0.032637   0.366640   0.000000  -0.000000   0.000000
              13         14         15         16         17         18
     1  C   -0.035767  -0.036661  -0.002352  -0.003070   0.000030  -0.000050
     2  C    0.369600   0.368780  -0.035974  -0.037045  -0.004465  -0.000217
     3  C   -0.029898  -0.033970   0.353283   0.357243  -0.041988  -0.005338
     4  C   -0.004073  -0.001186  -0.026149  -0.030646   0.334694  -0.029016
     5  C    0.000378  -0.000918   0.005756  -0.007403  -0.041967   0.372131
     6  C    0.000066   0.000315  -0.003433  -0.002983  -0.023704  -0.005166
     7  O   -0.000009  -0.000002   0.013569   0.000009  -0.004223   0.000021
     8  O   -0.000000   0.000001   0.000185  -0.000006  -0.000685  -0.000131
     9  C    0.000000   0.000000  -0.000006  -0.000002  -0.000128  -0.000063
    10  H   -0.002483  -0.002378  -0.000051  -0.000052   0.000003   0.000001
    11  H   -0.004665   0.005739  -0.000383   0.005188   0.000012   0.000005
    12  H    0.005754  -0.004547   0.004985  -0.000441  -0.000000   0.000001
    13  H    0.639080  -0.042336   0.005928  -0.005088  -0.000189   0.000817
    14  H   -0.042336   0.649498  -0.005319   0.006332   0.005502   0.000100
    15  H    0.005928  -0.005319   0.630960  -0.038416  -0.003522  -0.000014
    16  H   -0.005088   0.006332  -0.038416   0.649989   0.006801   0.005200
    17  H   -0.000189   0.005502  -0.003522   0.006801   0.691989   0.006164
    18  H    0.000817   0.000100  -0.000014   0.005200   0.006164   0.606853
    19  H    0.003942   0.000960  -0.000085   0.000089  -0.003521  -0.033517
    20  H   -0.000156  -0.000037  -0.000174  -0.000055  -0.001808  -0.030207
    21  H   -0.000003   0.000010   0.000028   0.005769   0.007182   0.004904
    22  H    0.000002  -0.000011   0.000180   0.000090   0.007019   0.000028
    23  H    0.000000   0.000000   0.000000   0.000000   0.000004   0.000001
    24  H    0.000000   0.000000  -0.000009  -0.000001  -0.000028   0.000001
    25  H    0.000000  -0.000000  -0.000000   0.000000   0.000036   0.000015
              19         20         21         22         23         24
     1  C   -0.000104  -0.000005   0.000007   0.000002   0.000000  -0.000000
     2  C    0.000093   0.000174  -0.000037  -0.000086  -0.000000  -0.000000
     3  C   -0.005293   0.004163  -0.002198   0.000198   0.000001   0.000012
     4  C   -0.016822  -0.022351  -0.044309  -0.003127  -0.000176   0.000126
     5  C    0.368920   0.368823  -0.006263  -0.000305   0.000005  -0.000010
     6  C    0.002198  -0.003308   0.337098  -0.067157   0.003641  -0.003323
     7  O   -0.000042   0.000122  -0.029451   0.304407   0.000255   0.016177
     8  O    0.000249   0.009579  -0.037207   0.005611  -0.019479  -0.033977
     9  C    0.000005  -0.000312  -0.006635   0.000964   0.382247   0.373761
    10  H    0.000007  -0.000000   0.000000  -0.000000  -0.000000  -0.000000
    11  H    0.000020  -0.000000  -0.000001  -0.000000   0.000000   0.000000
    12  H    0.000002   0.000000   0.000000   0.000000   0.000000   0.000000
    13  H    0.003942  -0.000156  -0.000003   0.000002   0.000000   0.000000
    14  H    0.000960  -0.000037   0.000010  -0.000011   0.000000   0.000000
    15  H   -0.000085  -0.000174   0.000028   0.000180   0.000000  -0.000009
    16  H    0.000089  -0.000055   0.005769   0.000090   0.000000  -0.000001
    17  H   -0.003521  -0.001808   0.007182   0.007019   0.000004  -0.000028
    18  H   -0.033517  -0.030207   0.004904   0.000028   0.000001   0.000001
    19  H    0.598402  -0.030527  -0.000299  -0.000009  -0.000001   0.000001
    20  H   -0.030527   0.575655   0.000557   0.000014  -0.000023   0.000032
    21  H   -0.000299   0.000557   0.667209   0.008261  -0.000081  -0.001730
    22  H   -0.000009   0.000014   0.008261   0.465883  -0.000033  -0.001381
    23  H   -0.000001  -0.000023  -0.000081  -0.000033   0.584377  -0.037736
    24  H    0.000001   0.000032  -0.001730  -0.001381  -0.037736   0.610577
    25  H   -0.000001   0.000024   0.014192   0.000276  -0.035013  -0.044091
              25
     1  C    0.000000
     2  C    0.000000
     3  C    0.000029
     4  C    0.000247
     5  C   -0.000147
     6  C   -0.004007
     7  O   -0.001633
     8  O   -0.032637
     9  C    0.366640
    10  H    0.000000
    11  H   -0.000000
    12  H    0.000000
    13  H    0.000000
    14  H   -0.000000
    15  H   -0.000000
    16  H    0.000000
    17  H    0.000036
    18  H    0.000015
    19  H   -0.000001
    20  H    0.000024
    21  H    0.014192
    22  H    0.000276
    23  H   -0.035013
    24  H   -0.044091
    25  H    0.630237
 Mulliken charges:
               1
     1  C   -0.376412
     2  C   -0.171383
     3  C   -0.151900
     4  C   -0.031802
     5  C   -0.402581
     6  C    0.192694
     7  O   -0.414957
     8  O   -0.249019
     9  C   -0.235942
    10  H    0.106894
    11  H    0.112668
    12  H    0.111968
    13  H    0.099099
    14  H    0.090127
    15  H    0.101012
    16  H    0.088495
    17  H    0.066793
    18  H    0.107477
    19  H    0.115332
    20  H    0.129820
    21  H    0.082998
    22  H    0.279173
    23  H    0.122010
    24  H    0.121600
    25  H    0.105835
 Sum of Mulliken charges =  -0.00000
 Mulliken charges with hydrogens summed into heavy atoms:
               1
     1  C   -0.044881
     2  C    0.017843
     3  C    0.037607
     4  C    0.034991
     5  C   -0.049952
     6  C    0.275691
     7  O   -0.135784
     8  O   -0.249019
     9  C    0.113504
 Electronic spatial extent (au):  <R**2>=           1887.0960
 Charge=             -0.0000 electrons
 Dipole moment (field-independent basis, Debye):
    X=             -0.0608    Y=              0.2319    Z=             -0.2810  Tot=              0.3694
 Quadrupole moment (field-independent basis, Debye-Ang):
   XX=            -55.6945   YY=            -60.9344   ZZ=            -55.1142
   XY=             -0.7318   XZ=              0.9314   YZ=              2.6356
 Traceless Quadrupole moment (field-independent basis, Debye-Ang):
   XX=              1.5532   YY=             -3.6867   ZZ=              2.1335
   XY=             -0.7318   XZ=              0.9314   YZ=              2.6356
 Octapole moment (field-independent basis, Debye-Ang**2):
  XXX=             39.9118  YYY=             -2.1776  ZZZ=             -3.3867  XYY=              1.7529
  XXY=             -0.7106  XXZ=              0.6054  XZZ=              7.5200  YZZ=             -5.4464
  YYZ=             -6.0644  XYZ=              2.5905
 Hexadecapole moment (field-independent basis, Debye-Ang**3):
 XXXX=          -1900.5475 YYYY=           -408.1244 ZZZZ=           -126.1534 XXXY=            -17.3862
 XXXZ=              8.0421 YYYX=              1.1069 YYYZ=              8.3183 ZZZX=             -5.7854
 ZZZY=              7.3019 XXYY=           -399.2341 XXZZ=           -347.7808 YYZZ=            -83.7331
 XXYZ=              5.8501 YYXZ=             -5.7694 ZZXY=             -6.3442
 N-N= 4.971211040507D+02 E-N=-1.988628410204D+03  KE= 4.235727862780D+02
 PrsmSu:  requested number of processors reduced to:  13 ShMem   1 Linda.
 Calling FoFJK, ICntrl=      2127 FMM=F ISym2X=0 I1Cent= 0 IOpClX= 0 NMat=1 NMatS=1 NMatT=0.
 ***** Axes restored to original set *****
 -------------------------------------------------------------------
 Center     Atomic                   Forces (Hartrees/Bohr)
 Number     Number              X              Y              Z
 -------------------------------------------------------------------
      1        6          -0.004105616   -0.003065158   -0.003166668
      2        6          -0.001394954    0.004055319    0.001404164
      3        6           0.005176715   -0.004376594    0.000281831
      4        6           0.002526760    0.008199201   -0.002324622
      5        6           0.005162990   -0.001562787   -0.002908844
      6        6           0.009011218   -0.020629449   -0.000352186
      7        8          -0.002576141    0.004973777   -0.001416002
      8        8          -0.006981287    0.004989470   -0.004186762
      9        6           0.002974382   -0.006122264   -0.002092470
     10        1          -0.003271256   -0.000107110    0.000551490
     11        1          -0.001608816   -0.000301305    0.000557617
     12        1          -0.002053492    0.000188197    0.000441008
     13        1           0.002591738   -0.001000294   -0.000470456
     14        1           0.001579324   -0.000579271   -0.000912450
     15        1           0.001572033    0.002346120   -0.000035459
     16        1          -0.000289698    0.000980585   -0.000150683
     17        1           0.001717350   -0.000549396    0.003193421
     18        1          -0.000114812    0.000942232   -0.000662513
     19        1          -0.001298575    0.000949608    0.000886669
     20        1          -0.000955561    0.001250755    0.002780510
     21        1          -0.002941453    0.000658020    0.006232522
     22        1          -0.001661245    0.003513615    0.001644300
     23        1          -0.000045293   -0.000620800   -0.003009804
     24        1          -0.001749370    0.002790318    0.001737447
     25        1          -0.001264941    0.003077211    0.001977943
 -------------------------------------------------------------------
 Cartesian Forces:  Max     0.020629449 RMS     0.003782245

 GradGradGradGradGradGradGradGradGradGradGradGradGradGradGradGradGradGrad
 Berny optimization.
 FormGI is forming the generalized inverse of G from B-inverse, IUseBI=4.
 Internal  Forces:  Max     0.011031795 RMS     0.002976013
 Search for a local minimum.
 Step number   1 out of a maximum of  132
 All quantities printed in internal units (Hartrees-Bohrs-Radians)
 Mixed Optimization -- RFO/linear search
 Second derivative matrix not updated -- first step.
 ITU=  0
     Eigenvalues ---    0.00230   0.00230   0.00318   0.00389   0.00534
     Eigenvalues ---    0.01406   0.01406   0.01440   0.03443   0.03526
     Eigenvalues ---    0.03769   0.04677   0.04768   0.04782   0.04946
     Eigenvalues ---    0.05430   0.05436   0.05544   0.05653   0.05779
     Eigenvalues ---    0.06059   0.08129   0.08388   0.09471   0.10135
     Eigenvalues ---    0.10486   0.12030   0.12249   0.16000   0.16000
     Eigenvalues ---    0.16000   0.16000   0.16000   0.16000   0.16000
     Eigenvalues ---    0.16000   0.16000   0.16000   0.16525   0.16790
     Eigenvalues ---    0.18780   0.20397   0.21908   0.21916   0.25000
     Eigenvalues ---    0.28288   0.28363   0.29072   0.29564   0.30603
     Eigenvalues ---    0.33840   0.33951   0.33953   0.34055   0.34123
     Eigenvalues ---    0.34214   0.34259   0.34343   0.34344   0.34361
     Eigenvalues ---    0.34367   0.34370   0.34376   0.34379   0.34497
     Eigenvalues ---    0.42217   0.42221   0.42606   0.53623
 RFO step:  Lambda=-6.86980064D-03 EMin= 2.30000000D-03
 Linear search not attempted -- first point.
 Iteration  1 RMS(Cart)=  0.07407365 RMS(Int)=  0.00154215
 Iteration  2 RMS(Cart)=  0.00310640 RMS(Int)=  0.00030384
 Iteration  3 RMS(Cart)=  0.00000268 RMS(Int)=  0.00030384
 Iteration  4 RMS(Cart)=  0.00000000 RMS(Int)=  0.00030384
 Variable       Old X    -DE/DX   Delta X   Delta X   Delta X     New X
                                 (Linear)    (Quad)   (Total)
    R1        2.86777   0.01103   0.00000   0.03526   0.03526   2.90303
    R2        2.06726   0.00074   0.00000   0.00212   0.00212   2.06938
    R3        2.06894   0.00028   0.00000   0.00081   0.00081   2.06975
    R4        2.06701   0.00099   0.00000   0.00283   0.00283   2.06984
    R5        2.88841   0.00470   0.00000   0.01555   0.01555   2.90396
    R6        2.06695   0.00072   0.00000   0.00205   0.00205   2.06900
    R7        2.07123   0.00110   0.00000   0.00316   0.00316   2.07438
    R8        2.91352   0.00187   0.00000   0.00645   0.00645   2.91997
    R9        2.07413  -0.00163   0.00000  -0.00470  -0.00470   2.06943
   R10        2.07409   0.00102   0.00000   0.00293   0.00293   2.07702
   R11        2.89852   0.00169   0.00000   0.00566   0.00566   2.90418
   R12        2.91513  -0.00453   0.00000  -0.01563  -0.01563   2.89950
   R13        2.07601   0.00108   0.00000   0.00313   0.00313   2.07914
   R14        2.06971   0.00096   0.00000   0.00276   0.00276   2.07247
   R15        2.06715  -0.00086   0.00000  -0.00247  -0.00247   2.06468
   R16        2.06709  -0.00088   0.00000  -0.00250  -0.00250   2.06460
   R17        2.68159  -0.00235   0.00000  -0.00542  -0.00542   2.67616
   R18        2.68648  -0.00729   0.00000  -0.01700  -0.01700   2.66948
   R19        2.07237   0.00169   0.00000   0.00488   0.00488   2.07724
   R20        1.83077  -0.00400   0.00000  -0.00736  -0.00736   1.82341
   R21        2.68643  -0.00156   0.00000  -0.00364  -0.00364   2.68279
   R22        2.06500   0.00012   0.00000   0.00033   0.00033   2.06533
   R23        2.06754   0.00076   0.00000   0.00217   0.00217   2.06971
   R24        2.06756   0.00327   0.00000   0.00933   0.00933   2.07688
    A1        1.91949   0.00412   0.00000   0.02735   0.02718   1.94667
    A2        1.92985   0.00115   0.00000   0.00593   0.00584   1.93569
    A3        1.93919   0.00136   0.00000   0.00641   0.00635   1.94554
    A4        1.88709  -0.00225   0.00000  -0.01008  -0.01025   1.87683
    A5        1.89320  -0.00263   0.00000  -0.01396  -0.01410   1.87910
    A6        1.89378  -0.00199   0.00000  -0.01702  -0.01700   1.87677
    A7        1.94120   0.00428   0.00000   0.02447   0.02431   1.96551
    A8        1.87993   0.00058   0.00000   0.01993   0.01979   1.89972
    A9        1.91612  -0.00136   0.00000  -0.00706  -0.00687   1.90925
   A10        1.93328  -0.00183   0.00000  -0.00542  -0.00600   1.92728
   A11        1.91566  -0.00152   0.00000  -0.01396  -0.01398   1.90168
   A12        1.87624  -0.00028   0.00000  -0.01893  -0.01902   1.85722
   A13        1.97430   0.00895   0.00000   0.04437   0.04428   2.01859
   A14        1.89156  -0.00144   0.00000  -0.00058  -0.00030   1.89127
   A15        1.91286  -0.00269   0.00000  -0.00454  -0.00472   1.90814
   A16        1.91276  -0.00407   0.00000  -0.02555  -0.02573   1.88703
   A17        1.90954  -0.00229   0.00000  -0.00584  -0.00621   1.90333
   A18        1.85923   0.00109   0.00000  -0.01115  -0.01139   1.84784
   A19        1.94787   0.00358   0.00000   0.03368   0.03353   1.98140
   A20        1.92322  -0.00139   0.00000  -0.00740  -0.00746   1.91575
   A21        1.88926  -0.00001   0.00000   0.00629   0.00560   1.89486
   A22        1.92789  -0.00130   0.00000  -0.00599  -0.00600   1.92190
   A23        1.88138   0.00019   0.00000   0.01039   0.00983   1.89121
   A24        1.89249  -0.00114   0.00000  -0.03852  -0.03851   1.85399
   A25        1.93363   0.00097   0.00000   0.00175   0.00171   1.93534
   A26        1.94886  -0.00007   0.00000   0.00309   0.00311   1.95197
   A27        1.94595  -0.00254   0.00000  -0.01467  -0.01469   1.93126
   A28        1.88545  -0.00061   0.00000  -0.00461  -0.00461   1.88084
   A29        1.88996   0.00001   0.00000  -0.00651  -0.00659   1.88338
   A30        1.85679   0.00233   0.00000   0.02157   0.02161   1.87840
   A31        1.92619   0.00787   0.00000   0.04916   0.04894   1.97513
   A32        1.91460  -0.01082   0.00000  -0.03403  -0.03544   1.87917
   A33        1.91241   0.00286   0.00000   0.00490   0.00514   1.91755
   A34        1.89787   0.00692   0.00000   0.05829   0.05828   1.95615
   A35        1.89571  -0.00849   0.00000  -0.07274  -0.07217   1.82354
   A36        1.91689   0.00174   0.00000  -0.00557  -0.00521   1.91169
   A37        1.83149   0.00241   0.00000   0.01447   0.01447   1.84596
   A38        1.95024   0.00800   0.00000   0.03116   0.03116   1.98140
   A39        1.88948  -0.00455   0.00000  -0.02645  -0.02640   1.86308
   A40        1.92864   0.00343   0.00000   0.02169   0.02172   1.95037
   A41        1.93361   0.00174   0.00000   0.00848   0.00847   1.94208
   A42        1.88894   0.00228   0.00000   0.01765   0.01775   1.90669
   A43        1.89848   0.00045   0.00000   0.00034   0.00035   1.89883
   A44        1.92354  -0.00340   0.00000  -0.02184  -0.02187   1.90167
    D1        3.12943   0.00038   0.00000   0.01368   0.01384  -3.13992
    D2        1.00787  -0.00037   0.00000  -0.00763  -0.00780   1.00007
    D3       -1.03011   0.00037   0.00000   0.00750   0.00754  -1.02257
    D4        1.04660  -0.00018   0.00000   0.00509   0.00519   1.05179
    D5       -1.07496  -0.00092   0.00000  -0.01622  -0.01645  -1.09141
    D6       -3.11294  -0.00018   0.00000  -0.00109  -0.00111  -3.11405
    D7       -1.05738   0.00067   0.00000   0.01832   0.01851  -1.03886
    D8        3.10425  -0.00008   0.00000  -0.00299  -0.00312   3.10113
    D9        1.06627   0.00066   0.00000   0.01214   0.01222   1.07849
   D10       -3.13560  -0.00160   0.00000  -0.05050  -0.05047   3.09711
   D11        1.02283  -0.00128   0.00000  -0.04671  -0.04680   0.97602
   D12       -0.99964  -0.00032   0.00000  -0.03064  -0.03058  -1.03022
   D13       -1.04546   0.00074   0.00000  -0.01289  -0.01294  -1.05840
   D14        3.11297   0.00106   0.00000  -0.00909  -0.00927   3.10369
   D15        1.09050   0.00202   0.00000   0.00698   0.00695   1.09745
   D16        1.02367  -0.00169   0.00000  -0.04834  -0.04821   0.97546
   D17       -1.10109  -0.00137   0.00000  -0.04454  -0.04455  -1.14563
   D18       -3.12356  -0.00040   0.00000  -0.02847  -0.02832   3.13131
   D19        1.04170   0.00124   0.00000   0.06487   0.06506   1.10676
   D20       -3.09283   0.00108   0.00000   0.07541   0.07559  -3.01724
   D21       -1.02597  -0.00110   0.00000   0.02831   0.02836  -0.99761
   D22       -3.12868   0.00252   0.00000   0.07576   0.07561  -3.05307
   D23       -0.98002   0.00236   0.00000   0.08630   0.08614  -0.89388
   D24        1.08684   0.00018   0.00000   0.03919   0.03891   1.12575
   D25       -1.09611   0.00020   0.00000   0.04439   0.04450  -1.05161
   D26        1.05255   0.00004   0.00000   0.05493   0.05503   1.10757
   D27        3.11941  -0.00214   0.00000   0.00783   0.00780   3.12720
   D28        1.03462  -0.00074   0.00000  -0.02602  -0.02611   1.00851
   D29       -1.06785  -0.00058   0.00000  -0.02344  -0.02352  -1.09137
   D30        3.14086  -0.00177   0.00000  -0.04300  -0.04304   3.09782
   D31       -1.11137  -0.00054   0.00000  -0.03587  -0.03595  -1.14732
   D32        3.06934  -0.00038   0.00000  -0.03329  -0.03336   3.03598
   D33        0.99487  -0.00158   0.00000  -0.05285  -0.05288   0.94198
   D34        3.10699   0.00147   0.00000   0.00784   0.00795   3.11494
   D35        1.00452   0.00162   0.00000   0.01042   0.01054   1.01506
   D36       -1.06996   0.00043   0.00000  -0.00914  -0.00898  -1.07894
   D37        1.00483  -0.00477   0.00000  -0.05293  -0.05264   0.95219
   D38        3.09563   0.00185   0.00000   0.02834   0.02827   3.12390
   D39       -1.08191  -0.00097   0.00000   0.00326   0.00343  -1.07848
   D40       -3.11806  -0.00208   0.00000  -0.01937  -0.01933  -3.13739
   D41       -1.02727   0.00455   0.00000   0.06190   0.06159  -0.96568
   D42        1.07838   0.00172   0.00000   0.03682   0.03675   1.11512
   D43       -1.06004  -0.00328   0.00000  -0.03328  -0.03314  -1.09318
   D44        1.03075   0.00334   0.00000   0.04799   0.04778   1.07853
   D45        3.13640   0.00052   0.00000   0.02291   0.02294  -3.12385
   D46        1.00892  -0.00220   0.00000   0.01934   0.02103   1.02995
   D47       -1.09195   0.00194   0.00000  -0.00552  -0.00730  -1.09924
   D48        3.10574   0.00076   0.00000   0.00965   0.00974   3.11547
   D49        3.04584  -0.00412   0.00000  -0.07676  -0.07645   2.96938
   D50       -1.12933   0.00322   0.00000  -0.00122  -0.00136  -1.13069
   D51        0.94291  -0.00194   0.00000  -0.05790  -0.05806   0.88484
   D52       -3.08232   0.00069   0.00000  -0.00895  -0.00902  -3.09134
   D53        1.13506  -0.00131   0.00000  -0.02692  -0.02682   1.10824
   D54       -1.00200  -0.00055   0.00000  -0.01990  -0.01993  -1.02193
         Item               Value     Threshold  Converged?
 Maximum Force            0.011032     0.000450     NO 
 RMS     Force            0.002976     0.000300     NO 
 Maximum Displacement     0.272525     0.001800     NO 
 RMS     Displacement     0.073866     0.001200     NO 
 Predicted change in Energy=-3.784519D-03
 GradGradGradGradGradGradGradGradGradGradGradGradGradGradGradGradGradGrad

                          Input orientation:                          
 ---------------------------------------------------------------------
 Center     Atomic      Atomic             Coordinates (Angstroms)
 Number     Number       Type             X           Y           Z
 ---------------------------------------------------------------------
      1          6           0        0.925596   -0.135262    0.080251
      2          6           0        2.460447   -0.089961    0.034034
      3          6           0        3.065511    0.666370    1.227073
      4          6           0        4.609258    0.701971    1.283320
      5          6           0        5.249342    1.442971    0.098815
      6          6           0        5.065895    1.329135    2.607094
      7          8           0        4.516546    0.689967    3.745162
      8          8           0        6.478400    1.318136    2.622002
      9          6           0        7.039712    2.068254    3.688638
     10          1           0        0.513523   -0.679154   -0.776225
     11          1           0        0.504050    0.875487    0.063114
     12          1           0        0.566253   -0.627220    0.990500
     13          1           0        2.772432    0.371198   -0.908694
     14          1           0        2.855169   -1.114203    0.023810
     15          1           0        2.701702    0.202538    2.149971
     16          1           0        2.682273    1.696454    1.236984
     17          1           0        4.983612   -0.332608    1.288006
     18          1           0        4.882634    2.474809    0.038849
     19          1           0        5.028364    0.954797   -0.853335
     20          1           0        6.335822    1.478355    0.208104
     21          1           0        4.705735    2.365577    2.673290
     22          1           0        4.802319   -0.230149    3.692578
     23          1           0        8.124871    2.028172    3.564917
     24          1           0        6.771891    1.649154    4.664439
     25          1           0        6.717515    3.118311    3.650451
 ---------------------------------------------------------------------
                    Distance matrix (angstroms):
                    1          2          3          4          5
     1  C    0.000000
     2  C    1.536215   0.000000
     3  C    2.556765   1.536710   0.000000
     4  C    3.964554   2.608688   1.545181   0.000000
     5  C    4.602818   3.183081   2.577827   1.536828   0.000000
     6  C    5.066702   3.927191   2.518979   1.534351   2.517553
     7  O    5.196873   4.313733   2.906343   2.463617   3.794713
     8  O    6.277459   4.982394   3.744120   2.380215   2.809384
     9  C    7.433595   6.243691   4.880456   3.682308   4.059954
    10  H    1.095068   2.189562   3.512303   4.787929   5.262802
    11  H    1.095267   2.181840   2.821278   4.286226   4.779236
    12  H    1.095310   2.188938   2.824116   4.265956   5.197318
    13  H    2.155299   1.094869   2.175895   2.878934   2.880773
    14  H    2.164431   1.097716   2.159288   2.821645   3.503830
    15  H    2.748163   2.149639   1.095097   2.153900   3.498054
    16  H    2.789108   2.165080   1.099110   2.168966   2.819490
    17  H    4.238527   2.828018   2.163512   1.100235   2.153478
    18  H    4.740499   3.527755   2.825644   2.183207   1.096704
    19  H    4.346552   2.910866   2.874731   2.192000   1.092582
    20  H    5.647181   4.184310   3.520306   2.177128   1.092537
    21  H    5.221828   4.246958   2.769329   2.170002   2.788302
    22  H    5.299706   4.346143   3.146262   2.590491   3.989271
    23  H    8.285705   7.002808   5.737347   4.395911   4.541475
    24  H    7.640555   6.561533   5.149622   4.123846   4.817218
    25  H    7.541776   6.441592   5.022142   3.985820   4.192424
                    6          7          8          9         10
     6  C    0.000000
     7  O    1.416164   0.000000
     8  O    1.412626   2.346264   0.000000
     9  C    2.368963   2.875628   1.419669   0.000000
    10  H    6.016990   6.192061   7.149606   8.371044   0.000000
    11  H    5.242906   5.449038   6.514345   7.568486   1.766774
    12  H    5.165993   4.992790   6.434259   7.513401   1.768275
    13  H    4.305623   4.980153   5.205450   6.498087   2.494685
    14  H    4.186952   4.456867   5.078846   6.408541   2.512494
    15  H    2.658494   2.464930   3.966209   4.966560   3.758740
    16  H    2.773767   3.266272   4.058569   5.013593   3.794733
    17  H    2.123241   2.702114   2.595937   3.969221   4.935873
    18  H    2.818161   4.129944   3.249160   4.259017   5.449858
    19  H    3.480820   4.634465   3.783198   5.090660   4.802034
    20  H    2.718480   4.054886   2.423407   3.599660   6.286725
    21  H    1.099230   1.998092   2.059636   2.562573   6.224482
    22  H    1.918102   0.964906   2.520429   3.207585   6.210118
    23  H    3.280764   3.852700   2.025860   1.092925   9.171027
    24  H    2.691747   2.617574   2.089799   1.095245   8.613304
    25  H    2.649074   3.278734   2.086987   1.099040   8.515029
                   11         12         13         14         15
    11  H    0.000000
    12  H    1.766931   0.000000
    13  H    2.518784   3.077499   0.000000
    14  H    3.080287   2.531952   1.755797   0.000000
    15  H    3.104433   2.567687   3.064128   2.505578   0.000000
    16  H    2.607031   3.152421   2.523562   3.066182   1.750916
    17  H    4.798576   4.437158   3.195333   2.596027   2.497295
    18  H    4.661589   5.399942   3.126655   4.122117   3.791637
    19  H    4.616880   5.080644   2.330855   3.126167   3.872867
    20  H    5.864643   6.191408   3.894970   4.343993   4.313396
    21  H    5.165998   5.378097   4.532749   4.749021   2.994786
    22  H    5.733284   5.040153   5.064954   4.246504   2.641864
    23  H    8.465708   8.414953   7.169893   7.084047   5.894555
    24  H    7.813871   7.562384   6.977726   6.671753   4.998168
    25  H    7.517073   7.677394   6.625414   6.781181   5.184586
                   16         17         18         19         20
    16  H    0.000000
    17  H    3.068527   0.000000
    18  H    2.623538   3.074439   0.000000
    19  H    3.228565   2.498951   1.768521   0.000000
    20  H    3.801919   2.504845   1.770119   1.763580   0.000000
    21  H    2.570039   3.045722   2.642632   3.812017   3.085691
    22  H    3.773107   2.413572   4.546755   4.703245   4.172790
    23  H    5.928844   4.541488   4.810898   5.501040   3.843330
    24  H    5.336166   4.304140   5.064295   5.828195   4.480876
    25  H    4.912197   4.527296   4.101774   5.274288   3.832088
                   21         22         23         24         25
    21  H    0.000000
    22  H    2.790353   0.000000
    23  H    3.549554   4.019411   0.000000
    24  H    2.957522   2.890590   1.784141   0.000000
    25  H    2.359812   3.857711   1.782237   1.785932   0.000000
 Stoichiometry    C7H16O2
 Framework group  C1[X(C7H16O2)]
 Deg. of freedom    69
 Full point group                 C1      NOp   1
 Largest Abelian subgroup         C1      NOp   1
 Largest concise Abelian subgroup C1      NOp   1
                         Standard orientation:                         
 ---------------------------------------------------------------------
 Center     Atomic      Atomic             Coordinates (Angstroms)
 Number     Number       Type             X           Y           Z
 ---------------------------------------------------------------------
      1          6           0       -3.905935   -0.541933    0.205551
      2          6           0       -2.697050    0.250943   -0.313968
      3          6           0       -1.363026   -0.277840    0.235803
      4          6           0       -0.094678    0.430809   -0.290214
      5          6           0       -0.015452    1.915444    0.098916
      6          6           0        1.155494   -0.310889    0.200892
      7          8           0        1.151917   -1.688033   -0.129232
      8          8           0        2.284191    0.357786   -0.322967
      9          6           0        3.513707   -0.087334    0.229860
     10          1           0       -4.846142   -0.151750   -0.198110
     11          1           0       -3.968320   -0.488464    1.297732
     12          1           0       -3.839743   -1.600017   -0.069734
     13          1           0       -2.826982    1.306011   -0.051890
     14          1           0       -2.674485    0.204258   -1.410459
     15          1           0       -1.285732   -1.341961   -0.010997
     16          1           0       -1.374992   -0.223928    1.333525
     17          1           0       -0.083185    0.359234   -1.388058
     18          1           0       -0.051349    2.036567    1.188319
     19          1           0       -0.839515    2.492037   -0.327929
     20          1           0        0.917567    2.358034   -0.257773
     21          1           0        1.193927   -0.291625    1.299282
     22          1           0        1.094100   -1.726780   -1.091625
     23          1           0        4.299318    0.532485   -0.209599
     24          1           0        3.708301   -1.138727   -0.007347
     25          1           0        3.530019    0.041399    1.321213
 ---------------------------------------------------------------------
 Rotational constants (GHZ):           3.4166328           0.7178054           0.6228610
 Standard basis: 6-31G(2df,p) (6D, 7F)
 There are   359 symmetry adapted cartesian basis functions of A   symmetry.
 There are   332 symmetry adapted basis functions of A   symmetry.
   332 basis functions,   508 primitive gaussians,   359 cartesian basis functions
    37 alpha electrons       37 beta electrons
       nuclear repulsion energy       495.5493541365 Hartrees.
 NAtoms=   25 NActive=   25 NUniq=   25 SFac= 1.00D+00 NAtFMM=   60 NAOKFM=F Big=F
 Integral buffers will be    131072 words long.
 Raffenetti 2 integral format.
 Two-electron integral symmetry is turned on.
 One-electron integrals computed using PRISM.
 PrsmSu:  requested number of processors reduced to:  13 ShMem   1 Linda.
 NBasis=   332 RedAO= T EigKep=  6.14D-04  NBF=   332
 NBsUse=   332 1.00D-06 EigRej= -1.00D+00 NBFU=   332
 Initial guess from the checkpoint file:  "CCCCpCpCpOpOC.chk"
 B after Tr=    -0.000000    0.000000   -0.000000
         Rot=    0.999962    0.003156   -0.000370    0.008137 Ang=   1.00 deg.
 ExpMin= 1.61D-01 ExpMax= 5.48D+03 ExpMxC= 8.25D+02 IAcc=2 IRadAn=         4 AccDes= 0.00D+00
 Harris functional with IExCor=  402 and IRadAn=       4 diagonalized for initial guess.
 HarFok:  IExCor=  402 AccDes= 0.00D+00 IRadAn=         4 IDoV= 1 UseB2=F ITyADJ=14
 ICtDFT=  3500011 ScaDFX=  1.000000  1.000000  1.000000  1.000000
 FoFCou: FMM=F IPFlag=           0 FMFlag=      100000 FMFlg1=           0
         NFxFlg=           0 DoJE=T BraDBF=F KetDBF=T FulRan=T
         wScrn=  0.000000 ICntrl=       500 IOpCl=  0 I1Cent=   200000004 NGrid=           0
         NMat0=    1 NMatS0=      1 NMatT0=    0 NMatD0=    1 NMtDS0=    0 NMtDT0=    0
 Petite list used in FoFCou.
 Requested convergence on RMS density matrix=1.00D-08 within 128 cycles.
 Requested convergence on MAX density matrix=1.00D-06.
 Requested convergence on             energy=1.00D-06.
 No special actions if energy rises.
 Integral accuracy reduced to 1.0D-05 until final iterations.
 Initial convergence to 1.0D-05 achieved.  Increase integral accuracy.
 SCF Done:  E(RB3LYP) =  -426.860725091     A.U. after   11 cycles
            NFock= 11  Conv=0.20D-08     -V/T= 2.0079
 PrsmSu:  requested number of processors reduced to:  13 ShMem   1 Linda.
 Calling FoFJK, ICntrl=      2127 FMM=F ISym2X=0 I1Cent= 0 IOpClX= 0 NMat=1 NMatS=1 NMatT=0.
 ***** Axes restored to original set *****
 -------------------------------------------------------------------
 Center     Atomic                   Forces (Hartrees/Bohr)
 Number     Number              X              Y              Z
 -------------------------------------------------------------------
      1        6           0.001825276    0.000274507   -0.000228040
      2        6          -0.000589813    0.000492224    0.001550811
      3        6           0.000417628   -0.001741798   -0.000848660
      4        6          -0.001945288    0.000198155   -0.001625799
      5        6           0.000917178   -0.000673393   -0.000419469
      6        6           0.002208262    0.001364721   -0.000031801
      7        8           0.004494759    0.001041567   -0.003571840
      8        8          -0.004790079   -0.000226295    0.004483797
      9        6           0.001595742   -0.002179742   -0.002530129
     10        1           0.000586622    0.000016775    0.000135633
     11        1          -0.000262052    0.000264157    0.000215313
     12        1           0.000305302    0.000033274    0.000341334
     13        1           0.000782196    0.000230965   -0.000701326
     14        1           0.000261731   -0.000367127   -0.000620708
     15        1          -0.000039025    0.000792039    0.000621648
     16        1           0.000206967    0.000545019   -0.000444530
     17        1           0.000195528   -0.000869464   -0.000447305
     18        1          -0.000392589    0.000037592    0.000010803
     19        1          -0.001591502   -0.000360140   -0.000142781
     20        1          -0.001077953    0.000113147    0.000570784
     21        1          -0.000919156    0.001459936    0.001290915
     22        1          -0.000568263   -0.001257479    0.001582831
     23        1          -0.000192203    0.000055198    0.000180015
     24        1          -0.000848868    0.000305327    0.000338138
     25        1          -0.000580400    0.000450834    0.000290365
 -------------------------------------------------------------------
 Cartesian Forces:  Max     0.004790079 RMS     0.001346466

 GradGradGradGradGradGradGradGradGradGradGradGradGradGradGradGradGradGrad
 Berny optimization.
 Using GEDIIS/GDIIS optimizer.
 FormGI is forming the generalized inverse of G from B-inverse, IUseBI=4.
 Internal  Forces:  Max     0.004774020 RMS     0.001144934
 Search for a local minimum.
 Step number   2 out of a maximum of  132
 All quantities printed in internal units (Hartrees-Bohrs-Radians)
 Mixed Optimization -- RFO/linear search
 Update second derivatives using D2CorX and points    1    2
 DE= -2.97D-03 DEPred=-3.78D-03 R= 7.86D-01
 TightC=F SS=  1.41D+00  RLast= 3.20D-01 DXNew= 5.0454D-01 9.6080D-01
 Trust test= 7.86D-01 RLast= 3.20D-01 DXMaxT set to 5.05D-01
 ITU=  1  0
 Use linear search instead of GDIIS.
     Eigenvalues ---    0.00230   0.00238   0.00322   0.00393   0.00534
     Eigenvalues ---    0.01402   0.01417   0.01440   0.03209   0.03374
     Eigenvalues ---    0.03610   0.04580   0.04746   0.04866   0.05040
     Eigenvalues ---    0.05361   0.05520   0.05539   0.05557   0.05614
     Eigenvalues ---    0.06311   0.08353   0.08778   0.09303   0.09999
     Eigenvalues ---    0.10546   0.12192   0.12538   0.15149   0.16000
     Eigenvalues ---    0.16000   0.16000   0.16000   0.16000   0.16000
     Eigenvalues ---    0.16000   0.16000   0.16147   0.16900   0.17191
     Eigenvalues ---    0.19250   0.20499   0.21904   0.23341   0.24709
     Eigenvalues ---    0.28284   0.28755   0.29146   0.29833   0.31715
     Eigenvalues ---    0.33840   0.33919   0.33958   0.34109   0.34120
     Eigenvalues ---    0.34208   0.34258   0.34281   0.34344   0.34361
     Eigenvalues ---    0.34366   0.34374   0.34376   0.34489   0.34566
     Eigenvalues ---    0.41788   0.42248   0.42670   0.53725
 RFO step:  Lambda=-7.02990825D-04 EMin= 2.29598935D-03
 Quartic linear search produced a step of -0.11016.
 Iteration  1 RMS(Cart)=  0.04335516 RMS(Int)=  0.00056431
 Iteration  2 RMS(Cart)=  0.00081650 RMS(Int)=  0.00003933
 Iteration  3 RMS(Cart)=  0.00000028 RMS(Int)=  0.00003933
 Variable       Old X    -DE/DX   Delta X   Delta X   Delta X     New X
                                 (Linear)    (Quad)   (Total)
    R1        2.90303  -0.00246  -0.00388  -0.00012  -0.00400   2.89902
    R2        2.06938  -0.00034  -0.00023  -0.00044  -0.00068   2.06870
    R3        2.06975   0.00034  -0.00009   0.00104   0.00095   2.07071
    R4        2.06984   0.00017  -0.00031   0.00099   0.00068   2.07052
    R5        2.90396  -0.00215  -0.00171  -0.00335  -0.00506   2.89890
    R6        2.06900   0.00092  -0.00023   0.00279   0.00256   2.07156
    R7        2.07438   0.00044  -0.00035   0.00177   0.00143   2.07581
    R8        2.91997  -0.00351  -0.00071  -0.00966  -0.01037   2.90960
    R9        2.06943   0.00020   0.00052  -0.00040   0.00011   2.06955
   R10        2.07702   0.00043  -0.00032   0.00171   0.00139   2.07841
   R11        2.90418  -0.00133  -0.00062  -0.00294  -0.00356   2.90062
   R12        2.89950   0.00229   0.00172   0.00406   0.00578   2.90528
   R13        2.07914   0.00088  -0.00034   0.00293   0.00258   2.08173
   R14        2.07247   0.00017  -0.00030   0.00098   0.00067   2.07314
   R15        2.06468   0.00061   0.00027   0.00108   0.00135   2.06603
   R16        2.06460  -0.00101   0.00028  -0.00310  -0.00282   2.06177
   R17        2.67616  -0.00302   0.00060  -0.00736  -0.00676   2.66940
   R18        2.66948  -0.00477   0.00187  -0.01338  -0.01151   2.65797
   R19        2.07724   0.00176  -0.00054   0.00553   0.00499   2.08224
   R20        1.82341   0.00094   0.00081   0.00011   0.00092   1.82433
   R21        2.68279  -0.00203   0.00040  -0.00497  -0.00457   2.67821
   R22        2.06533  -0.00021  -0.00004  -0.00048  -0.00052   2.06481
   R23        2.06971   0.00039  -0.00024   0.00144   0.00120   2.07092
   R24        2.07688   0.00059  -0.00103   0.00337   0.00234   2.07923
    A1        1.94667  -0.00062  -0.00299   0.00219  -0.00078   1.94588
    A2        1.93569   0.00044  -0.00064   0.00400   0.00337   1.93906
    A3        1.94554  -0.00052  -0.00070  -0.00230  -0.00299   1.94255
    A4        1.87683   0.00025   0.00113   0.00053   0.00168   1.87851
    A5        1.87910   0.00051   0.00155  -0.00084   0.00073   1.87982
    A6        1.87677  -0.00000   0.00187  -0.00384  -0.00196   1.87481
    A7        1.96551  -0.00109  -0.00268   0.00099  -0.00167   1.96384
    A8        1.89972   0.00073  -0.00218   0.00812   0.00596   1.90568
    A9        1.90925   0.00020   0.00076  -0.00031   0.00043   1.90968
   A10        1.92728  -0.00000   0.00066  -0.00265  -0.00193   1.92535
   A11        1.90168   0.00062   0.00154   0.00081   0.00236   1.90404
   A12        1.85722  -0.00042   0.00210  -0.00748  -0.00537   1.85185
   A13        2.01859  -0.00334  -0.00488  -0.00575  -0.01065   2.00793
   A14        1.89127   0.00156   0.00003   0.01243   0.01246   1.90372
   A15        1.90814   0.00089   0.00052  -0.00226  -0.00180   1.90634
   A16        1.88703   0.00090   0.00283   0.00153   0.00443   1.89146
   A17        1.90333   0.00078   0.00068  -0.00438  -0.00372   1.89961
   A18        1.84784  -0.00057   0.00125  -0.00103   0.00025   1.84810
   A19        1.98140  -0.00250  -0.00369  -0.00775  -0.01147   1.96993
   A20        1.91575   0.00066   0.00082   0.00357   0.00444   1.92019
   A21        1.89486   0.00046  -0.00062  -0.00211  -0.00268   1.89219
   A22        1.92190   0.00190   0.00066   0.01118   0.01187   1.93376
   A23        1.89121   0.00024  -0.00108   0.00092  -0.00015   1.89106
   A24        1.85399  -0.00067   0.00424  -0.00602  -0.00178   1.85221
   A25        1.93534  -0.00016  -0.00019  -0.00242  -0.00262   1.93272
   A26        1.95197  -0.00132  -0.00034  -0.00706  -0.00742   1.94455
   A27        1.93126  -0.00024   0.00162  -0.00197  -0.00034   1.93091
   A28        1.88084   0.00028   0.00051  -0.00352  -0.00306   1.87779
   A29        1.88338   0.00030   0.00073   0.00108   0.00182   1.88519
   A30        1.87840   0.00123  -0.00238   0.01457   0.01220   1.89060
[...]
 .00012537,-0.00071102,0.00147620,-0.00024811,0.00105186,-0.00461288,-0
 .04810964,-0.00767508,0.02654463,-0.00129475,0.00985242,-0.03158150,-0
 .00474950,-0.00064858,0.00027913,0.00326909,0.00142244,0.00177624,0.00
 135912,0.00005957,0.00001151,-0.00003893,-0.00001292,-0.00001018,-0.00
 000700,0.00005188,-0.00006695,-0.00003277,0.00002632,0.00000109,-0.000
 01037,-0.00001861,0.00005454,0.00001531,-0.00005731,-0.00023370,0.0001
 2496,-0.00013235,-0.00034231,0.00019623,-0.00055953,-0.00001878,0.0006
 3034,-0.00208425,0.00456158,0.05577537,-0.00000886,0.00000520,-0.00000
 731,-0.00013568,0.00000879,-0.00014109,0.00151182,-0.00130933,-0.00032
 698,0.00328947,-0.01338812,-0.00020276,-0.07485503,0.07939540,-0.00102
 806,0.00022389,0.00052322,-0.00031933,-0.00005848,-0.00004881,-0.00012
 392,-0.00007679,-0.00039965,-0.00026201,0.00009550,0.00020762,-0.00003
 090,0.00000369,0.00001186,0.00000872,-0.00003186,0.00000381,-0.0000006
 9,0.00000230,-0.00000075,0.00000294,0.00001455,-0.00001346,-0.00002753
 ,0.00003974,0.00013500,0.00001763,0.00015393,0.00023237,-0.00005413,-0
 .00006458,0.00042086,0.00008044,-0.00039106,-0.00162356,0.00243171,0.0
 7679900,0.00001953,-0.00004857,-0.00000541,-0.00030979,0.00003145,-0.0
 0004723,0.00132783,0.00029570,-0.00061756,0.00519651,-0.01725819,0.001
 18066,0.07882060,-0.27433269,0.00216705,-0.00016064,-0.00048349,-0.001
 35253,-0.00012283,0.00063705,0.00028109,0.00020435,0.00040298,0.000331
 34,-0.00005016,-0.00023142,-0.00006785,-0.00002583,-0.00000293,-0.0000
 0556,-0.00007481,0.00002794,0.00000579,-0.00002110,0.00000742,0.000001
 13,0.00004374,-0.00019395,-0.00001131,0.00010308,0.00022025,0.00002998
 ,-0.00010849,0.00049304,-0.00001138,-0.00108646,0.00051417,0.00008725,
 -0.00175933,-0.00049717,0.00318163,-0.08663810,0.30176018,0.00002881,-
 0.00001464,0.00008666,-0.00001537,0.00000248,-0.00008512,-0.00135427,-
 0.00016516,0.00090641,-0.00871829,0.02571670,-0.00134635,-0.00076999,0
 .00193526,-0.04699642,-0.00058820,0.00230622,0.00161127,0.00008769,-0.
 00062051,-0.00005927,0.00000708,-0.00063581,0.00001475,-0.00005902,0.0
 0008112,-0.00010261,0.00001956,0.00000435,-0.00000081,-0.00001032,0.00
 001198,0.00001003,-0.00002164,0.00000688,0.00000803,0.00006150,-0.0000
 8660,0.00003824,-0.00001041,-0.00003069,-0.00011928,-0.00020027,-0.000
 30290,0.00002601,0.00043616,-0.00051055,0.00021460,0.00234415,0.002739
 20,-0.00387704,-0.00091485,-0.00572509,0.04971006,-0.00011787,0.000115
 74,-0.00023385,-0.00070421,-0.00066689,0.00062588,0.00057304,0.0007096
 8,-0.00023802,0.00320856,0.00717208,0.01287663,-0.06332492,-0.02908659
 ,-0.05888413,-0.00282610,-0.00207769,0.00103617,0.00038243,-0.00003266
 ,0.00139610,0.00057432,0.00021792,-0.00139608,0.00035916,0.00027255,0.
 00017441,0.00001940,0.00001039,0.00002423,0.00001168,-0.00001847,0.000
 01200,0.00012455,0.00000955,-0.00000933,-0.00163770,-0.00065724,-0.000
 24073,0.00003718,0.00007780,-0.00010303,0.00021920,-0.00006254,-0.0001
 2731,-0.00011483,-0.00000185,0.00004661,0.00031991,0.00011722,-0.00076
 300,0.00216584,0.00499162,0.01047169,0.06707583,-0.00002768,-0.0001063
 6,0.00010335,-0.00054222,0.00011565,-0.00036377,0.00024680,0.00035045,
 -0.00085340,0.00545874,0.00762466,0.01640391,-0.02881717,-0.09616846,-
 0.10057677,-0.00213193,-0.00227834,0.00123020,-0.00000152,0.00027106,0
 .00172399,0.00017519,0.00035686,-0.00004330,-0.00000538,-0.00016423,-0
 .00002463,0.00001044,0.00001069,0.00000354,0.00005712,-0.00001452,-0.0
 0001849,-0.00004224,-0.00000497,0.00002059,-0.00071295,-0.00006332,0.0
 0036928,0.00001907,-0.00020383,0.00011086,0.00025077,-0.00004368,0.000
 03168,-0.00009009,-0.00001166,-0.00007791,0.00061290,0.00089287,-0.000
 63223,-0.00880923,-0.01298604,-0.02660186,0.03405925,0.10246132,0.0001
 2504,-0.00007012,0.00064490,-0.00038258,0.00010860,-0.00075900,-0.0009
 7268,-0.00054706,0.00014237,-0.00663048,-0.01174534,-0.02225048,-0.057
 67262,-0.09915736,-0.24412502,0.00275146,0.00418838,0.00004487,-0.0000
 3536,0.00007466,-0.00267692,-0.00035576,-0.00026952,-0.00047824,0.0002
 5417,0.00032965,0.00042721,0.00006796,0.00000565,-0.00001193,-0.000062
 23,0.00003757,-0.00002231,-0.00029163,-0.00003354,0.00002408,-0.000018
 13,-0.00029273,0.00122875,0.00002914,0.00002042,0.00003219,-0.00008280
 ,0.00007644,0.00005857,0.00015178,0.00003609,0.00001647,-0.00040118,0.
 00024462,0.00097793,0.00040299,0.00049202,0.00099464,0.06358959,0.1077
 5276,0.26743605,0.00000351,-0.00008059,-0.00002975,0.00020876,0.000302
 60,0.00024305,0.00056613,-0.00176214,0.00238314,-0.01260715,0.00062029
 ,-0.00035860,-0.31639636,-0.00092977,-0.02049950,-0.00224035,-0.000647
 52,-0.00060527,0.00050986,0.00023224,0.00020607,0.00068046,0.00033148,
 -0.00315960,0.00057526,0.00035199,0.00012582,-0.00005931,-0.00001028,-
 0.00004085,0.00000546,0.00001273,0.00000185,-0.00000634,0.00001199,-0.
 00001095,0.00003149,0.00003244,0.00004048,-0.00003471,-0.00008883,0.00
 000566,-0.00089343,-0.00020284,-0.00017911,0.00034259,-0.00002729,-0.0
 0009124,0.00059659,-0.00030981,-0.00001026,-0.00876979,-0.00043361,-0.
 00101551,-0.00622423,0.00037827,-0.00045844,0.34391519,0.00003093,-0.0
 0009798,0.00008578,0.00002998,0.00031640,0.00010645,-0.00022380,-0.001
 50352,0.00292738,-0.01729568,-0.00072496,-0.00181804,-0.00011958,-0.04
 778919,-0.00052155,0.00025847,0.00033267,-0.00047838,0.00007241,-0.000
 02113,-0.00008394,-0.00026760,-0.00032336,0.00004089,0.00023062,0.0000
 7361,-0.00008642,-0.00003104,-0.00000264,-0.00003411,-0.00002793,0.000
 02133,0.00000505,-0.00004852,0.00001978,-0.00002396,0.00011528,-0.0000
 9180,0.00011686,0.00001595,-0.00003512,0.00001206,-0.00112019,0.000307
 57,0.00002379,-0.00034053,0.00033589,0.00007114,-0.00000055,0.00034219
 ,-0.00077101,0.03137650,0.00085378,0.00286330,-0.01502071,-0.00068379,
 -0.00069375,0.00233119,0.04875696,0.00003205,0.00000503,0.00032439,-0.
 00029522,-0.00007483,-0.00077436,0.00091277,0.00270445,-0.00508396,0.0
 2645139,-0.00096852,0.00207214,-0.02459277,-0.00051048,-0.04635758,0.0
 0280626,-0.00021841,0.00087174,-0.00102586,-0.00024230,0.00053586,-0.0
 0101543,0.00024165,-0.00166183,-0.00095690,-0.00058835,-0.00049807,0.0
 0007416,0.00000886,0.00003816,-0.00001537,-0.00000019,-0.00001848,-0.0
 0015119,-0.00003091,0.00001920,0.00007673,-0.00007589,0.00057487,0.000
 00892,-0.00000074,0.00010223,0.00189753,0.00034513,0.00010992,-0.00029
 215,-0.00002094,-0.00003294,-0.00063549,-0.00016608,0.00092532,0.00081
 204,-0.00042066,-0.00096985,-0.02793039,0.00112589,-0.00177173,0.02362
 178,-0.00162870,0.05124553,0.00000063,0.00002832,0.00000891,0.00008972
 ,-0.00009320,0.00001418,0.00107745,-0.00047368,0.00033668,0.00451727,-
 0.00824911,-0.00166666,-0.00024297,0.00015142,0.00040932,-0.06794605,0
 .06398127,0.00206146,0.00551705,-0.01371552,0.00274938,-0.03529960,0.0
 3274711,0.00132391,0.00327551,0.00528785,0.00517379,0.00000220,-0.0000
 0042,-0.00000429,-0.00002222,0.00000935,-0.00000187,-0.00000267,-0.000
 00233,0.00000237,0.00000441,0.00000450,0.00001078,-0.00009442,0.000092
 51,-0.00002859,-0.00000175,-0.00002479,0.00007719,-0.00000038,0.000201
 26,-0.00013097,-0.00025527,-0.00124050,-0.00184631,0.00011550,0.000073
 42,0.00017347,0.00000137,-0.00001264,0.00002854,0.00005925,0.00008663,
 -0.00021662,0.08814766,-0.00002157,-0.00003790,-0.00007050,-0.00035140
 ,0.00029456,-0.00004814,0.00091000,-0.00004534,0.00044640,0.00438956,-
 0.01229975,-0.00220758,-0.00012324,0.00022005,0.00050890,0.06434889,-0
 .25913882,-0.02441234,0.00103451,-0.02402279,0.00760581,0.00669811,0.0
 0117941,-0.00218641,-0.00175303,0.00238653,-0.00064299,-0.00002896,0.0
 0000009,-0.00000147,-0.00003709,0.00001201,-0.00002051,0.00000779,-0.0
 0000738,0.,0.00001319,0.00000822,0.00000384,0.00009570,0.00018606,0.00
 017602,0.00003433,-0.00008810,0.00006628,-0.00079521,0.00048686,-0.000
 37185,-0.00063459,-0.00016278,-0.00187589,0.00002806,0.00065202,-0.000
 70487,-0.00007967,0.00040539,-0.00017518,0.00000011,-0.00000019,0.0000
 3911,-0.07365385,0.28944409,-0.00001064,0.00006933,-0.00004732,-0.0001
 6522,-0.00000321,-0.00008199,0.00153601,0.00010213,0.00075395,0.007043
 23,-0.02572268,-0.00287285,0.00003197,-0.00099368,0.00190530,0.0055571
 9,-0.03513109,-0.05453248,-0.00338981,0.03648641,-0.00585785,-0.000113
 94,-0.00037664,0.00472027,-0.00054270,0.00215120,-0.00007894,-0.000010
 67,-0.00001075,-0.00000750,-0.00004812,0.00000322,-0.00000093,-0.00001
 008,-0.00000512,0.00000646,0.00001858,0.00000897,0.00001938,-0.0000078
 4,0.00023615,0.00007336,-0.00027629,-0.00005073,0.00003998,-0.00055614
 ,0.00042784,-0.00004824,-0.00139270,-0.00247739,-0.00428049,-0.0001449
 9,0.00084665,-0.00031762,-0.00020421,0.00038388,0.00016137,0.00010883,
 -0.00000859,-0.00009393,-0.00994581,0.01947039,0.06410559,-0.00001768,
 0.00002981,-0.00006340,-0.00017904,-0.00011130,0.00001841,0.00015207,0
 .00011692,-0.00102525,-0.00015815,0.00025701,0.00020852,0.00006305,-0.
 00009308,0.00005812,0.00463206,-0.01952178,0.00410787,-0.05682573,0.14
 851109,0.02084481,0.00121673,0.00186403,-0.00140515,-0.00119967,-0.001
 12750,-0.00089040,0.00001969,0.00000673,0.00004376,0.00001396,-0.00003
 037,0.00001469,-0.00006446,-0.00002193,0.00001495,0.00005506,0.0000222
 5,0.00015761,0.00003751,-0.00003424,-0.00007952,-0.00097376,0.00031758
 ,-0.00006133,-0.00007028,-0.00024520,0.00038664,0.00030949,0.00031387,
 -0.00005641,-0.00003462,-0.00000756,0.00006173,-0.00005289,-0.00005941
 ,0.00000722,-0.00015242,-0.00004790,0.00022255,0.00068015,-0.00153413,
 0.00215339,0.05247926,0.00002395,-0.00005411,-0.00005785,-0.00007330,0
 .00019736,0.00000769,0.00023573,-0.00012949,-0.00011856,0.00010079,0.0
 0359139,-0.00118343,-0.00037983,-0.00024185,-0.00076802,0.00715389,-0.
 02997788,0.00132113,0.12229399,-0.45395176,-0.01277073,0.00122830,0.00
 382162,-0.00262861,-0.00063373,-0.00110034,-0.00034038,-0.00003904,-0.
 00000955,-0.00001391,0.00001142,-0.00000701,0.00001044,-0.00001831,0.0
 0000996,0.00002174,0.00000470,-0.00004355,-0.00002128,0.00001769,-0.00
 006306,-0.00003967,0.00035536,0.00008971,0.00024053,-0.00006718,0.0000
 1594,-0.00006424,0.00051968,0.00024258,0.00097340,0.00002780,0.0000011
 8,-0.00018736,0.00004750,0.00014267,-0.00025477,-0.00001011,0.00000954
 ,0.00016373,-0.00221002,-0.00016766,0.00446921,-0.12866197,0.47756932,
 -0.00006716,0.00001755,0.00009849,-0.00005015,-0.00013962,-0.00014640,
 -0.00046430,-0.00017216,-0.00041626,-0.00127011,0.00282455,0.00154934,
 0.00058898,-0.00043676,-0.00037403,-0.00987181,0.04212647,-0.00227195,
 0.03316991,-0.05323684,-0.03807988,-0.00039680,-0.00259193,0.00044479,
 0.00012250,-0.00005303,0.00094810,0.00007858,0.00003007,0.00003815,0.0
 0002897,-0.00001985,-0.00000829,0.00000460,0.00000050,-0.00003027,0.00
 003346,0.00001328,0.00007605,-0.00001892,-0.00005834,-0.00005141,-0.00
 055226,0.00013196,-0.00005937,0.00031204,-0.00022032,0.00024681,0.0006
 8851,-0.00156538,-0.00077815,-0.00008009,-0.00043097,0.00030164,-0.000
 00098,-0.00012585,0.00007988,-0.00009810,0.00001430,0.00005865,0.00260
 340,0.00288807,-0.00405447,-0.02464388,0.01130249,0.04313770,0.0000145
 6,-0.00004215,-0.00006694,-0.00012687,0.00008607,0.00009321,0.00008682
 ,-0.00021262,-0.00036988,-0.00076303,0.00009617,0.00055241,-0.00007041
 ,-0.00007128,0.00000944,0.00273190,-0.00151903,-0.00219621,-0.00029064
 ,-0.00009480,0.00003309,-0.01787129,-0.00263297,-0.00558850,-0.3068159
 9,0.03354275,0.02729958,-0.00004371,-0.00001272,-0.00001496,-0.0000018
 6,0.00000730,0.00000548,0.00000072,0.00000349,0.00000950,-0.00000025,-
 0.00000117,-0.00002661,0.00000251,-0.00001216,0.00000017,0.00004977,0.
 00001139,0.00002388,-0.00001077,0.00001538,0.00000131,-0.00001346,-0.0
 0007595,-0.00005473,0.00000850,0.00002127,0.00000243,0.00000478,0.0000
 1998,-0.00008431,-0.00001032,0.00000244,0.00004098,0.00015489,0.000002
 09,0.00005203,0.00002743,0.00010917,-0.00005217,0.33657695,0.00000520,
 -0.00003267,-0.00004257,-0.00010733,0.00005532,0.00005066,0.00002058,-
 0.00021527,-0.00033771,-0.00100391,0.00051961,0.00016443,-0.00000621,-
 0.00007614,0.00005318,0.00017124,-0.00183704,-0.00239893,-0.00037181,0
 .00014989,0.00004759,-0.02386675,0.00050451,-0.00263931,0.04079872,-0.
 05425816,-0.00209261,-0.00002409,-0.00000363,-0.00000388,-0.00000012,0
 .00000353,0.00000038,-0.00000028,0.00000049,0.00000441,0.00000105,-0.0
 0000051,-0.00001035,0.00000289,-0.00000870,0.00000168,0.00003055,0.000
 00172,0.00001540,-0.00000293,0.00001804,-0.00000957,0.00005861,-0.0000
 0279,0.00010147,-0.00000030,0.00001478,-0.00001705,0.00000653,0.000018
 82,-0.00003299,0.00002526,0.00003405,0.00000462,-0.00056265,0.00044933
 ,-0.00005695,0.00004924,0.00012500,-0.00002332,-0.03285841,0.05460395,
 0.00000488,-0.00004253,-0.00006916,-0.00017800,0.00004500,0.00009975,0
 .00008785,-0.00024881,-0.00048803,-0.00143833,0.00017148,0.00042211,-0
 .00010087,-0.00005416,0.00011496,0.00077375,-0.00219090,-0.00543669,0.
 00005596,-0.00014739,0.00181249,-0.03632411,-0.00050400,-0.00285703,0.
 03722001,-0.00305381,-0.05133569,-0.00003597,-0.00000665,-0.00000505,-
 0.00000108,0.00000533,0.00000169,-0.00000068,-0.00000119,0.00000566,0.
 00000530,0.00000702,-0.00000969,0.00000386,-0.00000644,0.00000061,0.00
 000022,-0.00001672,0.00003391,-0.00000208,0.00001671,-0.00000169,0.000
 03625,-0.00007204,0.00001259,0.00001359,0.00001448,-0.00000476,0.00003
 504,0.00001292,-0.00004199,0.00003480,0.00001414,-0.00003176,0.0000187
 1,0.00018135,-0.00003049,0.00000258,-0.00000546,-0.00001490,-0.0232374
 6,0.00882953,0.05718713,-0.00000576,-0.00000063,-0.00000052,-0.0000403
 5,-0.00003028,0.00001070,0.00000357,-0.00000051,-0.00005870,-0.0002811
 7,-0.00010135,0.00022408,0.00008217,0.00004643,0.00001137,0.00303176,0
 .00185001,-0.00228585,-0.00049483,-0.00088505,0.00072410,0.00421039,0.
 00205678,-0.01924559,-0.07957706,-0.03002563,0.07737146,0.00000317,0.0
 0000250,0.00000540,0.00000075,-0.00000117,-0.00000161,-0.00000448,-0.0
 0000378,-0.00000121,0.00000324,0.00000467,0.00002606,0.00000175,0.0000
 0272,-0.00000049,-0.00009847,-0.00003313,-0.00001689,0.00000453,-0.000
 00993,0.00000380,0.00003783,0.00001604,0.00002274,-0.00001561,-0.00000
 798,0.00000061,-0.00005866,-0.00002754,0.00003901,-0.00008557,-0.00002
 006,0.00012830,-0.00021497,0.00000050,-0.00005130,-0.00001349,-0.00022
 058,0.00001325,-0.00808269,-0.01279240,0.02697703,0.07790429,0.0000013
 8,-0.00001097,-0.00001039,-0.00003749,0.00000386,0.00001967,0.00002032
 ,-0.00004298,-0.00004123,-0.00015876,0.00001621,0.00008202,0.00006523,
 -0.00007013,-0.00003017,0.00219229,0.00122163,0.00004096,-0.00024131,-
 0.00135775,0.00022791,0.00283613,0.00789952,-0.02429232,-0.03062270,-0
 .08861877,0.08668353,-0.00000827,-0.00000232,-0.00000319,-0.00000043,0
 .00000096,0.00000177,-0.00000112,0.00000155,0.00000096,0.00000106,-0.0
 0000096,0.00000281,0.00000078,-0.00000244,-0.00000138,-0.00002514,-0.0
 0000185,-0.00000233,-0.00000061,0.00000088,0.00000079,0.00002790,0.000
 01514,-0.00000647,-0.00005653,0.00003454,-0.00001839,-0.00005963,0.000
 02105,-0.00001320,-0.00007946,-0.00004000,0.00013742,-0.00034744,-0.00
 027854,0.00006698,-0.00042622,-0.00031233,-0.00026666,0.00254117,0.002
 23351,-0.00481200,0.03507099,0.09029320,0.00001371,-0.00003448,-0.0000
 4356,-0.00011477,0.00003236,0.00006991,0.00009661,-0.00010246,-0.00020
 941,-0.00036168,0.00013947,0.00011833,0.00012396,-0.00011135,-0.000095
 71,0.00831709,0.00128025,-0.00260690,-0.00016128,-0.00052746,0.0040705
 2,-0.00534036,-0.00299809,-0.03536719,0.07093655,0.08240010,-0.2366303
 8,-0.00003357,-0.00000952,-0.00001060,-0.00000237,0.00000642,0.0000021
 0,-0.00001231,-0.00000377,0.00001177,0.00001491,0.00000551,0.00002953,
 0.00000405,-0.00000655,-0.00000411,-0.00010033,-0.00004316,0.00003709,
 -0.00001544,-0.00000006,-0.00000115,0.00005133,0.00002254,0.00003002,-
 0.00004399,0.00003000,-0.00000515,-0.00015822,0.00000632,-0.00008788,-
 0.00022484,-0.00004023,0.00033319,-0.00069602,0.00020151,0.00011547,-0
 .00010573,-0.00010566,-0.00032428,0.00144492,0.00196609,-0.00039414,-0
 .07612185,-0.08463134,0.27158736,-0.00000113,0.00000221,0.00000449,0.0
 0000733,0.00001414,-0.00000699,0.00000886,0.00006794,0.00000875,-0.000
 00271,-0.00013443,-0.00024645,0.00000791,0.00000093,0.00002459,0.00489
 984,-0.00439806,0.00023698,-0.00070746,0.00061121,0.00031593,0.0011541
 1,-0.01811356,-0.00421708,-0.06745248,0.05996904,-0.00474024,0.0000024
 4,0.00000068,0.00000080,0.00000039,-0.00000164,-0.00000118,-0.00000142
 ,-0.00000093,0.00000022,0.00000113,-0.00000013,0.00000633,0.00000570,0
 .00000308,0.00000531,-0.00000920,-0.00000785,0.00000451,-0.00004390,0.
 00001525,-0.00001123,-0.00014509,0.00012726,-0.00001363,0.00001864,0.0
 0000471,-0.00001674,-0.00001582,-0.00000853,0.00000132,-0.00001458,0.0
 0001367,0.00004193,0.00043726,0.00144989,0.00036923,0.00005573,0.00018
 409,-0.00007749,-0.00555752,0.03042736,-0.00395126,0.00368967,-0.01069
 215,0.00248961,0.06366230,0.00001502,-0.00003331,-0.00003584,-0.000061
 53,0.00004531,0.00005789,0.00002230,-0.00005627,-0.00021048,-0.0004093
 0,0.00065124,-0.00000218,0.00005480,-0.00017271,0.00000168,0.00640140,
 0.00050716,0.00023440,-0.00134070,-0.00026672,0.00039117,-0.00689767,-
 0.02180167,-0.01460480,0.05731736,-0.27322087,0.02561874,-0.00002888,-
 0.00000842,-0.00000977,-0.00000596,0.00001108,0.00000117,0.00000026,0.
 00000050,0.00000561,0.00000238,-0.00000173,-0.00001423,0.00000177,0.00
 000267,0.00000226,0.00004256,0.00000250,0.00002615,-0.00006528,0.00002
 032,-0.00002475,0.00012604,0.00026819,0.00024086,-0.00008864,0.0000879
 9,-0.00004602,-0.00004388,0.00005772,-0.00008130,-0.00004837,-0.000090
 08,0.00017111,-0.00207747,0.00052465,0.00011448,0.00043406,0.00024233,
 -0.00000820,0.00107459,-0.00229765,0.00186413,0.00510936,-0.01100299,0
 .00252356,-0.05953420,0.30653076,0.00000770,-0.00001029,-0.00001957,-0
 .00001181,0.00002212,0.00003879,0.00003595,0.00009187,-0.00009660,0.00
 000316,0.00003966,-0.00007782,-0.00002344,-0.00004557,0.00005949,0.005
 87407,-0.00103242,0.00041876,-0.00045197,-0.00005461,0.00083732,-0.001
 95872,-0.03645017,-0.00609100,-0.00701386,0.02901062,-0.05300641,-0.00
 001534,-0.00000689,-0.00000736,-0.00000076,0.00000194,0.00000380,-0.00
 000036,0.00000202,0.00000391,0.00000033,-0.00000034,-0.00001169,0.0000
 0295,-0.00000387,-0.00000336,0.00000549,0.00000109,0.00001434,-0.00005
 373,-0.00000687,0.00000354,-0.00004470,0.00019463,0.00002762,-0.000061
 42,0.00004646,-0.00003805,0.00000092,0.00003902,-0.00004377,0.00001056
 ,-0.00009247,0.00008329,-0.00045494,0.00113005,0.00040396,0.00002822,0
 .00004956,-0.00036993,0.00212332,-0.00357418,0.00103014,-0.00777389,0.
 02686426,-0.00062483,0.00977227,-0.01621563,0.05746542\\-0.00000380,0.
 00000118,0.00000084,0.00000641,0.00000304,0.00000006,-0.00000345,-0.00
 000477,-0.00000036,0.00000858,0.00000300,-0.00000196,-0.00000047,-0.00
 000475,0.00000306,-0.00000171,-0.00000040,-0.00000228,-0.00000037,-0.0
 0000165,-0.00000141,-0.00000332,-0.00000307,-0.00000560,0.00000957,0.0
 0000017,0.00000889,-0.00000007,-0.00000010,0.00000072,0.00000070,-0.00
 000014,0.00000004,0.00000059,-0.00000034,0.00000015,0.00000231,-0.0000
 0070,-0.00000088,-0.00000114,0.00000003,0.00000045,0.00000258,0.000000
 17,0.00000115,-0.00000077,0.00000188,-0.00000029,-0.00000051,-0.000002
 01,-0.00000051,0.00000098,0.00000222,-0.00000073,-0.00000453,0.0000003
 8,0.00000076,-0.00000194,0.00000143,0.00000226,-0.00000325,0.00000199,
 0.00000106,-0.00000198,0.00000023,-0.00000065,-0.00000073,0.00000116,-
 0.00000163,-0.00000180,0.00000147,-0.00000278,-0.00000185,-0.00000042,
 -0.00000039\\\@


 "THE TIME HAS COME", THE WALRUS SAID,
 "TO TALK OF MANY THINGS,
 OF SHOES AND SHIPS AND SEALING WAX,
 OF CABBAGES AND KINGS,
 AND WHY THE SEA IS BOILING HOT,
 AND WHETHER PIGS HAVE WINGS."
 Job cpu time:       0 days  2 hours 29 minutes 45.2 seconds.
 Elapsed time:       0 days  0 hours 37 minutes 27.0 seconds.
 File lengths (MBytes):  RWF=    206 Int=      0 D2E=      0 Chk=     10 Scr=      1
 Normal termination of Gaussian 16 at Thu Aug  4 07:38:09 2022.
### All Done ###
