### Starting Gaussian ###
 Entering Gaussian System, Link 0=g16
 Initial command:
 /cluster/software/gaussian/gaussian-16-A.03/avx2/g16/l1.exe "/local/scratch/ks29c/Gau-27986.inp" -scrdir="/local/scratch/ks29c/"
 Entering Link 1 = /cluster/software/gaussian/gaussian-16-A.03/avx2/g16/l1.exe PID=     27987.
  
 Copyright (c) 1988,1990,1992,1993,1995,1998,2003,2009,2016,
            Gaussian, Inc.  All Rights Reserved.
  
 This is part of the Gaussian(R) 16 program.  It is based on
 the Gaussian(R) 09 system (copyright 2009, Gaussian, Inc.),
 the Gaussian(R) 03 system (copyright 2003, Gaussian, Inc.),
 the Gaussian(R) 98 system (copyright 1998, Gaussian, Inc.),
 the Gaussian(R) 94 system (copyright 1995, Gaussian, Inc.),
 the Gaussian 92(TM) system (copyright 1992, Gaussian, Inc.),
 the Gaussian 90(TM) system (copyright 1990, Gaussian, Inc.),
 the Gaussian 88(TM) system (copyright 1988, Gaussian, Inc.),
 the Gaussian 86(TM) system (copyright 1986, Carnegie Mellon
 University), and the Gaussian 82(TM) system (copyright 1983,
 Carnegie Mellon University). Gaussian is a federally registered
 trademark of Gaussian, Inc.
  
 This software contains proprietary and confidential information,
 including trade secrets, belonging to Gaussian, Inc.
  
 This software is provided under written license and may be
 used, copied, transmitted, or stored only in accord with that
 written license.
  
 The following legend is applicable only to US Government
 contracts under FAR:
  
                    RESTRICTED RIGHTS LEGEND
  
 Use, reproduction and disclosure by the US Government is
 subject to restrictions as set forth in subparagraphs (a)
 and (c) of the Commercial Computer Software - Restricted
 Rights clause in FAR 52.227-19.
  
 Gaussian, Inc.
 340 Quinnipiac St., Bldg. 40, Wallingford CT 06492
  
  
 ---------------------------------------------------------------
 Warning -- This program may not be used in any manner that
 competes with the business of Gaussian, Inc. or will provide
 assistance to any competitor of Gaussian, Inc.  The licensee
 of this program is prohibited from giving any competitor of
 Gaussian, Inc. access to this program.  By using this program,
 the user acknowledges that Gaussian, Inc. is engaged in the
 business of creating and licensing software in the field of
 computational chemistry and represents and warrants to the
 licensee that it is not a competitor of Gaussian, Inc. and that
 it will not use this program in any manner prohibited above.
 ---------------------------------------------------------------
  

 Cite this work as:
 Gaussian 16, Revision A.03,
 M. J. Frisch, G. W. Trucks, H. B. Schlegel, G. E. Scuseria, 
 M. A. Robb, J. R. Cheeseman, G. Scalmani, V. Barone, 
 G. A. Petersson, H. Nakatsuji, X. Li, M. Caricato, A. V. Marenich, 
 J. Bloino, B. G. Janesko, R. Gomperts, B. Mennucci, H. P. Hratchian, 
 J. V. Ortiz, A. F. Izmaylov, J. L. Sonnenberg, D. Williams-Young, 
 F. Ding, F. Lipparini, F. Egidi, J. Goings, B. Peng, A. Petrone, 
 T. Henderson, D. Ranasinghe, V. G. Zakrzewski, J. Gao, N. Rega, 
 G. Zheng, W. Liang, M. Hada, M. Ehara, K. Toyota, R. Fukuda, 
 J. Hasegawa, M. Ishida, T. Nakajima, Y. Honda, O. Kitao, H. Nakai, 
 T. Vreven, K. Throssell, J. A. Montgomery, Jr., J. E. Peralta, 
 F. Ogliaro, M. J. Bearpark, J. J. Heyd, E. N. Brothers, K. N. Kudin, 
 V. N. Staroverov, T. A. Keith, R. Kobayashi, J. Normand, 
 K. Raghavachari, A. P. Rendell, J. C. Burant, S. S. Iyengar, 
 J. Tomasi, M. Cossi, J. M. Millam, M. Klene, C. Adamo, R. Cammi, 
 J. W. Ochterski, R. L. Martin, K. Morokuma, O. Farkas, 
 J. B. Foresman, and D. J. Fox, Gaussian, Inc., Wallingford CT, 2016.
 
 ******************************************
 Gaussian 16:  ES64L-G16RevA.03 25-Dec-2016
                 3-Jul-2022 
 ******************************************
 %chk=CCCCCCpCpdNN.chk
 %NProcShared=20
 Will use up to   20 processors via shared memory.
 -----------------------------
 # opt freq b3lyp/6-31g(2df,p)
 -----------------------------
 1/18=20,19=15,26=3,38=1/1,3;
 2/9=110,12=2,17=6,18=5,40=1/2;
 3/5=1,6=6,7=104,11=2,25=1,30=1,71=1,74=-5/1,2,3;
 4//1;
 5/5=2,38=5/2;
 6/7=2,8=2,9=2,10=2,28=1/1;
 7//1,2,3,16;
 1/18=20,19=15,26=3/3(2);
 2/9=110/2;
 99//99;
 2/9=110/2;
 3/5=1,6=6,7=104,11=2,25=1,30=1,71=1,74=-5/1,2,3;
 4/5=5,16=3,69=1/1;
 5/5=2,38=5/2;
 7//1,2,3,16;
 1/18=20,19=15,26=3/3(-5);
 2/9=110/2;
 6/7=2,8=2,9=2,10=2,19=2,28=1/1;
 99/9=1/99;
 -------------------
 Title Card Required
 -------------------
 Symbolic Z-matrix:
 Charge =  0 Multiplicity = 1
 C                     0.90105   0.04927  -0.07815 
 C                     2.41584   0.03175  -0.05445 
 C                     2.9282   -0.82472   1.10375 
 C                     4.44652  -0.82345   1.10204 
 C                     5.05889  -1.65108   2.22124 
 C                     6.58855  -1.65052   2.22048 
 C                     7.35045  -0.86884   1.16341 
 N                     7.17495  -2.34108   3.15433 
 N                     8.50815  -2.35709   3.17598 
 H                     0.53995   0.66298  -0.90806 
 H                     0.50669   0.46336   0.85486 
 H                     0.50669  -0.96411  -0.20073 
 H                     2.79259   1.05779   0.0405 
 H                     2.79259  -0.35964  -1.00766 
 H                     2.55648  -1.85079   1.00308 
 H                     2.55648  -0.42786   2.05531 
 H                     4.79167   0.21431   1.19021 
 H                     4.79167  -1.21179   0.13564 
 H                     4.72135  -2.69258   2.14551 
 H                     4.72135  -1.27354   3.19486 
 H                     6.71815  -0.34325   0.45266 
 H                     7.97299  -1.55972   0.5887 
 H                     7.97299  -0.11693   1.65561 
 H                     8.97675  -2.89089   3.89783 
 H                     9.08665  -1.86325   2.50816 
 

 GradGradGradGradGradGradGradGradGradGradGradGradGradGradGradGradGradGrad
 Berny optimization.
 Initialization pass.
                           ----------------------------
                           !    Initial Parameters    !
                           ! (Angstroms and Degrees)  !
 --------------------------                            --------------------------
 ! Name  Definition              Value          Derivative Info.                !
 --------------------------------------------------------------------------------
 ! R1    R(1,2)                  1.5151         estimate D2E/DX2                !
 ! R2    R(1,10)                 1.0935         estimate D2E/DX2                !
 ! R3    R(1,11)                 1.0943         estimate D2E/DX2                !
 ! R4    R(1,12)                 1.0943         estimate D2E/DX2                !
 ! R5    R(2,3)                  1.5289         estimate D2E/DX2                !
 ! R6    R(2,13)                 1.0971         estimate D2E/DX2                !
 ! R7    R(2,14)                 1.0971         estimate D2E/DX2                !
 ! R8    R(3,4)                  1.5183         estimate D2E/DX2                !
 ! R9    R(3,15)                 1.096          estimate D2E/DX2                !
 ! R10   R(3,16)                 1.096          estimate D2E/DX2                !
 ! R11   R(4,5)                  1.5207         estimate D2E/DX2                !
 ! R12   R(4,17)                 1.0972         estimate D2E/DX2                !
 ! R13   R(4,18)                 1.0972         estimate D2E/DX2                !
 ! R14   R(5,6)                  1.5297         estimate D2E/DX2                !
 ! R15   R(5,19)                 1.0974         estimate D2E/DX2                !
 ! R16   R(5,20)                 1.0975         estimate D2E/DX2                !
 ! R17   R(6,7)                  1.5195         estimate D2E/DX2                !
 ! R18   R(6,8)                  1.3011         estimate D2E/DX2                !
 ! R19   R(7,21)                 1.0868         estimate D2E/DX2                !
 ! R20   R(7,22)                 1.0932         estimate D2E/DX2                !
 ! R21   R(7,23)                 1.0932         estimate D2E/DX2                !
 ! R22   R(8,9)                  1.3335         estimate D2E/DX2                !
 ! R23   R(9,24)                 1.0127         estimate D2E/DX2                !
 ! R24   R(9,25)                 1.0122         estimate D2E/DX2                !
 ! A1    A(2,1,10)             110.3967         estimate D2E/DX2                !
 ! A2    A(2,1,11)             110.5697         estimate D2E/DX2                !
 ! A3    A(2,1,12)             110.5701         estimate D2E/DX2                !
 ! A4    A(10,1,11)            108.4031         estimate D2E/DX2                !
 ! A5    A(10,1,12)            108.4036         estimate D2E/DX2                !
 ! A6    A(11,1,12)            108.4248         estimate D2E/DX2                !
 ! A7    A(1,2,3)              110.6945         estimate D2E/DX2                !
 ! A8    A(1,2,13)             109.5037         estimate D2E/DX2                !
 ! A9    A(1,2,14)             109.5032         estimate D2E/DX2                !
 ! A10   A(3,2,13)             110.0751         estimate D2E/DX2                !
 ! A11   A(3,2,14)             110.0747         estimate D2E/DX2                !
 ! A12   A(13,2,14)            106.9111         estimate D2E/DX2                !
 ! A13   A(2,3,4)              109.4995         estimate D2E/DX2                !
 ! A14   A(2,3,15)             109.9513         estimate D2E/DX2                !
 ! A15   A(2,3,16)             109.951          estimate D2E/DX2                !
 ! A16   A(4,3,15)             109.8679         estimate D2E/DX2                !
 ! A17   A(4,3,16)             109.8675         estimate D2E/DX2                !
 ! A18   A(15,3,16)            107.6819         estimate D2E/DX2                !
 ! A19   A(3,4,5)              113.6658         estimate D2E/DX2                !
 ! A20   A(3,4,17)             108.3773         estimate D2E/DX2                !
 ! A21   A(3,4,18)             108.3769         estimate D2E/DX2                !
 ! A22   A(5,4,17)             109.2043         estimate D2E/DX2                !
 ! A23   A(5,4,18)             109.2038         estimate D2E/DX2                !
 ! A24   A(17,4,18)            107.8535         estimate D2E/DX2                !
 ! A25   A(4,5,6)              113.7108         estimate D2E/DX2                !
 ! A26   A(4,5,19)             109.9898         estimate D2E/DX2                !
 ! A27   A(4,5,20)             109.9894         estimate D2E/DX2                !
 ! A28   A(6,5,19)             107.9316         estimate D2E/DX2                !
 ! A29   A(6,5,20)             107.9316         estimate D2E/DX2                !
 ! A30   A(19,5,20)            107.0435         estimate D2E/DX2                !
 ! A31   A(5,6,7)              120.1288         estimate D2E/DX2                !
 ! A32   A(5,6,8)              116.7534         estimate D2E/DX2                !
 ! A33   A(7,6,8)              123.1179         estimate D2E/DX2                !
 ! A34   A(6,7,21)             114.3307         estimate D2E/DX2                !
 ! A35   A(6,7,22)             109.0345         estimate D2E/DX2                !
 ! A36   A(6,7,23)             109.0344         estimate D2E/DX2                !
 ! A37   A(21,7,22)            107.0449         estimate D2E/DX2                !
 ! A38   A(21,7,23)            107.0442         estimate D2E/DX2                !
 ! A39   A(22,7,23)            110.3075         estimate D2E/DX2                !
 ! A40   A(6,8,9)              117.9458         estimate D2E/DX2                !
 ! A41   A(8,9,24)             118.7195         estimate D2E/DX2                !
 ! A42   A(8,9,25)             123.7002         estimate D2E/DX2                !
 ! A43   A(24,9,25)            117.5802         estimate D2E/DX2                !
 ! D1    D(10,1,2,3)           179.9998         estimate D2E/DX2                !
 ! D2    D(10,1,2,13)           58.4619         estimate D2E/DX2                !
 ! D3    D(10,1,2,14)          -58.4633         estimate D2E/DX2                !
 ! D4    D(11,1,2,3)            60.0467         estimate D2E/DX2                !
 ! D5    D(11,1,2,13)          -61.4912         estimate D2E/DX2                !
 ! D6    D(11,1,2,14)         -178.4164         estimate D2E/DX2                !
 ! D7    D(12,1,2,3)           -60.0462         estimate D2E/DX2                !
 ! D8    D(12,1,2,13)          178.4159         estimate D2E/DX2                !
 ! D9    D(12,1,2,14)           61.4908         estimate D2E/DX2                !
 ! D10   D(1,2,3,4)            180.0            estimate D2E/DX2                !
 ! D11   D(1,2,3,15)            59.1966         estimate D2E/DX2                !
 ! D12   D(1,2,3,16)           -59.1972         estimate D2E/DX2                !
 ! D13   D(13,2,3,4)           -58.7994         estimate D2E/DX2                !
 ! D14   D(13,2,3,15)         -179.6028         estimate D2E/DX2                !
 ! D15   D(13,2,3,16)           62.0034         estimate D2E/DX2                !
 ! D16   D(14,2,3,4)            58.8003         estimate D2E/DX2                !
 ! D17   D(14,2,3,15)          -62.0031         estimate D2E/DX2                !
 ! D18   D(14,2,3,16)          179.6031         estimate D2E/DX2                !
 ! D19   D(2,3,4,5)           -180.0            estimate D2E/DX2                !
 ! D20   D(2,3,4,17)            58.3966         estimate D2E/DX2                !
 ! D21   D(2,3,4,18)           -58.3974         estimate D2E/DX2                !
 ! D22   D(15,3,4,5)           -59.146          estimate D2E/DX2                !
 ! D23   D(15,3,4,17)          179.2506         estimate D2E/DX2                !
 ! D24   D(15,3,4,18)           62.4566         estimate D2E/DX2                !
 ! D25   D(16,3,4,5)            59.1465         estimate D2E/DX2                !
 ! D26   D(16,3,4,17)          -62.4569         estimate D2E/DX2                !
 ! D27   D(16,3,4,18)         -179.2509         estimate D2E/DX2                !
 ! D28   D(3,4,5,6)            179.9998         estimate D2E/DX2                !
 ! D29   D(3,4,5,19)            58.8291         estimate D2E/DX2                !
 ! D30   D(3,4,5,20)           -58.8299         estimate D2E/DX2                !
 ! D31   D(17,4,5,6)           -58.8583         estimate D2E/DX2                !
 ! D32   D(17,4,5,19)          179.971          estimate D2E/DX2                !
 ! D33   D(17,4,5,20)           62.3121         estimate D2E/DX2                !
 ! D34   D(18,4,5,6)            58.8587         estimate D2E/DX2                !
 ! D35   D(18,4,5,19)          -62.312          estimate D2E/DX2                !
 ! D36   D(18,4,5,20)         -179.971          estimate D2E/DX2                !
 ! D37   D(4,5,6,7)             -0.0001         estimate D2E/DX2                !
 ! D38   D(4,5,6,8)            179.9997         estimate D2E/DX2                !
 ! D39   D(19,5,6,7)           122.3137         estimate D2E/DX2                !
 ! D40   D(19,5,6,8)           -57.6865         estimate D2E/DX2                !
 ! D41   D(20,5,6,7)          -122.3134         estimate D2E/DX2                !
 ! D42   D(20,5,6,8)            57.6864         estimate D2E/DX2                !
 ! D43   D(5,6,7,21)             0.0002         estimate D2E/DX2                !
 ! D44   D(5,6,7,22)          -119.7551         estimate D2E/DX2                !
 ! D45   D(5,6,7,23)           119.7546         estimate D2E/DX2                !
 ! D46   D(8,6,7,21)          -179.9997         estimate D2E/DX2                !
 ! D47   D(8,6,7,22)            60.2451         estimate D2E/DX2                !
 ! D48   D(8,6,7,23)           -60.2453         estimate D2E/DX2                !
 ! D49   D(5,6,8,9)           -179.9999         estimate D2E/DX2                !
 ! D50   D(7,6,8,9)             -0.0001         estimate D2E/DX2                !
 ! D51   D(6,8,9,24)          -179.9995         estimate D2E/DX2                !
 ! D52   D(6,8,9,25)             0.0002         estimate D2E/DX2                !
 ! D53   D(8,9,24,25)          179.9997         estimate D2E/DX2                !
 --------------------------------------------------------------------------------
 Trust Radius=3.00D-01 FncErr=1.00D-07 GrdErr=1.00D-06 EigMax=2.50D+02 EigMin=1.00D-04
 Number of steps in this run=    130 maximum allowed number of steps=    150.
 GradGradGradGradGradGradGradGradGradGradGradGradGradGradGradGradGradGrad

                          Input orientation:                          
 ---------------------------------------------------------------------
 Center     Atomic      Atomic             Coordinates (Angstroms)
 Number     Number       Type             X           Y           Z
 ---------------------------------------------------------------------
      1          6           0        0.901050    0.049270   -0.078150
      2          6           0        2.415840    0.031750   -0.054450
      3          6           0        2.928200   -0.824720    1.103750
      4          6           0        4.446520   -0.823450    1.102040
      5          6           0        5.058890   -1.651080    2.221240
      6          6           0        6.588550   -1.650520    2.220480
      7          6           0        7.350450   -0.868840    1.163410
      8          7           0        7.174950   -2.341080    3.154330
      9          7           0        8.508150   -2.357090    3.175980
     10          1           0        0.539950    0.662980   -0.908060
     11          1           0        0.506690    0.463360    0.854860
     12          1           0        0.506690   -0.964110   -0.200730
     13          1           0        2.792590    1.057790    0.040500
     14          1           0        2.792590   -0.359640   -1.007660
     15          1           0        2.556480   -1.850790    1.003080
     16          1           0        2.556480   -0.427860    2.055310
     17          1           0        4.791670    0.214310    1.190210
     18          1           0        4.791670   -1.211790    0.135640
     19          1           0        4.721350   -2.692580    2.145510
     20          1           0        4.721350   -1.273540    3.194860
     21          1           0        6.718150   -0.343250    0.452660
     22          1           0        7.972990   -1.559720    0.588700
     23          1           0        7.972990   -0.116930    1.655610
     24          1           0        8.976750   -2.890890    3.897830
     25          1           0        9.086650   -1.863250    2.508160
 ---------------------------------------------------------------------
                    Distance matrix (angstroms):
                    1          2          3          4          5
     1  C    0.000000
     2  C    1.515077   0.000000
     3  C    2.504013   1.528882   0.000000
     4  C    3.837297   2.488473   1.518321   0.000000
     5  C    5.046387   3.872518   2.543913   1.520716   0.000000
     6  C    6.365583   5.041512   3.914996   2.554064   1.529660
     7  C    6.631678   5.161843   4.422872   2.904933   2.642376
     8  N    7.451478   6.210935   4.953697   3.736231   2.413393
     9  N    8.616722   7.297840   6.146392   4.811457   3.647927
    10  H    1.093519   2.155473   3.458955   4.638024   5.963909
    11  H    1.094303   2.158237   2.754053   4.152016   5.201959
    12  H    1.094296   2.158237   2.754053   4.152018   5.201960
    13  H    2.146885   1.097139   2.166272   2.720554   4.150870
    14  H    2.146886   1.097149   2.166274   2.720558   4.150871
    15  H    2.742213   2.163817   1.095961   2.153479   2.790314
    16  H    2.742217   2.163818   1.095965   2.153478   2.790315
    17  H    4.095473   2.688322   2.135317   1.097200   2.148048
    18  H    4.095473   2.688326   2.135317   1.097208   2.148048
    19  H    5.201644   4.192514   2.790977   2.158242   1.097447
    20  H    5.201645   4.192514   2.790980   2.158242   1.097454
    21  H    5.854441   4.348294   3.875494   2.410931   2.755256
    22  H    7.283260   5.816213   5.124003   3.638901   3.341484
    23  H    7.283260   5.816212   5.124005   3.638901   3.341487
    24  H    9.469419   8.198041   6.975736   5.710844   4.438210
    25  H    8.794929   7.393085   6.401361   4.958746   4.043537
                    6          7          8          9         10
     6  C    0.000000
     7  C    1.519511   0.000000
     8  N    1.301082   2.482348   0.000000
     9  N    2.257673   2.757824   1.333472   0.000000
    10  H    7.192052   7.281509   8.339701   9.449466   0.000000
    11  H    6.581977   6.979041   7.590661   8.795789   1.774497
    12  H    6.581978   6.979040   7.590663   8.795790   1.774498
    13  H    5.147482   5.074142   6.360294   7.359366   2.475889
    14  H    5.147482   5.074142   6.360294   7.359367   2.475896
    15  H    4.216605   4.896129   5.118450   6.356116   3.746717
    16  H    4.216606   4.896131   5.118449   6.356116   3.746717
    17  H    2.787082   2.778720   4.008467   4.936355   4.762475
    18  H    2.787081   2.778719   4.008467   4.936355   4.762478
    19  H    2.139613   3.347046   2.676084   3.938817   6.169942
    20  H    2.139618   3.347049   2.676086   3.938819   6.169941
    21  H    2.202485   1.086837   3.391019   3.830943   6.405795
    22  H    2.141874   1.093235   2.798187   2.759749   7.901314
    23  H    2.141880   1.093245   2.798191   2.759753   7.901313
    24  H    3.171044   3.769694   2.025232   1.012717  10.339544
    25  H    2.523592   2.410725   2.073754   1.012188   9.544552
                   11         12         13         14         15
    11  H    0.000000
    12  H    1.775371   0.000000
    13  H    2.498373   3.061309   0.000000
    14  H    3.061315   2.498371   1.762880   0.000000
    15  H    3.094980   2.537124   3.072807   2.514429   0.000000
    16  H    2.537123   3.094983   2.514431   3.072814   1.769723
    17  H    4.305292   4.656656   2.455527   3.025950   3.048890
    18  H    4.656657   4.305293   3.025949   2.455528   2.481300
    19  H    5.421171   5.124042   4.713434   4.370950   2.588517
    20  H    5.124039   5.421175   4.370950   4.713439   3.134291
    21  H    6.276513   6.276513   4.188414   4.188416   4.460396
    22  H    7.740112   7.531506   5.829959   5.552036   5.440130
    23  H    7.531505   7.740113   5.552035   5.829962   5.724565
    24  H    9.604820   9.604821   8.289445   8.289445   7.119077
    25  H    9.042247   9.042248   7.364578   7.364579   6.701384
                   16         17         18         19         20
    16  H    0.000000
    17  H    2.481301   0.000000
    18  H    3.048894   1.773663   0.000000
    19  H    3.134287   3.060646   2.497451   0.000000
    20  H    2.588515   2.497452   3.060651   1.764882   0.000000
    21  H    4.460397   2.136862   2.136864   3.517428   3.517430
    22  H    5.724564   3.691855   3.232200   3.778914   4.176976
    23  H    5.440130   3.232200   3.691859   4.176977   3.778915
    24  H    7.119077   5.872680   5.872678   4.606341   4.606345
    25  H    6.701383   4.949758   4.949758   4.458155   4.458156
                   21         22         23         24         25
    21  H    0.000000
    22  H    1.752977   0.000000
    23  H    1.752978   1.794419   0.000000
    24  H    4.843649   3.705386   3.705393   0.000000
    25  H    3.485007   2.239798   2.239802   1.731850   0.000000
 Stoichiometry    C7H16N2
 Framework group  C1[X(C7H16N2)]
 Deg. of freedom    69
 Full point group                 C1      NOp   1
 Largest Abelian subgroup         C1      NOp   1
 Largest concise Abelian subgroup C1      NOp   1
                         Standard orientation:                         
 ---------------------------------------------------------------------
 Center     Atomic      Atomic             Coordinates (Angstroms)
 Number     Number       Type             X           Y           Z
 ---------------------------------------------------------------------
      1          6           0       -4.541011   -0.153668   -0.000002
      2          6           0       -3.184108    0.520328    0.000003
      3          6           0       -2.063975   -0.520242   -0.000002
      4          6           0       -0.718548    0.183410    0.000003
      5          6           0        0.467852   -0.767922   -0.000001
      6          6           0        1.823883   -0.060081   -0.000002
      7          6           0        1.891872    1.457908   -0.000002
      8          7           0        2.880705   -0.818990    0.000000
      9          7           0        4.075402   -0.226667    0.000001
     10          1           0       -5.338296    0.594745    0.000005
     11          1           0       -4.657786   -0.782852    0.887685
     12          1           0       -4.657788   -0.782847   -0.887685
     13          1           0       -3.096694    1.167743    0.881437
     14          1           0       -3.096694    1.167744   -0.881444
     15          1           0       -2.149046   -1.161270   -0.884861
     16          1           0       -2.149045   -1.161272    0.884862
     17          1           0       -0.664897    0.827233    0.886830
     18          1           0       -0.664896    0.827233   -0.886833
     19          1           0        0.426600   -1.419070   -0.882438
     20          1           0        0.426599   -1.419070    0.882445
     21          1           0        0.922592    1.949549    0.000002
     22          1           0        2.420209    1.791147   -0.897205
     23          1           0        2.420208    1.791149    0.897214
     24          1           0        4.905897   -0.806213   -0.000005
     25          1           0        4.204511    0.777253    0.000002
 ---------------------------------------------------------------------
 Rotational constants (GHZ):           6.0657836           0.4923370           0.4633162
 Standard basis: 6-31G(2df,p) (6D, 7F)
 There are   359 symmetry adapted cartesian basis functions of A   symmetry.
 There are   332 symmetry adapted basis functions of A   symmetry.
   332 basis functions,   508 primitive gaussians,   359 cartesian basis functions
    36 alpha electrons       36 beta electrons
       nuclear repulsion energy       449.3810480502 Hartrees.
 NAtoms=   25 NActive=   25 NUniq=   25 SFac= 1.00D+00 NAtFMM=   60 NAOKFM=F Big=F
 Integral buffers will be    131072 words long.
 Raffenetti 2 integral format.
 Two-electron integral symmetry is turned on.
 One-electron integrals computed using PRISM.
 PrsmSu:  requested number of processors reduced to:  13 ShMem   1 Linda.
 NBasis=   332 RedAO= T EigKep=  2.43D-04  NBF=   332
 NBsUse=   332 1.00D-06 EigRej= -1.00D+00 NBFU=   332
 ExpMin= 1.61D-01 ExpMax= 4.17D+03 ExpMxC= 6.27D+02 IAcc=3 IRadAn=         5 AccDes= 0.00D+00
 Harris functional with IExCor=  402 and IRadAn=       5 diagonalized for initial guess.
 HarFok:  IExCor=  402 AccDes= 0.00D+00 IRadAn=         5 IDoV= 1 UseB2=F ITyADJ=14
 ICtDFT=  3500011 ScaDFX=  1.000000  1.000000  1.000000  1.000000
 FoFCou: FMM=F IPFlag=           0 FMFlag=      100000 FMFlg1=           0
         NFxFlg=           0 DoJE=T BraDBF=F KetDBF=T FulRan=T
         wScrn=  0.000000 ICntrl=       500 IOpCl=  0 I1Cent=   200000004 NGrid=           0
         NMat0=    1 NMatS0=      1 NMatT0=    0 NMatD0=    1 NMtDS0=    0 NMtDT0=    0
 Petite list used in FoFCou.
 Requested convergence on RMS density matrix=1.00D-08 within 128 cycles.
 Requested convergence on MAX density matrix=1.00D-06.
 Requested convergence on             energy=1.00D-06.
 No special actions if energy rises.
 Integral accuracy reduced to 1.0D-05 until final iterations.
 Initial convergence to 1.0D-05 achieved.  Increase integral accuracy.
 SCF Done:  E(RB3LYP) =  -385.873036214     A.U. after   13 cycles
            NFock= 13  Conv=0.48D-08     -V/T= 2.0083

 **********************************************************************

            Population analysis using the SCF density.

 **********************************************************************

 Orbital symmetries:
       Occupied  (A) (A) (A) (A) (A) (A) (A) (A) (A) (A) (A) (A)
                 (A) (A) (A) (A) (A) (A) (A) (A) (A) (A) (A) (A)
                 (A) (A) (A) (A) (A) (A) (A) (A) (A) (A) (A) (A)
       Virtual   (A) (A) (A) (A) (A) (A) (A) (A) (A) (A) (A) (A)
                 (A) (A) (A) (A) (A) (A) (A) (A) (A) (A) (A) (A)
                 (A) (A) (A) (A) (A) (A) (A) (A) (A) (A) (A) (A)
                 (A) (A) (A) (A) (A) (A) (A) (A) (A) (A) (A) (A)
                 (A) (A) (A) (A) (A) (A) (A) (A) (A) (A) (A) (A)
                 (A) (A) (A) (A) (A) (A) (A) (A) (A) (A) (A) (A)
                 (A) (A) (A) (A) (A) (A) (A) (A) (A) (A) (A) (A)
                 (A) (A) (A) (A) (A) (A) (A) (A) (A) (A) (A) (A)
                 (A) (A) (A) (A) (A) (A) (A) (A) (A) (A) (A) (A)
                 (A) (A) (A) (A) (A) (A) (A) (A) (A) (A) (A) (A)
                 (A) (A) (A) (A) (A) (A) (A) (A) (A) (A) (A) (A)
                 (A) (A) (A) (A) (A) (A) (A) (A) (A) (A) (A) (A)
                 (A) (A) (A) (A) (A) (A) (A) (A) (A) (A) (A) (A)
                 (A) (A) (A) (A) (A) (A) (A) (A) (A) (A) (A) (A)
                 (A) (A) (A) (A) (A) (A) (A) (A) (A) (A) (A) (A)
                 (A) (A) (A) (A) (A) (A) (A) (A) (A) (A) (A) (A)
                 (A) (A) (A) (A) (A) (A) (A) (A) (A) (A) (A) (A)
                 (A) (A) (A) (A) (A) (A) (A) (A) (A) (A) (A) (A)
                 (A) (A) (A) (A) (A) (A) (A) (A) (A) (A) (A) (A)
                 (A) (A) (A) (A) (A) (A) (A) (A) (A) (A) (A) (A)
                 (A) (A) (A) (A) (A) (A) (A) (A) (A) (A) (A) (A)
                 (A) (A) (A) (A) (A) (A) (A) (A) (A) (A) (A) (A)
                 (A) (A) (A) (A) (A) (A) (A) (A) (A) (A) (A) (A)
                 (A) (A) (A) (A) (A) (A) (A) (A) (A) (A) (A) (A)
                 (A) (A) (A) (A) (A) (A) (A) (A)
 The electronic state is 1-A.
 Alpha  occ. eigenvalues --  -14.34372 -14.33560 -10.19292 -10.17698 -10.17219
 Alpha  occ. eigenvalues --  -10.17061 -10.16984 -10.16900 -10.16572  -0.97775
 Alpha  occ. eigenvalues --   -0.81309  -0.79010  -0.74245  -0.70919  -0.67097
 Alpha  occ. eigenvalues --   -0.60070  -0.57426  -0.54955  -0.50951  -0.47709
 Alpha  occ. eigenvalues --   -0.46342  -0.44050  -0.42853  -0.41583  -0.40371
 Alpha  occ. eigenvalues --   -0.39305  -0.37671  -0.35617  -0.35352  -0.34094
 Alpha  occ. eigenvalues --   -0.32869  -0.32400  -0.32076  -0.30594  -0.25334
 Alpha  occ. eigenvalues --   -0.18879
 Alpha virt. eigenvalues --    0.03301   0.08050   0.09141   0.11176   0.12232
 Alpha virt. eigenvalues --    0.12610   0.13686   0.16118   0.16577   0.17224
 Alpha virt. eigenvalues --    0.17689   0.18496   0.18595   0.19980   0.20532
 Alpha virt. eigenvalues --    0.20590   0.21387   0.21957   0.22829   0.24428
 Alpha virt. eigenvalues --    0.25445   0.29982   0.30486   0.33378   0.36385
 Alpha virt. eigenvalues --    0.46027   0.47168   0.47675   0.49580   0.50882
 Alpha virt. eigenvalues --    0.52643   0.53256   0.53750   0.54817   0.57173
 Alpha virt. eigenvalues --    0.58657   0.59646   0.59761   0.60652   0.61712
 Alpha virt. eigenvalues --    0.62797   0.62987   0.66251   0.67014   0.67022
 Alpha virt. eigenvalues --    0.69669   0.69822   0.72386   0.73564   0.73887
 Alpha virt. eigenvalues --    0.74322   0.75284   0.75294   0.76093   0.76796
 Alpha virt. eigenvalues --    0.77999   0.78331   0.79090   0.79778   0.80438
 Alpha virt. eigenvalues --    0.81638   0.82139   0.83024   0.83818   0.84993
 Alpha virt. eigenvalues --    0.86657   0.87418   0.88256   0.89967   0.94247
 Alpha virt. eigenvalues --    0.95693   0.98424   0.99252   1.00170   1.07496
 Alpha virt. eigenvalues --    1.12835   1.15418   1.17285   1.17332   1.21101
 Alpha virt. eigenvalues --    1.21621   1.22476   1.25292   1.25330   1.26183
 Alpha virt. eigenvalues --    1.28453   1.32713   1.34589   1.35229   1.36481
 Alpha virt. eigenvalues --    1.39585   1.40282   1.44342   1.45423   1.50479
 Alpha virt. eigenvalues --    1.50851   1.54511   1.55246   1.58220   1.61174
 Alpha virt. eigenvalues --    1.63310   1.64846   1.67950   1.69029   1.72082
 Alpha virt. eigenvalues --    1.74156   1.74799   1.78425   1.81031   1.81526
 Alpha virt. eigenvalues --    1.83725   1.85182   1.86679   1.88613   1.92593
 Alpha virt. eigenvalues --    1.93045   1.93641   1.94317   1.95392   1.97343
 Alpha virt. eigenvalues --    1.99109   2.00715   2.05771   2.14412   2.17515
 Alpha virt. eigenvalues --    2.19045   2.20086   2.21270   2.24132   2.26056
 Alpha virt. eigenvalues --    2.32408   2.34008   2.35395   2.35777   2.37525
 Alpha virt. eigenvalues --    2.38031   2.44160   2.44210   2.48879   2.51379
 Alpha virt. eigenvalues --    2.51790   2.55917   2.56745   2.63265   2.69177
 Alpha virt. eigenvalues --    2.70389   2.71840   2.72959   2.74746   2.76410
 Alpha virt. eigenvalues --    2.77303   2.78456   2.82146   2.83078   2.83661
 Alpha virt. eigenvalues --    2.84584   2.86534   2.89219   2.89362   2.91433
 Alpha virt. eigenvalues --    2.91806   2.92932   2.94449   2.95476   2.96382
 Alpha virt. eigenvalues --    2.96830   3.00618   3.00684   3.01933   3.05156
 Alpha virt. eigenvalues --    3.08141   3.11036   3.11352   3.17026   3.17732
 Alpha virt. eigenvalues --    3.19117   3.20910   3.22068   3.28721   3.29123
 Alpha virt. eigenvalues --    3.30096   3.34267   3.35677   3.37262   3.38329
 Alpha virt. eigenvalues --    3.41974   3.45201   3.46180   3.47339   3.51088
 Alpha virt. eigenvalues --    3.54254   3.56236   3.57664   3.61001   3.61325
 Alpha virt. eigenvalues --    3.61486   3.62080   3.65943   3.69836   3.71344
 Alpha virt. eigenvalues --    3.72823   3.73565   3.75594   3.75718   3.80990
 Alpha virt. eigenvalues --    3.82446   3.83527   3.83634   3.86132   3.90126
 Alpha virt. eigenvalues --    3.91398   3.98025   3.99095   4.03700   4.04924
 Alpha virt. eigenvalues --    4.06925   4.09941   4.11465   4.14077   4.15549
 Alpha virt. eigenvalues --    4.21471   4.27590   4.28114   4.30750   4.32272
 Alpha virt. eigenvalues --    4.33955   4.36290   4.38416   4.41077   4.44930
 Alpha virt. eigenvalues --    4.47987   4.48046   4.48982   4.50782   4.51909
 Alpha virt. eigenvalues --    4.52495   4.54452   4.56469   4.56790   4.57902
 Alpha virt. eigenvalues --    4.59173   4.62399   4.63569   4.63977   4.64454
 Alpha virt. eigenvalues --    4.65975   4.66511   4.69112   4.69322   4.70563
 Alpha virt. eigenvalues --    4.73517   4.74584   4.75834   4.77300   4.78171
 Alpha virt. eigenvalues --    4.80776   4.83826   4.84846   4.84950   4.86061
 Alpha virt. eigenvalues --    4.89909   4.93037   4.94906   4.96852   4.97910
 Alpha virt. eigenvalues --    4.98123   4.99945   5.01743   5.15958   5.16771
 Alpha virt. eigenvalues --    5.20463   5.22351   5.28000   5.31809   5.37794
 Alpha virt. eigenvalues --    5.40994   5.45438   5.51763   5.54145   5.62136
 Alpha virt. eigenvalues --    5.71131   5.76219   5.80640   5.96481   6.33290
 Alpha virt. eigenvalues --    7.64853  10.71056  11.22568  11.32808  11.39082
 Alpha virt. eigenvalues --   11.62654  11.85885  12.06169  12.30895  12.55447
 Alpha virt. eigenvalues --   15.68734
          Condensed to atoms (all electrons):
               1          2          3          4          5          6
     1  C    4.955725   0.404990  -0.037900   0.001868  -0.000155   0.000001
     2  C    0.404990   4.766132   0.432614  -0.033265   0.002150  -0.000142
     3  C   -0.037900   0.432614   4.806927   0.429520  -0.035140   0.001246
     4  C    0.001868  -0.033265   0.429520   4.799737   0.399286  -0.033029
     5  C   -0.000155   0.002150  -0.035140   0.399286   4.952860   0.409940
     6  C    0.000001  -0.000142   0.001246  -0.033029   0.409940   4.486224
     7  C    0.000000   0.000030   0.001032  -0.002362  -0.077836   0.433905
     8  N   -0.000000   0.000000  -0.000074   0.000337  -0.029428   0.646193
     9  N    0.000000  -0.000000   0.000000  -0.000116   0.004524  -0.129430
    10  H    0.370442  -0.022010   0.003594  -0.000175   0.000001  -0.000000
    11  H    0.379049  -0.028979  -0.004695   0.000252   0.000004   0.000000
    12  H    0.379050  -0.028979  -0.004695   0.000252   0.000004   0.000000
    13  H   -0.036252   0.370642  -0.033978  -0.002137   0.000175   0.000009
    14  H   -0.036252   0.370640  -0.033978  -0.002137   0.000175   0.000009
    15  H   -0.002555  -0.034720   0.361553  -0.027890  -0.002053   0.000147
    16  H   -0.002555  -0.034721   0.361552  -0.027891  -0.002053   0.000147
    17  H    0.000164  -0.004073  -0.035161   0.364883  -0.031663  -0.002655
    18  H    0.000164  -0.004073  -0.035161   0.364882  -0.031663  -0.002655
    19  H    0.000007   0.000073  -0.003351  -0.032451   0.352610  -0.020236
    20  H    0.000007   0.000073  -0.003351  -0.032451   0.352609  -0.020236
    21  H   -0.000000   0.000030  -0.000387   0.001564  -0.010401  -0.016236
    22  H   -0.000000  -0.000000  -0.000026  -0.000029   0.003801  -0.027205
    23  H   -0.000000  -0.000000  -0.000026  -0.000029   0.003801  -0.027205
    24  H   -0.000000   0.000000  -0.000000  -0.000000  -0.000196   0.003327
    25  H    0.000000   0.000000   0.000000   0.000081  -0.000192   0.004918
               7          8          9         10         11         12
     1  C    0.000000  -0.000000   0.000000   0.370442   0.379049   0.379050
     2  C    0.000030   0.000000  -0.000000  -0.022010  -0.028979  -0.028979
     3  C    0.001032  -0.000074   0.000000   0.003594  -0.004695  -0.004695
     4  C   -0.002362   0.000337  -0.000116  -0.000175   0.000252   0.000252
     5  C   -0.077836  -0.029428   0.004524   0.000001   0.000004   0.000004
     6  C    0.433905   0.646193  -0.129430  -0.000000   0.000000   0.000000
     7  C    5.118178  -0.063319  -0.013299   0.000000  -0.000000  -0.000000
     8  N   -0.063319   6.371771   0.374379   0.000000   0.000000   0.000000
     9  N   -0.013299   0.374379   6.487910  -0.000000   0.000000   0.000000
    10  H    0.000000   0.000000  -0.000000   0.612883  -0.032006  -0.032006
    11  H   -0.000000   0.000000   0.000000  -0.032006   0.602504  -0.033271
    12  H   -0.000000   0.000000   0.000000  -0.032006  -0.033271   0.602501
    13  H   -0.000009   0.000000   0.000000  -0.002440  -0.004587   0.005808
    14  H   -0.000009   0.000000   0.000000  -0.002440   0.005808  -0.004587
    15  H   -0.000008   0.000001   0.000000  -0.000051  -0.000405   0.004943
    16  H   -0.000008   0.000001   0.000000  -0.000051   0.004943  -0.000405
    17  H   -0.001647   0.000051  -0.000002   0.000004   0.000005   0.000011
    18  H   -0.001647   0.000051  -0.000002   0.000004   0.000011   0.000005
    19  H    0.004424  -0.004957   0.000094   0.000000   0.000001  -0.000002
    20  H    0.004424  -0.004957   0.000094   0.000000  -0.000002   0.000001
    21  H    0.368155   0.004476   0.000166   0.000000   0.000000   0.000000
    22  H    0.357672  -0.005173   0.005850   0.000000   0.000000  -0.000000
    23  H    0.357670  -0.005173   0.005849   0.000000  -0.000000   0.000000
    24  H    0.000386  -0.028460   0.362357   0.000000  -0.000000  -0.000000
    25  H    0.010661  -0.052080   0.336403   0.000000   0.000000   0.000000
              13         14         15         16         17         18
     1  C   -0.036252  -0.036252  -0.002555  -0.002555   0.000164   0.000164
     2  C    0.370642   0.370640  -0.034720  -0.034721  -0.004073  -0.004073
     3  C   -0.033978  -0.033978   0.361553   0.361552  -0.035161  -0.035161
     4  C   -0.002137  -0.002137  -0.027890  -0.027891   0.364883   0.364882
     5  C    0.000175   0.000175  -0.002053  -0.002053  -0.031663  -0.031663
     6  C    0.000009   0.000009   0.000147   0.000147  -0.002655  -0.002655
     7  C   -0.000009  -0.000009  -0.000008  -0.000008  -0.001647  -0.001647
     8  N    0.000000   0.000000   0.000001   0.000001   0.000051   0.000051
     9  N    0.000000   0.000000   0.000000   0.000000  -0.000002  -0.000002
    10  H   -0.002440  -0.002440  -0.000051  -0.000051   0.000004   0.000004
    11  H   -0.004587   0.005808  -0.000405   0.004943   0.000005   0.000011
    12  H    0.005808  -0.004587   0.004943  -0.000405   0.000011   0.000005
    13  H    0.647755  -0.042115   0.006106  -0.005378   0.005593  -0.000461
    14  H   -0.042115   0.647759  -0.005378   0.006106  -0.000461   0.005593
    15  H    0.006106  -0.005378   0.645465  -0.042091   0.006541  -0.006220
    16  H   -0.005378   0.006106  -0.042091   0.645467  -0.006220   0.006541
    17  H    0.005593  -0.000461   0.006541  -0.006220   0.652899  -0.047390
    18  H   -0.000461   0.005593  -0.006220   0.006541  -0.047390   0.652902
    19  H    0.000007   0.000005   0.005091  -0.000562   0.006371  -0.006149
    20  H    0.000005   0.000007  -0.000562   0.005091  -0.006149   0.006371
    21  H    0.000017   0.000017   0.000023   0.000023   0.003940   0.003940
    22  H    0.000000   0.000000   0.000002  -0.000000   0.000166  -0.000103
    23  H    0.000000   0.000000  -0.000000   0.000002  -0.000103   0.000166
    24  H    0.000000   0.000000   0.000000   0.000000   0.000000   0.000000
    25  H   -0.000000  -0.000000  -0.000000  -0.000000  -0.000000  -0.000000
              19         20         21         22         23         24
     1  C    0.000007   0.000007  -0.000000  -0.000000  -0.000000  -0.000000
     2  C    0.000073   0.000073   0.000030  -0.000000  -0.000000   0.000000
     3  C   -0.003351  -0.003351  -0.000387  -0.000026  -0.000026  -0.000000
     4  C   -0.032451  -0.032451   0.001564  -0.000029  -0.000029  -0.000000
     5  C    0.352610   0.352609  -0.010401   0.003801   0.003801  -0.000196
     6  C   -0.020236  -0.020236  -0.016236  -0.027205  -0.027205   0.003327
     7  C    0.004424   0.004424   0.368155   0.357672   0.357670   0.000386
     8  N   -0.004957  -0.004957   0.004476  -0.005173  -0.005173  -0.028460
     9  N    0.000094   0.000094   0.000166   0.005850   0.005849   0.362357
    10  H    0.000000   0.000000   0.000000   0.000000   0.000000   0.000000
    11  H    0.000001  -0.000002   0.000000   0.000000  -0.000000  -0.000000
    12  H   -0.000002   0.000001   0.000000  -0.000000   0.000000  -0.000000
    13  H    0.000007   0.000005   0.000017   0.000000   0.000000   0.000000
    14  H    0.000005   0.000007   0.000017   0.000000   0.000000   0.000000
    15  H    0.005091  -0.000562   0.000023   0.000002  -0.000000   0.000000
    16  H   -0.000562   0.005091   0.000023  -0.000000   0.000002   0.000000
    17  H    0.006371  -0.006149   0.003940   0.000166  -0.000103   0.000000
    18  H   -0.006149   0.006371   0.003940  -0.000103   0.000166   0.000000
    19  H    0.628873  -0.038078   0.000186   0.000026  -0.000167   0.000005
    20  H   -0.038078   0.628876   0.000186  -0.000167   0.000026   0.000005
    21  H    0.000186   0.000186   0.575233  -0.029099  -0.029099  -0.000002
    22  H    0.000026  -0.000167  -0.029099   0.607468  -0.040863   0.000028
    23  H   -0.000167   0.000026  -0.029099  -0.040863   0.607471   0.000028
    24  H    0.000005   0.000005  -0.000002   0.000028   0.000028   0.442499
    25  H    0.000015   0.000015  -0.001140   0.002925   0.002925  -0.040605
              25
     1  C    0.000000
     2  C    0.000000
     3  C    0.000000
     4  C    0.000081
     5  C   -0.000192
     6  C    0.004918
     7  C    0.010661
     8  N   -0.052080
     9  N    0.336403
    10  H    0.000000
    11  H    0.000000
    12  H    0.000000
    13  H   -0.000000
    14  H   -0.000000
    15  H   -0.000000
    16  H   -0.000000
    17  H   -0.000000
    18  H   -0.000000
    19  H    0.000015
    20  H    0.000015
    21  H   -0.001140
    22  H    0.002925
    23  H    0.002925
    24  H   -0.040605
    25  H    0.500246
 Mulliken charges:
               1
     1  C   -0.375797
     2  C   -0.156411
     3  C   -0.170117
     4  C   -0.168700
     5  C   -0.261161
     6  C    0.292965
     7  C   -0.496392
     8  N   -0.203638
     9  N   -0.434778
    10  H    0.104253
    11  H    0.111369
    12  H    0.111370
    13  H    0.091239
    14  H    0.091237
    15  H    0.092064
    16  H    0.092063
    17  H    0.094896
    18  H    0.094895
    19  H    0.108163
    20  H    0.108162
    21  H    0.128409
    22  H    0.124727
    23  H    0.124725
    24  H    0.260628
    25  H    0.235829
 Sum of Mulliken charges =  -0.00000
 Mulliken charges with hydrogens summed into heavy atoms:
               1
     1  C   -0.048805
     2  C    0.026065
     3  C    0.014010
     4  C    0.021091
     5  C   -0.044835
     6  C    0.292965
     7  C   -0.118531
     8  N   -0.203638
     9  N    0.061679
 Electronic spatial extent (au):  <R**2>=           2425.4252
 Charge=             -0.0000 electrons
 Dipole moment (field-independent basis, Debye):
    X=              0.7010    Y=              1.6277    Z=             -0.0000  Tot=              1.7722
 Quadrupole moment (field-independent basis, Debye-Ang):
   XX=            -49.9011   YY=            -58.7656   ZZ=            -58.2220
   XY=              3.8690   XZ=             -0.0001   YZ=              0.0001
 Traceless Quadrupole moment (field-independent basis, Debye-Ang):
   XX=              5.7285   YY=             -3.1360   ZZ=             -2.5924
   XY=              3.8690   XZ=             -0.0001   YZ=              0.0001
 Octapole moment (field-independent basis, Debye-Ang**2):
  XXX=             94.8267  YYY=              1.3096  ZZZ=             -0.0000  XYY=              5.4501
  XXY=              8.8106  XXZ=             -0.0003  XZZ=             -0.4883  YZZ=             -0.2742
  YYZ=             -0.0000  XYZ=             -0.0001
 Hexadecapole moment (field-independent basis, Debye-Ang**3):
 XXXX=          -2473.9959 YYYY=           -304.7971 ZZZZ=            -99.4701 XXXY=            -24.0598
 XXXZ=             -0.0011 YYYX=              0.2083 YYYZ=              0.0002 ZZZX=             -0.0000
 ZZZY=              0.0001 XXYY=           -507.3685 XXZZ=           -502.7252 YYZZ=            -62.3427
 XXYZ=              0.0006 YYXZ=             -0.0001 ZZXY=              3.0854
 N-N= 4.493810480502D+02 E-N=-1.793514001586D+03  KE= 3.826814148126D+02
 PrsmSu:  requested number of processors reduced to:  13 ShMem   1 Linda.
 Calling FoFJK, ICntrl=      2127 FMM=F ISym2X=0 I1Cent= 0 IOpClX= 0 NMat=1 NMatS=1 NMatT=0.
 ***** Axes restored to original set *****
 -------------------------------------------------------------------
 Center     Atomic                   Forces (Hartrees/Bohr)
 Number     Number              X              Y              Z
 -------------------------------------------------------------------
      1        6          -0.004867184    0.003844376   -0.005191628
      2        6          -0.005214362   -0.002995374    0.004040140
      3        6           0.006489632    0.004935031   -0.006667726
      4        6          -0.000172734   -0.003834476    0.005176387
      5        6           0.011582731   -0.002632579    0.003566818
      6        6          -0.001933490   -0.006590731    0.008913188
      7        6          -0.002124806   -0.006062779    0.008208322
      8        7          -0.016232565    0.013376343   -0.018089521
      9        7           0.024890526   -0.004009532    0.005422282
     10        1          -0.003769938   -0.000027208    0.000036100
     11        1          -0.002048669   -0.000192962   -0.000040973
     12        1          -0.002049628    0.000092433    0.000171724
     13        1           0.001655639   -0.000407969    0.000102705
     14        1           0.001653998    0.000023861    0.000425069
     15        1          -0.001707868   -0.000627928    0.000922808
     16        1          -0.001707323   -0.000699539    0.000868521
     17        1           0.000388852    0.000069678   -0.002274365
     18        1           0.000387653    0.002156235   -0.000729180
     19        1          -0.002523693    0.000793678    0.001165740
     20        1          -0.002522162   -0.001348824   -0.000420621
     21        1          -0.001151132   -0.001050957    0.001420382
     22        1           0.006775633    0.001290487   -0.001593894
     23        1           0.006772280    0.001141233   -0.001703336
     24        1          -0.009091944    0.004064242   -0.005495919
     25        1          -0.003479447   -0.001306739    0.001766979
 -------------------------------------------------------------------
 Cartesian Forces:  Max     0.024890526 RMS     0.005667790

 GradGradGradGradGradGradGradGradGradGradGradGradGradGradGradGradGradGrad
 Berny optimization.
 FormGI is forming the generalized inverse of G from B-inverse, IUseBI=4.
 Internal  Forces:  Max     0.019966890 RMS     0.004877733
 Search for a local minimum.
 Step number   1 out of a maximum of  130
 All quantities printed in internal units (Hartrees-Bohrs-Radians)
 Mixed Optimization -- RFO/linear search
 Second derivative matrix not updated -- first step.
 ITU=  0
     Eigenvalues ---    0.00374   0.00384   0.00492   0.00508   0.00524
     Eigenvalues ---    0.00567   0.00809   0.01336   0.02175   0.03000
     Eigenvalues ---    0.03607   0.03804   0.03928   0.03983   0.04953
     Eigenvalues ---    0.04957   0.04993   0.05352   0.05736   0.05756
     Eigenvalues ---    0.06874   0.07360   0.07840   0.08071   0.08519
     Eigenvalues ---    0.09536   0.11816   0.11990   0.12321   0.12930
     Eigenvalues ---    0.16000   0.16000   0.16000   0.16000   0.16000
     Eigenvalues ---    0.16000   0.16000   0.16000   0.21874   0.21875
     Eigenvalues ---    0.21976   0.21985   0.25000   0.25000   0.25000
     Eigenvalues ---    0.29455   0.29527   0.30298   0.30414   0.30529
     Eigenvalues ---    0.30846   0.33965   0.33966   0.33993   0.33994
     Eigenvalues ---    0.33999   0.34000   0.34132   0.34133   0.34320
     Eigenvalues ---    0.34321   0.34409   0.34440   0.34441   0.35181
     Eigenvalues ---    0.45521   0.45608   0.58693   0.66894
 RFO step:  Lambda=-1.10572401D-02 EMin= 3.73598734D-03
 Linear search not attempted -- first point.
 Iteration  1 RMS(Cart)=  0.15435075 RMS(Int)=  0.00391835
 Iteration  2 RMS(Cart)=  0.00899598 RMS(Int)=  0.00024488
 Iteration  3 RMS(Cart)=  0.00004561 RMS(Int)=  0.00024458
 Iteration  4 RMS(Cart)=  0.00000000 RMS(Int)=  0.00024458
 Variable       Old X    -DE/DX   Delta X   Delta X   Delta X     New X
                                 (Linear)    (Quad)   (Total)
    R1        2.86308   0.01285   0.00000   0.04023   0.04023   2.90331
    R2        2.06645   0.00120   0.00000   0.00339   0.00339   2.06984
    R3        2.06793   0.00063   0.00000   0.00178   0.00178   2.06971
    R4        2.06792   0.00063   0.00000   0.00179   0.00179   2.06971
    R5        2.88917   0.00544   0.00000   0.01776   0.01776   2.90693
    R6        2.07329   0.00020   0.00000   0.00056   0.00056   2.07385
    R7        2.07331   0.00019   0.00000   0.00054   0.00054   2.07385
    R8        2.86921   0.01156   0.00000   0.03653   0.03653   2.90574
    R9        2.07107   0.00108   0.00000   0.00307   0.00307   2.07414
   R10        2.07107   0.00108   0.00000   0.00306   0.00306   2.07414
   R11        2.87374   0.00801   0.00000   0.02551   0.02551   2.89925
   R12        2.07341   0.00001   0.00000   0.00002   0.00002   2.07342
   R13        2.07342   0.00000   0.00000   0.00000   0.00000   2.07343
   R14        2.89064   0.00443   0.00000   0.01448   0.01448   2.90512
   R15        2.07387  -0.00006   0.00000  -0.00016  -0.00016   2.07371
   R16        2.07389  -0.00006   0.00000  -0.00018  -0.00018   2.07371
   R17        2.87146  -0.00166   0.00000  -0.00528  -0.00528   2.86618
   R18        2.45869  -0.01997   0.00000  -0.02936  -0.02936   2.42932
   R19        2.05382  -0.00077   0.00000  -0.00212  -0.00212   2.05171
   R20        2.06591   0.00388   0.00000   0.01092   0.01092   2.07683
   R21        2.06593   0.00387   0.00000   0.01090   0.01090   2.07683
   R22        2.51990   0.01236   0.00000   0.02067   0.02067   2.54056
   R23        1.91376  -0.01027   0.00000  -0.02202  -0.02202   1.89174
   R24        1.91276  -0.00379   0.00000  -0.00812  -0.00812   1.90464
    A1        1.92679   0.00446   0.00000   0.02793   0.02775   1.95453
    A2        1.92980   0.00149   0.00000   0.00778   0.00770   1.93750
    A3        1.92981   0.00149   0.00000   0.00778   0.00769   1.93750
    A4        1.89199  -0.00282   0.00000  -0.01469  -0.01485   1.87714
    A5        1.89200  -0.00282   0.00000  -0.01469  -0.01486   1.87714
    A6        1.89237  -0.00207   0.00000  -0.01573  -0.01572   1.87665
    A7        1.93198   0.01044   0.00000   0.05085   0.05078   1.98276
    A8        1.91120  -0.00217   0.00000  -0.00044  -0.00027   1.91093
    A9        1.91119  -0.00217   0.00000  -0.00043  -0.00027   1.91093
   A10        1.92117  -0.00388   0.00000  -0.02011  -0.02056   1.90061
   A11        1.92117  -0.00388   0.00000  -0.02011  -0.02056   1.90061
   A12        1.86595   0.00127   0.00000  -0.01200  -0.01242   1.85353
   A13        1.91113   0.01407   0.00000   0.06966   0.06941   1.98054
   A14        1.91901  -0.00437   0.00000  -0.01756  -0.01807   1.90094
   A15        1.91901  -0.00437   0.00000  -0.01755  -0.01806   1.90094
   A16        1.91756  -0.00353   0.00000  -0.00771  -0.00779   1.90977
   A17        1.91755  -0.00353   0.00000  -0.00770  -0.00778   1.90977
   A18        1.87940   0.00140   0.00000  -0.02104  -0.02154   1.85786
   A19        1.98384  -0.00172   0.00000  -0.00419  -0.00419   1.97965
   A20        1.89154   0.00037   0.00000   0.00094   0.00094   1.89248
   A21        1.89153   0.00037   0.00000   0.00094   0.00094   1.89248
   A22        1.90597   0.00120   0.00000   0.00948   0.00948   1.91546
   A23        1.90597   0.00120   0.00000   0.00949   0.00949   1.91546
   A24        1.88240  -0.00146   0.00000  -0.01777  -0.01778   1.86461
   A25        1.98463   0.01657   0.00000   0.08161   0.08126   2.06589
   A26        1.91968  -0.00532   0.00000  -0.02604  -0.02705   1.89263
   A27        1.91968  -0.00532   0.00000  -0.02604  -0.02705   1.89263
   A28        1.88376  -0.00384   0.00000  -0.00313  -0.00308   1.88069
   A29        1.88376  -0.00384   0.00000  -0.00313  -0.00308   1.88069
   A30        1.86826   0.00101   0.00000  -0.02876  -0.02970   1.83857
   A31        2.09664   0.01854   0.00000   0.07102   0.07102   2.16767
   A32        2.03773  -0.00776   0.00000  -0.02974  -0.02974   2.00799
   A33        2.14881  -0.01078   0.00000  -0.04128  -0.04128   2.10753
   A34        1.99545  -0.00393   0.00000  -0.01833  -0.01824   1.97721
   A35        1.90301   0.00510   0.00000   0.02757   0.02757   1.93058
   A36        1.90301   0.00510   0.00000   0.02757   0.02757   1.93057
   A37        1.86829   0.00010   0.00000   0.00511   0.00520   1.87349
   A38        1.86827   0.00010   0.00000   0.00512   0.00521   1.87348
   A39        1.92523  -0.00704   0.00000  -0.05083  -0.05092   1.87431
   A40        2.05854   0.01099   0.00000   0.04211   0.04211   2.10065
   A41        2.07205  -0.00523   0.00000  -0.03057  -0.03057   2.04148
   A42        2.15898   0.00109   0.00000   0.00634   0.00634   2.16532
   A43        2.05216   0.00414   0.00000   0.02422   0.02422   2.07639
    D1        3.14159   0.00000   0.00000   0.00000   0.00000   3.14159
    D2        1.02035  -0.00048   0.00000  -0.00749  -0.00763   1.01272
    D3       -1.02038   0.00048   0.00000   0.00750   0.00764  -1.01273
    D4        1.04801  -0.00033   0.00000  -0.00478  -0.00482   1.04319
    D5       -1.07322  -0.00081   0.00000  -0.01227  -0.01245  -1.08568
    D6       -3.11395   0.00016   0.00000   0.00273   0.00282  -3.11113
    D7       -1.04800   0.00033   0.00000   0.00477   0.00481  -1.04319
    D8        3.11395  -0.00016   0.00000  -0.00273  -0.00282   3.11113
    D9        1.07322   0.00081   0.00000   0.01227   0.01245   1.08567
   D10        3.14159   0.00000   0.00000   0.00000   0.00000  -3.14159
   D11        1.03318  -0.00180   0.00000  -0.02358  -0.02341   1.00976
   D12       -1.03319   0.00180   0.00000   0.02359   0.02342  -1.00977
   D13       -1.02624   0.00156   0.00000   0.01947   0.01924  -1.00701
   D14       -3.13466  -0.00024   0.00000  -0.00411  -0.00418  -3.13884
   D15        1.08216   0.00337   0.00000   0.04306   0.04266   1.12482
   D16        1.02626  -0.00156   0.00000  -0.01948  -0.01924   1.00701
   D17       -1.08216  -0.00337   0.00000  -0.04307  -0.04266  -1.12482
   D18        3.13467   0.00024   0.00000   0.00411   0.00417   3.13884
   D19       -3.14159  -0.00000   0.00000  -0.00000  -0.00000   3.14159
   D20        1.01921  -0.00066   0.00000  -0.01001  -0.01000   1.00921
   D21       -1.01923   0.00066   0.00000   0.01001   0.01001  -1.00922
   D22       -1.03229   0.00128   0.00000   0.01753   0.01762  -1.01467
   D23        3.12851   0.00062   0.00000   0.00752   0.00762   3.13613
   D24        1.09007   0.00194   0.00000   0.02754   0.02763   1.11770
   D25        1.03230  -0.00128   0.00000  -0.01754  -0.01763   1.01467
   D26       -1.09008  -0.00194   0.00000  -0.02754  -0.02763  -1.11771
   D27       -3.12852  -0.00062   0.00000  -0.00752  -0.00762  -3.13614
   D28        3.14159   0.00000   0.00000   0.00000   0.00000   3.14159
   D29        1.02676  -0.00259   0.00000  -0.03323  -0.03278   0.99398
   D30       -1.02677   0.00259   0.00000   0.03324   0.03279  -0.99398
   D31       -1.02727   0.00019   0.00000   0.00524   0.00524  -1.02203
   D32        3.14109  -0.00240   0.00000  -0.02799  -0.02755   3.11354
   D33        1.08755   0.00277   0.00000   0.03847   0.03803   1.12558
   D34        1.02728  -0.00019   0.00000  -0.00524  -0.00524   1.02204
   D35       -1.08755  -0.00277   0.00000  -0.03847  -0.03803  -1.12558
   D36       -3.14109   0.00240   0.00000   0.02799   0.02755  -3.11354
   D37       -0.00000   0.00000   0.00000   0.00000   0.00000  -0.00000
   D38        3.14159   0.00000   0.00000   0.00000   0.00000   3.14159
   D39        2.13478   0.00138   0.00000   0.01841   0.01880   2.15358
   D40       -1.00682   0.00138   0.00000   0.01841   0.01880  -0.98802
   D41       -2.13477  -0.00138   0.00000  -0.01841  -0.01880  -2.15357
   D42        1.00682  -0.00138   0.00000  -0.01841  -0.01880   0.98802
   D43        0.00000  -0.00000   0.00000  -0.00000  -0.00000   0.00000
   D44       -2.09012  -0.00121   0.00000  -0.01431  -0.01424  -2.10436
   D45        2.09011   0.00121   0.00000   0.01432   0.01424   2.10435
   D46       -3.14159  -0.00000   0.00000  -0.00000  -0.00000  -3.14159
   D47        1.05147  -0.00121   0.00000  -0.01431  -0.01424   1.03723
   D48       -1.05148   0.00121   0.00000   0.01431   0.01424  -1.03724
   D49       -3.14159   0.00000   0.00000   0.00000   0.00000  -3.14159
   D50       -0.00000   0.00000   0.00000   0.00000   0.00000   0.00000
   D51       -3.14158  -0.00000   0.00000  -0.00000  -0.00000  -3.14159
   D52        0.00000  -0.00000   0.00000  -0.00000  -0.00000  -0.00000
   D53        3.14159  -0.00000   0.00000  -0.00000  -0.00000   3.14159
         Item               Value     Threshold  Converged?
 Maximum Force            0.019967     0.000450     NO 
 RMS     Force            0.004878     0.000300     NO 
 Maximum Displacement     0.605973     0.001800     NO 
 RMS     Displacement     0.158774     0.001200     NO 
 Predicted change in Energy=-5.847997D-03
 GradGradGradGradGradGradGradGradGradGradGradGradGradGradGradGradGradGrad

                          Input orientation:                          
 ---------------------------------------------------------------------
 Center     Atomic      Atomic             Coordinates (Angstroms)
 Number     Number       Type             X           Y           Z
 ---------------------------------------------------------------------
      1          6           0        0.729195    0.007124   -0.021150
      2          6           0        2.264576    0.039836   -0.065388
      3          6           0        2.930604   -0.784613    1.049513
      4          6           0        4.467144   -0.749843    1.002495
      5          6           0        5.130184   -1.572462    2.114925
      6          6           0        6.665723   -1.616497    2.174473
      7          6           0        7.577650   -0.895905    1.200014
      8          7           0        7.153280   -2.323740    3.130881
      9          7           0        8.484373   -2.435963    3.282643
     10          1           0        0.283014    0.601887   -0.825442
     11          1           0        0.355189    0.403180    0.929017
     12          1           0        0.355187   -1.017382   -0.121464
     13          1           0        2.610838    1.078786    0.005651
     14          1           0        2.610836   -0.332469   -1.037940
     15          1           0        2.586685   -1.824400    0.977004
     16          1           0        2.586686   -0.410661    2.022435
     17          1           0        4.792707    0.295752    1.070361
     18          1           0        4.792706   -1.121061    0.022661
     19          1           0        4.768219   -2.606048    2.045065
     20          1           0        4.768220   -1.202856    3.082693
     21          1           0        7.038817   -0.335476    0.442147
     22          1           0        8.228338   -1.611216    0.677747
     23          1           0        8.228335   -0.186987    1.730933
     24          1           0        8.808595   -2.999090    4.044154
     25          1           0        9.160539   -1.991564    2.681681
 ---------------------------------------------------------------------
                    Distance matrix (angstroms):
                    1          2          3          4          5
     1  C    0.000000
     2  C    1.536366   0.000000
     3  C    2.572813   1.538283   0.000000
     4  C    3.948811   2.572017   1.537652   0.000000
     5  C    5.140682   3.945247   2.567870   1.534217   0.000000
     6  C    6.534467   5.208695   3.988568   2.637872   1.537324
     7  C    7.014843   5.541264   4.650814   3.120191   2.699051
     8  N    7.525762   6.300957   4.952979   3.771274   2.385268
     9  N    8.776475   7.484970   6.209523   4.917337   3.655104
    10  H    1.095311   2.195488   3.528111   4.761876   6.071952
    11  H    1.095244   2.183259   2.838686   4.271187   5.301898
    12  H    1.095243   2.183259   2.838687   4.271188   5.301900
    13  H    2.165585   1.097434   2.159666   2.789884   4.221997
    14  H    2.165584   1.097436   2.159664   2.789885   4.221997
    15  H    2.793037   2.160025   1.097586   2.165975   2.797807
    16  H    2.793037   2.160025   1.097587   2.165975   2.797806
    17  H    4.217444   2.783319   2.152917   1.097208   2.166847
    18  H    4.217444   2.783321   2.152916   1.097210   2.166846
    19  H    5.235611   4.209862   2.772287   2.150138   1.097361
    20  H    5.235611   4.209862   2.772288   2.150138   1.097361
    21  H    6.335878   4.815790   4.177084   2.664431   2.823331
    22  H    7.703546   6.232550   5.374706   3.872209   3.415485
    23  H    7.703542   6.232546   5.374703   3.872207   3.415483
    24  H    9.531040   8.303469   6.958632   5.758385   4.391799
    25  H    9.076762   7.695926   6.552312   5.137070   4.091530
                    6          7          8          9         10
     6  C    0.000000
     7  C    1.516719   0.000000
     8  N    1.285543   2.438658   0.000000
     9  N    2.281897   2.744316   1.344409   0.000000
    10  H    7.393219   7.717354   8.450582   9.662669   0.000000
    11  H    6.741891   7.343365   7.648421   8.926586   1.767150
    12  H    6.741893   7.343366   7.648424   8.926588   1.767152
    13  H    5.330144   5.476781   6.479046   7.588844   2.517323
    14  H    5.330144   5.476782   6.479046   7.588845   2.517326
    15  H    4.256255   5.081493   5.073689   6.361817   3.800339
    16  H    4.256254   5.081492   5.073688   6.361815   3.800336
    17  H    2.895505   3.031957   4.084090   5.097534   4.901542
    18  H    2.895505   3.031958   4.084089   5.097535   4.901545
    19  H    2.143940   3.395821   2.635757   3.920502   6.216729
    20  H    2.143940   3.395820   2.635757   3.920501   6.216727
    21  H    2.186588   1.085717   3.345980   3.817079   6.937312
    22  H    2.163789   1.099012   2.771517   2.744311   8.383649
    23  H    2.163789   1.099013   2.771518   2.744313   8.383644
    24  H    3.162147   3.745364   2.007544   1.001065  10.457797
    25  H    2.573333   2.429268   2.083557   1.007892   9.891225
                   11         12         13         14         15
    11  H    0.000000
    12  H    1.766779   0.000000
    13  H    2.529230   3.081889   0.000000
    14  H    3.081890   2.529226   1.755200   0.000000
    15  H    3.153409   2.614859   3.061470   2.507278   0.000000
    16  H    2.614857   3.153411   2.507280   3.061470   1.758290
    17  H    4.441068   4.778739   2.550941   3.098412   3.061094
    18  H    4.778740   4.441069   3.098413   2.550943   2.504394
    19  H    5.456725   5.166484   4.731966   4.396406   2.551631
    20  H    5.166481   5.456729   4.396405   4.731966   3.095051
    21  H    6.741924   6.741926   4.668797   4.668799   4.724876
    22  H    8.130646   7.935860   6.264513   6.011248   5.653605
    23  H    7.935855   8.130644   6.011243   6.264513   5.922647
    24  H    9.630140   9.630142   8.446939   8.446938   7.035586
    25  H    9.291976   9.291979   7.712766   7.712768   6.793337
                   16         17         18         19         20
    16  H    0.000000
    17  H    2.504395   0.000000
    18  H    3.061094   1.762111   0.000000
    19  H    3.095049   3.061224   2.509165   0.000000
    20  H    2.551630   2.509165   3.061224   1.745170   0.000000
    21  H    4.724874   2.416219   2.416222   3.588935   3.588933
    22  H    5.922648   3.948953   3.531707   3.851191   4.233549
    23  H    5.653601   3.531703   3.948953   4.233549   3.851186
    24  H    7.035586   5.985548   5.985547   4.524984   4.524985
    25  H    6.793336   5.187111   5.187112   4.480552   4.480551
                   21         22         23         24         25
    21  H    0.000000
    22  H    1.760107   0.000000
    23  H    1.760105   1.771335   0.000000
    24  H    4.816784   3.687220   3.687224   0.000000
    25  H    3.501405   2.242636   2.242638   1.730696   0.000000
 Stoichiometry    C7H16N2
 Framework group  C1[X(C7H16N2)]
 Deg. of freedom    69
 Full point group                 C1      NOp   1
 Largest Abelian subgroup         C1      NOp   1
 Largest concise Abelian subgroup C1      NOp   1
                         Standard orientation:                         
 ---------------------------------------------------------------------
 Center     Atomic      Atomic             Coordinates (Angstroms)
 Number     Number       Type             X           Y           Z
 ---------------------------------------------------------------------
      1          6           0       -4.660349   -0.250096    0.000001
      2          6           0       -3.315217    0.492225    0.000001
      3          6           0       -2.094876   -0.444302   -0.000001
      4          6           0       -0.750271    0.301628   -0.000001
      5          6           0        0.466015   -0.633503   -0.000000
      6          6           0        1.869568   -0.006286   -0.000000
      7          6           0        2.136054    1.486838   -0.000001
      8          7           0        2.841664   -0.847507    0.000000
      9          7           0        4.114578   -0.414927    0.000002
     10          1           0       -5.510107    0.441001    0.000006
     11          1           0       -4.755449   -0.890517    0.883390
     12          1           0       -4.755452   -0.890514   -0.883389
     13          1           0       -3.259376    1.148781    0.877599
     14          1           0       -3.259377    1.148778   -0.877601
     15          1           0       -2.148935   -1.099190   -0.879146
     16          1           0       -2.148935   -1.099190    0.879144
     17          1           0       -0.715835    0.954640    0.881053
     18          1           0       -0.715835    0.954638   -0.881058
     19          1           0        0.395151   -1.295150   -0.872584
     20          1           0        0.395151   -1.295148    0.872586
     21          1           0        1.229696    2.084582    0.000001
     22          1           0        2.719072    1.775826   -0.885666
     23          1           0        2.719068    1.775826    0.885669
     24          1           0        4.831492   -1.113615   -0.000003
     25          1           0        4.380434    0.557269    0.000002
 ---------------------------------------------------------------------
 Rotational constants (GHZ):           5.9788310           0.4690235           0.4420300
 Standard basis: 6-31G(2df,p) (6D, 7F)
 There are   359 symmetry adapted cartesian basis functions of A   symmetry.
 There are   332 symmetry adapted basis functions of A   symmetry.
   332 basis functions,   508 primitive gaussians,   359 cartesian basis functions
    36 alpha electrons       36 beta electrons
       nuclear repulsion energy       443.7978459763 Hartrees.
 NAtoms=   25 NActive=   25 NUniq=   25 SFac= 1.00D+00 NAtFMM=   60 NAOKFM=F Big=F
 Integral buffers will be    131072 words long.
 Raffenetti 2 integral format.
 Two-electron integral symmetry is turned on.
 One-electron integrals computed using PRISM.
 PrsmSu:  requested number of processors reduced to:  13 ShMem   1 Linda.
 NBasis=   332 RedAO= T EigKep=  2.48D-04  NBF=   332
 NBsUse=   332 1.00D-06 EigRej= -1.00D+00 NBFU=   332
 Initial guess from the checkpoint file:  "CCCCCCpCpdNN.chk"
 B after Tr=     0.000000    0.000000    0.000000
         Rot=    0.999984    0.000000   -0.000000    0.005618 Ang=   0.64 deg.
 ExpMin= 1.61D-01 ExpMax= 4.17D+03 ExpMxC= 6.27D+02 IAcc=2 IRadAn=         4 AccDes= 0.00D+00
 Harris functional with IExCor=  402 and IRadAn=       4 diagonalized for initial guess.
 HarFok:  IExCor=  402 AccDes= 0.00D+00 IRadAn=         4 IDoV= 1 UseB2=F ITyADJ=14
 ICtDFT=  3500011 ScaDFX=  1.000000  1.000000  1.000000  1.000000
 FoFCou: FMM=F IPFlag=           0 FMFlag=      100000 FMFlg1=           0
         NFxFlg=           0 DoJE=T BraDBF=F KetDBF=T FulRan=T
         wScrn=  0.000000 ICntrl=       500 IOpCl=  0 I1Cent=   200000004 NGrid=           0
         NMat0=    1 NMatS0=      1 NMatT0=    0 NMatD0=    1 NMtDS0=    0 NMtDT0=    0
 Petite list used in FoFCou.
 Requested convergence on RMS density matrix=1.00D-08 within 128 cycles.
 Requested convergence on MAX density matrix=1.00D-06.
 Requested convergence on             energy=1.00D-06.
 No special actions if energy rises.
 Integral accuracy reduced to 1.0D-05 until final iterations.
 Initial convergence to 1.0D-05 achieved.  Increase integral accuracy.
 SCF Done:  E(RB3LYP) =  -385.877033115     A.U. after   12 cycles
            NFock= 12  Conv=0.15D-08     -V/T= 2.0087
 PrsmSu:  requested number of processors reduced to:  13 ShMem   1 Linda.
 Calling FoFJK, ICntrl=      2127 FMM=F ISym2X=0 I1Cent= 0 IOpClX= 0 NMat=1 NMatS=1 NMatT=0.
 ***** Axes restored to original set *****
 -------------------------------------------------------------------
 Center     Atomic                   Forces (Hartrees/Bohr)
 Number     Number              X              Y              Z
 -------------------------------------------------------------------
      1        6           0.002479996   -0.000538846    0.000730167
      2        6          -0.000009575   -0.000772226    0.001042336
      3        6           0.000104575    0.000832775   -0.001124640
      4        6           0.001457766    0.000458197   -0.000621233
      5        6           0.001860609   -0.000719321    0.000973859
      6        6           0.000964322    0.000412295   -0.000557789
      7        6          -0.004515231   -0.001455047    0.001969368
      8        7          -0.003923996   -0.000462078    0.000624729
      9        7           0.003743977    0.000774507   -0.001047147
     10        1           0.001231513   -0.000051325    0.000068992
     11        1          -0.000202096   -0.000041863    0.000350651
     12        1          -0.000202290   -0.000323381    0.000142506
     13        1          -0.000034998    0.000478588   -0.000488121
     14        1          -0.000035168    0.000326972   -0.000600064
     15        1          -0.000123729   -0.000822986    0.000892948
     16        1          -0.000123634   -0.000612927    0.001048128
     17        1           0.000998687    0.000705866   -0.001087817
     18        1           0.000998589    0.000833636   -0.000993083
     19        1          -0.000110233   -0.000181773    0.000401846
     20        1          -0.000110131   -0.000331204    0.000291140
     21        1          -0.002483740    0.001330204   -0.001799299
     22        1           0.000721927    0.000244653    0.000141222
     23        1           0.000721735   -0.000207292   -0.000192789
     24        1          -0.002235440   -0.000279965    0.000378581
     25        1          -0.001173434    0.000402538   -0.000544493
 -------------------------------------------------------------------
 Cartesian Forces:  Max     0.004515231 RMS     0.001204206

 GradGradGradGradGradGradGradGradGradGradGradGradGradGradGradGradGradGrad
 Berny optimization.
 Using GEDIIS/GDIIS optimizer.
 FormGI is forming the generalized inverse of G from B-inverse, IUseBI=4.
 Internal  Forces:  Max     0.008534161 RMS     0.001854832
 Search for a local minimum.
 Step number   2 out of a maximum of  130
 All quantities printed in internal units (Hartrees-Bohrs-Radians)
 Mixed Optimization -- RFO/linear search
 Update second derivatives using D2CorX and points    1    2
 DE= -4.00D-03 DEPred=-5.85D-03 R= 6.83D-01
 TightC=F SS=  1.41D+00  RLast= 2.44D-01 DXNew= 5.0454D-01 7.3327D-01
 Trust test= 6.83D-01 RLast= 2.44D-01 DXMaxT set to 5.05D-01
 ITU=  1  0
 Use linear search instead of GDIIS.
     Eigenvalues ---    0.00374   0.00384   0.00492   0.00508   0.00524
     Eigenvalues ---    0.00567   0.00770   0.01331   0.02175   0.03000
     Eigenvalues ---    0.03489   0.03523   0.03526   0.03589   0.04856
     Eigenvalues ---    0.04890   0.04920   0.05396   0.05541   0.05658
     Eigenvalues ---    0.06815   0.07138   0.08519   0.08529   0.08571
     Eigenvalues ---    0.10226   0.12321   0.12327   0.12353   0.13418
     Eigenvalues ---    0.15044   0.16000   0.16000   0.16000   0.16000
     Eigenvalues ---    0.16000   0.16000   0.16094   0.21138   0.21918
     Eigenvalues ---    0.21952   0.23225   0.24869   0.25000   0.27522
     Eigenvalues ---    0.29421   0.29813   0.30284   0.30372   0.30707
     Eigenvalues ---    0.33882   0.33966   0.33967   0.33993   0.33998
     Eigenvalues ---    0.34000   0.34099   0.34133   0.34310   0.34320
     Eigenvalues ---    0.34333   0.34400   0.34441   0.34793   0.38325
     Eigenvalues ---    0.45380   0.45599   0.58432   0.65746
 RFO step:  Lambda=-7.39040379D-04 EMin= 3.73598734D-03
 Quartic linear search produced a step of -0.20080.
 Iteration  1 RMS(Cart)=  0.03459555 RMS(Int)=  0.00023067
 Iteration  2 RMS(Cart)=  0.00041026 RMS(Int)=  0.00004150
 Iteration  3 RMS(Cart)=  0.00000005 RMS(Int)=  0.00004150
 Variable       Old X    -DE/DX   Delta X   Delta X   Delta X     New X
                                 (Linear)    (Quad)   (Total)
    R1        2.90331  -0.00325  -0.00808   0.00196  -0.00612   2.89720
    R2        2.06984  -0.00058  -0.00068  -0.00047  -0.00115   2.06869
    R3        2.06971   0.00036  -0.00036   0.00129   0.00093   2.07064
    R4        2.06971   0.00036  -0.00036   0.00129   0.00094   2.07064
    R5        2.90693  -0.00279  -0.00357  -0.00297  -0.00654   2.90039
    R6        2.07385   0.00041  -0.00011   0.00111   0.00100   2.07485
    R7        2.07385   0.00041  -0.00011   0.00110   0.00099   2.07485
    R8        2.90574  -0.00299  -0.00734   0.00160  -0.00573   2.90001
    R9        2.07414   0.00076  -0.00062   0.00257   0.00195   2.07609
   R10        2.07414   0.00076  -0.00062   0.00256   0.00195   2.07609
   R11        2.89925  -0.00211  -0.00512   0.00102  -0.00410   2.89515
   R12        2.07342   0.00090  -0.00000   0.00212   0.00212   2.07554
   R13        2.07343   0.00090  -0.00000   0.00211   0.00211   2.07554
   R14        2.90512  -0.00823  -0.00291  -0.01855  -0.02146   2.88366
   R15        2.07371   0.00018   0.00003   0.00038   0.00042   2.07413
   R16        2.07371   0.00018   0.00004   0.00038   0.00042   2.07413
   R17        2.86618  -0.00346   0.00106  -0.01042  -0.00936   2.85682
   R18        2.42932  -0.00204   0.00590  -0.01017  -0.00427   2.42505
   R19        2.05171   0.00317   0.00042   0.00665   0.00707   2.05878
   R20        2.07683   0.00020  -0.00219   0.00329   0.00110   2.07793
   R21        2.07683   0.00020  -0.00219   0.00328   0.00109   2.07793
   R22        2.54056   0.00012  -0.00415   0.00559   0.00144   2.54201
   R23        1.89174  -0.00028   0.00442  -0.00624  -0.00181   1.88992
   R24        1.90464  -0.00029   0.00163  -0.00262  -0.00099   1.90365
    A1        1.95453  -0.00163  -0.00557  -0.00202  -0.00755   1.94698
    A2        1.93750   0.00038  -0.00155   0.00413   0.00260   1.94010
    A3        1.93750   0.00038  -0.00154   0.00413   0.00260   1.94010
    A4        1.87714   0.00058   0.00298  -0.00148   0.00154   1.87868
    A5        1.87714   0.00058   0.00298  -0.00148   0.00154   1.87868
    A6        1.87665  -0.00023   0.00316  -0.00368  -0.00053   1.87612
    A7        1.98276  -0.00232  -0.01020   0.00385  -0.00633   1.97643
    A8        1.91093   0.00051   0.00005  -0.00023  -0.00020   1.91073
    A9        1.91093   0.00051   0.00005  -0.00022  -0.00020   1.91073
   A10        1.90061   0.00099   0.00413  -0.00018   0.00403   1.90464
   A11        1.90061   0.00099   0.00413  -0.00018   0.00403   1.90464
   A12        1.85353  -0.00056   0.00249  -0.00354  -0.00098   1.85256
   A13        1.98054  -0.00164  -0.01394   0.01181  -0.00207   1.97847
   A14        1.90094   0.00091   0.00363   0.00089   0.00462   1.90556
   A15        1.90094   0.00091   0.00363   0.00089   0.00462   1.90556
   A16        1.90977   0.00027   0.00156  -0.00290  -0.00132   1.90844
   A17        1.90977   0.00027   0.00156  -0.00290  -0.00132   1.90844
   A18        1.85786  -0.00067   0.00433  -0.00910  -0.00469   1.85317
   A19        1.97965  -0.00445   0.00084  -0.01655  -0.01569   1.96397
   A20        1.89248   0.00165  -0.00019   0.00733   0.00715   1.89962
   A21        1.89248   0.00165  -0.00019   0.00733   0.00715   1.89962
   A22        1.91546   0.00135  -0.00190   0.00689   0.00500   1.92046
   A23        1.91546   0.00135  -0.00191   0.00689   0.00500   1.92046
   A24        1.86461  -0.00139   0.00357  -0.01176  -0.00821   1.85640
   A25        2.06589  -0.00853  -0.01632  -0.01293  -0.02918   2.03671
   A26        1.89263   0.00260   0.00543   0.00265   0.00824   1.90088
   A27        1.89263   0.00260   0.00543   0.00265   0.00825   1.90088
   A28        1.88069   0.00262   0.00062   0.00578   0.00638   1.88706
   A29        1.88069   0.00262   0.00062   0.00578   0.00638   1.88706
   A30        1.83857  -0.00127   0.00596  -0.00311   0.00295   1.84152
   A31        2.16767  -0.00805  -0.01426  -0.00755  -0.02181   2.14586
   A32        2.00799   0.00140   0.00597  -0.00313   0.00284   2.01083
   A33        2.10753   0.00665   0.00829   0.01068   0.01897   2.12650
   A34        1.97721  -0.00160   0.00366  -0.01236  -0.00871   1.96850
[...]
 .00004437,0.00012039,-0.00004332,-0.00009322,-0.00079906,0.00007817,0.
 00071250,0.00172686,-0.00029967,-0.00484141,-0.01940852,-0.05094912,0.
 00734742,0.02538775,0.00117192,0.00067040,-0.00057968,0.00064178,-0.00
 020178,-0.00021328,0.00027805,-0.00003910,-0.00004987,-0.00026941,-0.0
 0003015,-0.00008465,0.00006776,-0.00003374,-0.00000633,-0.00001003,0.0
 0003171,0.00000285,-0.00001719,0.00003776,0.00004334,-0.00004349,-0.00
 019808,0.00021217,0.00016682,-0.00003245,-0.00010555,0.00003040,0.0002
 2690,0.00060735,0.00083355,-0.00027246,0.00061303,0.00028935,0.0069277
 7,0.01736581,0.05265176,-0.00003587,-0.00020612,-0.00018298,0.00154501
 ,-0.00026408,0.00182852,-0.01354768,0.01305156,0.03040193,-0.06817142,
 0.02565909,0.06611262,0.00393183,-0.00497072,-0.01293140,0.00082249,-0
 .00052686,0.00019562,-0.00064085,-0.00018192,-0.00036950,-0.00008887,0
 .00005353,0.00004021,0.00011769,-0.00003543,0.00011699,0.00001005,-0.0
 0001943,-0.00012373,0.00028100,-0.00009720,-0.00016925,-0.00000905,-0.
 00000541,0.00003440,-0.00003615,0.00005512,-0.00014454,-0.00006984,0.0
 0005661,-0.00120184,0.00155109,-0.00038122,-0.00030488,-0.00674581,-0.
 00021089,0.00006273,0.00231200,-0.00346640,-0.00872996,0.08058776,0.00
 003437,0.00002082,0.00026960,-0.00004635,-0.00008807,-0.00064820,-0.00
 046504,0.00003532,0.00115690,0.02525914,-0.08063677,-0.07780653,-0.005
 64852,0.00630624,0.01786103,-0.00018329,0.00051471,-0.00077372,0.00015
 191,0.00047994,-0.00028527,-0.00009761,-0.00026072,0.00010446,-0.00005
 017,0.00004010,-0.00007683,0.00006310,-0.00001892,0.00000132,-0.000100
 54,-0.00001963,0.00002898,-0.00002923,-0.00001625,-0.00000081,0.000038
 42,0.00000778,-0.00010789,0.00028276,0.00014102,0.00035211,0.00037512,
 0.00058018,0.00061375,-0.00020770,0.00120918,0.00064477,0.00936246,-0.
 01133870,-0.02759778,-0.02956330,0.08344448,-0.00003913,0.00008854,0.0
 0044375,-0.00046942,0.00025673,0.00057014,0.00091427,-0.00063352,-0.00
 215979,0.06590901,-0.07747795,-0.24153310,0.00664456,-0.00863171,-0.02
 339177,0.00169057,0.00016399,0.00000958,-0.00019289,0.00087225,0.00004
 282,-0.00045137,0.00007903,0.00023350,-0.00026759,-0.00000597,0.000093
 61,0.00009076,-0.00002259,0.00001487,-0.00019923,0.00003457,-0.0000902
 9,0.00001284,0.00000028,-0.00002914,0.00001450,0.00003167,0.00002279,0
 .00024660,-0.00029634,0.00062365,0.00029424,0.00033597,0.00029177,0.00
 009665,0.00061849,0.00095576,0.00075671,-0.00120263,-0.00251382,-0.072
 83429,0.08312721,0.26726638,0.00000599,-0.00005036,0.00000837,0.000044
 51,0.00016720,-0.00002129,0.00122637,0.00114332,0.00024070,0.00311536,
 0.01290838,0.00099570,-0.06971626,-0.07984064,-0.00714238,-0.01939721,
 -0.02655086,-0.00380768,-0.00230683,0.00033191,-0.00099917,0.00483591,
 -0.00237900,0.00301047,-0.00320643,0.00172264,-0.00001502,0.00000756,-
 0.00000346,-0.00000367,-0.00000287,0.00000296,0.00000364,-0.00002967,-
 0.00001300,-0.00000323,-0.00011983,-0.00012725,-0.00001414,0.00000231,
 -0.00001810,0.00002227,-0.00002946,-0.00028683,-0.00023060,-0.00004489
 ,0.00004629,0.00003529,-0.00090671,0.00168815,-0.00218122,0.00034720,-
 0.00067621,0.00035833,0.08324611,0.00003008,0.00000612,0.00003728,0.00
 028314,0.00043404,0.00017571,-0.00131300,0.00015299,-0.00075279,-0.004
 73455,-0.01920366,-0.00062109,-0.07753910,-0.26869853,-0.01979182,-0.0
 0052333,0.00265872,0.00139727,0.00003717,-0.00029430,-0.00058423,0.001
 82969,0.00085241,0.00031660,-0.00054209,0.00039210,-0.00013131,0.00001
 316,0.00000125,0.00000053,0.00000436,-0.00000658,-0.00000136,0.0000539
 0,0.00001038,0.00002148,-0.00014086,0.00026193,-0.00019681,-0.00001626
 ,-0.00002871,-0.00001612,0.00116298,0.00055297,0.00024779,0.00004793,-
 0.00001049,0.00003087,0.00166006,-0.00058519,0.00335529,-0.00020489,0.
 00115740,0.00015729,0.08334357,0.29466975,0.00000143,-0.00011668,0.000
 01660,0.00016039,0.00005329,-0.00009662,0.00127805,0.00003445,0.000647
 44,0.00709710,0.02628221,0.00087259,-0.00638247,-0.02035427,-0.0470964
 1,0.00072054,0.00217310,-0.00025686,0.00060104,-0.00047809,-0.00061762
 ,-0.00024648,0.00104199,0.00174381,-0.00111955,-0.00005977,-0.00053640
 ,0.00001815,0.00000840,-0.00000614,-0.00000160,-0.00000524,0.00000015,
 -0.00004547,-0.00000181,0.00000737,-0.00000709,-0.00019185,0.00000951,
 0.00001432,0.00002344,-0.00004252,-0.00040932,-0.00042174,0.00018343,-
 0.00014975,-0.00013801,-0.00001161,-0.00235115,0.00340923,-0.00326379,
 0.00085954,-0.00053573,0.00118377,0.00844561,0.01803645,0.05037074,0.0
 0000602,0.00000678,0.00005056,0.00004452,-0.00002869,-0.00016594,0.001
 22634,-0.00056499,-0.00102264,0.00311529,-0.00473383,-0.01205026,-0.06
 971606,0.03021990,0.07424466,-0.01939706,0.01141918,0.02427039,-0.0023
 0687,0.00085807,-0.00061014,0.00483567,-0.00218113,0.00315650,-0.00320
 628,-0.00049052,-0.00165155,0.00000756,0.00000449,0.00000225,-0.000029
 68,0.00000690,0.00001147,-0.00000288,-0.00000432,-0.00000180,0.0000023
 0,-0.00001601,0.00002380,-0.00011980,0.00005081,0.00011749,-0.00004488
 ,-0.00004734,-0.00003393,-0.00002944,0.00030452,0.00020667,0.00034719,
 -0.00014446,0.00075150,-0.00090671,0.00159090,-0.00225311,0.00345960,-
 0.00352442,-0.00864062,0.08324590,-0.00001021,-0.00000645,-0.00011277,
 -0.00023631,0.00001305,0.00018225,-0.00083729,0.00040368,-0.00004241,-
 0.00539859,0.00633747,0.01845600,0.02881907,-0.07736266,-0.07898288,-0
 .00053565,0.00099376,0.00268314,-0.00058554,-0.00088743,-0.00029627,-0
 .00030038,0.00204757,0.00067580,0.00122934,-0.00051009,0.00021672,-0.0
 0002121,-0.00000300,0.00000970,0.00002768,0.00001312,-0.00000267,0.000
 00025,-0.00000232,-0.00000655,-0.00000890,-0.00003926,0.00002669,0.000
 04803,-0.00007770,-0.00008779,0.00012913,-0.00004146,-0.00012850,0.000
 05064,0.00016642,-0.00030330,-0.00076179,0.00107551,-0.00051060,0.0017
 6164,-0.00113899,0.00357892,0.00929398,-0.01236623,-0.02878032,-0.0324
 9228,0.08144419,-0.00002841,0.00004108,0.00002938,-0.00022373,0.000304
 93,0.00032396,0.00162988,-0.00082990,0.00039668,0.00660617,-0.00844730
 ,-0.02466864,0.07226655,-0.07842040,-0.23843249,0.00071122,0.00190782,
 0.00140809,0.00014074,-0.00040246,-0.00002433,-0.00182092,-0.00005021,
 0.00054868,0.00018975,0.00014523,0.00036595,-0.00000728,0.00000192,-0.
 00000194,-0.00006482,0.00002061,0.00000464,-0.00000461,-0.00000276,-0.
 00000408,0.00001973,-0.00001290,-0.00003184,0.00013255,-0.00009278,0.0
 0034917,-0.00008971,0.00004049,0.00001945,-0.00123190,0.00036622,0.000
 56999,0.00044775,0.00018235,0.00126573,-0.00227604,0.00352508,-0.00270
 989,0.00083834,-0.00166422,-0.00303748,-0.07721201,0.08337246,0.263596
 50,-0.00001343,-0.00003324,0.00004530,0.00005367,0.00007163,-0.0000969
 7,-0.00054841,-0.00005404,0.00007314,-0.00266112,-0.00073691,0.0009965
 2,0.00024520,0.00032080,-0.00043361,0.01517383,-0.00953790,0.01289836,
 -0.12544787,0.07602629,-0.10281035,-0.00374985,-0.00341058,0.00461206,
 -0.00139164,0.00045561,-0.00061607,0.00004371,-0.00001221,0.00001642,0
 .00000414,0.00000244,-0.00000734,0.00000417,0.00000623,-0.00000455,-0.
 00000589,-0.00000433,-0.00000270,-0.00000597,0.00000380,0.00000344,0.0
 0009202,0.00005064,0.00000859,0.00009205,-0.00002308,-0.00004591,-0.00
 125890,0.00026477,0.00023833,-0.00125886,-0.00030544,-0.00018341,0.000
 13421,0.00015318,-0.00011814,0.00013429,0.00006806,-0.00018127,0.13968
 520,-0.00001426,-0.00002979,0.00001132,-0.00003381,0.00009231,-0.00002
 945,-0.00003436,-0.00012357,-0.00052361,0.00069978,0.00096043,0.000782
 57,0.00068239,-0.00029698,0.00007194,0.01033204,-0.00854379,0.00805303
 ,0.07329664,-0.11480830,0.09471482,-0.00204302,-0.00096175,0.00373739,
 -0.00160061,0.00068982,-0.00001623,0.00002314,-0.00000449,0.00001227,0
 .00000740,0.00000199,-0.00000744,-0.00000373,0.00000266,-0.00000120,0.
 00000374,-0.00002968,-0.00000065,-0.00001210,-0.00000281,-0.00001555,0
 .00004157,0.00001128,0.00002515,0.00024073,-0.00000348,-0.00003385,0.0
 0052304,0.00000948,-0.00014785,-0.00047286,-0.00035002,-0.00077831,-0.
 00010974,0.00002231,0.00004069,0.00001018,0.00007740,-0.00013892,-0.08
 097821,0.12247088,0.00001929,0.00001166,-0.00003658,0.00004573,-0.0000
 2953,0.00011052,0.00004644,-0.00052353,0.00019735,-0.00094637,0.000782
 47,0.00048083,-0.00092273,0.00007195,-0.00034097,-0.01397204,0.0080533
 6,-0.01347887,-0.09911913,0.09471481,-0.17285131,0.00276258,0.00373724
 ,-0.00325211,0.00216482,-0.00001621,0.00069974,-0.00003129,0.00001216,
 -0.00001205,0.00000161,-0.00000106,0.00000526,-0.00000660,-0.00000771,
 0.00000457,0.00001154,-0.00000733,0.00000208,-0.00000020,-0.00000893,-
 0.00002475,-0.00026454,-0.00003837,-0.00000085,-0.00011720,0.00002966,
 0.00001391,0.00033429,-0.00088843,-0.00006623,-0.00040213,-0.00003770,
 0.00029323,0.00002293,-0.00012214,0.00010751,0.00011169,0.00002383,0.0
 0005233,0.10950688,-0.10422245,0.18634045,0.00000795,0.00002027,-0.000
 03619,-0.00003198,-0.00002458,0.00006845,0.00005897,-0.00008378,-0.000
 10679,-0.00011596,0.00010873,0.00055860,-0.00044788,-0.00052112,0.0016
 4222,-0.01417424,0.00664266,0.01341439,-0.12952999,0.09882436,0.069704
 54,-0.00395151,0.00098819,-0.00491117,0.00385533,-0.00078857,0.0006640
 6,-0.00002651,0.00000884,-0.00000895,0.00000319,-0.00000411,0.00000203
 ,-0.00000393,-0.00000542,0.00000610,0.00000374,0.00000148,-0.00000687,
 -0.00000267,0.00000263,-0.00002928,-0.00007839,-0.00000292,0.00001720,
 0.00001364,-0.00001303,-0.00000430,0.00001080,-0.00028873,-0.00007785,
 0.00001123,0.00010078,-0.00020130,-0.00027494,-0.00006401,0.00020455,-
 0.00065733,-0.00002612,0.00011636,-0.01026183,0.01138364,0.00919164,0.
 14377711,-0.00000471,0.00000246,0.00000688,-0.00001807,-0.00000430,-0.
 00002477,-0.00003539,0.00015764,-0.00005402,0.00021129,-0.00042738,-0.
 00009246,-0.00072755,-0.00159442,0.00045938,-0.00993326,0.01418384,0.0
 0850709,0.09458329,-0.14776097,-0.07552889,-0.00076180,-0.00159153,-0.
 00075125,0.00133229,0.00123661,-0.00081775,0.00000669,-0.00000509,0.00
 000401,-0.00000065,-0.00000020,-0.00000063,0.00000466,0.00000366,-0.00
 000142,-0.00000660,0.00001384,-0.00000251,-0.00000171,0.00000184,0.000
 00477,0.00007593,0.00002875,-0.00000017,0.00003018,-0.00001321,0.00000
 534,0.00003581,0.00032270,0.00003658,-0.00009896,0.00001499,-0.0000417
 3,-0.00030766,0.00003418,0.00010807,-0.00012857,0.00003295,0.00005398,
 0.00772250,-0.01055290,-0.00819735,-0.10433689,0.16122684,0.00000144,-
 0.00000415,-0.00000188,0.00002601,0.00000665,0.00001602,0.00000427,-0.
 00025546,0.00005830,-0.00033419,0.00049485,0.00005540,-0.00018190,0.00
 034531,-0.00150832,0.01200412,-0.01004655,-0.01258567,0.07174666,-0.07
 916380,-0.10391910,0.00553447,0.00183639,0.00369476,-0.00345273,-0.001
 34110,0.00070537,0.00000029,0.00000177,-0.00000062,-0.00000162,0.00000
 063,0.00000092,-0.00000207,-0.00000034,0.00000060,0.00000744,-0.000009
 51,-0.00000042,0.00000315,-0.00000086,0.00000323,-0.00009403,-0.000013
 94,-0.00000352,-0.00003226,0.00002105,0.00001019,-0.00007809,-0.000377
 12,-0.00003762,0.00011504,0.00002954,0.00008442,0.00003301,-0.00004556
 ,-0.00012179,0.00042967,-0.00006908,-0.00003751,-0.01258789,0.01453469
 ,0.01193809,-0.08079183,0.08565660,0.11261846,0.00000792,0.00002847,-0
 .00002993,-0.00003198,-0.00005814,0.00004327,0.00005898,0.00012655,0.0
 0004888,-0.00011586,-0.00056583,0.00005970,-0.00044798,-0.00141745,0.0
 0097931,-0.01417431,-0.01477191,-0.00242140,-0.12953021,-0.09559834,-0
 .07406740,-0.00395097,0.00440608,-0.00238344,0.00385475,-0.00040395,0.
 00094872,-0.00002652,0.00000605,-0.00001111,-0.00000391,-0.00000423,0.
 00000701,0.00000320,-0.00000075,0.00000457,-0.00000269,0.00002725,-0.0
 0001104,0.00000369,0.00000613,-0.00000335,0.00001365,0.00000795,0.0000
 1124,-0.00007840,-0.00001560,0.00000781,0.00001124,0.00016286,-0.00015
 532,0.00001082,0.00015903,0.00025326,-0.00065730,-0.00010356,0.0000590
 8,-0.00027492,-0.00017684,0.00012113,-0.01026195,-0.01212329,-0.008191
 37,0.01135124,0.01274565,0.00922676,0.14377742,-0.00000002,-0.00000078
 ,-0.00000305,-0.00001957,0.00000923,0.00000227,0.00000628,-0.00001995,
 -0.00020101,0.00025769,0.00012677,0.00032509,0.00038701,-0.00129026,0.
 00025212,-0.00856743,-0.01071918,-0.00241608,-0.09630823,-0.15101298,-
 0.07816729,-0.00506812,0.00354481,0.00026263,0.00291063,0.00014639,-0.
 00100687,-0.00000226,0.00000067,-0.00000003,0.00000063,0.00000036,0.00
 000068,0.00000176,0.00000077,0.00000034,-0.00000249,0.00000427,-0.0000
 0155,-0.00000525,-0.00000257,-0.00000439,0.00002200,0.00001561,0.00001
 225,0.00006767,-0.00000472,-0.00000373,-0.00008100,0.00007498,0.000011
 16,0.00006419,-0.00010207,-0.00024700,-0.00037314,-0.00003570,-0.00004
 801,0.00005860,-0.00009091,-0.00000728,0.00977308,0.01178293,0.0076908
 0,-0.01255589,-0.01491419,-0.01121990,0.10781404,0.16477697,0.00000496
 ,0.00000773,0.00000142,0.00002490,-0.00002884,0.00000228,0.00003509,0.
 00000036,0.00023579,-0.00029986,-0.00026211,-0.00049868,0.00064218,0.0
 0036625,-0.00181242,0.01301444,0.01613727,0.01231789,-0.06941415,-0.07
 453244,-0.10066721,0.00235024,-0.00232480,-0.00144202,-0.00228594,-0.0
 0048392,0.00179601,-0.00000630,0.00000231,-0.00000635,-0.00000507,-0.0
 0000039,0.00000390,0.00000014,-0.00000094,-0.00000011,0.00000254,0.000
 00407,0.00000088,0.00000842,0.00000254,0.00001607,-0.00003829,-0.00000
 354,-0.00001856,-0.00010013,0.00001007,0.00002998,0.00012830,-0.000060
 22,0.00002439,-0.00005712,0.00016673,0.00038716,0.00024885,0.00007509,
 0.00003117,0.00030388,0.00014633,0.00000316,-0.01107152,-0.01504119,-0
 .01039769,-0.00948327,-0.00993959,-0.00843070,0.07608981,0.08456875,0.
 10906828,0.00000027,0.00002019,-0.00002742,-0.00006940,-0.00002692,0.0
 0003645,0.00001399,0.00014390,-0.00019473,-0.00045870,-0.00020946,0.00
 028322,0.00011672,0.00084672,-0.00114517,-0.00684787,-0.00104158,0.001
 40861,0.00018356,-0.00076583,0.00103574,-0.02010093,0.02435657,-0.0329
 3607,-0.10023717,0.06611470,-0.08940107,-0.00001464,0.00000086,-0.0000
 0111,-0.00000004,0.00000062,0.00000210,-0.00000004,-0.00000217,0.00000
 005,0.00000002,0.00000478,0.00000023,0.00000004,-0.00000159,-0.0000045
 5,0.00001163,-0.00000578,-0.00000208,0.00001161,0.00000370,0.00000498,
 0.00001327,0.00005078,0.00001441,0.00001325,-0.00002863,-0.00004428,-0
 .00005162,-0.00002450,-0.00005762,-0.00005162,0.00006228,0.00000659,0.
 00034753,0.00007150,-0.00009671,0.00013146,-0.00022356,-0.00041213,0.0
 0013148,0.00045958,0.00009294,0.11567274,0.00000544,0.00001371,-0.0000
 1348,-0.00001307,-0.00002176,0.00001330,0.00000380,-0.00000710,-0.0000
 5156,0.00001825,0.00003372,0.00016664,0.00001916,0.00127822,0.00108086
 ,-0.00115361,0.00399944,0.00023134,-0.00012814,0.00081865,0.00114760,0
 .00189569,-0.00883856,-0.00885485,0.06961357,-0.14624792,0.22181897,-0
 .00001284,0.00000438,-0.00000463,0.00000056,-0.00000116,0.00000204,-0.
 00000363,-0.00000716,0.00000146,-0.00000025,-0.00000403,0.00000102,-0.
 00000073,0.00000199,-0.00000886,-0.00002532,-0.00000928,-0.00000423,0.
 00002261,-0.00000052,-0.00000804,0.00000568,-0.00002311,0.00001373,0.0
 0000461,-0.00000137,-0.00004535,0.00010010,-0.00024282,0.00002326,-0.0
 0040957,0.00008837,-0.00021874,0.00007888,0.00015818,0.00000982,0.0004
 7376,-0.00071662,0.00034236,-0.00008794,0.00052558,-0.00061642,-0.0774
 1772,0.15964574,-0.00000731,-0.00001352,0.00002200,0.00001767,0.000013
 26,-0.00003005,-0.00000513,-0.00005166,0.00002432,-0.00002463,0.000166
 72,-0.00006845,-0.00002603,0.00108087,0.00061567,0.00156019,0.00023105
 ,0.00385839,0.00017331,0.00114785,0.00011532,-0.00256472,-0.00885420,-
 0.00341358,-0.09413076,0.22181625,-0.28216217,0.00001738,-0.00000459,0
 .00000726,0.00000364,-0.00000036,-0.00000831,0.00000051,0.00000387,-0.
 00000221,0.00000086,-0.00000700,0.00000443,0.00000043,-0.00000076,-0.0
 0000156,-0.00001590,-0.00000540,0.00000328,0.00001954,-0.00000688,-0.0
 0000541,-0.00000659,-0.00003873,0.00000840,-0.00000738,0.00000713,-0.0
 0001342,0.00039777,-0.00011718,0.00014832,0.00002083,-0.00007822,-0.00
 018291,-0.00010671,0.00000986,0.00015213,-0.00005320,-0.00023588,0.000
 60961,-0.00046860,-0.00003833,-0.00063275,0.10468599,-0.21574714,0.291
 84099,-0.00000105,0.00001148,-0.00001610,-0.00004967,-0.00001515,0.000
 02037,0.00000046,0.00010615,-0.00014370,-0.00008370,-0.00011889,0.0001
 6098,-0.00050481,0.00062559,-0.00084612,0.00395723,-0.00456649,0.00617
 490,0.00050778,0.00070446,-0.00095251,-0.03102879,-0.01413554,0.019117
 27,-0.21801607,-0.10787004,0.14588224,-0.00000995,0.00000134,-0.000001
 62,0.00000112,-0.00000106,0.00000044,0.00000110,0.00000002,0.00000126,
 -0.00000129,0.00000727,-0.00000045,-0.00000129,-0.00000159,-0.00000700
 ,0.00002911,0.00000664,0.00000584,0.00002905,-0.00000749,-0.00000462,-
 0.00003029,0.00014447,-0.00002759,-0.00003031,-0.00001596,-0.00014627,
 0.00031888,0.00011134,0.00006942,0.00031885,-0.00009900,-0.00008603,0.
 00085573,0.00011020,-0.00014913,0.00033251,-0.00016293,-0.00116358,0.0
 0033261,0.00116021,-0.00018503,0.01118446,0.00701070,-0.00948117,0.231
 88831,0.00000067,-0.00000231,0.00000560,0.00000899,0.00001042,-0.00000
 399,0.00000853,-0.00000102,0.00004935,-0.00001989,0.00011255,-0.000066
 82,-0.00005409,0.00033889,0.00041932,0.00271623,-0.00130266,-0.0016285
 6,0.00035779,-0.00009303,-0.00047918,-0.00304529,0.00431293,-0.0064292
 2,-0.10490518,-0.09591418,0.15382092,0.00000313,0.00000016,0.00000085,
 0.00000196,-0.00000035,-0.00000311,-0.00000420,-0.00000349,-0.00000032
 ,0.00000012,-0.00001383,0.00000186,0.00000238,0.00000113,-0.00000428,-
 0.00001680,-0.00002011,0.00000183,-0.00001003,-0.00000189,-0.00000438,
 0.00003133,-0.00006216,0.00000686,-0.00000064,0.00001937,0.00003816,-0
 .00001225,0.00026566,-0.00010305,0.00023581,-0.00016700,0.00032570,0.0
 0009800,-0.00057211,-0.00103703,0.00015984,0.00032053,-0.00072247,-0.0
 0016225,-0.00281604,0.00180690,-0.01238844,-0.01044655,0.00072298,0.11
 699427,0.10603508,-0.00000095,0.00000584,-0.00000557,-0.00001214,-0.00
 000401,0.00001285,-0.00001154,0.00004934,-0.00003119,0.00002690,-0.000
 06685,0.00015346,0.00007314,0.00041944,0.00008194,-0.00367299,-0.00162
 828,-0.00030456,-0.00048387,-0.00047896,0.00020076,0.00411668,-0.00642
 960,0.00825360,0.14187627,0.15382319,-0.19019386,-0.00000424,0.0000007
 9,-0.00000043,0.00000379,-0.00000135,-0.00000247,-0.00000074,-0.000002
 21,0.00000067,-0.00000248,0.00000031,0.00000185,-0.00000089,-0.0000027
 8,-0.00001307,0.00001561,0.00000125,-0.00000114,0.00002065,-0.00000377
 ,-0.00001937,-0.00000893,0.00006313,0.00000558,-0.00003256,-0.00001811
 ,-0.00007597,-0.00024288,0.00019299,-0.00023519,-0.00005938,0.00002952
 ,0.00019739,-0.00013260,-0.00103703,0.00006343,0.00012086,0.00084573,-
 0.00314824,-0.00011757,0.00023844,-0.00001187,0.01675162,0.00072089,-0
 .01088930,-0.15822178,-0.14671793,0.19596069\\0.00000859,0.00000170,-0
 .00000229,-0.00001296,-0.00001687,0.00002281,0.00000358,0.00002825,-0.
 00003819,-0.00001190,-0.00000693,0.00000937,0.00004680,-0.00000376,0.0
 0000506,0.00003123,-0.00002096,0.00002831,-0.00006109,0.00000208,-0.00
 000289,0.00002592,-0.00001098,0.00001560,-0.00006652,0.00001879,-0.000
 02768,-0.00000301,0.00000094,-0.00000128,-0.00000116,-0.00000348,-0.00
 000148,-0.00000116,0.00000243,0.00000289,0.00000377,-0.00000216,-0.000
 00119,0.00000377,0.00000177,0.00000173,-0.00000121,-0.00000327,0.00000
 641,-0.00000121,-0.00000517,0.00000500,0.00000108,0.00000250,-0.000008
 24,0.00000106,0.00000714,-0.00000479,-0.00000610,-0.00000018,0.0000007
 3,-0.00000610,-0.00000066,0.00000038,0.00002223,-0.00000528,0.00000717
 ,0.00001746,0.00000520,-0.00000231,0.00001747,0.00000072,-0.00000566,-
 0.00001038,-0.00000105,0.00000215,-0.00000018,0.00000924,-0.00001160\\
 \@


 I CLAIM NOT TO HAVE CONTROLLED EVENTS,
 BUT CONFESS PLAINLY THAT EVENTS HAVE CONTROLLED ME.

                                         A. LINCOLN
 Job cpu time:       0 days  2 hours  2 minutes  5.5 seconds.
 Elapsed time:       0 days  0 hours 30 minutes 31.7 seconds.
 File lengths (MBytes):  RWF=    203 Int=      0 D2E=      0 Chk=     10 Scr=      1
 Normal termination of Gaussian 16 at Sun Jul  3 21:29:27 2022.
### All Done ###
