### Starting Gaussian ###
 Entering Gaussian System, Link 0=g16
 Initial command:
 /cluster/software/gaussian/gaussian-16-A.03/avx2/g16/l1.exe "/local/scratch/linjian/Gau-8866.inp" -scrdir="/local/scratch/linjian/"
 Entering Link 1 = /cluster/software/gaussian/gaussian-16-A.03/avx2/g16/l1.exe PID=      8867.
  
 Copyright (c) 1988,1990,1992,1993,1995,1998,2003,2009,2016,
            Gaussian, Inc.  All Rights Reserved.
  
 This is part of the Gaussian(R) 16 program.  It is based on
 the Gaussian(R) 09 system (copyright 2009, Gaussian, Inc.),
 the Gaussian(R) 03 system (copyright 2003, Gaussian, Inc.),
 the Gaussian(R) 98 system (copyright 1998, Gaussian, Inc.),
 the Gaussian(R) 94 system (copyright 1995, Gaussian, Inc.),
 the Gaussian 92(TM) system (copyright 1992, Gaussian, Inc.),
 the Gaussian 90(TM) system (copyright 1990, Gaussian, Inc.),
 the Gaussian 88(TM) system (copyright 1988, Gaussian, Inc.),
 the Gaussian 86(TM) system (copyright 1986, Carnegie Mellon
 University), and the Gaussian 82(TM) system (copyright 1983,
 Carnegie Mellon University). Gaussian is a federally registered
 trademark of Gaussian, Inc.
  
 This software contains proprietary and confidential information,
 including trade secrets, belonging to Gaussian, Inc.
  
 This software is provided under written license and may be
 used, copied, transmitted, or stored only in accord with that
 written license.
  
 The following legend is applicable only to US Government
 contracts under FAR:
  
                    RESTRICTED RIGHTS LEGEND
  
 Use, reproduction and disclosure by the US Government is
 subject to restrictions as set forth in subparagraphs (a)
 and (c) of the Commercial Computer Software - Restricted
 Rights clause in FAR 52.227-19.
  
 Gaussian, Inc.
 340 Quinnipiac St., Bldg. 40, Wallingford CT 06492
  
  
 ---------------------------------------------------------------
 Warning -- This program may not be used in any manner that
 competes with the business of Gaussian, Inc. or will provide
 assistance to any competitor of Gaussian, Inc.  The licensee
 of this program is prohibited from giving any competitor of
 Gaussian, Inc. access to this program.  By using this program,
 the user acknowledges that Gaussian, Inc. is engaged in the
 business of creating and licensing software in the field of
 computational chemistry and represents and warrants to the
 licensee that it is not a competitor of Gaussian, Inc. and that
 it will not use this program in any manner prohibited above.
 ---------------------------------------------------------------
  

 Cite this work as:
 Gaussian 16, Revision A.03,
 M. J. Frisch, G. W. Trucks, H. B. Schlegel, G. E. Scuseria, 
 M. A. Robb, J. R. Cheeseman, G. Scalmani, V. Barone, 
 G. A. Petersson, H. Nakatsuji, X. Li, M. Caricato, A. V. Marenich, 
 J. Bloino, B. G. Janesko, R. Gomperts, B. Mennucci, H. P. Hratchian, 
 J. V. Ortiz, A. F. Izmaylov, J. L. Sonnenberg, D. Williams-Young, 
 F. Ding, F. Lipparini, F. Egidi, J. Goings, B. Peng, A. Petrone, 
 T. Henderson, D. Ranasinghe, V. G. Zakrzewski, J. Gao, N. Rega, 
 G. Zheng, W. Liang, M. Hada, M. Ehara, K. Toyota, R. Fukuda, 
 J. Hasegawa, M. Ishida, T. Nakajima, Y. Honda, O. Kitao, H. Nakai, 
 T. Vreven, K. Throssell, J. A. Montgomery, Jr., J. E. Peralta, 
 F. Ogliaro, M. J. Bearpark, J. J. Heyd, E. N. Brothers, K. N. Kudin, 
 V. N. Staroverov, T. A. Keith, R. Kobayashi, J. Normand, 
 K. Raghavachari, A. P. Rendell, J. C. Burant, S. S. Iyengar, 
 J. Tomasi, M. Cossi, J. M. Millam, M. Klene, C. Adamo, R. Cammi, 
 J. W. Ochterski, R. L. Martin, K. Morokuma, O. Farkas, 
 J. B. Foresman, and D. J. Fox, Gaussian, Inc., Wallingford CT, 2016.
 
 ******************************************
 Gaussian 16:  ES64L-G16RevA.03 25-Dec-2016
                 3-Aug-2022 
 ******************************************
 %chk=CCCCtCNCN.chk
 %NProcShared=20
 Will use up to   20 processors via shared memory.
 -----------------------------
 # opt freq b3lyp/6-31g(2df,p)
 -----------------------------
 1/18=20,19=15,26=3,38=1/1,3;
 2/9=110,12=2,17=6,18=5,40=1/2;
 3/5=1,6=6,7=104,11=2,25=1,30=1,71=1,74=-5/1,2,3;
 4//1;
 5/5=2,38=5/2;
 6/7=2,8=2,9=2,10=2,28=1/1;
 7//1,2,3,16;
 1/18=20,19=15,26=3/3(2);
 2/9=110/2;
 99//99;
 2/9=110/2;
 3/5=1,6=6,7=104,11=2,25=1,30=1,71=1,74=-5/1,2,3;
 4/5=5,16=3,69=1/1;
 5/5=2,38=5/2;
 7//1,2,3,16;
 1/18=20,19=15,26=3/3(-5);
 2/9=110/2;
 6/7=2,8=2,9=2,10=2,19=2,28=1/1;
 99/9=1/99;
 -------------------
 Title Card Required
 -------------------
 Symbolic Z-matrix:
 Charge =  0 Multiplicity = 1
 C                     0.91055   0.04466   0.0654 
 C                     2.42912   0.05172   0.04775 
 C                     2.95696   0.58308  -1.2795 
 C                     4.47696   0.58308  -1.2795 
 C                     5.78082   0.58308  -1.2795 
 N                     7.22608   0.71567  -1.38324 
 C                     7.97005  -0.36198  -1.98036 
 N                     9.40727  -0.22926  -1.84949 
 H                     0.54268  -0.33824   1.02189 
 H                     0.5148   -0.59151  -0.73274 
 H                     0.51481   1.05586  -0.07325 
 H                     2.80088  -0.96577   0.2207 
 H                     2.80087   0.66876   0.87507 
 H                     2.60428   1.60617  -1.45214 
 H                     2.60432  -0.03827  -2.11045 
 H                     7.69661   1.14193  -0.60709 
 H                     7.7269   -0.40532  -3.04765 
 H                     7.67602  -1.32521  -1.54857 
 H                     9.66637   0.653    -2.28242 
 H                     9.8543   -0.95657  -2.40666 
 

 GradGradGradGradGradGradGradGradGradGradGradGradGradGradGradGradGradGrad
 Berny optimization.
 Initialization pass.
                           ----------------------------
                           !    Initial Parameters    !
                           ! (Angstroms and Degrees)  !
 --------------------------                            --------------------------
 ! Name  Definition              Value          Derivative Info.                !
 --------------------------------------------------------------------------------
 ! R1    R(1,2)                  1.5187         estimate D2E/DX2                !
 ! R2    R(1,9)                  1.094          estimate D2E/DX2                !
 ! R3    R(1,10)                 1.0947         estimate D2E/DX2                !
 ! R4    R(1,11)                 1.0947         estimate D2E/DX2                !
 ! R5    R(2,3)                  1.524          estimate D2E/DX2                !
 ! R6    R(2,12)                 1.097          estimate D2E/DX2                !
 ! R7    R(2,13)                 1.097          estimate D2E/DX2                !
 ! R8    R(3,4)                  1.52           estimate D2E/DX2                !
 ! R9    R(3,14)                 1.0959         estimate D2E/DX2                !
 ! R10   R(3,15)                 1.0959         estimate D2E/DX2                !
 ! R11   R(4,5)                  1.3039         estimate D2E/DX2                !
 ! R12   R(5,6)                  1.455          estimate D2E/DX2                !
 ! R13   R(6,7)                  1.4392         estimate D2E/DX2                !
 ! R14   R(6,16)                 1.0027         estimate D2E/DX2                !
 ! R15   R(7,8)                  1.4493         estimate D2E/DX2                !
 ! R16   R(7,17)                 1.0955         estimate D2E/DX2                !
 ! R17   R(7,18)                 1.0958         estimate D2E/DX2                !
 ! R18   R(8,19)                 1.0163         estimate D2E/DX2                !
 ! R19   R(8,20)                 1.0194         estimate D2E/DX2                !
 ! A1    A(2,1,9)              110.3666         estimate D2E/DX2                !
 ! A2    A(2,1,10)             110.8373         estimate D2E/DX2                !
 ! A3    A(2,1,11)             110.8371         estimate D2E/DX2                !
 ! A4    A(9,1,10)             108.2096         estimate D2E/DX2                !
 ! A5    A(9,1,11)             108.2089         estimate D2E/DX2                !
 ! A6    A(10,1,11)            108.2871         estimate D2E/DX2                !
 ! A7    A(1,2,3)              110.9816         estimate D2E/DX2                !
 ! A8    A(1,2,12)             109.4338         estimate D2E/DX2                !
 ! A9    A(1,2,13)             109.433          estimate D2E/DX2                !
 ! A10   A(3,2,12)             110.0794         estimate D2E/DX2                !
 ! A11   A(3,2,13)             110.0793         estimate D2E/DX2                !
 ! A12   A(12,2,13)            106.7366         estimate D2E/DX2                !
 ! A13   A(2,3,4)              110.2644         estimate D2E/DX2                !
 ! A14   A(2,3,14)             110.5635         estimate D2E/DX2                !
 ! A15   A(2,3,15)             110.5625         estimate D2E/DX2                !
 ! A16   A(4,3,14)             108.7737         estimate D2E/DX2                !
 ! A17   A(4,3,15)             108.7714         estimate D2E/DX2                !
 ! A18   A(14,3,15)            107.8382         estimate D2E/DX2                !
 ! A19   A(5,6,7)              118.3464         estimate D2E/DX2                !
 ! A20   A(5,6,16)             116.7206         estimate D2E/DX2                !
 ! A21   A(7,6,16)             113.3826         estimate D2E/DX2                !
 ! A22   A(6,7,8)              113.9911         estimate D2E/DX2                !
 ! A23   A(6,7,17)             108.6083         estimate D2E/DX2                !
 ! A24   A(6,7,18)             110.8552         estimate D2E/DX2                !
 ! A25   A(8,7,17)             108.1624         estimate D2E/DX2                !
 ! A26   A(8,7,18)             108.1208         estimate D2E/DX2                !
 ! A27   A(17,7,18)            106.8324         estimate D2E/DX2                !
 ! A28   A(7,8,19)             107.0885         estimate D2E/DX2                !
 ! A29   A(7,8,20)             108.6735         estimate D2E/DX2                !
 ! A30   A(19,8,20)            105.9453         estimate D2E/DX2                !
 ! A31   L(3,4,5,12,-1)        180.0            estimate D2E/DX2                !
 ! A32   L(4,5,6,17,-1)        179.3479         estimate D2E/DX2                !
 ! A33   L(3,4,5,12,-2)        180.0            estimate D2E/DX2                !
 ! A34   L(4,5,6,17,-2)        170.7754         estimate D2E/DX2                !
 ! D1    D(9,1,2,3)           -179.9986         estimate D2E/DX2                !
 ! D2    D(9,1,2,12)            58.3182         estimate D2E/DX2                !
 ! D3    D(9,1,2,13)           -58.3161         estimate D2E/DX2                !
 ! D4    D(10,1,2,3)            60.1366         estimate D2E/DX2                !
 ! D5    D(10,1,2,12)          -61.5467         estimate D2E/DX2                !
 ! D6    D(10,1,2,13)         -178.1809         estimate D2E/DX2                !
 ! D7    D(11,1,2,3)           -60.1347         estimate D2E/DX2                !
 ! D8    D(11,1,2,12)          178.182          estimate D2E/DX2                !
 ! D9    D(11,1,2,13)           61.5478         estimate D2E/DX2                !
 ! D10   D(1,2,3,4)            179.9998         estimate D2E/DX2                !
 ! D11   D(1,2,3,14)            59.6738         estimate D2E/DX2                !
 ! D12   D(1,2,3,15)           -59.6778         estimate D2E/DX2                !
 ! D13   D(12,2,3,4)           -58.6955         estimate D2E/DX2                !
 ! D14   D(12,2,3,14)         -179.0214         estimate D2E/DX2                !
 ! D15   D(12,2,3,15)           61.627          estimate D2E/DX2                !
 ! D16   D(13,2,3,4)            58.6962         estimate D2E/DX2                !
 ! D17   D(13,2,3,14)          -61.6298         estimate D2E/DX2                !
 ! D18   D(13,2,3,15)          179.0186         estimate D2E/DX2                !
 ! D19   D(2,3,6,7)             96.388          estimate D2E/DX2                !
 ! D20   D(2,3,6,16)           -48.9775         estimate D2E/DX2                !
 ! D21   D(14,3,6,7)          -142.3159         estimate D2E/DX2                !
 ! D22   D(14,3,6,16)           72.3187         estimate D2E/DX2                !
 ! D23   D(15,3,6,7)           -26.2155         estimate D2E/DX2                !
 ! D24   D(15,3,6,16)         -171.5809         estimate D2E/DX2                !
 ! D25   D(5,6,7,8)           -170.8772         estimate D2E/DX2                !
 ! D26   D(5,6,7,17)            68.4688         estimate D2E/DX2                !
 ! D27   D(5,6,7,18)           -48.6115         estimate D2E/DX2                !
 ! D28   D(16,6,7,8)           -28.7035         estimate D2E/DX2                !
 ! D29   D(16,6,7,17)         -149.3574         estimate D2E/DX2                !
 ! D30   D(16,6,7,18)           93.5622         estimate D2E/DX2                !
 ! D31   D(6,7,8,19)           -58.1399         estimate D2E/DX2                !
 ! D32   D(6,7,8,20)          -172.1738         estimate D2E/DX2                !
 ! D33   D(17,7,8,19)           62.7629         estimate D2E/DX2                !
 ! D34   D(17,7,8,20)          -51.2709         estimate D2E/DX2                !
 ! D35   D(18,7,8,19)          178.1047         estimate D2E/DX2                !
 ! D36   D(18,7,8,20)           64.0709         estimate D2E/DX2                !
 --------------------------------------------------------------------------------
 Trust Radius=3.00D-01 FncErr=1.00D-07 GrdErr=1.00D-06 EigMax=2.50D+02 EigMin=1.00D-04
 Number of steps in this run=     99 maximum allowed number of steps=    120.
 GradGradGradGradGradGradGradGradGradGradGradGradGradGradGradGradGradGrad

                          Input orientation:                          
 ---------------------------------------------------------------------
 Center     Atomic      Atomic             Coordinates (Angstroms)
 Number     Number       Type             X           Y           Z
 ---------------------------------------------------------------------
      1          6           0        0.910550    0.044660    0.065400
      2          6           0        2.429120    0.051720    0.047750
      3          6           0        2.956960    0.583080   -1.279500
      4          6           0        4.476960    0.583080   -1.279500
      5          6           0        5.780820    0.583080   -1.279500
      6          7           0        7.226080    0.715670   -1.383240
      7          6           0        7.970050   -0.361980   -1.980360
      8          7           0        9.407270   -0.229260   -1.849490
      9          1           0        0.542680   -0.338240    1.021890
     10          1           0        0.514800   -0.591510   -0.732740
     11          1           0        0.514810    1.055860   -0.073250
     12          1           0        2.800880   -0.965770    0.220700
     13          1           0        2.800870    0.668760    0.875070
     14          1           0        2.604280    1.606170   -1.452140
     15          1           0        2.604320   -0.038270   -2.110450
     16          1           0        7.696610    1.141930   -0.607090
     17          1           0        7.726900   -0.405320   -3.047650
     18          1           0        7.676020   -1.325210   -1.548570
     19          1           0        9.666370    0.653000   -2.282420
     20          1           0        9.854300   -0.956570   -2.406660
 ---------------------------------------------------------------------
                    Distance matrix (angstroms):
                    1          2          3          4          5
     1  C    0.000000
     2  C    1.518689   0.000000
     3  C    2.507279   1.523992   0.000000
     4  C    3.849407   2.497516   1.520000   0.000000
     5  C    5.081160   3.643876   2.823860   1.303860   0.000000
     6  N    6.514195   5.049692   4.272438   2.754270   1.455032
     7  C    7.361184   5.914920   5.149312   3.685922   2.485371
     8  N    8.714131   7.236922   6.526200   5.029189   3.759777
     9  H    1.093990   2.158628   3.460343   4.650138   5.795113
    10  H    1.094695   2.165071   2.764553   4.168611   5.423060
    11  H    1.094696   2.165068   2.764536   4.168596   5.423045
    12  H    2.149054   1.096997   2.161920   2.731077   3.678258
    13  H    2.149041   1.096994   2.161915   2.731079   3.678262
    14  H    2.758616   2.167179   1.095856   2.140899   3.341695
    15  H    2.758633   2.167169   1.095860   2.140872   3.341662
    16  H    6.907015   5.418840   4.819619   3.336255   2.105873
    17  H    7.507076   6.152793   5.182240   3.829543   2.809006
    18  H    7.088937   5.654567   5.097401   3.734696   2.702916
    19  H    9.085523   7.626862   6.784314   5.285898   4.013507
    20  H    9.332963   7.885054   7.156417   5.705856   4.498250
                    6          7          8          9         10
     6  N    0.000000
     7  C    1.439227   0.000000
     8  N    2.422369   1.449256   0.000000
     9  H    7.180753   8.011235   9.318672   0.000000
    10  H    6.868271   7.562407   8.969636   1.773034   0.000000
    11  H    6.846382   7.824829   9.158734   1.773027   1.774473
    12  H    4.998226   5.650624   6.962221   2.476927   2.505051
    13  H    4.968365   5.994692   7.202374   2.476899   3.065852
    14  H    4.707311   5.739697   7.057433   3.761881   3.116610
    15  H    4.738979   5.377060   6.810632   3.761900   2.563251
    16  H    1.002749   2.054844   2.519936   7.484864   7.389113
    17  H    2.068260   1.095495   2.071287   8.257038   7.576798
    18  H    2.096419   1.095768   2.070963   7.646301   7.244789
    19  H    2.601436   1.999732   1.016338   9.754114   9.364910
    20  H    3.278920   2.021303   1.019438   9.942010   9.495343
                   11         12         13         14         15
    11  H    0.000000
    12  H    3.065862   0.000000
    13  H    2.505040   1.760650   0.000000
    14  H    2.563214   3.074398   2.516603   0.000000
    15  H    3.116626   2.516576   3.074387   1.771314   0.000000
    16  H    7.202128   5.394053   5.137018   5.182804   5.439153
    17  H    7.937024   5.938172   6.388048   5.730007   5.220526
    18  H    7.689538   5.198702   5.798020   5.858740   5.262515
    19  H    9.423045   7.484716   7.556790   7.174330   7.097885
    20  H    9.834671   7.526874   7.947473   7.748647   7.313906
                   16         17         18         19         20
    16  H    0.000000
    17  H    2.889850   0.000000
    18  H    2.640755   1.759553   0.000000
    19  H    2.631680   2.338196   2.900576   0.000000
    20  H    3.506819   2.289230   2.370046   1.625260   0.000000
 Stoichiometry    C6H12N2
 Framework group  C1[X(C6H12N2)]
 Deg. of freedom    54
 Full point group                 C1      NOp   1
 Largest Abelian subgroup         C1      NOp   1
 Largest concise Abelian subgroup C1      NOp   1
                         Standard orientation:                         
 ---------------------------------------------------------------------
 Center     Atomic      Atomic             Coordinates (Angstroms)
 Number     Number       Type             X           Y           Z
 ---------------------------------------------------------------------
      1          6           0       -4.377311    0.358106    0.028564
      2          6           0       -2.896590    0.492529   -0.280968
      3          6           0       -2.096428   -0.619623    0.386422
      4          6           0       -0.618130   -0.469582    0.066232
      5          6           0        0.649958   -0.340876   -0.208428
      6          7           0        2.074816   -0.365119   -0.502215
      7          6           0        2.973215    0.282148    0.417186
      8          7           0        4.336284    0.384504   -0.064381
      9          1           0       -4.941776    1.160798   -0.455047
     10          1           0       -4.556486    0.415600    1.106965
     11          1           0       -4.765483   -0.599255   -0.333571
     12          1           0       -2.539411    1.471408    0.061995
     13          1           0       -2.746803    0.464471   -1.367325
     14          1           0       -2.435316   -1.601118    0.036103
     15          1           0       -2.226644   -0.588059    1.474060
     16          1           0        2.339080   -0.252199   -1.462902
     17          1           0        2.983738   -0.285756    1.353927
     18          1           0        2.621444    1.290743    0.661525
     19          1           0        4.657162   -0.560661   -0.255806
     20          1           0        4.924512    0.732123    0.692192
 ---------------------------------------------------------------------
 Rotational constants (GHZ):          10.6465651           0.5038164           0.4996920
 Standard basis: 6-31G(2df,p) (6D, 7F)
 There are   308 symmetry adapted cartesian basis functions of A   symmetry.
 There are   284 symmetry adapted basis functions of A   symmetry.
   284 basis functions,   436 primitive gaussians,   308 cartesian basis functions
    31 alpha electrons       31 beta electrons
       nuclear repulsion energy       329.3624460595 Hartrees.
 NAtoms=   20 NActive=   20 NUniq=   20 SFac= 1.00D+00 NAtFMM=   60 NAOKFM=F Big=F
 Integral buffers will be    131072 words long.
 Raffenetti 2 integral format.
 Two-electron integral symmetry is turned on.
 One-electron integrals computed using PRISM.
 PrsmSu:  requested number of processors reduced to:  13 ShMem   1 Linda.
 NBasis=   284 RedAO= T EigKep=  1.11D-04  NBF=   284
 NBsUse=   284 1.00D-06 EigRej= -1.00D+00 NBFU=   284
 ExpMin= 1.61D-01 ExpMax= 4.17D+03 ExpMxC= 6.27D+02 IAcc=3 IRadAn=         5 AccDes= 0.00D+00
 Harris functional with IExCor=  402 and IRadAn=       5 diagonalized for initial guess.
 HarFok:  IExCor=  402 AccDes= 0.00D+00 IRadAn=         5 IDoV= 1 UseB2=F ITyADJ=14
 ICtDFT=  3500011 ScaDFX=  1.000000  1.000000  1.000000  1.000000
 FoFCou: FMM=F IPFlag=           0 FMFlag=      100000 FMFlg1=           0
         NFxFlg=           0 DoJE=T BraDBF=F KetDBF=T FulRan=T
         wScrn=  0.000000 ICntrl=       500 IOpCl=  0 I1Cent=   200000004 NGrid=           0
         NMat0=    1 NMatS0=      1 NMatT0=    0 NMatD0=    1 NMtDS0=    0 NMtDT0=    0
 Petite list used in FoFCou.
 Requested convergence on RMS density matrix=1.00D-08 within 128 cycles.
 Requested convergence on MAX density matrix=1.00D-06.
 Requested convergence on             energy=1.00D-06.
 No special actions if energy rises.
 Integral accuracy reduced to 1.0D-05 until final iterations.
 Initial convergence to 1.0D-05 achieved.  Increase integral accuracy.
 SCF Done:  E(RB3LYP) =  -345.286408321     A.U. after   15 cycles
            NFock= 15  Conv=0.50D-08     -V/T= 2.0098

 **********************************************************************

            Population analysis using the SCF density.

 **********************************************************************

 Orbital symmetries:
       Occupied  (A) (A) (A) (A) (A) (A) (A) (A) (A) (A) (A) (A)
                 (A) (A) (A) (A) (A) (A) (A) (A) (A) (A) (A) (A)
                 (A) (A) (A) (A) (A) (A) (A)
       Virtual   (A) (A) (A) (A) (A) (A) (A) (A) (A) (A) (A) (A)
                 (A) (A) (A) (A) (A) (A) (A) (A) (A) (A) (A) (A)
                 (A) (A) (A) (A) (A) (A) (A) (A) (A) (A) (A) (A)
                 (A) (A) (A) (A) (A) (A) (A) (A) (A) (A) (A) (A)
                 (A) (A) (A) (A) (A) (A) (A) (A) (A) (A) (A) (A)
                 (A) (A) (A) (A) (A) (A) (A) (A) (A) (A) (A) (A)
                 (A) (A) (A) (A) (A) (A) (A) (A) (A) (A) (A) (A)
                 (A) (A) (A) (A) (A) (A) (A) (A) (A) (A) (A) (A)
                 (A) (A) (A) (A) (A) (A) (A) (A) (A) (A) (A) (A)
                 (A) (A) (A) (A) (A) (A) (A) (A) (A) (A) (A) (A)
                 (A) (A) (A) (A) (A) (A) (A) (A) (A) (A) (A) (A)
                 (A) (A) (A) (A) (A) (A) (A) (A) (A) (A) (A) (A)
                 (A) (A) (A) (A) (A) (A) (A) (A) (A) (A) (A) (A)
                 (A) (A) (A) (A) (A) (A) (A) (A) (A) (A) (A) (A)
                 (A) (A) (A) (A) (A) (A) (A) (A) (A) (A) (A) (A)
                 (A) (A) (A) (A) (A) (A) (A) (A) (A) (A) (A) (A)
                 (A) (A) (A) (A) (A) (A) (A) (A) (A) (A) (A) (A)
                 (A) (A) (A) (A) (A) (A) (A) (A) (A) (A) (A) (A)
                 (A) (A) (A) (A) (A) (A) (A) (A) (A) (A) (A) (A)
                 (A) (A) (A) (A) (A) (A) (A) (A) (A) (A) (A) (A)
                 (A) (A) (A) (A) (A) (A) (A) (A) (A) (A) (A) (A)
                 (A)
 The electronic state is 1-A.
 Alpha  occ. eigenvalues --  -14.35271 -14.31816 -10.23500 -10.21260 -10.20516
 Alpha  occ. eigenvalues --  -10.18317 -10.17887 -10.17128  -0.93143  -0.86045
 Alpha  occ. eigenvalues --   -0.79677  -0.71787  -0.67004  -0.63768  -0.58906
 Alpha  occ. eigenvalues --   -0.54075  -0.50406  -0.46666  -0.46168  -0.44140
 Alpha  occ. eigenvalues --   -0.43439  -0.41298  -0.40356  -0.39379  -0.35268
 Alpha  occ. eigenvalues --   -0.34487  -0.33174  -0.29886  -0.24402  -0.23665
 Alpha  occ. eigenvalues --   -0.19389
 Alpha virt. eigenvalues --    0.04520   0.05887   0.07704   0.09757   0.10737
 Alpha virt. eigenvalues --    0.13631   0.14070   0.14237   0.15199   0.15839
 Alpha virt. eigenvalues --    0.16862   0.18379   0.19021   0.19135   0.21021
 Alpha virt. eigenvalues --    0.23575   0.24634   0.25094   0.25668   0.26999
 Alpha virt. eigenvalues --    0.40059   0.44201   0.47218   0.48306   0.50548
 Alpha virt. eigenvalues --    0.50966   0.51630   0.53024   0.54887   0.55370
 Alpha virt. eigenvalues --    0.57212   0.59176   0.59869   0.61138   0.61735
 Alpha virt. eigenvalues --    0.64593   0.65771   0.67566   0.69045   0.70277
 Alpha virt. eigenvalues --    0.71197   0.72241   0.73196   0.73536   0.75332
 Alpha virt. eigenvalues --    0.75730   0.76188   0.76417   0.77213   0.78294
 Alpha virt. eigenvalues --    0.78621   0.80591   0.82240   0.82825   0.83553
 Alpha virt. eigenvalues --    0.85027   0.85867   0.86857   0.87354   0.89020
 Alpha virt. eigenvalues --    0.89417   0.93124   0.94456   1.04431   1.05455
 Alpha virt. eigenvalues --    1.07341   1.10117   1.12095   1.13863   1.16946
 Alpha virt. eigenvalues --    1.20559   1.22449   1.23923   1.27064   1.32067
 Alpha virt. eigenvalues --    1.32827   1.34701   1.35587   1.37021   1.39729
 Alpha virt. eigenvalues --    1.44359   1.47831   1.53955   1.54339   1.56847
 Alpha virt. eigenvalues --    1.57314   1.57633   1.62885   1.64954   1.66177
 Alpha virt. eigenvalues --    1.67643   1.69748   1.75489   1.80446   1.82946
 Alpha virt. eigenvalues --    1.85919   1.89342   1.89646   1.90977   1.93407
 Alpha virt. eigenvalues --    1.94052   1.96733   1.98923   2.04254   2.11265
 Alpha virt. eigenvalues --    2.15167   2.19052   2.19899   2.25662   2.29373
 Alpha virt. eigenvalues --    2.29867   2.31158   2.34680   2.38831   2.39717
 Alpha virt. eigenvalues --    2.41643   2.43072   2.46067   2.49427   2.56291
 Alpha virt. eigenvalues --    2.58642   2.63798   2.65528   2.67075   2.69771
 Alpha virt. eigenvalues --    2.70998   2.71805   2.72967   2.74565   2.77147
 Alpha virt. eigenvalues --    2.78314   2.80692   2.81628   2.83746   2.85476
 Alpha virt. eigenvalues --    2.87093   2.87972   2.88815   2.90226   2.93399
 Alpha virt. eigenvalues --    2.94023   2.96555   3.00200   3.02623   3.04189
 Alpha virt. eigenvalues --    3.05584   3.06629   3.09269   3.12292   3.15485
 Alpha virt. eigenvalues --    3.17384   3.19477   3.23705   3.25631   3.31101
 Alpha virt. eigenvalues --    3.31813   3.34247   3.36047   3.37512   3.40639
 Alpha virt. eigenvalues --    3.42358   3.43936   3.49018   3.52156   3.54778
 Alpha virt. eigenvalues --    3.55956   3.58776   3.60174   3.61947   3.64254
 Alpha virt. eigenvalues --    3.66743   3.70771   3.73272   3.76670   3.79654
 Alpha virt. eigenvalues --    3.79999   3.87255   3.88488   3.91246   3.93333
 Alpha virt. eigenvalues --    3.96208   3.97465   4.03987   4.10117   4.12558
 Alpha virt. eigenvalues --    4.14166   4.17584   4.21550   4.23113   4.25055
 Alpha virt. eigenvalues --    4.26253   4.30462   4.31089   4.35028   4.35275
 Alpha virt. eigenvalues --    4.38898   4.40844   4.42586   4.43069   4.46069
 Alpha virt. eigenvalues --    4.46273   4.48570   4.49308   4.53996   4.54321
 Alpha virt. eigenvalues --    4.55554   4.57788   4.59349   4.61233   4.63546
 Alpha virt. eigenvalues --    4.64581   4.65126   4.67567   4.69165   4.70957
 Alpha virt. eigenvalues --    4.72643   4.73747   4.75697   4.78842   4.82276
 Alpha virt. eigenvalues --    4.82953   4.85889   4.89086   4.89965   4.93993
 Alpha virt. eigenvalues --    4.94772   4.98763   5.01064   5.02156   5.07459
 Alpha virt. eigenvalues --    5.15738   5.18233   5.25547   5.30085   5.37598
 Alpha virt. eigenvalues --    5.39449   5.44814   5.46743   5.50143   5.51692
 Alpha virt. eigenvalues --    5.76702   6.12512   6.25523   9.09702   9.87861
 Alpha virt. eigenvalues --   11.05535  11.25096  11.40960  11.44356  11.62363
 Alpha virt. eigenvalues --   11.93175  12.33360  20.04189
          Condensed to atoms (all electrons):
               1          2          3          4          5          6
     1  C    4.985132   0.376417  -0.038446   0.002679  -0.000173  -0.000000
     2  C    0.376417   4.784510   0.415781  -0.043573   0.001896   0.000037
     3  C   -0.038446   0.415781   4.953924   0.459176  -0.093596  -0.001653
     4  C    0.002679  -0.043573   0.459176   4.754946   0.661725  -0.050118
     5  C   -0.000173   0.001896  -0.093596   0.661725   5.239402   0.391271
     6  N   -0.000000   0.000037  -0.001653  -0.050118   0.391271   6.417874
     7  C   -0.000000   0.000000  -0.000055  -0.004764  -0.065610   0.415006
     8  N   -0.000000   0.000000   0.000000   0.000001   0.002309  -0.031178
     9  H    0.373556  -0.019236   0.003521  -0.000222  -0.000003   0.000000
    10  H    0.377918  -0.028998  -0.004279   0.000455   0.000012   0.000000
    11  H    0.377817  -0.028874  -0.004221   0.000465   0.000013   0.000000
    12  H   -0.034574   0.372805  -0.036327   0.004004   0.001657  -0.000003
    13  H   -0.035223   0.374803  -0.035876   0.002411   0.001213   0.000001
    14  H   -0.001799  -0.036989   0.354609  -0.018646   0.002056   0.000037
    15  H   -0.002527  -0.033225   0.359689  -0.019268  -0.000294   0.000032
    16  H   -0.000000   0.000003  -0.000031  -0.002999  -0.038608   0.350725
    17  H   -0.000000   0.000000   0.000005  -0.000245   0.000910  -0.046064
    18  H    0.000000  -0.000003  -0.000011   0.002288   0.003574  -0.037235
    19  H    0.000000  -0.000000  -0.000000   0.000009   0.000185   0.005455
    20  H   -0.000000   0.000000  -0.000000  -0.000000  -0.000223   0.003563
               7          8          9         10         11         12
     1  C   -0.000000  -0.000000   0.373556   0.377918   0.377817  -0.034574
     2  C    0.000000   0.000000  -0.019236  -0.028998  -0.028874   0.372805
     3  C   -0.000055   0.000000   0.003521  -0.004279  -0.004221  -0.036327
     4  C   -0.004764   0.000001  -0.000222   0.000455   0.000465   0.004004
     5  C   -0.065610   0.002309  -0.000003   0.000012   0.000013   0.001657
     6  N    0.415006  -0.031178   0.000000   0.000000   0.000000  -0.000003
     7  C    4.767590   0.376853   0.000000   0.000000   0.000000  -0.000001
     8  N    0.376853   6.563064  -0.000000  -0.000000   0.000000   0.000000
     9  H    0.000000  -0.000000   0.599924  -0.031666  -0.031659  -0.002714
    10  H    0.000000  -0.000000  -0.031666   0.601880  -0.033643  -0.004415
    11  H    0.000000   0.000000  -0.031659  -0.033643   0.601325   0.005632
    12  H   -0.000001   0.000000  -0.002714  -0.004415   0.005632   0.626229
    13  H    0.000000  -0.000000  -0.002631   0.005629  -0.004433  -0.039412
    14  H    0.000000   0.000000  -0.000127  -0.000426   0.005021   0.005979
    15  H    0.000002  -0.000000  -0.000104   0.004955  -0.000448  -0.005545
    16  H   -0.051611   0.009317   0.000000   0.000000  -0.000000   0.000000
    17  H    0.378094  -0.043510   0.000000  -0.000000  -0.000000  -0.000000
    18  H    0.349294  -0.024823  -0.000000   0.000000   0.000000   0.000004
    19  H   -0.057296   0.336193  -0.000000   0.000000   0.000000   0.000000
    20  H   -0.039131   0.343127   0.000000   0.000000   0.000000  -0.000000
              13         14         15         16         17         18
     1  C   -0.035223  -0.001799  -0.002527  -0.000000  -0.000000   0.000000
     2  C    0.374803  -0.036989  -0.033225   0.000003   0.000000  -0.000003
     3  C   -0.035876   0.354609   0.359689  -0.000031   0.000005  -0.000011
     4  C    0.002411  -0.018646  -0.019268  -0.002999  -0.000245   0.002288
     5  C    0.001213   0.002056  -0.000294  -0.038608   0.000910   0.003574
     6  N    0.000001   0.000037   0.000032   0.350725  -0.046064  -0.037235
     7  C    0.000000   0.000000   0.000002  -0.051611   0.378094   0.349294
     8  N   -0.000000   0.000000  -0.000000   0.009317  -0.043510  -0.024823
     9  H   -0.002631  -0.000127  -0.000104   0.000000   0.000000  -0.000000
    10  H    0.005629  -0.000426   0.004955   0.000000  -0.000000   0.000000
    11  H   -0.004433   0.005021  -0.000448  -0.000000  -0.000000   0.000000
    12  H   -0.039412   0.005979  -0.005545   0.000000  -0.000000   0.000004
    13  H    0.626720  -0.005474   0.005860  -0.000002  -0.000000   0.000000
    14  H   -0.005474   0.607884  -0.039896   0.000003  -0.000001   0.000001
    15  H    0.005860  -0.039896   0.601405  -0.000002  -0.000003  -0.000000
    16  H   -0.000002   0.000003  -0.000002   0.475695   0.008246  -0.001183
    17  H   -0.000000  -0.000001  -0.000003   0.008246   0.689489  -0.065961
    18  H    0.000000   0.000001  -0.000000  -0.001183  -0.065961   0.664358
    19  H    0.000000   0.000000   0.000000  -0.000377  -0.008589   0.008529
    20  H    0.000000  -0.000000   0.000000  -0.000357  -0.004697  -0.001009
              19         20
     1  C    0.000000  -0.000000
     2  C   -0.000000   0.000000
     3  C   -0.000000  -0.000000
     4  C    0.000009  -0.000000
     5  C    0.000185  -0.000223
     6  N    0.005455   0.003563
     7  C   -0.057296  -0.039131
     8  N    0.336193   0.343127
     9  H   -0.000000   0.000000
    10  H    0.000000   0.000000
    11  H    0.000000   0.000000
    12  H    0.000000  -0.000000
    13  H    0.000000   0.000000
    14  H    0.000000  -0.000000
    15  H    0.000000   0.000000
    16  H   -0.000377  -0.000357
    17  H   -0.008589  -0.004697
    18  H    0.008529  -0.001009
    19  H    0.516254  -0.029456
    20  H   -0.029456   0.488260
 Mulliken charges:
               1
     1  C   -0.380777
     2  C   -0.135357
     3  C   -0.332212
     4  C    0.251674
     5  C   -0.107717
     6  N   -0.417753
     7  C   -0.068372
     8  N   -0.531353
     9  H    0.111360
    10  H    0.112577
    11  H    0.113004
    12  H    0.106682
    13  H    0.106413
    14  H    0.127765
    15  H    0.129366
    16  H    0.251181
    17  H    0.092326
    18  H    0.102177
    19  H    0.229093
    20  H    0.239924
 Sum of Mulliken charges =  -0.00000
 Mulliken charges with hydrogens summed into heavy atoms:
               1
     1  C   -0.043836
     2  C    0.077737
     3  C   -0.075081
     4  C    0.251674
     5  C   -0.107717
     6  N   -0.166571
     7  C    0.126130
     8  N   -0.062336
 Electronic spatial extent (au):  <R**2>=           2263.9152
 Charge=              0.0000 electrons
 Dipole moment (field-independent basis, Debye):
    X=              0.5830    Y=             -0.0774    Z=              0.6838  Tot=              0.9019
 Quadrupole moment (field-independent basis, Debye-Ang):
   XX=            -39.1014   YY=            -51.3198   ZZ=            -48.0370
   XY=             -1.5506   XZ=              3.3963   YZ=              1.5233
 Traceless Quadrupole moment (field-independent basis, Debye-Ang):
   XX=              7.0513   YY=             -5.1670   ZZ=             -1.8843
   XY=             -1.5506   XZ=              3.3963   YZ=              1.5233
 Octapole moment (field-independent basis, Debye-Ang**2):
  XXX=             55.8393  YYY=              2.4783  ZZZ=             -3.0194  XYY=              1.2820
  XXY=            -13.8172  XXZ=             21.8990  XZZ=              8.1418  YZZ=             -0.1833
  YYZ=              0.8678  XYZ=              7.0368
 Hexadecapole moment (field-independent basis, Debye-Ang**3):
 XXXX=          -2548.7611 YYYY=           -139.3315 ZZZZ=           -107.2970 XXXY=            -57.9616
 XXXZ=            124.6967 YYYX=              3.3719 YYYZ=              2.4590 ZZZX=            -10.1466
 ZZZY=              1.9073 XXYY=           -472.8011 XXZZ=           -457.6283 YYZZ=            -43.5194
 XXYZ=             32.5081 YYXZ=              7.3306 ZZXY=             -1.4277
 N-N= 3.293624460595D+02 E-N=-1.459452775951D+03  KE= 3.419432565048D+02
 PrsmSu:  requested number of processors reduced to:  13 ShMem   1 Linda.
 Calling FoFJK, ICntrl=      2127 FMM=F ISym2X=0 I1Cent= 0 IOpClX= 0 NMat=1 NMatS=1 NMatT=0.
 ***** Axes restored to original set *****
 -------------------------------------------------------------------
 Center     Atomic                   Forces (Hartrees/Bohr)
 Number     Number              X              Y              Z
 -------------------------------------------------------------------
      1        6          -0.004306816   -0.001193755    0.003581165
      2        6          -0.005247007   -0.002271192    0.004561261
      3        6           0.041208058   -0.001310356    0.003880828
      4        6           0.125583742    0.001324280   -0.006590114
      5        6          -0.077299037    0.009321801   -0.004008190
      6        7          -0.063573708    0.004989372   -0.000994684
      7        6          -0.006499880   -0.025260056   -0.018116933
      8        7           0.005134808    0.012876090    0.011237111
      9        1          -0.002420121    0.000213402   -0.000483098
     10        1          -0.001732837    0.000099249   -0.000150668
     11        1          -0.001799900   -0.000000276   -0.000186837
     12        1           0.001860441    0.001743571   -0.001134244
     13        1           0.001748455   -0.000444331   -0.001870571
     14        1          -0.000819280    0.000024891   -0.001072740
     15        1           0.000057721    0.000593378   -0.000664674
     16        1          -0.002449382    0.000722956    0.011414702
     17        1          -0.011801464   -0.000017985   -0.003055566
     18        1           0.001217735   -0.003975959    0.001342543
     19        1           0.003713381    0.000723770   -0.001560410
     20        1          -0.002574910    0.001841152    0.003871120
 -------------------------------------------------------------------
 Cartesian Forces:  Max     0.125583742 RMS     0.022160812

 GradGradGradGradGradGradGradGradGradGradGradGradGradGradGradGradGradGrad
 Berny optimization.
 FormGI is forming the generalized inverse of G from B-inverse, IUseBI=4.
 Internal  Forces:  Max     0.154112014 RMS     0.019232947
 Search for a local minimum.
 Step number   1 out of a maximum of   99
 All quantities printed in internal units (Hartrees-Bohrs-Radians)
 Mixed Optimization -- RFO/linear search
 Second derivative matrix not updated -- first step.
 ITU=  0
     Eigenvalues ---    0.00230   0.00449   0.00519   0.00686   0.00929
     Eigenvalues ---    0.01040   0.01173   0.01656   0.02795   0.02999
     Eigenvalues ---    0.03779   0.04634   0.04954   0.05009   0.05084
     Eigenvalues ---    0.05507   0.05655   0.05712   0.06711   0.08125
     Eigenvalues ---    0.09648   0.10369   0.12031   0.12947   0.13491
     Eigenvalues ---    0.14379   0.16000   0.16000   0.16000   0.16000
     Eigenvalues ---    0.16000   0.21874   0.21986   0.22015   0.22552
     Eigenvalues ---    0.29985   0.30366   0.30493   0.34016   0.34017
     Eigenvalues ---    0.34144   0.34145   0.34154   0.34184   0.34276
     Eigenvalues ---    0.34276   0.34356   0.37586   0.38343   0.39691
     Eigenvalues ---    0.44428   0.44927   0.47208   0.66131
 RFO step:  Lambda=-5.83454562D-02 EMin= 2.30000000D-03
 Linear search not attempted -- first point.
 Maximum step size (   0.300) exceeded in Quadratic search.
    -- Step size scaled by   0.881
 Iteration  1 RMS(Cart)=  0.10126523 RMS(Int)=  0.00133290
 Iteration  2 RMS(Cart)=  0.00276834 RMS(Int)=  0.00037700
 Iteration  3 RMS(Cart)=  0.00000293 RMS(Int)=  0.00037700
 Iteration  4 RMS(Cart)=  0.00000000 RMS(Int)=  0.00037700
 Variable       Old X    -DE/DX   Delta X   Delta X   Delta X     New X
                                 (Linear)    (Quad)   (Total)
    R1        2.86991   0.01029   0.00000   0.02497   0.02497   2.89488
    R2        2.06734   0.00032   0.00000   0.00069   0.00069   2.06804
    R3        2.06867   0.00068   0.00000   0.00149   0.00149   2.07016
    R4        2.06868   0.00067   0.00000   0.00148   0.00148   2.07016
    R5        2.87993   0.00853   0.00000   0.02098   0.02098   2.90090
    R6        2.07302  -0.00117   0.00000  -0.00258  -0.00258   2.07045
    R7        2.07302  -0.00107   0.00000  -0.00236  -0.00236   2.07066
    R8        2.87238  -0.02853   0.00000  -0.06944  -0.06944   2.80294
    R9        2.07087   0.00046   0.00000   0.00100   0.00100   2.07187
   R10        2.07087   0.00015   0.00000   0.00033   0.00033   2.07120
   R11        2.46394  -0.15411   0.00000  -0.18870  -0.18870   2.27524
   R12        2.74961  -0.07732   0.00000  -0.15692  -0.15691   2.59270
   R13        2.71974   0.00736   0.00000   0.01425   0.01425   2.73400
   R14        1.89492   0.00799   0.00000   0.01328   0.01328   1.90820
   R15        2.73870   0.00886   0.00000   0.01767   0.01767   2.75637
   R16        2.07018   0.00551   0.00000   0.01215   0.01215   2.08234
   R17        2.07070   0.00370   0.00000   0.00815   0.00815   2.07885
   R18        1.92060   0.00224   0.00000   0.00389   0.00389   1.92449
   R19        1.92646  -0.00456   0.00000  -0.00799  -0.00799   1.91847
    A1        1.92626   0.00292   0.00000   0.01229   0.01225   1.93851
    A2        1.93448   0.00131   0.00000   0.00501   0.00498   1.93946
    A3        1.93447   0.00143   0.00000   0.00555   0.00552   1.94000
    A4        1.88861  -0.00204   0.00000  -0.00779  -0.00783   1.88078
    A5        1.88860  -0.00209   0.00000  -0.00793  -0.00798   1.88063
    A6        1.88997  -0.00177   0.00000  -0.00810  -0.00810   1.88186
    A7        1.93700   0.00601   0.00000   0.02044   0.02046   1.95745
    A8        1.90998  -0.00025   0.00000   0.00466   0.00474   1.91472
    A9        1.90997  -0.00046   0.00000   0.00337   0.00345   1.91342
   A10        1.92125  -0.00318   0.00000  -0.01388  -0.01402   1.90723
   A11        1.92125  -0.00306   0.00000  -0.01350  -0.01362   1.90762
   A12        1.86290   0.00073   0.00000  -0.00187  -0.00204   1.86087
   A13        1.92448   0.01102   0.00000   0.03733   0.03726   1.96174
   A14        1.92970  -0.00248   0.00000  -0.00666  -0.00682   1.92288
   A15        1.92968  -0.00193   0.00000  -0.00423  -0.00421   1.92547
   A16        1.89846  -0.00327   0.00000  -0.00812  -0.00818   1.89028
   A17        1.89842  -0.00403   0.00000  -0.01221  -0.01228   1.88614
   A18        1.88213   0.00038   0.00000  -0.00735  -0.00741   1.87472
   A19        2.06553  -0.00182   0.00000  -0.00777  -0.00783   2.05770
   A20        2.03716  -0.00452   0.00000  -0.02390  -0.02387   2.01328
   A21        1.97890   0.00529   0.00000   0.01851   0.01835   1.99725
   A22        1.98952  -0.03051   0.00000  -0.09893  -0.09865   1.89087
   A23        1.89557   0.00224   0.00000  -0.00102   0.00066   1.89624
   A24        1.93479   0.00997   0.00000   0.02483   0.02412   1.95891
   A25        1.88779   0.01801   0.00000   0.07509   0.07467   1.96246
   A26        1.88706   0.00621   0.00000   0.01099   0.01000   1.89707
   A27        1.86458  -0.00424   0.00000  -0.00412  -0.00516   1.85941
   A28        1.86905   0.00549   0.00000   0.02313   0.02313   1.89217
   A29        1.89671  -0.00159   0.00000  -0.00549  -0.00549   1.89122
   A30        1.84909  -0.00099   0.00000  -0.00181  -0.00181   1.84728
   A31        3.14159  -0.00359   0.00000  -0.02658  -0.02664   3.11495
   A32        3.13021  -0.00059   0.00000  -0.01135  -0.01127   3.11894
   A33        3.14159   0.00065   0.00000   0.00513   0.00519   3.14678
   A34        2.98059   0.00325   0.00000   0.03532   0.03544   3.01603
    D1       -3.14157  -0.00000   0.00000   0.00017   0.00017  -3.14139
    D2        1.01784   0.00024   0.00000   0.00115   0.00110   1.01895
    D3       -1.01781  -0.00024   0.00000  -0.00119  -0.00116  -1.01896
    D4        1.04958  -0.00020   0.00000  -0.00134  -0.00135   1.04824
    D5       -1.07419   0.00004   0.00000  -0.00037  -0.00041  -1.07461
    D6       -3.10984  -0.00043   0.00000  -0.00270  -0.00267  -3.11252
    D7       -1.04955   0.00022   0.00000   0.00185   0.00187  -1.04768
    D8        3.10986   0.00046   0.00000   0.00283   0.00280   3.11266
    D9        1.07421  -0.00002   0.00000   0.00050   0.00054   1.07475
   D10        3.14159   0.00011   0.00000   0.00037   0.00033  -3.14127
   D11        1.04150  -0.00137   0.00000  -0.00947  -0.00944   1.03206
   D12       -1.04157   0.00099   0.00000   0.00667   0.00669  -1.03488
   D13       -1.02443   0.00164   0.00000   0.01042   0.01029  -1.01414
   D14       -3.12451   0.00016   0.00000   0.00059   0.00052  -3.12400
   D15        1.07559   0.00252   0.00000   0.01672   0.01665   1.09225
   D16        1.02444  -0.00122   0.00000  -0.00832  -0.00828   1.01617
   D17       -1.07564  -0.00270   0.00000  -0.01816  -0.01805  -1.09369
   D18        3.12446  -0.00034   0.00000  -0.00202  -0.00191   3.12255
   D19        1.68229  -0.00127   0.00000  -0.02339  -0.02340   1.65889
   D20       -0.85482   0.00086   0.00000   0.01421   0.01401  -0.84081
   D21       -2.48388   0.00012   0.00000  -0.01242  -0.01227  -2.49615
   D22        1.26220   0.00225   0.00000   0.02518   0.02513   1.28733
   D23       -0.45755  -0.00203   0.00000  -0.02052  -0.02038  -0.47792
   D24       -2.99465   0.00010   0.00000   0.01707   0.01703  -2.97762
   D25       -2.98237   0.00410   0.00000   0.02221   0.02266  -2.95971
   D26        1.19501  -0.00049   0.00000  -0.00803  -0.00835   1.18665
   D27       -0.84843  -0.00240   0.00000  -0.01665  -0.01652  -0.86495
   D28       -0.50097   0.00100   0.00000  -0.00515  -0.00487  -0.50584
   D29       -2.60678  -0.00360   0.00000  -0.03540  -0.03589  -2.64267
   D30        1.63297  -0.00551   0.00000  -0.04401  -0.04405   1.58892
   D31       -1.01473  -0.00044   0.00000  -0.01539  -0.01425  -1.02898
   D32       -3.00500  -0.00129   0.00000  -0.02235  -0.02120  -3.02620
   D33        1.09542  -0.00450   0.00000  -0.02717  -0.02847   1.06695
   D34       -0.89485  -0.00536   0.00000  -0.03413  -0.03542  -0.93027
   D35        3.10851   0.00307   0.00000   0.01254   0.01269   3.12120
   D36        1.11825   0.00221   0.00000   0.00559   0.00574   1.12398
         Item               Value     Threshold  Converged?
 Maximum Force            0.154112     0.000450     NO 
 RMS     Force            0.019233     0.000300     NO 
 Maximum Displacement     0.270152     0.001800     NO 
 RMS     Displacement     0.103135     0.001200     NO 
 Predicted change in Energy=-3.168559D-02
 GradGradGradGradGradGradGradGradGradGradGradGradGradGradGradGradGradGrad

                          Input orientation:                          
 ---------------------------------------------------------------------
 Center     Atomic      Atomic             Coordinates (Angstroms)
 Number     Number       Type             X           Y           Z
 ---------------------------------------------------------------------
      1          6           0        0.989520    0.027856    0.058785
      2          6           0        2.521060    0.052193    0.035938
      3          6           0        3.071662    0.594732   -1.290334
      4          6           0        4.554427    0.620276   -1.318518
      5          6           0        5.758428    0.621343   -1.315576
      6          7           0        7.124283    0.711664   -1.408640
      7          6           0        7.837133   -0.398041   -2.003232
      8          7           0        9.264312   -0.202138   -1.774508
      9          1           0        0.616413   -0.361287    1.011139
     10          1           0        0.592827   -0.607811   -0.740370
     11          1           0        0.576111    1.033322   -0.076145
     12          1           0        2.909125   -0.958851    0.202094
     13          1           0        2.891773    0.669805    0.861639
     14          1           0        2.706368    1.614013   -1.462650
     15          1           0        2.726369   -0.023287   -2.127062
     16          1           0        7.585576    1.125325   -0.611307
     17          1           0        7.585418   -0.444798   -3.075003
     18          1           0        7.539871   -1.364246   -1.569344
     19          1           0        9.538783    0.684003   -2.194687
     20          1           0        9.771192   -0.919195   -2.283970
 ---------------------------------------------------------------------
                    Distance matrix (angstroms):
                    1          2          3          4          5
     1  C    0.000000
     2  C    1.531903   0.000000
     3  C    2.544953   1.535092   0.000000
     4  C    3.867361   2.508356   1.483253   0.000000
     5  C    4.998358   3.554023   2.687017   1.204006   0.000000
     6  N    6.344781   4.869433   4.056034   2.573060   1.371998
     7  C    7.164015   5.711529   4.919710   3.504564   2.415167
     8  N    8.478563   6.986691   6.262455   4.802844   3.630421
     9  H    1.094357   2.179372   3.498427   4.679606   5.728829
    10  H    1.095484   2.180903   2.809482   4.187687   5.340891
    11  H    1.095480   2.181284   2.809696   4.188209   5.344373
    12  H    2.163102   1.095633   2.160412   2.740970   3.594282
    13  H    2.162230   1.095744   2.160783   2.742253   3.600045
    14  H    2.788947   2.172415   1.096388   2.103238   3.212802
    15  H    2.792345   2.174033   1.096034   2.099931   3.204285
    16  H    6.720224   5.217266   4.595435   3.153266   2.021994
    17  H    7.317780   5.964284   4.963836   3.661493   2.751388
    18  H    6.891723   5.456345   4.886751   3.593621   2.679645
    19  H    8.865583   7.390758   6.530657   5.061180   3.881732
    20  H    9.138007   7.673981   6.939956   5.524193   4.406054
                    6          7          8          9         10
     6  N    0.000000
     7  C    1.446769   0.000000
     8  N    2.355550   1.458606   0.000000
     9  H    7.025591   7.824742   9.086876   0.000000
    10  H    6.696829   7.356548   8.742349   1.768929   0.000000
    11  H    6.690110   7.647543   8.938436   1.768825   1.770534
    12  H    4.811720   5.428005   6.698356   2.503630   2.525213
    13  H    4.803131   5.814153   6.951173   2.502552   3.079592
    14  H    4.509449   5.537630   6.811923   3.793330   3.150435
    15  H    4.516407   5.125981   6.549884   3.796639   2.610859
    16  H    1.009775   2.078793   2.435846   7.308322   7.205480
    17  H    2.080100   1.101925   2.137488   8.079020   7.373833
    18  H    2.123191   1.100080   2.089566   7.456479   7.037102
    19  H    2.539378   2.025608   1.018396   9.538272   9.154995
    20  H    3.229865   2.022621   1.015209   9.745716   9.312467
                   11         12         13         14         15
    11  H    0.000000
    12  H    3.080442   0.000000
    13  H    2.524653   1.757219   0.000000
    14  H    2.607219   3.071174   2.515596   0.000000
    15  H    3.153775   2.516674   3.072470   1.767087   0.000000
    16  H    7.030466   5.184072   4.940532   4.976974   5.218114
    17  H    7.765847   5.733353   6.226540   5.535659   4.968563
    18  H    7.514780   4.974550   5.625998   5.678394   5.027824
    19  H    9.216275   7.238501   7.316014   6.934169   6.849366
    20  H    9.655896   7.298634   7.729565   7.550063   7.103295
                   16         17         18         19         20
    16  H    0.000000
    17  H    2.921487   0.000000
    18  H    2.667937   1.764786   0.000000
    19  H    2.552817   2.421731   2.929510   0.000000
    20  H    3.428524   2.372423   2.384860   1.622415   0.000000
 Stoichiometry    C6H12N2
 Framework group  C1[X(C6H12N2)]
 Deg. of freedom    54
 Full point group                 C1      NOp   1
 Largest Abelian subgroup         C1      NOp   1
 Largest concise Abelian subgroup C1      NOp   1
                         Standard orientation:                         
 ---------------------------------------------------------------------
 Center     Atomic      Atomic             Coordinates (Angstroms)
 Number     Number       Type             X           Y           Z
 ---------------------------------------------------------------------
      1          6           0       -4.293630    0.374014    0.025016
      2          6           0       -2.800600    0.490591   -0.297472
      3          6           0       -1.974909   -0.614492    0.375979
      4          6           0       -0.528082   -0.506504    0.067649
      5          6           0        0.641388   -0.388574   -0.193238
      6          7           0        1.987511   -0.380898   -0.458328
      7          6           0        2.856280    0.309824    0.469727
      8          7           0        4.183501    0.404593   -0.127798
      9          1           0       -4.864910    1.169338   -0.463571
     10          1           0       -4.471611    0.448803    1.103355
     11          1           0       -4.697954   -0.585380   -0.315809
     12          1           0       -2.427992    1.468730    0.026288
     13          1           0       -2.653442    0.442531   -1.382225
     14          1           0       -2.324229   -1.600615    0.047950
     15          1           0       -2.094779   -0.569442    1.464506
     16          1           0        2.236197   -0.263168   -1.429894
     17          1           0        2.862811   -0.241963    1.423524
     18          1           0        2.498941    1.324964    0.697708
     19          1           0        4.518199   -0.538010   -0.319127
     20          1           0        4.819002    0.789193    0.564207
 ---------------------------------------------------------------------
 Rotational constants (GHZ):          10.2790693           0.5371933           0.5316785
 Standard basis: 6-31G(2df,p) (6D, 7F)
 There are   308 symmetry adapted cartesian basis functions of A   symmetry.
 There are   284 symmetry adapted basis functions of A   symmetry.
   284 basis functions,   436 primitive gaussians,   308 cartesian basis functions
    31 alpha electrons       31 beta electrons
       nuclear repulsion energy       335.7653274790 Hartrees.
 NAtoms=   20 NActive=   20 NUniq=   20 SFac= 1.00D+00 NAtFMM=   60 NAOKFM=F Big=F
 Integral buffers will be    131072 words long.
 Raffenetti 2 integral format.
 Two-electron integral symmetry is turned on.
 One-electron integrals computed using PRISM.
 PrsmSu:  requested number of processors reduced to:  13 ShMem   1 Linda.
 NBasis=   284 RedAO= T EigKep=  6.16D-05  NBF=   284
 NBsUse=   284 1.00D-06 EigRej= -1.00D+00 NBFU=   284
 Initial guess from the checkpoint file:  "CCCCtCNCN.chk"
 B after Tr=     0.000000   -0.000000   -0.000000
         Rot=    0.999935    0.011334   -0.000421   -0.001218 Ang=   1.31 deg.
 ExpMin= 1.61D-01 ExpMax= 4.17D+03 ExpMxC= 6.27D+02 IAcc=2 IRadAn=         4 AccDes= 0.00D+00
 Harris functional with IExCor=  402 and IRadAn=       4 diagonalized for initial guess.
 HarFok:  IExCor=  402 AccDes= 0.00D+00 IRadAn=         4 IDoV= 1 UseB2=F ITyADJ=14
 ICtDFT=  3500011 ScaDFX=  1.000000  1.000000  1.000000  1.000000
 FoFCou: FMM=F IPFlag=           0 FMFlag=      100000 FMFlg1=           0
         NFxFlg=           0 DoJE=T BraDBF=F KetDBF=T FulRan=T
         wScrn=  0.000000 ICntrl=       500 IOpCl=  0 I1Cent=   200000004 NGrid=           0
         NMat0=    1 NMatS0=      1 NMatT0=    0 NMatD0=    1 NMtDS0=    0 NMtDT0=    0
 Petite list used in FoFCou.
 Requested convergence on RMS density matrix=1.00D-08 within 128 cycles.
 Requested convergence on MAX density matrix=1.00D-06.
 Requested convergence on             energy=1.00D-06.
 No special actions if energy rises.
 Integral accuracy reduced to 1.0D-05 until final iterations.
 Initial convergence to 1.0D-05 achieved.  Increase integral accuracy.
 SCF Done:  E(RB3LYP) =  -345.316468006     A.U. after   12 cycles
            NFock= 12  Conv=0.68D-08     -V/T= 2.0083
 PrsmSu:  requested number of processors reduced to:  13 ShMem   1 Linda.
 Calling FoFJK, ICntrl=      2127 FMM=F ISym2X=0 I1Cent= 0 IOpClX= 0 NMat=1 NMatS=1 NMatT=0.
 ***** Axes restored to original set *****
 -------------------------------------------------------------------
 Center     Atomic                   Forces (Hartrees/Bohr)
 Number     Number              X              Y              Z
 -------------------------------------------------------------------
      1        6           0.000710905   -0.000347923    0.001158400
      2        6          -0.006107723   -0.000792923    0.000712595
      3        6           0.021389534    0.000422487    0.002414370
      4        6          -0.016070396   -0.002509914   -0.000603933
      5        6           0.024303696    0.007292933   -0.003713243
      6        7          -0.023986406    0.003513981    0.000158938
      7        6           0.004874789   -0.006629506   -0.005178719
      8        7          -0.000066629    0.002722921    0.001366485
      9        1          -0.000464595    0.000056120   -0.000126623
     10        1          -0.000449068    0.000130998   -0.000179533
     11        1          -0.000438310    0.000000653   -0.000244178
     12        1           0.000996803    0.000428272   -0.000269685
     13        1           0.000977605   -0.000095606   -0.000482087
     14        1          -0.003215051   -0.000246508   -0.000897837
     15        1          -0.002349726    0.000496356   -0.000443123
     16        1           0.001507048   -0.004119999    0.003301878
     17        1          -0.004461754    0.001498296    0.000185894
     18        1           0.001600472   -0.000494924    0.001842876
     19        1          -0.000188698   -0.000603911   -0.001104793
     20        1           0.001437504   -0.000721802    0.002102316
 -------------------------------------------------------------------
 Cartesian Forces:  Max     0.024303696 RMS     0.006062938

 GradGradGradGradGradGradGradGradGradGradGradGradGradGradGradGradGradGrad
 Berny optimization.
 Using GEDIIS/GDIIS optimizer.
 FormGI is forming the generalized inverse of G from B-inverse, IUseBI=4.
 Internal  Forces:  Max     0.019669216 RMS     0.002922216
 Search for a local minimum.
 Step number   2 out of a maximum of   99
 All quantities printed in internal units (Hartrees-Bohrs-Radians)
 Mixed Optimization -- RFO/linear search
 Update second derivatives using D2CorX and points    1    2
 DE= -3.01D-02 DEPred=-3.17D-02 R= 9.49D-01
 TightC=F SS=  1.41D+00  RLast= 3.16D-01 DXNew= 5.0454D-01 9.4840D-01
 Trust test= 9.49D-01 RLast= 3.16D-01 DXMaxT set to 5.05D-01
 ITU=  1  0
 Use linear search instead of GDIIS.
     Eigenvalues ---    0.00230   0.00449   0.00519   0.00699   0.00925
     Eigenvalues ---    0.01040   0.01171   0.01713   0.02796   0.02978
     Eigenvalues ---    0.03671   0.04463   0.04911   0.04932   0.05472
     Eigenvalues ---    0.05599   0.05611   0.05661   0.06820   0.08313
     Eigenvalues ---    0.09547   0.09811   0.12174   0.12962   0.13097
     Eigenvalues ---    0.14192   0.15981   0.16000   0.16000   0.16000
     Eigenvalues ---    0.16061   0.21876   0.21949   0.22090   0.22764
     Eigenvalues ---    0.29690   0.30022   0.30534   0.34017   0.34017
     Eigenvalues ---    0.34129   0.34144   0.34156   0.34191   0.34275
     Eigenvalues ---    0.34276   0.34356   0.36028   0.38341   0.39678
     Eigenvalues ---    0.44438   0.44930   0.47198   0.81444
 RFO step:  Lambda=-4.51988159D-03 EMin= 2.29999800D-03
 Quartic linear search produced a step of  0.08013.
 Iteration  1 RMS(Cart)=  0.10809825 RMS(Int)=  0.01010054
 Iteration  2 RMS(Cart)=  0.03760442 RMS(Int)=  0.00078094
 Iteration  3 RMS(Cart)=  0.00103154 RMS(Int)=  0.00067012
 Iteration  4 RMS(Cart)=  0.00000161 RMS(Int)=  0.00067012
 Iteration  5 RMS(Cart)=  0.00000000 RMS(Int)=  0.00067012
 Variable       Old X    -DE/DX   Delta X   Delta X   Delta X     New X
                                 (Linear)    (Quad)   (Total)
    R1        2.89488   0.00065   0.00200  -0.00007   0.00193   2.89681
    R2        2.06804   0.00003   0.00006   0.00003   0.00008   2.06812
    R3        2.07016   0.00022   0.00012   0.00054   0.00066   2.07083
    R4        2.07016   0.00020   0.00012   0.00048   0.00060   2.07075
    R5        2.90090   0.00243   0.00168   0.00659   0.00826   2.90917
    R6        2.07045  -0.00008  -0.00021  -0.00004  -0.00024   2.07021
    R7        2.07066  -0.00009  -0.00019  -0.00006  -0.00025   2.07041
    R8        2.80294  -0.01101  -0.00556  -0.03192  -0.03749   2.76545
    R9        2.07187   0.00098   0.00008   0.00297   0.00305   2.07492
   R10        2.07120   0.00080   0.00003   0.00245   0.00248   2.07368
   R11        2.27524   0.00504  -0.01512   0.02077   0.00564   2.28088
   R12        2.59270  -0.01967  -0.01257  -0.04232  -0.05488   2.53783
   R13        2.73400   0.00515   0.00114   0.01262   0.01375   2.74774
   R14        1.90820   0.00161   0.00106   0.00262   0.00368   1.91188
   R15        2.75637   0.00171   0.00142   0.00328   0.00469   2.76106
   R16        2.08234   0.00070   0.00097   0.00106   0.00204   2.08438
   R17        2.07885   0.00073   0.00065   0.00155   0.00220   2.08105
   R18        1.92449  -0.00012   0.00031  -0.00059  -0.00028   1.92421
   R19        1.91847   0.00017  -0.00064   0.00104   0.00040   1.91887
    A1        1.93851   0.00059   0.00098   0.00284   0.00381   1.94232
    A2        1.93946   0.00033   0.00040   0.00111   0.00150   1.94096
    A3        1.94000   0.00032   0.00044   0.00101   0.00145   1.94144
    A4        1.88078  -0.00039  -0.00063  -0.00083  -0.00147   1.87931
    A5        1.88063  -0.00039  -0.00064  -0.00080  -0.00145   1.87918
    A6        1.88186  -0.00053  -0.00065  -0.00360  -0.00425   1.87761
    A7        1.95745   0.00169   0.00164   0.00691   0.00855   1.96601
    A8        1.91472   0.00020   0.00038   0.00504   0.00545   1.92017
    A9        1.91342   0.00013   0.00028   0.00411   0.00441   1.91783
   A10        1.90723  -0.00108  -0.00112  -0.00637  -0.00756   1.89967
   A11        1.90762  -0.00109  -0.00109  -0.00706  -0.00820   1.89942
   A12        1.86087   0.00006  -0.00016  -0.00322  -0.00347   1.85740
   A13        1.96174   0.00365   0.00299   0.01938   0.02321   1.98495
   A14        1.92288  -0.00197  -0.00055  -0.01277  -0.01078   1.91210
   A15        1.92547  -0.00160  -0.00034  -0.01408  -0.01523   1.91024
   A16        1.89028   0.00061  -0.00066   0.01892   0.01727   1.90755
   A17        1.88614  -0.00019  -0.00098   0.00892   0.00719   1.89332
   A18        1.87472  -0.00061  -0.00059  -0.02129  -0.02389   1.85083
   A19        2.05770   0.00425  -0.00063   0.01691   0.01636   2.07407
   A20        2.01328   0.00010  -0.00191   0.00394   0.00174   2.01502
   A21        1.99725  -0.00421   0.00147  -0.03647  -0.03463   1.96262
   A22        1.89087  -0.00440  -0.00790  -0.01275  -0.02066   1.87021
   A23        1.89624  -0.00111   0.00005  -0.01162  -0.01125   1.88498
   A24        1.95891   0.00111   0.00193  -0.00485  -0.00315   1.95576
   A25        1.96246   0.00450   0.00598   0.02659   0.03246   1.99492
   A26        1.89707   0.00002   0.00080  -0.00658  -0.00610   1.89096
   A27        1.85941   0.00012  -0.00041   0.01006   0.00945   1.86886
   A28        1.89217  -0.00096   0.00185  -0.00726  -0.00542   1.88675
   A29        1.89122   0.00306  -0.00044   0.02296   0.02250   1.91373
   A30        1.84728  -0.00033  -0.00015   0.00310   0.00292   1.85020
   A31        3.11495   0.00006  -0.00213  -0.00118  -0.00268   3.11226
   A32        3.11894  -0.00066  -0.00090  -0.02073  -0.02260   3.09635
   A33        3.14678   0.00047   0.00042   0.01041   0.00935   3.15613
   A34        3.01603   0.00356   0.00284   0.28453   0.28689   3.30292
    D1       -3.14139   0.00003   0.00001   0.00113   0.00115  -3.14025
    D2        1.01895   0.00013   0.00009   0.00107   0.00115   1.02010
    D3       -1.01896  -0.00014  -0.00009  -0.00034  -0.00042  -1.01939
    D4        1.04824  -0.00009  -0.00011  -0.00045  -0.00056   1.04768
    D5       -1.07461   0.00001  -0.00003  -0.00051  -0.00056  -1.07516
    D6       -3.11252  -0.00025  -0.00021  -0.00192  -0.00213  -3.11465
    D7       -1.04768   0.00014   0.00015   0.00269   0.00284  -1.04484
    D8        3.11266   0.00025   0.00022   0.00263   0.00284   3.11551
    D9        1.07475  -0.00002   0.00004   0.00122   0.00127   1.07602
   D10       -3.14127   0.00021   0.00003   0.00252   0.00335  -3.13792
   D11        1.03206  -0.00166  -0.00076  -0.02573  -0.02704   1.00502
   D12       -1.03488   0.00131   0.00054   0.01714   0.01742  -1.01746
   D13       -1.01414   0.00083   0.00082   0.00907   0.01066  -1.00349
   D14       -3.12400  -0.00104   0.00004  -0.01918  -0.01973   3.13946
   D15        1.09225   0.00193   0.00133   0.02369   0.02473   1.11698
   D16        1.01617  -0.00032  -0.00066  -0.00236  -0.00219   1.01398
   D17       -1.09369  -0.00219  -0.00145  -0.03062  -0.03257  -1.12626
   D18        3.12255   0.00078  -0.00015   0.01226   0.01189   3.13444
   D19        1.65889  -0.00159  -0.00187  -0.11154  -0.11164   1.54726
   D20       -0.84081   0.00102   0.00112   0.05554   0.05891  -0.78190
   D21       -2.49615  -0.00118  -0.00098  -0.08980  -0.09326  -2.58941
   D22        1.28733   0.00143   0.00201   0.07728   0.07728   1.36461
   D23       -0.47792  -0.00128  -0.00163  -0.07000  -0.07155  -0.54948
   D24       -2.97762   0.00134   0.00136   0.09708   0.09899  -2.87864
   D25       -2.95971   0.00011   0.00182  -0.04727  -0.04564  -3.00535
   D26        1.18665  -0.00201  -0.00067  -0.06480  -0.06577   1.12088
   D27       -0.86495  -0.00211  -0.00132  -0.06692  -0.06842  -0.93337
   D28       -0.50584   0.00022  -0.00039  -0.06789  -0.06801  -0.57385
   D29       -2.64267  -0.00189  -0.00288  -0.08542  -0.08814  -2.73080
   D30        1.58892  -0.00199  -0.00353  -0.08754  -0.09078   1.49813
   D31       -1.02898  -0.00056  -0.00114  -0.05426  -0.05514  -1.08412
   D32       -3.02620  -0.00126  -0.00170  -0.06600  -0.06746  -3.09366
   D33        1.06695  -0.00209  -0.00228  -0.06075  -0.06329   1.00366
   D34       -0.93027  -0.00280  -0.00284  -0.07249  -0.07561  -1.00588
   D35        3.12120   0.00076   0.00102  -0.03662  -0.03558   3.08562
   D36        1.12398   0.00005   0.00046  -0.04836  -0.04790   1.07608
         Item               Value     Threshold  Converged?
 Maximum Force            0.019669     0.000450     NO 
 RMS     Force            0.002922     0.000300     NO 
 Maximum Displacement     0.476091     0.001800     NO 
 RMS     Displacement     0.139481     0.001200     NO 
 Predicted change in Energy=-3.379646D-03
 GradGradGradGradGradGradGradGradGradGradGradGradGradGradGradGradGradGrad

                          Input orientation:                          
 ---------------------------------------------------------------------
 Center     Atomic      Atomic             Coordinates (Angstroms)
 Number     Number       Type             X           Y           Z
 ---------------------------------------------------------------------
      1          6           0        1.083809   -0.062682    0.075168
      2          6           0        2.610396    0.056843    0.003747
      3          6           0        3.095513    0.669788   -1.322493
      4          6           0        4.550816    0.790435   -1.417984
      5          6           0        5.754128    0.873279   -1.462706
      6          7           0        7.095074    0.800409   -1.453022
      7          6           0        7.736665   -0.388695   -1.990270
      8          7           0        9.161752   -0.284603   -1.685185
      9          1           0        0.763526   -0.499161    1.026282
     10          1           0        0.697866   -0.698606   -0.729506
     11          1           0        0.604054    0.917995   -0.019037
     12          1           0        3.069964   -0.930007    0.126466
     13          1           0        2.975065    0.673570    0.832619
     14          1           0        2.639726    1.659427   -1.458436
     15          1           0        2.741744    0.055305   -2.160006
     16          1           0        7.542488    1.132759   -0.608659
     17          1           0        7.505883   -0.443350   -3.067478
     18          1           0        7.350055   -1.311165   -1.529488
     19          1           0        9.526924    0.540445   -2.157178
     20          1           0        9.655202   -1.077108   -2.084585
 ---------------------------------------------------------------------
                    Distance matrix (angstroms):
                    1          2          3          4          5
     1  C    0.000000
     2  C    1.532923   0.000000
     3  C    2.556741   1.539466   0.000000
     4  C    3.870071   2.514897   1.463415   0.000000
     5  C    5.005294   3.563721   2.670076   1.206989   0.000000
     6  N    6.262236   4.773616   4.003822   2.544519   1.342959
     7  C    6.973723   5.518446   4.806933   3.444923   2.408600
     8  N    8.270505   6.774167   6.151558   4.742134   3.605840
     9  H    1.094401   2.183036   3.510178   4.688396   5.743237
    10  H    1.095834   2.183147   2.823623   4.187657   5.345484
    11  H    1.095795   2.183463   2.822759   4.189302   5.348780
    12  H    2.167879   1.095507   2.158583   2.745573   3.603061
    13  H    2.166252   1.095612   2.158479   2.749884   3.609930
    14  H    2.781812   2.169589   1.098002   2.099774   3.212094
    15  H    2.785440   2.167737   1.097347   2.088960   3.198401
    16  H    6.603880   5.085093   4.527636   3.118059   1.998739
    17  H    7.159900   5.800726   4.871901   3.602149   2.716146
    18  H    6.587828   5.165910   4.697676   3.502128   2.706149
    19  H    8.754046   7.262357   6.486639   5.036919   3.850592
    20  H    8.897324   7.434801   6.830955   5.476023   4.405578
                    6          7          8          9         10
     6  N    0.000000
     7  C    1.454044   0.000000
     8  N    2.345700   1.461090   0.000000
     9  H    6.922741   7.598451   8.827700   0.000000
    10  H    6.610204   7.157531   8.527724   1.768299   0.000000
    11  H    6.648570   7.514475   8.800936   1.768179   1.768323
    12  H    4.657320   5.152832   6.388153   2.512957   2.532407
    13  H    4.713250   5.636483   6.747779   2.510719   3.083624
    14  H    4.537408   5.518735   6.809368   3.788595   3.140459
    15  H    4.472861   5.017487   6.446510   3.791202   2.606176
    16  H    1.011724   2.064310   2.406208   7.161740   7.086420
    17  H    2.078982   1.103007   2.162830   7.888053   7.202803
    18  H    2.128288   1.101243   2.088137   7.111518   6.728062
    19  H    2.545056   2.023904   1.018249   9.381489   9.029161
    20  H    3.237004   2.040488   1.015420   9.437871   9.067159
                   11         12         13         14         15
    11  H    0.000000
    12  H    3.084963   0.000000
    13  H    2.531157   1.754742   0.000000
    14  H    2.601067   3.066299   2.516605   0.000000
    15  H    3.146061   2.511279   3.064718   1.753801   0.000000
    16  H    6.966753   4.979847   4.811392   5.003656   5.158946
    17  H    7.666909   5.487758   6.081660   5.539872   4.875365
    18  H    7.263550   4.605067   5.353435   5.569261   4.847816
    19  H    9.183235   7.004969   7.203018   7.012408   6.802502
    20  H    9.495799   6.948074   7.496611   7.556295   7.005993
                   16         17         18         19         20
    16  H    0.000000
    17  H    2.920830   0.000000
    18  H    2.618725   1.772795   0.000000
    19  H    2.585872   2.425099   2.925955   0.000000
    20  H    3.394912   2.446895   2.382565   1.624254   0.000000
 Stoichiometry    C6H12N2
 Framework group  C1[X(C6H12N2)]
 Deg. of freedom    54
 Full point group                 C1      NOp   1
 Largest Abelian subgroup         C1      NOp   1
 Largest concise Abelian subgroup C1      NOp   1
                         Standard orientation:                         
 ---------------------------------------------------------------------
 Center     Atomic      Atomic             Coordinates (Angstroms)
 Number     Number       Type             X           Y           Z
 ---------------------------------------------------------------------
      1          6           0       -4.201305    0.508574    0.009101
      2          6           0       -2.704168    0.503758   -0.320158
      3          6           0       -1.946167   -0.636380    0.383741
      4          6           0       -0.512830   -0.660241    0.089535
      5          6           0        0.664966   -0.648498   -0.174059
      6          7           0        1.969100   -0.463019   -0.435540
      7          6           0        2.755632    0.359806    0.469209
      8          7           0        4.067655    0.544416   -0.146665
      9          1           0       -4.718149    1.325964   -0.503206
     10          1           0       -4.370224    0.630549    1.084946
     11          1           0       -4.677931   -0.429626   -0.296470
     12          1           0       -2.253554    1.459545   -0.031100
     13          1           0       -2.560900    0.408442   -1.402172
     14          1           0       -2.390142   -1.600748    0.103584
     15          1           0       -2.076913   -0.546296    1.469540
     16          1           0        2.198489   -0.297028   -1.406834
     17          1           0        2.781643   -0.142224    1.451000
     18          1           0        2.303253    1.351676    0.625042
     19          1           0        4.504938   -0.370414   -0.239942
     20          1           0        4.665433    1.078272    0.476823
 ---------------------------------------------------------------------
 Rotational constants (GHZ):           8.3858126           0.5642195           0.5511668
 Standard basis: 6-31G(2df,p) (6D, 7F)
 There are   308 symmetry adapted cartesian basis functions of A   symmetry.
 There are   284 symmetry adapted basis functions of A   symmetry.
   284 basis functions,   436 primitive gaussians,   308 cartesian basis functions
    31 alpha electrons       31 beta electrons
       nuclear repulsion energy       337.6913692576 Hartrees.
 NAtoms=   20 NActive=   20 NUniq=   20 SFac= 1.00D+00 NAtFMM=   60 NAOKFM=F Big=F
 Integral buffers will be    131072 words long.
 Raffenetti 2 integral format.
 Two-electron integral symmetry is turned on.
 One-electron integrals computed using PRISM.
 PrsmSu:  requested number of processors reduced to:  13 ShMem   1 Linda.
 NBasis=   284 RedAO= T EigKep=  6.74D-05  NBF=   284
 NBsUse=   284 1.00D-06 EigRej= -1.00D+00 NBFU=   284
 Initial guess from the checkpoint file:  "CCCCtCNCN.chk"
 B after Tr=    -0.000000   -0.000000    0.000000
         Rot=    0.999716    0.023823    0.001081    0.000018 Ang=   2.73 deg.
 ExpMin= 1.61D-01 ExpMax= 4.17D+03 ExpMxC= 6.27D+02 IAcc=2 IRadAn=         4 AccDes= 0.00D+00
 Harris functional with IExCor=  402 and IRadAn=       4 diagonalized for initial guess.
 HarFok:  IExCor=  402 AccDes= 0.00D+00 IRadAn=         4 IDoV= 1 UseB2=F ITyADJ=14
 ICtDFT=  3500011 ScaDFX=  1.000000  1.000000  1.000000  1.000000
 FoFCou: FMM=F IPFlag=           0 FMFlag=      100000 FMFlg1=           0
         NFxFlg=           0 DoJE=T BraDBF=F KetDBF=T FulRan=T
         wScrn=  0.000000 ICntrl=       500 IOpCl=  0 I1Cent=   200000004 NGrid=           0
         NMat0=    1 NMatS0=      1 NMatT0=    0 NMatD0=    1 NMtDS0=    0 NMtDT0=    0
 Petite list used in FoFCou.
 Requested convergence on RMS density matrix=1.00D-08 within 128 cycles.
 Requested convergence on MAX density matrix=1.00D-06.
 Requested convergence on             energy=1.00D-06.
 No special actions if energy rises.
 Integral accuracy reduced to 1.0D-05 until final iterations.
 Initial convergence to 1.0D-05 achieved.  Increase integral accuracy.
 SCF Done:  E(RB3LYP) =  -345.317566539     A.U. after   12 cycles
            NFock= 12  Conv=0.36D-08     -V/T= 2.0081
 PrsmSu:  requested number of processors reduced to:  13 ShMem   1 Linda.
 Calling FoFJK, ICntrl=      2127 FMM=F ISym2X=0 I1Cent= 0 IOpClX= 0 NMat=1 NMatS=1 NMatT=0.
 ***** Axes restored to original set *****
 -------------------------------------------------------------------
 Center     Atomic                   Forces (Hartrees/Bohr)
 Number     Number              X              Y              Z
 -------------------------------------------------------------------
      1        6           0.001207862    0.000172002   -0.000174705
      2        6          -0.002225272   -0.000432347    0.000707885
      3        6           0.005079488    0.003465616   -0.001768597
      4        6          -0.002656438    0.001217370   -0.001836105
      5        6          -0.002929819   -0.009912902    0.007002555
      6        7           0.003280731    0.009211454   -0.003849357
      7        6           0.003406258   -0.003887250   -0.001958946
      8        7          -0.001549520    0.002938987   -0.002124917
      9        1           0.000119732    0.000030715   -0.000058972
     10        1          -0.000118202    0.000037826   -0.000074215
     11        1          -0.000070375   -0.000003152   -0.000099830
     12        1           0.000353575   -0.000038400    0.000073378
     13        1           0.000334154   -0.000045819    0.000161574
     14        1          -0.002407894   -0.000052840   -0.000108643
     15        1          -0.001341418   -0.000100411   -0.000526746
     16        1           0.000469830   -0.001892328    0.001354435
     17        1          -0.001482621    0.000907750    0.000985485
     18        1           0.000654512   -0.000098379    0.000823859
     19        1           0.000357082   -0.000580861   -0.000300202
     20        1          -0.000481666   -0.000937032    0.001772065
 -------------------------------------------------------------------
 Cartesian Forces:  Max     0.009912902 RMS     0.002569719

 GradGradGradGradGradGradGradGradGradGradGradGradGradGradGradGradGradGrad
 Berny optimization.
 Using GEDIIS/GDIIS optimizer.
 FormGI is forming the generalized inverse of G from B-inverse, IUseBI=4.
 Internal  Forces:  Max     0.013366553 RMS     0.001870301
 Search for a local minimum.
 Step number   3 out of a maximum of   99
 All quantities printed in internal units (Hartrees-Bohrs-Radians)
 Mixed Optimization -- RFO/linear search
 Update second derivatives using D2CorX and points    2    3
 DE= -1.10D-03 DEPred=-3.38D-03 R= 3.25D-01
 Trust test= 3.25D-01 RLast= 4.42D-01 DXMaxT set to 5.05D-01
 ITU=  0  1  0
 Use linear search instead of GDIIS.
     Eigenvalues ---    0.00230   0.00449   0.00519   0.00802   0.00919
     Eigenvalues ---    0.01100   0.01579   0.02687   0.02868   0.03437
[...]
 018832,-0.00029756,0.00058684,-0.00012137,-0.00022822,-0.00052003,0.00
 009405,0.00009549,-0.00295890,0.00358652,0.00294460,-0.04063676,0.0064
 2579,0.00531887,-0.20967557,-0.04463610,-0.00058447,0.50092757,0.00000
 596,0.00005509,-0.00005059,0.00006640,-0.00016319,0.00008823,-0.000146
 71,0.00013811,0.00033829,0.00116530,-0.00001913,0.00000744,0.00422721,
 -0.00329212,-0.00326332,0.03973919,0.00794853,-0.00447974,-0.02087600,
 -0.10448221,0.01483110,-0.14392366,0.53770843,-0.00000990,-0.00000667,
 -0.00000242,0.00002300,0.00001555,-0.00002137,0.00000762,0.00002769,-0
 .00014218,0.00006390,0.00003557,0.00014155,0.00019579,-0.00055703,0.00
 117491,0.00886265,0.00008340,0.00338806,0.04184982,0.03044929,-0.08223
 883,-0.10555497,-0.19259576,0.42544297,-0.07607003,-0.04685598,0.06927
 459,-0.01087185,-0.01868992,0.02756235,-0.00612543,0.00154565,-0.00205
 410,-0.00104204,-0.00103345,0.00156913,0.00052835,-0.00002111,0.000042
 40,-0.00086152,0.00004604,0.00018305,0.00020494,-0.00031992,-0.0001886
 7,-0.00013112,0.00003667,-0.00000490,0.08455321,-0.04748158,-0.1198967
 9,0.10821877,0.00094269,-0.00021205,-0.00178850,0.00010148,0.00059109,
 -0.00045867,0.00001861,0.00038681,0.00026452,0.00005287,-0.00000604,-0
 .00000188,-0.00009354,-0.00002321,0.00001135,0.00005118,-0.00006338,-0
 .00001747,-0.00003820,0.00000457,-0.00000423,0.05200202,0.12665321,0.0
 7019160,0.10820519,-0.20684118,-0.00109482,-0.00121204,0.00038451,0.00
 003126,-0.00050744,0.00100793,0.00002389,0.00030171,0.00014713,-0.0000
 9231,-0.00000948,-0.00001499,0.00016703,-0.00004688,-0.00007580,-0.000
 07220,0.00010592,0.00004688,0.00005761,-0.00001423,0.00000507,-0.07706
 193,-0.11915201,0.22239425,-0.08098962,-0.03783150,-0.07866140,-0.0137
 2295,-0.01468316,-0.02977411,0.00148865,0.00023978,-0.00162848,0.00012
 446,0.00038240,0.00036048,0.00032723,0.00003137,0.00004934,-0.00011563
 ,-0.00005189,0.00003983,0.00003190,-0.00004551,-0.00004491,-0.00000776
 ,0.00000618,0.00001467,0.00366021,0.00542936,0.00913584,0.09090253,-0.
 03816319,-0.08961068,-0.08717142,0.00041705,-0.00008165,0.00126801,-0.
 00001440,-0.00010350,-0.00070091,0.00006064,0.00001312,0.00028160,0.00
 004049,-0.00002237,0.00001225,0.00002180,-0.00000709,-0.00001548,-0.00
 000643,0.00003209,-0.00001585,0.00000654,-0.00000596,0.00000441,0.0072
 2172,0.00722315,0.01497306,0.04215506,0.09267937,-0.07925144,-0.087135
 02,-0.22882876,-0.00000532,0.00090713,0.00038112,0.00047902,0.00036992
 ,0.00103673,-0.00009051,0.00001440,0.00021489,0.00016736,0.00001887,-0
 .00003042,-0.00018804,-0.00001182,0.00006254,0.00005425,-0.00006446,-0
 .00007127,-0.00002716,0.00000841,0.00000938,-0.00905300,-0.01106965,-0
 .02067000,0.08838613,0.09660090,0.24771506,-0.07610619,0.08141073,0.00
 686963,-0.01276581,0.03347435,0.00316326,0.00149516,0.00139571,-0.0008
 3288,0.00011406,-0.00047959,-0.00023308,0.00031850,-0.00005130,-0.0000
 1158,-0.00010372,-0.00000650,0.00007830,0.00002798,0.00003308,-0.00005
 319,-0.00002125,-0.00001950,0.00000524,0.00331098,-0.01055516,-0.00183
 697,0.00361718,-0.01149872,-0.00007064,0.08544028,0.08210184,-0.274089
 34,-0.01920329,0.00024479,0.00015583,0.00037937,-0.00045755,0.00074918
 ,0.00006110,0.00005439,0.00029163,-0.00008790,-0.00016421,-0.00001634,
 0.00001608,0.00015690,0.00000927,-0.00006082,-0.00004638,0.00002341,0.
 00003195,0.00003423,0.00001170,-0.00000007,0.00526311,-0.01556738,-0.0
 0222867,0.00378862,-0.01186554,-0.00022023,-0.09164044,0.29781179,0.00
 696180,-0.01922577,-0.04930695,-0.00013159,0.00020354,-0.00080101,0.00
 013602,-0.00107552,0.00016732,-0.00009151,0.00018741,-0.00005465,0.000
 01951,0.00001754,-0.00003148,-0.00008616,-0.00000517,0.00003303,0.0000
 2579,-0.00003663,-0.00002854,-0.00001632,0.00000439,-0.00000075,-0.009
 36806,0.02433356,0.00247338,0.00987486,-0.02629577,-0.00181738,-0.0075
 3547,0.02106419,0.04810161,-0.01319181,0.03237172,0.00267105,-0.074408
 45,0.07973643,0.00421018,0.00280845,-0.01248915,0.00015709,0.00169771,
 -0.00046090,-0.00066899,-0.00059345,0.00018993,0.00004362,0.00024313,0
 .00004543,-0.00007514,-0.00005573,0.00000427,0.00012470,0.00002276,0.0
 0000495,-0.00000874,0.00134313,-0.00037489,0.00034031,0.00152822,-0.00
 029101,-0.00045432,-0.00684785,-0.00028630,-0.00002277,0.08433357,-0.0
 0059135,0.00130002,-0.00003671,0.07912118,-0.27463333,-0.01686425,0.00
 489295,-0.01782743,-0.00007566,0.00109304,0.00112484,-0.00060994,-0.00
 073963,0.00027635,-0.00000953,-0.00011863,0.00004856,-0.00000851,0.000
 00059,-0.00021991,0.00004585,0.00000442,0.00006769,-0.00001253,0.00061
 761,0.00051634,-0.00026996,0.00044804,0.00048673,0.00031066,-0.0006065
 2,0.00166571,0.00008899,-0.08668253,0.29903797,0.00015780,-0.00050397,
 -0.00044163,0.00487243,-0.01828010,-0.04949271,-0.00704793,0.02716619,
 -0.00058783,-0.00187837,-0.00060736,0.00085357,0.00065619,-0.00027024,
 -0.00000429,-0.00010733,0.00000679,0.00000908,0.00004075,0.00000878,0.
 00000486,-0.00001380,-0.00001205,-0.00001565,-0.00000859,-0.00033318,0
 .00002428,0.00013680,0.00062108,0.00025693,0.00023756,0.00046852,0.000
 94696,-0.00758337,0.01525690,0.05277371,-0.01410161,-0.01380506,-0.028
 92847,-0.07906972,-0.03469018,-0.07814789,0.00314036,0.00429282,0.0116
 6748,0.00169913,0.00071989,0.00018571,-0.00053700,-0.00009697,-0.00017
 614,0.00022365,0.00001131,-0.00009286,-0.00003939,0.00010472,0.0000325
 9,0.00002335,-0.00001516,-0.00000510,0.00133074,-0.00022222,0.00045581
 ,-0.00682009,0.00034831,0.00042655,0.00152584,0.00050723,0.00009590,0.
 00351292,0.00402182,0.00912655,0.08952715,0.00043344,-0.00002135,0.000
 94244,-0.03512993,-0.08884496,-0.08687147,0.00521396,0.00603525,0.0174
 3320,0.00131797,0.00042804,-0.00040545,-0.00032162,-0.00005850,-0.0001
 2888,0.00012499,-0.00001352,0.00000977,-0.00001775,0.00003438,-0.00001
 466,0.00001180,-0.00000226,0.00001625,-0.00025493,-0.00010225,-0.00009
 729,0.00023120,0.00121910,0.00062726,-0.00030038,0.00059218,0.00057964
 ,-0.01088022,-0.01239931,-0.02648220,0.04030050,0.09304080,0.00090664,
 0.00086065,0.00178672,-0.07732695,-0.08547773,-0.23078896,-0.00782780,
 -0.00927987,-0.02476529,-0.00172344,-0.00030129,0.00150262,0.00093081,
 0.00009441,0.00033732,0.00004784,-0.00004970,-0.00001017,-0.00001088,0
 .00000536,-0.00003292,0.00002794,0.00000691,0.00003153,-0.00059017,-0.
 00000444,0.00065901,0.00081559,0.00023409,0.00136644,-0.00038639,0.000
 26504,0.00014799,-0.00058091,-0.00112131,-0.00188460,0.08375791,0.0912
 9259,0.25375214,0.00118774,-0.00098225,-0.00031323,0.00324694,-0.01052
 706,-0.00061937,-0.07098712,0.07862250,0.00427557,-0.02111187,0.031192
 41,0.00398655,0.00110820,-0.00004066,-0.00101178,-0.00160593,-0.001317
 05,0.00020361,0.00066808,-0.00038359,-0.00087370,-0.00027789,0.0000402
 4,-0.00001747,0.00010257,0.00015465,-0.00008553,-0.00002724,-0.0000443
 6,-0.00003541,-0.00000054,0.00040966,0.00011897,-0.00051375,-0.0015554
 6,0.00206701,0.00010255,0.00057371,-0.00034052,0.08425872,0.00085286,0
 .00050110,-0.00086333,0.00482139,-0.01876890,0.00011142,0.07536824,-0.
 26502207,-0.01420042,0.00499896,0.00392625,-0.00022880,-0.00241543,-0.
 00017523,0.00015517,0.00048039,-0.00010424,-0.00019470,-0.00016627,0.0
 0008071,0.00013613,0.00005628,0.00001994,0.00000300,-0.00008685,0.0005
 1715,0.00004678,-0.00006132,-0.00004841,0.00000585,-0.00106710,0.00035
 581,0.00026032,-0.00153711,-0.00043708,0.00340654,0.00015524,0.0011114
 2,0.00004300,-0.08513533,0.29092163,-0.00135011,-0.00019568,0.00089585
 ,-0.00707539,0.02722107,-0.00029745,0.00490670,-0.01491257,-0.04549472
 ,-0.00032628,-0.00073951,-0.00075091,0.00059536,0.00014661,0.00060610,
 -0.00041603,-0.00012668,0.00022185,-0.00005083,0.00013535,-0.00003614,
 0.00011670,-0.00004666,0.00001939,-0.00027246,-0.00026404,-0.00005223,
 0.00013862,-0.00012629,-0.00002537,0.00048746,-0.00051277,0.00016813,0
 .00229127,0.00322382,-0.00373375,-0.00076702,-0.00052683,0.00112763,-0
 .00764189,0.01276497,0.04974910,0.00123164,0.00061718,0.00080684,0.003
 52524,0.00427280,0.00951577,-0.07571299,-0.03428431,-0.07709572,-0.021
 59413,-0.01424249,-0.02709877,0.00056967,0.00092085,-0.00026006,-0.001
 50451,0.00091795,0.00167771,0.00017527,-0.00147801,0.00015419,-0.00033
 744,0.00030426,0.00001620,0.00010581,0.00002653,-0.00016882,-0.0000135
 0,-0.00025730,-0.00033942,-0.00002684,0.00004643,0.00002540,0.00010390
 ,0.00013605,-0.00064826,-0.00050662,-0.00131320,0.00224072,0.00428215,
 0.00379364,0.00919565,0.08950959,0.00092583,0.00044870,-0.00023202,0.0
 0527985,0.00622277,0.01709327,-0.03366827,-0.08196916,-0.08233549,-0.0
 0086143,-0.00010563,0.00172136,0.00027755,0.00054352,-0.00014813,0.000
 28221,0.00016989,-0.00016291,0.00000201,-0.00007981,-0.00002536,-0.000
 11430,0.00004077,-0.00000657,0.00028381,-0.00005980,-0.00004378,-0.000
 07959,0.00011051,-0.00040581,-0.00010829,-0.00006831,-0.00011962,0.000
 67384,0.00094326,-0.00046480,-0.00153328,-0.00099213,0.00342426,-0.010
 94531,-0.01277647,-0.02607469,0.03963385,0.08759594,-0.00132039,-0.000
 84054,0.00092390,-0.00788508,-0.00953334,-0.02564777,-0.07385487,-0.08
 172792,-0.22364925,-0.00421707,0.00183325,0.00407806,0.00245711,-0.000
 17538,-0.00012132,-0.00057751,-0.00022792,0.00002339,0.00011928,-0.000
 08209,-0.00011290,0.00001897,-0.00000669,0.00002204,-0.00000814,0.0002
 6758,0.00051864,0.00118339,0.00032445,0.00040421,0.00010927,0.00001141
 ,-0.00000683,-0.00039504,0.00011326,0.00129655,0.00232091,0.00362791,-
 0.00317813,-0.00038632,-0.00140893,-0.00235974,0.08231220,0.08770991,0
 .24783877,-0.00000213,-0.00003190,0.00006133,-0.00004776,0.00015508,-0
 .00016305,-0.00036528,0.00093084,0.00081943,0.00281799,-0.00093156,0.0
 0006110,-0.03267811,-0.01620319,-0.02533204,-0.13096536,-0.07882099,-0
 .12994308,0.01094010,0.00913169,0.01290003,0.00173900,-0.00142458,-0.0
 0066353,-0.00002485,-0.00001521,0.00000382,0.00001441,0.00000225,0.000
 00493,0.00001613,-0.00000765,-0.00000520,0.00000431,-0.00002304,0.0000
 0053,-0.00001160,0.00000795,0.00005587,-0.00036081,-0.00006747,0.00014
 384,0.00021619,-0.00004625,0.00010182,0.15109663,-0.00000300,0.0002406
 7,-0.00013609,0.00053506,-0.00034850,0.00004103,-0.00085856,0.00109965
 ,-0.00021312,0.00470288,-0.00023789,-0.00090784,-0.00901353,0.00032217
 ,0.00474440,-0.06701883,-0.12167203,-0.14232663,-0.01379839,-0.0189786
 3,-0.02732597,-0.00097474,0.00210255,0.00200268,0.00012373,0.00002125,
 -0.00001972,0.00003353,-0.00001354,0.00002175,0.00001738,-0.00004335,0
 .00000545,-0.00000648,0.00000073,-0.00000283,-0.00007569,0.00000494,0.
 00002633,-0.00029658,-0.00004752,0.00003864,0.00066689,-0.00003297,0.0
 0008460,0.08436501,0.14059690,0.00000791,-0.00013879,-0.00001760,-0.00
 024056,0.00024640,0.00020262,0.00003027,-0.00142951,-0.00003182,0.0014
 7705,0.00002420,0.00023690,0.00751401,0.00960247,0.00400706,-0.1460387
 7,-0.17009089,-0.23443450,-0.00593201,-0.00177676,-0.00806958,0.000071
 07,0.00235421,-0.00012753,-0.00002671,-0.00000316,-0.00000681,-0.00003
 517,0.00000224,-0.00000931,-0.00000169,0.00002410,0.00000909,-0.000028
 58,-0.00000348,0.00000236,0.00006264,-0.00001159,-0.00007209,0.0006910
 7,-0.00001249,-0.00003606,-0.00039944,0.00006249,-0.00004346,0.1408865
 5,0.16355562,0.23704356,-0.00000140,0.00001390,-0.00000435,0.00002168,
 -0.00004510,0.00001055,-0.00002943,0.00007171,0.00000223,-0.00044705,-
 0.00008437,-0.00020093,0.00211808,0.00034149,0.00046105,0.00778805,0.0
 1022741,0.01337971,-0.09890712,-0.04078099,-0.09094471,-0.02967432,-0.
 01543554,-0.02188649,0.00000428,-0.00000030,0.00000082,0.00000300,-0.0
 0000083,0.00000060,-0.00000370,0.00000281,-0.00000035,-0.00000040,0.00
 000938,-0.00000256,-0.00000567,-0.00000018,0.00000524,-0.00003086,0.00
 000543,-0.00000913,0.00006710,0.00001900,0.00001379,-0.00197065,0.0027
 9056,0.00161649,0.11603747,0.00000004,0.00001692,-0.00001160,0.0000443
 6,-0.00002345,-0.00000043,-0.00007589,0.00007708,0.00005350,0.00127201
 ,0.00022538,0.00037160,-0.00339771,0.00047362,-0.00001356,-0.00930025,
 -0.02280231,-0.02956692,-0.03514143,-0.07933288,-0.05940567,-0.0066681
 3,0.00124997,-0.00350159,0.00001106,0.00000101,-0.00000138,0.00000573,
 0.00000091,0.00000345,-0.00000020,-0.00000175,-0.00000052,-0.00000162,
 0.00000616,0.00000304,-0.00000657,-0.00000394,0.00001091,-0.00002612,-
 0.00000768,0.00000326,0.00010852,0.00000022,0.00000841,0.00314862,-0.0
 0389691,-0.00305655,0.04157191,0.09534395,0.00000231,0.00002429,-0.000
 01594,0.00008173,-0.00005698,-0.00001050,-0.00005965,0.00012546,-0.000
 02435,0.00104391,0.00026139,-0.00002593,-0.00205004,-0.00023698,0.0005
 8954,-0.00214170,-0.00796679,-0.00651516,-0.08665019,-0.06666341,-0.21
 267113,0.00344964,0.00333849,0.01218358,0.00000739,-0.00000340,0.00000
 197,0.00001290,-0.00000072,0.00000727,-0.00000493,0.00000392,0.0000008
 6,-0.00000380,0.00002017,-0.00001796,-0.00001414,0.00001463,0.00002703
 ,-0.00003872,0.00000343,0.00001690,0.00010340,-0.00002227,0.00002538,0
 .00163415,-0.00074143,0.00020723,0.09771188,0.07851473,0.22347398,-0.0
 0000940,-0.00003968,0.00005622,-0.00012779,0.00007805,-0.00005258,0.00
 023537,-0.00003779,0.00005170,-0.00154361,-0.00075560,0.00033769,0.006
 01461,0.00061292,-0.00094676,-0.00439470,0.01960303,-0.00849984,-0.051
 76233,-0.00434680,-0.00067898,-0.00772090,-0.02666317,0.02897333,-0.00
 003377,-0.00000406,0.00001089,0.00000007,0.00000321,-0.00000637,0.0000
 0592,-0.00000098,-0.00000366,0.00001465,-0.00002458,-0.00001136,0.0000
 0598,0.00000605,0.00000654,-0.00007159,0.00001650,0.00002442,-0.000041
 57,-0.00001322,-0.00000436,-0.00024729,-0.00091686,0.00011453,0.002825
 22,0.00870726,-0.01192179,0.06224791,0.00000113,0.00010390,-0.00017553
 ,0.00032701,-0.00015769,0.00023776,-0.00057114,0.00002469,-0.00023570,
 0.00257050,0.00041395,-0.00011122,-0.00706892,-0.00004526,0.00047549,0
 .01336515,-0.03133391,0.01327027,-0.00954698,-0.14802725,0.11362364,-0
 .00394248,-0.00528446,0.00728390,0.00010434,0.00001355,-0.00002798,0.0
 0000388,-0.00000579,0.00001954,-0.00000230,-0.00000630,0.00001373,-0.0
 0001877,0.00005290,0.00001405,-0.00001497,-0.00002549,-0.00002228,0.00
 025366,-0.00003397,-0.00000330,0.00012345,0.00000891,0.00002596,0.0002
 2841,0.00062797,0.00074193,-0.00006486,0.00857555,-0.00698071,0.006082
 52,0.17314751,0.00000157,-0.00004052,0.00002496,-0.00001707,0.00010795
 ,-0.00005164,0.00004500,0.00003303,-0.00010244,0.00015315,0.00027378,-
 0.00029079,-0.00208599,-0.00057714,0.00118991,0.00124321,-0.00799142,0
 .01293904,0.00583920,0.11553806,-0.19050217,0.00243111,0.00416003,-0.0
 0365634,-0.00002264,-0.00000272,0.00000926,0.00000022,0.00000641,-0.00
 000264,0.00001179,-0.00000487,-0.00000346,-0.00001355,-0.00004369,0.00
 000321,0.00000195,0.00000036,0.00000897,-0.00003060,-0.00001514,0.0000
 0532,-0.00006627,0.00000714,-0.00000033,-0.00023773,0.00025505,0.00130
 393,-0.00015507,0.01706869,-0.02005740,-0.00918093,-0.12870675,0.19754
 904,-0.00000169,0.00002781,-0.00002918,0.00004519,-0.00004933,0.000040
 01,-0.00012193,0.00000985,0.00002764,0.00040544,0.00000207,-0.00003227
 ,-0.00096864,0.00022779,-0.00035790,0.00223747,0.00078574,-0.00169506,
 -0.00663108,-0.02431254,0.03745853,-0.05742643,0.00276389,0.02613794,0
 .00002243,0.00000523,-0.00000867,0.00000020,-0.00000296,0.00000396,-0.
 00000098,-0.00000372,0.00000334,0.,0.00001168,0.00000255,-0.00000362,-
 0.00000312,-0.00000678,0.00003186,-0.00000652,-0.00000740,0.00004449,0
 .00000248,0.00000362,-0.00005518,-0.00013413,0.00016687,0.00191090,-0.
 00013241,-0.00043280,-0.00688045,-0.00131216,0.00150410,0.06498392,-0.
 00000208,-0.00000271,0.00000995,-0.00001904,0.00000842,-0.00000677,0.0
 0004389,0.00004106,0.00001160,-0.00035702,-0.00008444,-0.00006332,0.00
 090773,-0.00036844,0.00017219,-0.00063182,0.00082840,0.00023551,-0.005
 83240,-0.00714741,0.00988117,-0.00218063,-0.12152242,0.14721080,-0.000
 00479,-0.00000018,0.00000240,-0.00000348,0.00000013,-0.00000396,0.0000
 0278,-0.00000310,-0.00000110,0.00000390,-0.00000925,0.00000410,0.00000
 043,-0.00000058,-0.00000578,-0.00001242,-0.00000399,-0.00000750,-0.000
 01445,0.00000382,-0.00000747,0.00001643,0.00036394,-0.00071482,0.00217
 132,0.00021390,-0.00000056,-0.00242182,0.00118661,-0.00027432,0.012362
 51,0.14344451,0.00000130,-0.00001040,0.00001667,-0.00003124,0.00002278
 ,-0.00001584,0.00005748,0.00001691,0.00000809,-0.00025344,-0.00001711,
 -0.00000369,0.00060705,-0.00031889,0.00009709,-0.00026239,-0.00114061,
 0.00016485,-0.00557700,-0.00018170,-0.00666979,0.04456221,0.19660202,-
 0.32357679,-0.00000928,-0.00000004,0.00000112,-0.00000320,0.00000034,-
 0.00000301,0.00000228,-0.00000252,-0.00000135,0.00000187,-0.00001021,0
 .00000069,0.00000228,0.00000153,-0.00000419,-0.00001560,-0.00000253,-0
 .00000124,-0.00003092,0.00000007,-0.00000595,0.00022744,0.00049055,-0.
 00072847,0.00008383,-0.00075465,0.00263642,0.00151218,0.00016479,0.001
 79551,-0.04075850,-0.18669280,0.32686214,-0.00000178,-0.00001456,0.000
 00756,-0.00000491,0.00004354,-0.00001815,0.00001532,-0.00006159,-0.000
 14045,-0.00001579,0.00005098,0.00003314,-0.00079651,0.00113142,0.00141
 766,-0.00658690,-0.00300905,-0.00012385,-0.01998192,0.03454032,0.00239
 332,-0.15378562,0.16014405,0.02200097,-0.00000605,0.00000053,0.0000023
 7,-0.00000128,0.00000211,-0.00000119,0.00000483,-0.00000278,-0.0000004
 7,-0.00000132,-0.00001502,0.00000341,0.00000365,-0.00000024,-0.0000012
 5,-0.00000121,-0.00000553,0.00001651,-0.00009346,-0.00001049,0.0000084
 3,-0.00011573,-0.00013824,0.00006446,0.00029482,-0.00011919,-0.0007295
 5,0.00148368,-0.00051746,0.00057855,0.00240809,-0.00402906,-0.00011635
 ,0.17718206,-0.00000117,0.00001372,-0.00001398,0.00002340,-0.00001348,
 0.00001698,-0.00006511,-0.00001080,0.00000719,0.00026702,-0.00006194,0
 .00002927,-0.00056745,0.00078851,-0.00034480,0.00070812,0.00022358,-0.
 00028406,-0.01337346,0.00581296,-0.00174462,0.19230117,-0.31457562,0.0
 0955191,0.00001120,0.00000296,-0.00000421,0.00000130,-0.00000057,0.000
 00282,0.00000198,-0.00000511,0.00000136,-0.00000148,-0.00000093,0.0000
 0074,-0.00000217,-0.00000183,-0.00000115,0.00001937,-0.00000847,0.0000
 0283,0.00002133,-0.00000404,0.00000352,-0.00041444,-0.00010944,0.00062
 436,-0.00081274,-0.00011574,0.00036677,0.00011503,0.00076456,0.0002060
 4,0.00975785,-0.01694831,-0.00816755,-0.18798974,0.32424999,-0.0000033
 1,0.00002351,-0.00003748,0.00004860,-0.00003783,0.00007109,-0.00014019
 ,0.00002578,0.00002897,0.00046694,0.00010560,-0.00001515,0.00062906,-0
 .00097328,-0.00012085,0.00515047,-0.00058522,0.00013917,-0.00593533,-0
 .00837285,-0.00289478,0.04747074,-0.02127046,-0.03263660,0.00002976,0.
 00000762,-0.00001241,-0.00000140,-0.00000241,0.00000359,0.00000203,-0.
 00000455,0.00000402,-0.00000492,0.00000613,0.00000626,-0.00000465,-0.0
 0000721,-0.00001106,0.00006739,-0.00001027,-0.00002266,0.00005959,0.00
 002297,-0.00000526,-0.00055620,0.00040752,0.00056448,-0.00008260,0.000
 27526,0.00016822,0.00021911,0.00039244,-0.00016194,-0.02201998,0.03025
 067,-0.00057226,-0.02539513,-0.00025342,0.03550465\\-0.00000939,-0.000
 00038,0.00000180,0.00000841,0.00000115,-0.00000246,-0.00000420,-0.0000
 0049,0.00000077,-0.00000726,0.00000227,0.00000379,0.00000248,-0.000003
 91,-0.00000040,0.00002355,0.00000080,-0.00000636,0.00001206,0.00000350
 ,-0.00000539,-0.00001203,-0.00000556,0.00000423,0.00000269,0.00000006,
 0.00000042,0.00000099,0.00000012,0.00000030,0.00000096,-0.00000022,-0.
 00000008,-0.00000100,0.00000100,-0.00000088,-0.00000168,0.00000070,0.0
 0000020,0.00000208,-0.00000187,-0.00000077,0.00000005,-0.00000082,-0.0
 0000074,-0.00000915,0.00000290,0.00000353,-0.00000632,-0.00000306,0.00
 000032,-0.00000063,-0.00000139,0.00000459,0.00000125,0.00000316,0.0000
 0013,-0.00000285,0.00000205,-0.00000300\\\@


 IT'S WHAT A FELLER THINKS HE KNOWS THAT HURTS HIM...
                    ------
           KIN HUBBARD
 Job cpu time:       0 days  1 hours 19 minutes 41.1 seconds.
 Elapsed time:       0 days  0 hours 19 minutes 56.6 seconds.
 File lengths (MBytes):  RWF=    124 Int=      0 D2E=      0 Chk=      8 Scr=      1
 Normal termination of Gaussian 16 at Wed Aug  3 04:40:08 2022.
### All Done ###
