### Starting Gaussian ###
 Entering Gaussian System, Link 0=g16
 Initial command:
 /cluster/software/gaussian/gaussian-16-A.03/avx2/g16/l1.exe "/local/scratch/ks29c/Gau-4656.inp" -scrdir="/local/scratch/ks29c/"
 Entering Link 1 = /cluster/software/gaussian/gaussian-16-A.03/avx2/g16/l1.exe PID=      4665.
  
 Copyright (c) 1988,1990,1992,1993,1995,1998,2003,2009,2016,
            Gaussian, Inc.  All Rights Reserved.
  
 This is part of the Gaussian(R) 16 program.  It is based on
 the Gaussian(R) 09 system (copyright 2009, Gaussian, Inc.),
 the Gaussian(R) 03 system (copyright 2003, Gaussian, Inc.),
 the Gaussian(R) 98 system (copyright 1998, Gaussian, Inc.),
 the Gaussian(R) 94 system (copyright 1995, Gaussian, Inc.),
 the Gaussian 92(TM) system (copyright 1992, Gaussian, Inc.),
 the Gaussian 90(TM) system (copyright 1990, Gaussian, Inc.),
 the Gaussian 88(TM) system (copyright 1988, Gaussian, Inc.),
 the Gaussian 86(TM) system (copyright 1986, Carnegie Mellon
 University), and the Gaussian 82(TM) system (copyright 1983,
 Carnegie Mellon University). Gaussian is a federally registered
 trademark of Gaussian, Inc.
  
 This software contains proprietary and confidential information,
 including trade secrets, belonging to Gaussian, Inc.
  
 This software is provided under written license and may be
 used, copied, transmitted, or stored only in accord with that
 written license.
  
 The following legend is applicable only to US Government
 contracts under FAR:
  
                    RESTRICTED RIGHTS LEGEND
  
 Use, reproduction and disclosure by the US Government is
 subject to restrictions as set forth in subparagraphs (a)
 and (c) of the Commercial Computer Software - Restricted
 Rights clause in FAR 52.227-19.
  
 Gaussian, Inc.
 340 Quinnipiac St., Bldg. 40, Wallingford CT 06492
  
  
 ---------------------------------------------------------------
 Warning -- This program may not be used in any manner that
 competes with the business of Gaussian, Inc. or will provide
 assistance to any competitor of Gaussian, Inc.  The licensee
 of this program is prohibited from giving any competitor of
 Gaussian, Inc. access to this program.  By using this program,
 the user acknowledges that Gaussian, Inc. is engaged in the
 business of creating and licensing software in the field of
 computational chemistry and represents and warrants to the
 licensee that it is not a competitor of Gaussian, Inc. and that
 it will not use this program in any manner prohibited above.
 ---------------------------------------------------------------
  

 Cite this work as:
 Gaussian 16, Revision A.03,
 M. J. Frisch, G. W. Trucks, H. B. Schlegel, G. E. Scuseria, 
 M. A. Robb, J. R. Cheeseman, G. Scalmani, V. Barone, 
 G. A. Petersson, H. Nakatsuji, X. Li, M. Caricato, A. V. Marenich, 
 J. Bloino, B. G. Janesko, R. Gomperts, B. Mennucci, H. P. Hratchian, 
 J. V. Ortiz, A. F. Izmaylov, J. L. Sonnenberg, D. Williams-Young, 
 F. Ding, F. Lipparini, F. Egidi, J. Goings, B. Peng, A. Petrone, 
 T. Henderson, D. Ranasinghe, V. G. Zakrzewski, J. Gao, N. Rega, 
 G. Zheng, W. Liang, M. Hada, M. Ehara, K. Toyota, R. Fukuda, 
 J. Hasegawa, M. Ishida, T. Nakajima, Y. Honda, O. Kitao, H. Nakai, 
 T. Vreven, K. Throssell, J. A. Montgomery, Jr., J. E. Peralta, 
 F. Ogliaro, M. J. Bearpark, J. J. Heyd, E. N. Brothers, K. N. Kudin, 
 V. N. Staroverov, T. A. Keith, R. Kobayashi, J. Normand, 
 K. Raghavachari, A. P. Rendell, J. C. Burant, S. S. Iyengar, 
 J. Tomasi, M. Cossi, J. M. Millam, M. Klene, C. Adamo, R. Cammi, 
 J. W. Ochterski, R. L. Martin, K. Morokuma, O. Farkas, 
 J. B. Foresman, and D. J. Fox, Gaussian, Inc., Wallingford CT, 2016.
 
 ******************************************
 Gaussian 16:  ES64L-G16RevA.03 25-Dec-2016
                 3-Jul-2022 
 ******************************************
 %chk=CCCCNCCpCpdO.chk
 %NProcShared=20
 Will use up to   20 processors via shared memory.
 -----------------------------
 # opt freq b3lyp/6-31g(2df,p)
 -----------------------------
 1/18=20,19=15,26=3,38=1/1,3;
 2/9=110,12=2,17=6,18=5,40=1/2;
 3/5=1,6=6,7=104,11=2,25=1,30=1,71=1,74=-5/1,2,3;
 4//1;
 5/5=2,38=5/2;
 6/7=2,8=2,9=2,10=2,28=1/1;
 7//1,2,3,16;
 1/18=20,19=15,26=3/3(2);
 2/9=110/2;
 99//99;
 2/9=110/2;
 3/5=1,6=6,7=104,11=2,25=1,30=1,71=1,74=-5/1,2,3;
 4/5=5,16=3,69=1/1;
 5/5=2,38=5/2;
 7//1,2,3,16;
 1/18=20,19=15,26=3/3(-5);
 2/9=110/2;
 6/7=2,8=2,9=2,10=2,19=2,28=1/1;
 99/9=1/99;
 -------------------
 Title Card Required
 -------------------
 Symbolic Z-matrix:
 Charge =  0 Multiplicity = 1
 C                     1.07199   0.0077    0.03321 
 C                     2.58856   0.00624   0.03843 
 C                     3.12606  -0.51365   1.36614 
 C                     4.65111  -0.50972   1.35514 
 N                     5.12177  -1.03205   2.63081 
 C                     6.58622  -1.03752   2.68906 
 C                     7.10595  -1.54868   4.02796 
 C                     6.14889  -1.96754   5.11861 
 O                     8.32589  -1.63671   4.22123 
 H                     0.69791   0.38172  -0.92375 
 H                     0.68191   0.64859   0.83021 
 H                     0.68232  -1.00409   0.1838 
 H                     2.95681   1.02338  -0.13854 
 H                     2.95658  -0.62128  -0.78169 
 H                     2.75125  -1.53062   1.54282 
 H                     2.75428   0.11192   2.18845 
 H                     5.01572   0.5121    1.20083 
 H                     5.01684  -1.13714   0.53409 
 H                     4.77334  -1.98554   2.73534 
 H                     6.97281  -0.02044   2.55656 
 H                     6.99056  -1.68603   1.90372 
 H                     5.09928  -1.84832   4.85041 
 H                     6.32978  -1.35602   6.00521 
 H                     6.31324  -3.02463   5.34261 
 

 GradGradGradGradGradGradGradGradGradGradGradGradGradGradGradGradGradGrad
 Berny optimization.
 Initialization pass.
                           ----------------------------
                           !    Initial Parameters    !
                           ! (Angstroms and Degrees)  !
 --------------------------                            --------------------------
 ! Name  Definition              Value          Derivative Info.                !
 --------------------------------------------------------------------------------
 ! R1    R(1,2)                  1.5166         estimate D2E/DX2                !
 ! R2    R(1,10)                 1.0934         estimate D2E/DX2                !
 ! R3    R(1,11)                 1.0946         estimate D2E/DX2                !
 ! R4    R(1,12)                 1.0946         estimate D2E/DX2                !
 ! R5    R(2,3)                  1.5238         estimate D2E/DX2                !
 ! R6    R(2,13)                 1.0961         estimate D2E/DX2                !
 ! R7    R(2,14)                 1.0963         estimate D2E/DX2                !
 ! R8    R(3,4)                  1.5251         estimate D2E/DX2                !
 ! R9    R(3,15)                 1.0981         estimate D2E/DX2                !
 ! R10   R(3,16)                 1.0981         estimate D2E/DX2                !
 ! R11   R(4,5)                  1.4566         estimate D2E/DX2                !
 ! R12   R(4,17)                 1.0958         estimate D2E/DX2                !
 ! R13   R(4,18)                 1.0961         estimate D2E/DX2                !
 ! R14   R(5,6)                  1.4656         estimate D2E/DX2                !
 ! R15   R(5,19)                 1.0205         estimate D2E/DX2                !
 ! R16   R(6,7)                  1.5245         estimate D2E/DX2                !
 ! R17   R(6,20)                 1.0961         estimate D2E/DX2                !
 ! R18   R(6,21)                 1.0958         estimate D2E/DX2                !
 ! R19   R(7,8)                  1.5103         estimate D2E/DX2                !
 ! R20   R(7,9)                  1.2383         estimate D2E/DX2                !
 ! R21   R(8,22)                 1.0899         estimate D2E/DX2                !
 ! R22   R(8,23)                 1.0921         estimate D2E/DX2                !
 ! R23   R(8,24)                 1.093          estimate D2E/DX2                !
 ! A1    A(2,1,10)             110.2095         estimate D2E/DX2                !
 ! A2    A(2,1,11)             110.7584         estimate D2E/DX2                !
 ! A3    A(2,1,12)             110.7698         estimate D2E/DX2                !
 ! A4    A(10,1,11)            108.3639         estimate D2E/DX2                !
 ! A5    A(10,1,12)            108.3478         estimate D2E/DX2                !
 ! A6    A(11,1,12)            108.3103         estimate D2E/DX2                !
 ! A7    A(1,2,3)              110.8583         estimate D2E/DX2                !
 ! A8    A(1,2,13)             109.5424         estimate D2E/DX2                !
 ! A9    A(1,2,14)             109.492          estimate D2E/DX2                !
 ! A10   A(3,2,13)             109.8014         estimate D2E/DX2                !
 ! A11   A(3,2,14)             109.7622         estimate D2E/DX2                !
 ! A12   A(13,2,14)            107.3136         estimate D2E/DX2                !
 ! A13   A(2,3,4)              110.216          estimate D2E/DX2                !
 ! A14   A(2,3,15)             109.6181         estimate D2E/DX2                !
 ! A15   A(2,3,16)             109.7977         estimate D2E/DX2                !
 ! A16   A(4,3,15)             110.1725         estimate D2E/DX2                !
 ! A17   A(4,3,16)             110.0293         estimate D2E/DX2                !
 ! A18   A(15,3,16)            106.9503         estimate D2E/DX2                !
 ! A19   A(3,4,5)              108.4135         estimate D2E/DX2                !
 ! A20   A(3,4,17)             109.6413         estimate D2E/DX2                !
 ! A21   A(3,4,18)             109.7288         estimate D2E/DX2                !
 ! A22   A(5,4,17)             110.4987         estimate D2E/DX2                !
 ! A23   A(5,4,18)             110.0553         estimate D2E/DX2                !
 ! A24   A(17,4,18)            108.4959         estimate D2E/DX2                !
 ! A25   A(4,5,6)              111.0395         estimate D2E/DX2                !
 ! A26   A(4,5,19)             108.326          estimate D2E/DX2                !
 ! A27   A(6,5,19)             109.4869         estimate D2E/DX2                !
 ! A28   A(5,6,7)              112.136          estimate D2E/DX2                !
 ! A29   A(5,6,20)             110.1295         estimate D2E/DX2                !
 ! A30   A(5,6,21)             110.0241         estimate D2E/DX2                !
 ! A31   A(7,6,20)             107.2805         estimate D2E/DX2                !
 ! A32   A(7,6,21)             107.7701         estimate D2E/DX2                !
 ! A33   A(20,6,21)            109.4123         estimate D2E/DX2                !
 ! A34   A(6,7,8)              120.7432         estimate D2E/DX2                !
 ! A35   A(6,7,9)              119.7875         estimate D2E/DX2                !
 ! A36   A(8,7,9)              119.4643         estimate D2E/DX2                !
 ! A37   A(7,8,22)             113.7183         estimate D2E/DX2                !
 ! A38   A(7,8,23)             109.0262         estimate D2E/DX2                !
 ! A39   A(7,8,24)             108.72           estimate D2E/DX2                !
 ! A40   A(22,8,23)            107.3396         estimate D2E/DX2                !
 ! A41   A(22,8,24)            107.5201         estimate D2E/DX2                !
 ! A42   A(23,8,24)            110.5035         estimate D2E/DX2                !
 ! D1    D(10,1,2,3)          -179.9636         estimate D2E/DX2                !
 ! D2    D(10,1,2,13)           58.7092         estimate D2E/DX2                !
 ! D3    D(10,1,2,14)          -58.7187         estimate D2E/DX2                !
 ! D4    D(11,1,2,3)            60.132          estimate D2E/DX2                !
 ! D5    D(11,1,2,13)          -61.1953         estimate D2E/DX2                !
 ! D6    D(11,1,2,14)         -178.6231         estimate D2E/DX2                !
 ! D7    D(12,1,2,3)           -60.0719         estimate D2E/DX2                !
 ! D8    D(12,1,2,13)          178.6008         estimate D2E/DX2                !
 ! D9    D(12,1,2,14)           61.173          estimate D2E/DX2                !
 ! D10   D(1,2,3,4)            179.964          estimate D2E/DX2                !
 ! D11   D(1,2,3,15)            58.5384         estimate D2E/DX2                !
 ! D12   D(1,2,3,16)           -58.6722         estimate D2E/DX2                !
 ! D13   D(13,2,3,4)           -58.8614         estimate D2E/DX2                !
 ! D14   D(13,2,3,15)          179.7131         estimate D2E/DX2                !
 ! D15   D(13,2,3,16)           62.5025         estimate D2E/DX2                !
 ! D16   D(14,2,3,4)            58.8784         estimate D2E/DX2                !
 ! D17   D(14,2,3,15)          -62.5472         estimate D2E/DX2                !
 ! D18   D(14,2,3,16)         -179.7577         estimate D2E/DX2                !
 ! D19   D(2,3,4,5)           -179.1187         estimate D2E/DX2                !
 ! D20   D(2,3,4,17)            60.1708         estimate D2E/DX2                !
 ! D21   D(2,3,4,18)           -58.896          estimate D2E/DX2                !
 ! D22   D(15,3,4,5)           -58.0237         estimate D2E/DX2                !
 ! D23   D(15,3,4,17)         -178.7342         estimate D2E/DX2                !
 ! D24   D(15,3,4,18)           62.199          estimate D2E/DX2                !
 ! D25   D(16,3,4,5)            59.6554         estimate D2E/DX2                !
 ! D26   D(16,3,4,17)          -61.0551         estimate D2E/DX2                !
 ! D27   D(16,3,4,18)          179.8781         estimate D2E/DX2                !
 ! D28   D(3,4,5,6)           -179.2665         estimate D2E/DX2                !
 ! D29   D(3,4,5,19)            60.4737         estimate D2E/DX2                !
 ! D30   D(17,4,5,6)           -59.0889         estimate D2E/DX2                !
 ! D31   D(17,4,5,19)         -179.3487         estimate D2E/DX2                !
 ! D32   D(18,4,5,6)            60.7146         estimate D2E/DX2                !
 ! D33   D(18,4,5,19)          -59.5452         estimate D2E/DX2                !
 ! D34   D(4,5,6,7)            178.623          estimate D2E/DX2                !
 ! D35   D(4,5,6,20)            59.2395         estimate D2E/DX2                !
 ! D36   D(4,5,6,21)           -61.4473         estimate D2E/DX2                !
 ! D37   D(19,5,6,7)           -61.8083         estimate D2E/DX2                !
 ! D38   D(19,5,6,20)          178.8082         estimate D2E/DX2                !
 ! D39   D(19,5,6,21)           58.1215         estimate D2E/DX2                !
 ! D40   D(5,6,7,8)             -0.5591         estimate D2E/DX2                !
 ! D41   D(5,6,7,9)            178.6293         estimate D2E/DX2                !
 ! D42   D(20,6,7,8)           120.4812         estimate D2E/DX2                !
 ! D43   D(20,6,7,9)           -60.3304         estimate D2E/DX2                !
 ! D44   D(21,6,7,8)          -121.7945         estimate D2E/DX2                !
 ! D45   D(21,6,7,9)            57.3939         estimate D2E/DX2                !
 ! D46   D(6,7,8,22)            -0.9935         estimate D2E/DX2                !
 ! D47   D(6,7,8,23)          -120.7192         estimate D2E/DX2                !
 ! D48   D(6,7,8,24)           118.7464         estimate D2E/DX2                !
 ! D49   D(9,7,8,22)           179.8155         estimate D2E/DX2                !
 ! D50   D(9,7,8,23)            60.0898         estimate D2E/DX2                !
 ! D51   D(9,7,8,24)           -60.4446         estimate D2E/DX2                !
 --------------------------------------------------------------------------------
 Trust Radius=3.00D-01 FncErr=1.00D-07 GrdErr=1.00D-06 EigMax=2.50D+02 EigMin=1.00D-04
 Number of steps in this run=    126 maximum allowed number of steps=    144.
 GradGradGradGradGradGradGradGradGradGradGradGradGradGradGradGradGradGrad

                          Input orientation:                          
 ---------------------------------------------------------------------
 Center     Atomic      Atomic             Coordinates (Angstroms)
 Number     Number       Type             X           Y           Z
 ---------------------------------------------------------------------
      1          6           0        1.071990    0.007700    0.033210
      2          6           0        2.588560    0.006240    0.038430
      3          6           0        3.126060   -0.513650    1.366140
      4          6           0        4.651110   -0.509720    1.355140
      5          7           0        5.121770   -1.032050    2.630810
      6          6           0        6.586220   -1.037520    2.689060
      7          6           0        7.105950   -1.548680    4.027960
      8          6           0        6.148890   -1.967540    5.118610
      9          8           0        8.325890   -1.636710    4.221230
     10          1           0        0.697910    0.381720   -0.923750
     11          1           0        0.681910    0.648590    0.830210
     12          1           0        0.682320   -1.004090    0.183800
     13          1           0        2.956810    1.023380   -0.138540
     14          1           0        2.956580   -0.621280   -0.781690
     15          1           0        2.751250   -1.530620    1.542820
     16          1           0        2.754280    0.111920    2.188450
     17          1           0        5.015720    0.512100    1.200830
     18          1           0        5.016840   -1.137140    0.534090
     19          1           0        4.773340   -1.985540    2.735340
     20          1           0        6.972810   -0.020440    2.556560
     21          1           0        6.990560   -1.686030    1.903720
     22          1           0        5.099280   -1.848320    4.850410
     23          1           0        6.329780   -1.356020    6.005210
     24          1           0        6.313240   -3.024630    5.342610
 ---------------------------------------------------------------------
                    Distance matrix (angstroms):
                    1          2          3          4          5
     1  C    0.000000
     2  C    1.516580   0.000000
     3  C    2.503540   1.523813   0.000000
     4  C    3.850367   2.500810   1.525095   0.000000
     5  N    4.922329   3.770362   2.418881   1.456600   0.000000
     6  C    6.209087   4.908825   3.741292   2.408852   1.465618
     7  C    7.401961   6.224222   4.898581   3.774870   2.481110
     8  C    7.452367   6.509991   5.033123   4.304915   2.849433
     9  O    8.535963   7.287802   6.037469   4.794641   3.627869
    10  H    1.093435   2.154375   3.455604   4.649279   5.848434
    11  H    1.094583   2.162139   2.758966   4.167947   5.077309
    12  H    1.094641   2.162325   2.758682   4.167461   5.069256
    13  H    2.147941   1.096130   2.157584   2.729859   4.071995
    14  H    2.147407   1.096274   2.157193   2.729454   4.062257
    15  H    2.732264   2.156756   1.098147   2.164932   2.655496
    16  H    2.736059   2.158985   1.098067   2.163055   2.666338
    17  H    4.143762   2.738279   2.156457   1.095841   2.107247
    18  H    4.138041   2.729385   2.157799   1.096147   2.101973
    19  H    4.997450   4.001721   2.598981   2.024336   1.020526
    20  H    6.417769   5.056020   4.056827   2.659529   2.110738
    21  H    6.434050   5.071557   4.074043   2.675383   2.109200
    22  H    6.547464   5.735700   4.220791   3.769565   2.365043
    23  H    8.072724   7.173210   5.700384   5.015706   3.598725
    24  H    8.053288   7.154980   5.681149   4.998736   3.569851
                    6          7          8          9         10
     6  C    0.000000
     7  C    1.524486   0.000000
     8  C    2.637974   1.510273   0.000000
     9  O    2.394374   1.238288   2.377828   0.000000
    10  H    7.052576   8.325194   8.470084   9.419711   0.000000
    11  H    6.415541   7.504791   7.424445   8.669028   1.774218
    12  H    6.413539   7.505809   7.427245   8.667480   1.774086
    13  H    5.041354   6.417989   6.839050   7.410175   2.476068
    14  H    5.039211   6.419507   6.842280   7.408765   2.475435
    15  H    4.032866   5.013946   4.951882   6.185608   3.735936
    16  H    4.031822   5.007836   4.943012   6.183263   3.739952
    17  H    2.661319   4.075358   4.773017   4.969650   4.813972
    18  H    2.667728   4.091561   4.794677   4.979396   4.804726
    19  H    2.046318   2.702366   2.751806   3.866544   5.966740
    20  H    1.096111   2.125620   3.321768   2.685941   7.186700
    21  H    1.095817   2.131801   3.335142   2.675143   7.201918
    22  H    2.745873   2.189277   1.089874   3.294186   7.595134
    23  H    3.341265   2.132856   1.092125   2.691807   9.096603
    24  H    3.326327   2.129583   1.092990   2.689717   9.077578
                   11         12         13         14         15
    11  H    0.000000
    12  H    1.774598   0.000000
    13  H    2.500823   3.063959   0.000000
    14  H    3.063481   2.500195   1.765941   0.000000
    15  H    3.088517   2.530739   3.064660   2.504477   0.000000
    16  H    2.535261   3.091459   2.507321   3.065981   1.764875
    17  H    4.351770   4.702291   2.508870   3.074897   3.068792
    18  H    4.697674   4.350686   3.060066   2.498411   2.511028
    19  H    5.225702   4.920370   4.540107   4.187042   2.391214
    20  H    6.557691   6.794691   4.947866   5.256903   4.596725
    21  H    6.811897   6.573968   5.270946   4.961664   4.257482
    22  H    6.473772   6.480703   6.142187   6.149581   4.068701
    23  H    7.918177   8.118280   7.401631   7.614482   5.722699
    24  H    8.097294   7.899567   7.595723   7.385818   5.418325
                   16         17         18         19         20
    16  H    0.000000
    17  H    2.499930   0.000000
    18  H    3.068589   1.778914   0.000000
    19  H    2.962268   2.941373   2.371619   0.000000
    20  H    4.236628   2.439632   3.027082   2.954869   0.000000
    21  H    4.610831   3.037404   2.464292   2.386915   1.789051
    22  H    4.053097   4.347183   4.375293   2.144432   3.480375
    23  H    5.432007   5.319652   5.630708   3.675711   3.753725
    24  H    5.696742   5.598782   5.325893   3.201384   4.149972
                   21         22         23         24
    21  H    0.000000
    22  H    3.505176   0.000000
    23  H    4.167464   1.757855   0.000000
    24  H    3.751876   1.760587   1.795431   0.000000
 Stoichiometry    C7H15NO
 Framework group  C1[X(C7H15NO)]
 Deg. of freedom    66
 Full point group                 C1      NOp   1
 Largest Abelian subgroup         C1      NOp   1
 Largest concise Abelian subgroup C1      NOp   1
                         Standard orientation:                         
 ---------------------------------------------------------------------
 Center     Atomic      Atomic             Coordinates (Angstroms)
 Number     Number       Type             X           Y           Z
 ---------------------------------------------------------------------
      1          6           0       -4.498275    0.510382   -0.015107
      2          6           0       -3.326500   -0.452385   -0.008808
      3          6           0       -2.003310    0.303352   -0.014614
      4          6           0       -0.835885   -0.677963   -0.007283
      5          7           0        0.405489    0.083901    0.008129
      6          6           0        1.569524   -0.806584   -0.001704
      7          6           0        2.883636   -0.034033   -0.019840
      8          6           0        2.891218    1.476105   -0.038570
      9          8           0        3.958664   -0.648379   -0.004036
     10          1           0       -5.441548   -0.042621   -0.010216
     11          1           0       -4.474772    1.144263   -0.907157
     12          1           0       -4.473680    1.157554    0.867391
     13          1           0       -3.384501   -1.106292   -0.886613
     14          1           0       -3.383832   -1.092571    0.879274
     15          1           0       -1.950575    0.961186    0.863111
     16          1           0       -1.947121    0.948062   -0.901712
     17          1           0       -0.884327   -1.314702   -0.897837
     18          1           0       -0.895557   -1.317383    0.881040
     19          1           0        0.420948    0.655089    0.853693
     20          1           0        1.552065   -1.440387   -0.895823
     21          1           0        1.565701   -1.439032    0.893176
     22          1           0        1.895673    1.919333   -0.054855
     23          1           0        3.414606    1.818438   -0.933897
     24          1           0        3.396736    1.835548    0.861363
 ---------------------------------------------------------------------
 Rotational constants (GHZ):           5.6979031           0.4776146           0.4487581
 Standard basis: 6-31G(2df,p) (6D, 7F)
 There are   354 symmetry adapted cartesian basis functions of A   symmetry.
 There are   327 symmetry adapted basis functions of A   symmetry.
   327 basis functions,   501 primitive gaussians,   354 cartesian basis functions
    36 alpha electrons       36 beta electrons
       nuclear repulsion energy       445.6225191606 Hartrees.
 NAtoms=   24 NActive=   24 NUniq=   24 SFac= 1.00D+00 NAtFMM=   60 NAOKFM=F Big=F
 Integral buffers will be    131072 words long.
 Raffenetti 2 integral format.
 Two-electron integral symmetry is turned on.
 One-electron integrals computed using PRISM.
 PrsmSu:  requested number of processors reduced to:  13 ShMem   1 Linda.
 NBasis=   327 RedAO= T EigKep=  3.32D-04  NBF=   327
 NBsUse=   327 1.00D-06 EigRej= -1.00D+00 NBFU=   327
 ExpMin= 1.61D-01 ExpMax= 5.48D+03 ExpMxC= 8.25D+02 IAcc=3 IRadAn=         5 AccDes= 0.00D+00
 Harris functional with IExCor=  402 and IRadAn=       5 diagonalized for initial guess.
 HarFok:  IExCor=  402 AccDes= 0.00D+00 IRadAn=         5 IDoV= 1 UseB2=F ITyADJ=14
 ICtDFT=  3500011 ScaDFX=  1.000000  1.000000  1.000000  1.000000
 FoFCou: FMM=F IPFlag=           0 FMFlag=      100000 FMFlg1=           0
         NFxFlg=           0 DoJE=T BraDBF=F KetDBF=T FulRan=T
         wScrn=  0.000000 ICntrl=       500 IOpCl=  0 I1Cent=   200000004 NGrid=           0
         NMat0=    1 NMatS0=      1 NMatT0=    0 NMatD0=    1 NMtDS0=    0 NMtDT0=    0
 Petite list used in FoFCou.
 Requested convergence on RMS density matrix=1.00D-08 within 128 cycles.
 Requested convergence on MAX density matrix=1.00D-06.
 Requested convergence on             energy=1.00D-06.
 No special actions if energy rises.
 Integral accuracy reduced to 1.0D-05 until final iterations.
 Initial convergence to 1.0D-05 achieved.  Increase integral accuracy.
 SCF Done:  E(RB3LYP) =  -405.771386395     A.U. after   13 cycles
            NFock= 13  Conv=0.57D-08     -V/T= 2.0080

 **********************************************************************

            Population analysis using the SCF density.

 **********************************************************************

 Orbital symmetries:
       Occupied  (A) (A) (A) (A) (A) (A) (A) (A) (A) (A) (A) (A)
                 (A) (A) (A) (A) (A) (A) (A) (A) (A) (A) (A) (A)
                 (A) (A) (A) (A) (A) (A) (A) (A) (A) (A) (A) (A)
       Virtual   (A) (A) (A) (A) (A) (A) (A) (A) (A) (A) (A) (A)
                 (A) (A) (A) (A) (A) (A) (A) (A) (A) (A) (A) (A)
                 (A) (A) (A) (A) (A) (A) (A) (A) (A) (A) (A) (A)
                 (A) (A) (A) (A) (A) (A) (A) (A) (A) (A) (A) (A)
                 (A) (A) (A) (A) (A) (A) (A) (A) (A) (A) (A) (A)
                 (A) (A) (A) (A) (A) (A) (A) (A) (A) (A) (A) (A)
                 (A) (A) (A) (A) (A) (A) (A) (A) (A) (A) (A) (A)
                 (A) (A) (A) (A) (A) (A) (A) (A) (A) (A) (A) (A)
                 (A) (A) (A) (A) (A) (A) (A) (A) (A) (A) (A) (A)
                 (A) (A) (A) (A) (A) (A) (A) (A) (A) (A) (A) (A)
                 (A) (A) (A) (A) (A) (A) (A) (A) (A) (A) (A) (A)
                 (A) (A) (A) (A) (A) (A) (A) (A) (A) (A) (A) (A)
                 (A) (A) (A) (A) (A) (A) (A) (A) (A) (A) (A) (A)
                 (A) (A) (A) (A) (A) (A) (A) (A) (A) (A) (A) (A)
                 (A) (A) (A) (A) (A) (A) (A) (A) (A) (A) (A) (A)
                 (A) (A) (A) (A) (A) (A) (A) (A) (A) (A) (A) (A)
                 (A) (A) (A) (A) (A) (A) (A) (A) (A) (A) (A) (A)
                 (A) (A) (A) (A) (A) (A) (A) (A) (A) (A) (A) (A)
                 (A) (A) (A) (A) (A) (A) (A) (A) (A) (A) (A) (A)
                 (A) (A) (A) (A) (A) (A) (A) (A) (A) (A) (A) (A)
                 (A) (A) (A) (A) (A) (A) (A) (A) (A) (A) (A) (A)
                 (A) (A) (A) (A) (A) (A) (A) (A) (A) (A) (A) (A)
                 (A) (A) (A) (A) (A) (A) (A) (A) (A) (A) (A) (A)
                 (A) (A) (A) (A) (A) (A) (A) (A) (A) (A) (A) (A)
                 (A) (A) (A)
 The electronic state is 1-A.
 Alpha  occ. eigenvalues --  -19.11927 -14.32047 -10.26847 -10.21434 -10.20640
 Alpha  occ. eigenvalues --  -10.18198 -10.18027 -10.17984 -10.17293  -1.01731
 Alpha  occ. eigenvalues --   -0.91351  -0.79887  -0.75091  -0.71937  -0.67744
 Alpha  occ. eigenvalues --   -0.61755  -0.58563  -0.53271  -0.49947  -0.47213
 Alpha  occ. eigenvalues --   -0.46252  -0.45899  -0.43585  -0.42115  -0.41176
 Alpha  occ. eigenvalues --   -0.40696  -0.39409  -0.38040  -0.37272  -0.35839
 Alpha  occ. eigenvalues --   -0.34089  -0.33259  -0.32843  -0.32346  -0.24157
 Alpha  occ. eigenvalues --   -0.22924
 Alpha virt. eigenvalues --   -0.01928   0.07130   0.08881   0.10222   0.11994
 Alpha virt. eigenvalues --    0.12828   0.13971   0.15009   0.16394   0.16534
 Alpha virt. eigenvalues --    0.17320   0.18276   0.18836   0.19384   0.19910
 Alpha virt. eigenvalues --    0.20231   0.20461   0.21807   0.23195   0.24151
 Alpha virt. eigenvalues --    0.25456   0.28725   0.32050   0.33315   0.41797
 Alpha virt. eigenvalues --    0.45262   0.45930   0.49045   0.50216   0.51606
 Alpha virt. eigenvalues --    0.51966   0.52582   0.53706   0.55710   0.56548
 Alpha virt. eigenvalues --    0.57651   0.58324   0.59134   0.60434   0.61502
 Alpha virt. eigenvalues --    0.62642   0.63753   0.66341   0.68071   0.69873
 Alpha virt. eigenvalues --    0.70189   0.71827   0.72310   0.73543   0.73695
 Alpha virt. eigenvalues --    0.74631   0.75413   0.75786   0.76308   0.78384
 Alpha virt. eigenvalues --    0.78859   0.79057   0.79719   0.80804   0.81936
 Alpha virt. eigenvalues --    0.83493   0.84133   0.84956   0.87404   0.88457
 Alpha virt. eigenvalues --    0.89723   0.91130   0.94225   0.96784   0.98078
 Alpha virt. eigenvalues --    1.00012   1.02519   1.03336   1.06962   1.10610
 Alpha virt. eigenvalues --    1.13437   1.17958   1.19074   1.19719   1.20884
 Alpha virt. eigenvalues --    1.24328   1.26110   1.27770   1.31051   1.33114
 Alpha virt. eigenvalues --    1.33665   1.33715   1.35348   1.37155   1.37939
 Alpha virt. eigenvalues --    1.41248   1.47006   1.47612   1.48467   1.50447
 Alpha virt. eigenvalues --    1.52148   1.54508   1.55461   1.56934   1.58867
 Alpha virt. eigenvalues --    1.60806   1.61954   1.68204   1.71004   1.72183
 Alpha virt. eigenvalues --    1.73280   1.77784   1.78595   1.79514   1.82835
 Alpha virt. eigenvalues --    1.83880   1.86139   1.88494   1.89174   1.92968
 Alpha virt. eigenvalues --    1.94327   1.96027   1.96315   1.97561   2.02726
 Alpha virt. eigenvalues --    2.06620   2.10417   2.14420   2.18500   2.19374
 Alpha virt. eigenvalues --    2.21020   2.23482   2.29102   2.30983   2.32232
 Alpha virt. eigenvalues --    2.34422   2.35432   2.40640   2.42125   2.45686
 Alpha virt. eigenvalues --    2.47456   2.48896   2.52630   2.56061   2.57348
 Alpha virt. eigenvalues --    2.60435   2.66189   2.67861   2.69429   2.73559
 Alpha virt. eigenvalues --    2.74778   2.76776   2.77107   2.80228   2.81486
 Alpha virt. eigenvalues --    2.82738   2.83927   2.85091   2.87238   2.88224
 Alpha virt. eigenvalues --    2.89342   2.90725   2.91492   2.91681   2.93504
 Alpha virt. eigenvalues --    2.94794   2.96006   2.97921   2.99697   3.01171
 Alpha virt. eigenvalues --    3.05143   3.07697   3.08557   3.10360   3.15572
 Alpha virt. eigenvalues --    3.16074   3.17089   3.19081   3.23668   3.27478
 Alpha virt. eigenvalues --    3.27992   3.30805   3.31916   3.33124   3.36078
 Alpha virt. eigenvalues --    3.38125   3.41794   3.46606   3.47563   3.48091
 Alpha virt. eigenvalues --    3.51683   3.53802   3.56794   3.57505   3.58835
 Alpha virt. eigenvalues --    3.61570   3.64255   3.66020   3.67040   3.69563
 Alpha virt. eigenvalues --    3.72077   3.74325   3.75305   3.77001   3.78004
 Alpha virt. eigenvalues --    3.80499   3.81939   3.84002   3.86735   3.93110
 Alpha virt. eigenvalues --    3.99419   4.01094   4.06434   4.08929   4.12125
 Alpha virt. eigenvalues --    4.13740   4.18145   4.18669   4.26655   4.27879
 Alpha virt. eigenvalues --    4.30627   4.38526   4.39360   4.40094   4.43088
 Alpha virt. eigenvalues --    4.44842   4.45494   4.47136   4.48398   4.49350
 Alpha virt. eigenvalues --    4.50103   4.51814   4.52545   4.53863   4.54351
 Alpha virt. eigenvalues --    4.56055   4.58846   4.60112   4.61432   4.62168
 Alpha virt. eigenvalues --    4.62769   4.64530   4.64964   4.67645   4.68731
 Alpha virt. eigenvalues --    4.70412   4.72530   4.74406   4.75573   4.77026
 Alpha virt. eigenvalues --    4.77326   4.80645   4.81347   4.81897   4.85644
 Alpha virt. eigenvalues --    4.87057   4.88693   4.90680   4.93316   4.94211
 Alpha virt. eigenvalues --    4.94591   4.97328   5.01664   5.04215   5.06939
 Alpha virt. eigenvalues --    5.10232   5.12990   5.19915   5.24349   5.27114
 Alpha virt. eigenvalues --    5.30394   5.36738   5.40746   5.44831   5.48262
 Alpha virt. eigenvalues --    5.49386   5.52354   5.55194   5.64938   5.70155
 Alpha virt. eigenvalues --    5.76509   5.82545   6.00730   6.34035   6.44669
 Alpha virt. eigenvalues --    6.82515  10.64624  10.93895  11.28182  11.57273
 Alpha virt. eigenvalues --   11.73834  11.83996  12.09171  12.30115  13.08753
 Alpha virt. eigenvalues --   14.99822
          Condensed to atoms (all electrons):
               1          2          3          4          5          6
     1  C    4.947497   0.411394  -0.036658   0.001974  -0.000084   0.000000
     2  C    0.411394   4.779607   0.406367  -0.037653   0.003009  -0.000190
     3  C   -0.036658   0.406367   4.815015   0.433587  -0.038827   0.002063
     4  C    0.001974  -0.037653   0.433587   4.818100   0.371295  -0.056718
     5  N   -0.000084   0.003009  -0.038827   0.371295   6.471110   0.296980
     6  C    0.000000  -0.000190   0.002063  -0.056718   0.296980   5.184933
     7  C   -0.000000   0.000001  -0.000119   0.002072  -0.024097   0.349722
     8  C    0.000000  -0.000000   0.000038   0.000499   0.001103  -0.118914
     9  O    0.000000  -0.000000   0.000000  -0.000049   0.001902  -0.067063
    10  H    0.372220  -0.022687   0.003383  -0.000173   0.000001  -0.000000
    11  H    0.379357  -0.029208  -0.004084   0.000214   0.000001   0.000000
    12  H    0.379244  -0.028983  -0.005052   0.000209   0.000004   0.000000
    13  H   -0.035783   0.373598  -0.034701  -0.002815   0.000137   0.000011
    14  H   -0.036030   0.371482  -0.033894  -0.002489   0.000101   0.000012
    15  H   -0.002865  -0.034408   0.365360  -0.034359  -0.002550   0.000147
    16  H   -0.002779  -0.031770   0.362490  -0.028580   0.005058   0.000234
    17  H   -0.000022  -0.005661  -0.020141   0.357606  -0.021487  -0.003635
    18  H    0.000053   0.002404  -0.041445   0.351280  -0.038943  -0.002591
    19  H    0.000007  -0.000421  -0.000159  -0.046306   0.333259  -0.049912
    20  H    0.000000  -0.000008   0.000279  -0.004308  -0.021599   0.346342
    21  H    0.000000   0.000049   0.000071  -0.004162  -0.041175   0.338990
    22  H   -0.000000   0.000003   0.000024  -0.000504   0.015934  -0.001023
    23  H   -0.000000  -0.000000  -0.000001  -0.000015   0.000007   0.004616
    24  H   -0.000000   0.000000  -0.000000  -0.000023   0.000296   0.004124
               7          8          9         10         11         12
     1  C   -0.000000   0.000000   0.000000   0.372220   0.379357   0.379244
     2  C    0.000001  -0.000000  -0.000000  -0.022687  -0.029208  -0.028983
     3  C   -0.000119   0.000038   0.000000   0.003383  -0.004084  -0.005052
     4  C    0.002072   0.000499  -0.000049  -0.000173   0.000214   0.000209
     5  N   -0.024097   0.001103   0.001902   0.000001   0.000001   0.000004
     6  C    0.349722  -0.118914  -0.067063  -0.000000   0.000000   0.000000
     7  C    4.280884   0.349815   0.742151   0.000000   0.000000   0.000000
     8  C    0.349815   5.222145  -0.065346  -0.000000   0.000000  -0.000000
     9  O    0.742151  -0.065346   7.722068  -0.000000  -0.000000  -0.000000
    10  H    0.000000  -0.000000  -0.000000   0.607012  -0.031638  -0.031618
    11  H    0.000000   0.000000  -0.000000  -0.031638   0.599171  -0.033337
    12  H    0.000000  -0.000000  -0.000000  -0.031618  -0.033337   0.601810
    13  H    0.000000  -0.000000  -0.000000  -0.002372  -0.004543   0.005692
    14  H    0.000000  -0.000000  -0.000000  -0.002422   0.005713  -0.004529
    15  H    0.000016  -0.000012  -0.000000  -0.000050  -0.000426   0.005096
    16  H    0.000006  -0.000020   0.000000  -0.000036   0.004895  -0.000390
    17  H    0.000287  -0.000017  -0.000002   0.000004   0.000007   0.000009
    18  H    0.000053  -0.000001   0.000003   0.000009   0.000005   0.000008
    19  H    0.001589   0.003652  -0.000035  -0.000000   0.000001  -0.000002
    20  H   -0.006586   0.003723  -0.001091  -0.000000   0.000000  -0.000000
    21  H   -0.020347   0.005840   0.000851   0.000000  -0.000000   0.000000
    22  H   -0.011201   0.339379   0.003228   0.000000  -0.000000   0.000000
    23  H   -0.012965   0.366095  -0.001591   0.000000   0.000000  -0.000000
    24  H   -0.016133   0.361955  -0.001767   0.000000  -0.000000   0.000000
              13         14         15         16         17         18
     1  C   -0.035783  -0.036030  -0.002865  -0.002779  -0.000022   0.000053
     2  C    0.373598   0.371482  -0.034408  -0.031770  -0.005661   0.002404
     3  C   -0.034701  -0.033894   0.365360   0.362490  -0.020141  -0.041445
     4  C   -0.002815  -0.002489  -0.034359  -0.028580   0.357606   0.351280
     5  N    0.000137   0.000101  -0.002550   0.005058  -0.021487  -0.038943
     6  C    0.000011   0.000012   0.000147   0.000234  -0.003635  -0.002591
     7  C    0.000000   0.000000   0.000016   0.000006   0.000287   0.000053
     8  C   -0.000000  -0.000000  -0.000012  -0.000020  -0.000017  -0.000001
     9  O   -0.000000  -0.000000  -0.000000   0.000000  -0.000002   0.000003
    10  H   -0.002372  -0.002422  -0.000050  -0.000036   0.000004   0.000009
    11  H   -0.004543   0.005713  -0.000426   0.004895   0.000007   0.000005
    12  H    0.005692  -0.004529   0.005096  -0.000390   0.000009   0.000008
    13  H    0.641597  -0.041455   0.006255  -0.005475   0.004702  -0.000453
    14  H   -0.041455   0.643914  -0.005652   0.006116  -0.000509   0.005357
    15  H    0.006255  -0.005652   0.653465  -0.042288   0.005886  -0.006158
    16  H   -0.005475   0.006116  -0.042288   0.627459  -0.006296   0.006724
    17  H    0.004702  -0.000509   0.005886  -0.006296   0.624068  -0.052406
    18  H   -0.000453   0.005357  -0.006158   0.006724  -0.052406   0.694807
    19  H    0.000017   0.000001   0.006168  -0.000739   0.006965  -0.008879
    20  H   -0.000004   0.000000   0.000007  -0.000021   0.006148  -0.001695
    21  H    0.000001  -0.000001  -0.000023   0.000035  -0.001798   0.013041
    22  H    0.000000   0.000000  -0.000007   0.000114  -0.000039   0.000130
    23  H    0.000000   0.000000   0.000000   0.000000   0.000002  -0.000000
    24  H    0.000000   0.000000  -0.000000   0.000000  -0.000001   0.000004
              19         20         21         22         23         24
     1  C    0.000007   0.000000   0.000000  -0.000000  -0.000000  -0.000000
     2  C   -0.000421  -0.000008   0.000049   0.000003  -0.000000   0.000000
     3  C   -0.000159   0.000279   0.000071   0.000024  -0.000001  -0.000000
     4  C   -0.046306  -0.004308  -0.004162  -0.000504  -0.000015  -0.000023
     5  N    0.333259  -0.021599  -0.041175   0.015934   0.000007   0.000296
     6  C   -0.049912   0.346342   0.338990  -0.001023   0.004616   0.004124
     7  C    0.001589  -0.006586  -0.020347  -0.011201  -0.012965  -0.016133
     8  C    0.003652   0.003723   0.005840   0.339379   0.366095   0.361955
     9  O   -0.000035  -0.001091   0.000851   0.003228  -0.001591  -0.001767
    10  H   -0.000000  -0.000000   0.000000   0.000000   0.000000   0.000000
    11  H    0.000001   0.000000  -0.000000  -0.000000   0.000000  -0.000000
    12  H   -0.000002  -0.000000   0.000000   0.000000  -0.000000   0.000000
    13  H    0.000017  -0.000004   0.000001   0.000000   0.000000   0.000000
    14  H    0.000001   0.000000  -0.000001   0.000000   0.000000   0.000000
    15  H    0.006168   0.000007  -0.000023  -0.000007   0.000000  -0.000000
    16  H   -0.000739  -0.000021   0.000035   0.000114   0.000000   0.000000
    17  H    0.006965   0.006148  -0.001798  -0.000039   0.000002  -0.000001
    18  H   -0.008879  -0.001695   0.013041   0.000130  -0.000000   0.000004
    19  H    0.541374   0.006244  -0.007630  -0.002066  -0.000078  -0.000163
    20  H    0.006244   0.569289  -0.036578  -0.000276  -0.000304  -0.000059
    21  H   -0.007630  -0.036578   0.638686   0.000833  -0.000048  -0.000187
    22  H   -0.002066  -0.000276   0.000833   0.579280  -0.027391  -0.029406
    23  H   -0.000078  -0.000304  -0.000048  -0.027391   0.536071  -0.018116
    24  H   -0.000163  -0.000059  -0.000187  -0.029406  -0.018116   0.553355
 Mulliken charges:
               1
     1  C   -0.377526
     2  C   -0.156924
     3  C   -0.173595
     4  C   -0.118683
     5  N   -0.311434
     6  C   -0.228127
     7  C    0.364853
     8  C   -0.469934
     9  O   -0.333260
    10  H    0.108367
    11  H    0.113871
    12  H    0.111840
    13  H    0.095592
    14  H    0.094284
    15  H    0.086399
    16  H    0.105265
    17  H    0.106331
    18  H    0.078694
    19  H    0.217113
    20  H    0.140494
    21  H    0.113553
    22  H    0.132987
    23  H    0.153719
    24  H    0.146120
 Sum of Mulliken charges =  -0.00000
 Mulliken charges with hydrogens summed into heavy atoms:
               1
     1  C   -0.043448
     2  C    0.032952
     3  C    0.018068
     4  C    0.066341
     5  N   -0.094321
     6  C    0.025921
     7  C    0.364853
     8  C   -0.037108
     9  O   -0.333260
 Electronic spatial extent (au):  <R**2>=           2468.5716
 Charge=              0.0000 electrons
 Dipole moment (field-independent basis, Debye):
    X=             -2.8215    Y=              0.9296    Z=              0.6814  Tot=              3.0478
 Quadrupole moment (field-independent basis, Debye-Ang):
   XX=            -72.5173   YY=            -56.6572   ZZ=            -54.6293
   XY=              6.2884   XZ=              0.2584   YZ=              1.3412
 Traceless Quadrupole moment (field-independent basis, Debye-Ang):
   XX=            -11.2493   YY=              4.6107   ZZ=              6.6386
   XY=              6.2884   XZ=              0.2584   YZ=              1.3412
 Octapole moment (field-independent basis, Debye-Ang**2):
  XXX=            -57.9609  YYY=             -0.4595  ZZZ=              0.4442  XYY=              6.1783
  XXY=             22.0918  XXZ=             -1.6951  XZZ=              8.5164  YZZ=             -0.1507
  YYZ=             -0.3495  XYZ=              0.3179
 Hexadecapole moment (field-independent basis, Debye-Ang**3):
 XXXX=          -3245.9445 YYYY=           -308.0822 ZZZZ=            -96.8173 XXXY=            111.4933
 XXXZ=             -2.4116 YYYX=             -2.3062 YYYZ=              2.1191 ZZZX=              0.1765
 ZZZY=              1.7240 XXYY=           -532.0694 XXZZ=           -473.7638 YYZZ=            -61.0090
 XXYZ=             -0.0164 YYXZ=             -0.5076 ZZXY=             -1.1053
 N-N= 4.456225191606D+02 E-N=-1.834281703799D+03  KE= 4.025616555072D+02
 PrsmSu:  requested number of processors reduced to:  13 ShMem   1 Linda.
 Calling FoFJK, ICntrl=      2127 FMM=F ISym2X=0 I1Cent= 0 IOpClX= 0 NMat=1 NMatS=1 NMatT=0.
 ***** Axes restored to original set *****
 -------------------------------------------------------------------
 Center     Atomic                   Forces (Hartrees/Bohr)
 Number     Number              X              Y              Z
 -------------------------------------------------------------------
      1        6          -0.004532941    0.002397048   -0.005684881
      2        6          -0.004683975   -0.002450454    0.002792969
      3        6           0.004970455    0.006088867   -0.008609809
      4        6          -0.012182561   -0.009540843    0.012172235
      5        7           0.010349914    0.009996889    0.001141757
      6        6          -0.014422408   -0.009750706    0.009804587
      7        6           0.047271387   -0.004695973    0.008438104
      8        6          -0.010659120   -0.000537693   -0.001944048
      9        8          -0.038325309    0.004452058   -0.009219016
     10        1          -0.003707322   -0.000080425    0.000193066
     11        1          -0.001590833   -0.000203343   -0.000054636
     12        1          -0.001590077    0.000150513    0.000071561
     13        1           0.001555645    0.000125236   -0.000728167
     14        1           0.001459273    0.000733727   -0.000895311
     15        1           0.000527480   -0.000447752    0.000314511
     16        1           0.002067818   -0.001393102    0.000066109
     17        1           0.002497295   -0.000775265    0.001838931
     18        1           0.001754947    0.001615164   -0.008589660
     19        1           0.002388829    0.003843330   -0.001500035
     20        1          -0.000687038   -0.001062961   -0.002421986
     21        1           0.010121404    0.001423129   -0.003035488
     22        1           0.000343668    0.002487598   -0.000887390
     23        1           0.003175711   -0.003106930    0.002291875
     24        1           0.003897758    0.000731888    0.004444722
 -------------------------------------------------------------------
 Cartesian Forces:  Max     0.047271387 RMS     0.008801750

 GradGradGradGradGradGradGradGradGradGradGradGradGradGradGradGradGradGrad
 Berny optimization.
 FormGI is forming the generalized inverse of G from B-inverse, IUseBI=4.
 Internal  Forces:  Max     0.039512783 RMS     0.005385312
 Search for a local minimum.
 Step number   1 out of a maximum of  126
 All quantities printed in internal units (Hartrees-Bohrs-Radians)
 Mixed Optimization -- RFO/linear search
 Second derivative matrix not updated -- first step.
 ITU=  0
     Eigenvalues ---    0.00434   0.00442   0.00451   0.00536   0.00547
     Eigenvalues ---    0.00630   0.00824   0.00943   0.03056   0.03824
     Eigenvalues ---    0.03825   0.04705   0.04948   0.04987   0.05069
     Eigenvalues ---    0.05642   0.05690   0.05750   0.06526   0.07033
     Eigenvalues ---    0.07468   0.07974   0.08090   0.08795   0.09823
     Eigenvalues ---    0.10753   0.11922   0.12004   0.12403   0.13180
     Eigenvalues ---    0.16000   0.16000   0.16000   0.16000   0.16000
     Eigenvalues ---    0.16000   0.21863   0.21894   0.21920   0.22080
     Eigenvalues ---    0.23480   0.24998   0.25000   0.29881   0.29939
     Eigenvalues ---    0.30002   0.30698   0.31323   0.33888   0.33897
     Eigenvalues ---    0.34098   0.34112   0.34114   0.34116   0.34146
     Eigenvalues ---    0.34149   0.34282   0.34288   0.34419   0.34469
     Eigenvalues ---    0.34568   0.34827   0.36270   0.37393   0.44254
     Eigenvalues ---    0.87719
 RFO step:  Lambda=-1.19464765D-02 EMin= 4.33992306D-03
 Linear search not attempted -- first point.
 Iteration  1 RMS(Cart)=  0.10928930 RMS(Int)=  0.00216109
 Iteration  2 RMS(Cart)=  0.00398066 RMS(Int)=  0.00059886
 Iteration  3 RMS(Cart)=  0.00000481 RMS(Int)=  0.00059885
 Iteration  4 RMS(Cart)=  0.00000001 RMS(Int)=  0.00059885
 Variable       Old X    -DE/DX   Delta X   Delta X   Delta X     New X
                                 (Linear)    (Quad)   (Total)
    R1        2.86592   0.01144   0.00000   0.03588   0.03588   2.90180
    R2        2.06629   0.00107   0.00000   0.00301   0.00301   2.06930
    R3        2.06846   0.00041   0.00000   0.00115   0.00115   2.06961
    R4        2.06857   0.00044   0.00000   0.00123   0.00123   2.06980
    R5        2.87959   0.00860   0.00000   0.02756   0.02756   2.90715
    R6        2.07138   0.00076   0.00000   0.00214   0.00214   2.07353
    R7        2.07166   0.00074   0.00000   0.00210   0.00210   2.07375
    R8        2.88201   0.00542   0.00000   0.01745   0.01745   2.89946
    R9        2.07520   0.00029   0.00000   0.00081   0.00081   2.07601
   R10        2.07505  -0.00144   0.00000  -0.00412  -0.00412   2.07093
   R11        2.75257   0.00922   0.00000   0.02390   0.02390   2.77647
   R12        2.07084  -0.00015   0.00000  -0.00043  -0.00043   2.07041
   R13        2.07142   0.00609   0.00000   0.01726   0.01726   2.08868
   R14        2.76962   0.00105   0.00000   0.00280   0.00280   2.77242
   R15        1.92851  -0.00456   0.00000  -0.01003  -0.01003   1.91848
   R16        2.88086   0.00491   0.00000   0.01578   0.01578   2.89664
   R17        2.07135  -0.00094   0.00000  -0.00265  -0.00265   2.06870
   R18        2.07079   0.00507   0.00000   0.01434   0.01434   2.08513
   R19        2.85400   0.00499   0.00000   0.01535   0.01535   2.86935
   R20        2.34002  -0.03951   0.00000  -0.04444  -0.04444   2.29558
   R21        2.05956   0.00016   0.00000   0.00044   0.00044   2.06001
   R22        2.06382   0.00065   0.00000   0.00181   0.00181   2.06563
   R23        2.06545   0.00079   0.00000   0.00221   0.00221   2.06766
    A1        1.92352   0.00461   0.00000   0.02882   0.02868   1.95219
    A2        1.93310   0.00101   0.00000   0.00487   0.00481   1.93791
    A3        1.93330   0.00098   0.00000   0.00466   0.00459   1.93789
    A4        1.89131  -0.00263   0.00000  -0.01329  -0.01343   1.87787
    A5        1.89103  -0.00263   0.00000  -0.01343  -0.01357   1.87746
    A6        1.89037  -0.00160   0.00000  -0.01312  -0.01310   1.87727
    A7        1.93484   0.00891   0.00000   0.04450   0.04436   1.97921
    A8        1.91187  -0.00200   0.00000  -0.00341  -0.00335   1.90852
    A9        1.91100  -0.00211   0.00000  -0.00236  -0.00245   1.90855
   A10        1.91640  -0.00308   0.00000  -0.01461  -0.01484   1.90156
   A11        1.91571  -0.00265   0.00000  -0.00947  -0.00980   1.90591
   A12        1.87298   0.00062   0.00000  -0.01671  -0.01693   1.85605
   A13        1.92363   0.01252   0.00000   0.05919   0.05917   1.98280
   A14        1.91320  -0.00362   0.00000  -0.01067  -0.01050   1.90269
   A15        1.91633  -0.00234   0.00000   0.00058   0.00080   1.91713
   A16        1.92287  -0.00397   0.00000  -0.01905  -0.01934   1.90353
   A17        1.92037  -0.00500   0.00000  -0.02522  -0.02578   1.89459
   A18        1.86664   0.00198   0.00000  -0.00713  -0.00761   1.85903
   A19        1.89217   0.01258   0.00000   0.06348   0.06262   1.95479
   A20        1.91360  -0.00117   0.00000  -0.00810  -0.00734   1.90626
   A21        1.91513  -0.00485   0.00000  -0.01037  -0.01270   1.90242
   A22        1.92857  -0.00763   0.00000  -0.05454  -0.05398   1.87459
   A23        1.92083   0.00091   0.00000   0.03874   0.03769   1.95852
   A24        1.89361   0.00005   0.00000  -0.02940  -0.02927   1.86434
   A25        1.93800   0.01022   0.00000   0.04077   0.04085   1.97886
   A26        1.89065  -0.00271   0.00000  -0.01010  -0.00990   1.88075
   A27        1.91091  -0.00381   0.00000  -0.01985  -0.01980   1.89111
   A28        1.95714   0.01353   0.00000   0.06898   0.06767   2.02482
   A29        1.92212  -0.00595   0.00000  -0.03796  -0.03700   1.88513
   A30        1.92028   0.00338   0.00000   0.05337   0.05219   1.97247
   A31        1.87240  -0.00289   0.00000  -0.02024  -0.01984   1.85256
   A32        1.88094  -0.00654   0.00000  -0.01976  -0.02313   1.85781
   A33        1.90961  -0.00193   0.00000  -0.04840  -0.04850   1.86110
   A34        2.10737   0.00391   0.00000   0.01508   0.01486   2.12223
   A35        2.09069  -0.00605   0.00000  -0.02294  -0.02315   2.06753
   A36        2.08505   0.00214   0.00000   0.00833   0.00811   2.09315
   A37        1.98476  -0.00103   0.00000   0.00343   0.00334   1.98810
   A38        1.90287  -0.00046   0.00000  -0.01010  -0.01024   1.89263
   A39        1.89752   0.00042   0.00000   0.00071   0.00047   1.89800
   A40        1.87343   0.00173   0.00000   0.01414   0.01413   1.88756
   A41        1.87658   0.00339   0.00000   0.03421   0.03403   1.91061
   A42        1.92865  -0.00419   0.00000  -0.04405  -0.04435   1.88430
    D1       -3.14096  -0.00015   0.00000  -0.00258  -0.00259   3.13964
    D2        1.02467  -0.00075   0.00000  -0.01087  -0.01093   1.01374
    D3       -1.02483   0.00090   0.00000   0.01273   0.01280  -1.01203
    D4        1.04950  -0.00051   0.00000  -0.00784  -0.00788   1.04162
    D5       -1.06806  -0.00111   0.00000  -0.01612  -0.01622  -1.08428
    D6       -3.11756   0.00054   0.00000   0.00748   0.00750  -3.11006
    D7       -1.04845   0.00019   0.00000   0.00236   0.00239  -1.04606
    D8        3.11717  -0.00041   0.00000  -0.00592  -0.00595   3.11123
    D9        1.06767   0.00124   0.00000   0.01767   0.01778   1.08545
   D10        3.14096   0.00018   0.00000   0.00143   0.00135  -3.14087
   D11        1.02169  -0.00057   0.00000  -0.00597  -0.00600   1.01569
   D12       -1.02402   0.00052   0.00000   0.00862   0.00883  -1.01519
   D13       -1.02732   0.00144   0.00000   0.01646   0.01623  -1.01109
   D14        3.13658   0.00069   0.00000   0.00905   0.00888  -3.13772
   D15        1.09087   0.00178   0.00000   0.02365   0.02372   1.11459
   D16        1.02762  -0.00121   0.00000  -0.01824  -0.01828   1.00934
   D17       -1.09165  -0.00197   0.00000  -0.02564  -0.02564  -1.11729
   D18       -3.13736  -0.00088   0.00000  -0.01105  -0.01080   3.13502
   D19       -3.12621  -0.00245   0.00000  -0.03505  -0.03508   3.12189
   D20        1.05018  -0.00015   0.00000  -0.00261  -0.00265   1.04753
   D21       -1.02793   0.00345   0.00000   0.04460   0.04444  -0.98349
   D22       -1.01270  -0.00140   0.00000  -0.02226  -0.02243  -1.03513
   D23       -3.11950   0.00090   0.00000   0.01018   0.01001  -3.10949
   D24        1.08558   0.00450   0.00000   0.05740   0.05710   1.14267
   D25        1.04118  -0.00440   0.00000  -0.05780  -0.05746   0.98373
   D26       -1.06561  -0.00210   0.00000  -0.02535  -0.02503  -1.09064
   D27        3.13946   0.00149   0.00000   0.02186   0.02207  -3.12165
   D28       -3.12879  -0.00033   0.00000  -0.00412  -0.00286  -3.13165
   D29        1.05547  -0.00012   0.00000   0.00200   0.00322   1.05869
   D30       -1.03130   0.00151   0.00000  -0.00716  -0.00737  -1.03866
   D31       -3.13023   0.00172   0.00000  -0.00104  -0.00128  -3.13151
   D32        1.05967  -0.00269   0.00000  -0.05352  -0.05451   1.00516
   D33       -1.03926  -0.00247   0.00000  -0.04739  -0.04843  -1.08769
   D34        3.11756  -0.00124   0.00000  -0.03969  -0.04109   3.07647
   D35        1.03392  -0.00239   0.00000  -0.03346  -0.03346   1.00047
   D36       -1.07246   0.00165   0.00000   0.01677   0.01836  -1.05410
   D37       -1.07876  -0.00067   0.00000  -0.03950  -0.04102  -1.11978
   D38        3.12079  -0.00182   0.00000  -0.03326  -0.03339   3.08740
   D39        1.01441   0.00222   0.00000   0.01696   0.01842   1.03283
   D40       -0.00976   0.00206   0.00000  -0.02309  -0.02304  -0.03280
   D41        3.11767   0.00277   0.00000   0.01633   0.01603   3.13370
   D42        2.10279   0.00100   0.00000  -0.04158  -0.04187   2.06093
   D43       -1.05296   0.00172   0.00000  -0.00216  -0.00279  -1.05576
   D44       -2.12572  -0.00617   0.00000  -0.11920  -0.11843  -2.24415
   D45        1.00171  -0.00546   0.00000  -0.07978  -0.07936   0.92235
   D46       -0.01734  -0.00090   0.00000  -0.00856  -0.00846  -0.02580
   D47       -2.10695  -0.00210   0.00000  -0.02164  -0.02134  -2.12829
   D48        2.07252   0.00303   0.00000   0.03746   0.03758   2.11009
   D49        3.13837  -0.00154   0.00000  -0.04760  -0.04784   3.09053
   D50        1.04877  -0.00274   0.00000  -0.06068  -0.06073   0.98804
   D51       -1.05496   0.00238   0.00000  -0.00158  -0.00181  -1.05677
         Item               Value     Threshold  Converged?
 Maximum Force            0.039513     0.000450     NO 
 RMS     Force            0.005385     0.000300     NO 
 Maximum Displacement     0.357637     0.001800     NO 
 RMS     Displacement     0.107104     0.001200     NO 
 Predicted change in Energy=-6.601597D-03
 GradGradGradGradGradGradGradGradGradGradGradGradGradGradGradGradGradGrad

                          Input orientation:                          
 ---------------------------------------------------------------------
 Center     Atomic      Atomic             Coordinates (Angstroms)
 Number     Number       Type             X           Y           Z
 ---------------------------------------------------------------------
      1          6           0        0.994887    0.065055   -0.062523
      2          6           0        2.529364    0.050339   -0.006618
      3          6           0        3.087485   -0.535357    1.301865
      4          6           0        4.620504   -0.551397    1.363160
      5          7           0        5.114814   -1.092352    2.636622
      6          6           0        6.578654   -1.109252    2.732932
      7          6           0        7.158927   -1.579239    4.071581
      8          6           0        6.263253   -1.960054    5.237032
      9          8           0        8.366547   -1.618570    4.197188
     10          1           0        0.625311    0.488173   -1.002453
     11          1           0        0.577432    0.661395    0.755740
     12          1           0        0.588547   -0.948187    0.026332
     13          1           0        2.907462    1.073098   -0.129059
     14          1           0        2.918639   -0.526454   -0.855161
     15          1           0        2.712753   -1.560855    1.423529
     16          1           0        2.710333    0.037570    2.156548
     17          1           0        4.995755    0.474172    1.275022
     18          1           0        5.009633   -1.110253    0.492582
     19          1           0        4.777991   -2.046489    2.719317
     20          1           0        6.939263   -0.085945    2.587357
     21          1           0        7.055259   -1.726175    1.952064
     22          1           0        5.198907   -1.841615    5.033374
     23          1           0        6.519034   -1.327252    6.090827
     24          1           0        6.468317   -2.998686    5.513401
 ---------------------------------------------------------------------
                    Distance matrix (angstroms):
                    1          2          3          4          5
     1  C    0.000000
     2  C    1.535565   0.000000
     3  C    2.569243   1.538397   0.000000
     4  C    3.944322   2.571233   1.534327   0.000000
     5  N    5.059523   3.870014   2.490358   1.469245   0.000000
     6  C    6.353898   5.024593   3.816487   2.453942   1.467102
     7  C    7.601967   6.381229   5.033653   3.851701   2.544517
     8  C    7.742223   6.743847   5.253647   4.437322   2.972197
     9  O    8.678773   7.384439   6.117577   4.816992   3.645002
    10  H    1.095027   2.192899   3.524173   4.757982   5.991374
    11  H    1.095191   2.182800   2.833873   4.264534   5.215476
    12  H    1.095293   2.182868   2.835861   4.266290   5.226997
    13  H    2.162989   1.097263   2.160342   2.792886   4.148562
    14  H    2.163094   1.097383   2.163642   2.796053   4.163649
    15  H    2.793385   2.162151   1.098577   2.159204   2.731480
    16  H    2.804957   2.170760   1.095889   2.150604   2.699764
    17  H    4.238319   2.811640   2.159020   1.095615   2.078972
    18  H    4.219913   2.783506   2.163353   1.105282   2.146693
    19  H    5.148701   4.108981   2.674042   2.024664   1.015216
    20  H    6.510013   5.118055   4.085420   2.663072   2.084202
    21  H    6.632886   5.241771   4.193333   2.766757   2.153062
    22  H    6.875851   6.008948   4.482028   3.933152   2.512546
    23  H    8.385608   7.415798   5.944476   5.153369   3.736114
    24  H    8.392607   7.435220   5.935912   5.160246   3.707012
                    6          7          8          9         10
     6  C    0.000000
     7  C    1.532836   0.000000
     8  C    2.663430   1.518397   0.000000
     9  O    2.366434   1.214771   2.371019   0.000000
    10  H    7.207438   8.526908   8.758503   9.560406   0.000000
    11  H    6.561947   7.702683   7.699515   8.815448   1.767354
    12  H    6.575182   7.741587   7.770300   8.851144   1.767167
    13  H    5.141138   6.538748   7.018282   7.467469   2.512602
    14  H    5.158466   6.584921   7.096229   7.509903   2.512074
    15  H    4.106540   5.175034   5.225726   6.297769   3.800174
    16  H    4.075699   5.106017   5.109121   6.236967   3.811778
    17  H    2.671760   4.088588   4.819702   4.927561   4.928273
    18  H    2.735142   4.201030   4.980315   5.025074   4.900242
    19  H    2.030021   2.777733   2.924442   3.904478   6.125425
    20  H    1.094709   2.116861   3.315125   2.641521   7.285763
    21  H    1.103405   2.127132   3.387181   2.602237   7.414630
    22  H    2.780663   2.198992   1.090108   3.283732   7.923187
    23  H    3.365493   2.133147   1.093082   2.661586   9.399274
    24  H    3.363502   2.137900   1.094161   2.690802   9.421000
                   11         12         13         14         15
    11  H    0.000000
    12  H    1.767177   0.000000
    13  H    2.526145   3.080115   0.000000
    14  H    3.080135   2.526701   1.756677   0.000000
    15  H    3.153401   2.615297   3.063683   2.510937   0.000000
    16  H    2.626917   3.164099   2.516977   3.071140   1.758490
    17  H    4.452672   4.796438   2.586721   3.139004   3.061942
    18  H    4.780417   4.448557   3.093958   2.555286   2.519000
    19  H    5.369634   5.099988   4.619951   4.306343   2.485983
    20  H    6.662300   6.901733   4.997771   5.311346   4.625283
    21  H    7.006706   6.792060   5.419522   5.141154   4.377675
    22  H    6.776521   6.864700   6.355862   6.450125   4.392125
    23  H    8.229247   8.490729   7.582355   7.864532   6.027106
    24  H    8.410354   8.299649   7.816423   7.698748   5.735735
                   16         17         18         19         20
    16  H    0.000000
    17  H    2.488144   0.000000
    18  H    3.061545   1.767146   0.000000
    19  H    2.989183   2.913269   2.426633   0.000000
    20  H    4.252611   2.411053   3.026676   2.921000   0.000000
    21  H    4.693718   3.088926   2.587284   2.424300   1.762784
    22  H    4.242695   4.419201   4.603206   2.360932   3.477673
    23  H    5.643358   5.362600   5.802218   3.862074   3.740553
    24  H    5.883005   5.673890   5.559008   3.401585   4.155428
                   21         22         23         24
    21  H    0.000000
    22  H    3.599144   0.000000
    23  H    4.192379   1.767912   0.000000
    24  H    3.827128   1.783435   1.769092   0.000000
 Stoichiometry    C7H15NO
 Framework group  C1[X(C7H15NO)]
 Deg. of freedom    66
 Full point group                 C1      NOp   1
 Largest Abelian subgroup         C1      NOp   1
 Largest concise Abelian subgroup C1      NOp   1
                         Standard orientation:                         
 ---------------------------------------------------------------------
 Center     Atomic      Atomic             Coordinates (Angstroms)
 Number     Number       Type             X           Y           Z
 ---------------------------------------------------------------------
      1          6           0       -4.626609    0.496576   -0.029921
      2          6           0       -3.412334   -0.443060   -0.054035
      3          6           0       -2.065846    0.296394    0.028698
      4          6           0       -0.849162   -0.638073    0.003949
      5          7           0        0.416999    0.105307    0.057835
      6          6           0        1.601713   -0.759325    0.022431
      7          6           0        2.956194   -0.042640   -0.014029
      8          6           0        3.053875    1.472040   -0.055641
      9          8           0        3.967037   -0.715989   -0.035654
     10          1           0       -5.570348   -0.055321   -0.091964
     11          1           0       -4.597508    1.198135   -0.870404
     12          1           0       -4.648729    1.086739    0.892514
     13          1           0       -3.434166   -1.041835   -0.973262
     14          1           0       -3.485707   -1.153514    0.779104
     15          1           0       -2.041255    0.893168    0.950721
     16          1           0       -1.978601    1.004517   -0.803121
     17          1           0       -0.853348   -1.211017   -0.929909
     18          1           0       -0.939995   -1.369028    0.828025
     19          1           0        0.430741    0.630966    0.926257
     20          1           0        1.552517   -1.363717   -0.888984
     21          1           0        1.645139   -1.466441    0.868365
     22          1           0        2.087883    1.976499   -0.082416
     23          1           0        3.612276    1.758032   -0.950754
     24          1           0        3.618821    1.812111    0.817500
 ---------------------------------------------------------------------
 Rotational constants (GHZ):           5.7467227           0.4547188           0.4288447
 Standard basis: 6-31G(2df,p) (6D, 7F)
 There are   354 symmetry adapted cartesian basis functions of A   symmetry.
 There are   327 symmetry adapted basis functions of A   symmetry.
   327 basis functions,   501 primitive gaussians,   354 cartesian basis functions
    36 alpha electrons       36 beta electrons
       nuclear repulsion energy       440.4063077471 Hartrees.
 NAtoms=   24 NActive=   24 NUniq=   24 SFac= 1.00D+00 NAtFMM=   60 NAOKFM=F Big=F
 Integral buffers will be    131072 words long.
 Raffenetti 2 integral format.
 Two-electron integral symmetry is turned on.
 One-electron integrals computed using PRISM.
 PrsmSu:  requested number of processors reduced to:  13 ShMem   1 Linda.
 NBasis=   327 RedAO= T EigKep=  3.48D-04  NBF=   327
 NBsUse=   327 1.00D-06 EigRej= -1.00D+00 NBFU=   327
 Initial guess from the checkpoint file:  "CCCCNCCpCpdO.chk"
 B after Tr=     0.000000   -0.000000   -0.000000
         Rot=    0.999959   -0.008590    0.000247    0.002703 Ang=  -1.03 deg.
 ExpMin= 1.61D-01 ExpMax= 5.48D+03 ExpMxC= 8.25D+02 IAcc=2 IRadAn=         4 AccDes= 0.00D+00
 Harris functional with IExCor=  402 and IRadAn=       4 diagonalized for initial guess.
 HarFok:  IExCor=  402 AccDes= 0.00D+00 IRadAn=         4 IDoV= 1 UseB2=F ITyADJ=14
 ICtDFT=  3500011 ScaDFX=  1.000000  1.000000  1.000000  1.000000
 FoFCou: FMM=F IPFlag=           0 FMFlag=      100000 FMFlg1=           0
         NFxFlg=           0 DoJE=T BraDBF=F KetDBF=T FulRan=T
         wScrn=  0.000000 ICntrl=       500 IOpCl=  0 I1Cent=   200000004 NGrid=           0
         NMat0=    1 NMatS0=      1 NMatT0=    0 NMatD0=    1 NMtDS0=    0 NMtDT0=    0
 Petite list used in FoFCou.
 Requested convergence on RMS density matrix=1.00D-08 within 128 cycles.
 Requested convergence on MAX density matrix=1.00D-06.
 Requested convergence on             energy=1.00D-06.
 No special actions if energy rises.
 Integral accuracy reduced to 1.0D-05 until final iterations.
 Initial convergence to 1.0D-05 achieved.  Increase integral accuracy.
 SCF Done:  E(RB3LYP) =  -405.776794328     A.U. after   12 cycles
            NFock= 12  Conv=0.77D-08     -V/T= 2.0083
 PrsmSu:  requested number of processors reduced to:  13 ShMem   1 Linda.
 Calling FoFJK, ICntrl=      2127 FMM=F ISym2X=0 I1Cent= 0 IOpClX= 0 NMat=1 NMatS=1 NMatT=0.
 ***** Axes restored to original set *****
 -------------------------------------------------------------------
 Center     Atomic                   Forces (Hartrees/Bohr)
 Number     Number              X              Y              Z
 -------------------------------------------------------------------
      1        6           0.001915497   -0.000524074    0.001213381
      2        6           0.000455828   -0.000636931    0.001369085
      3        6           0.000583915    0.000277018    0.000105264
      4        6          -0.001076856   -0.000642761    0.001329774
      5        7           0.002230816   -0.000842888   -0.000175567
      6        6          -0.009747078   -0.001792704   -0.001435173
      7        6           0.010572532    0.002026898    0.003591034
      8        6          -0.005746772    0.000425364   -0.001866148
      9        8          -0.007035541   -0.000555855   -0.003145581
     10        1           0.001183036   -0.000067870    0.000147669
     11        1          -0.000181915   -0.000005852    0.000256909
     12        1          -0.000218443   -0.000221781    0.000166274
     13        1           0.000253031    0.000238432   -0.000570109
     14        1           0.000305348    0.000290374   -0.000416113
     15        1          -0.000438781   -0.000567903    0.000472597
     16        1          -0.000392077   -0.000171658    0.000681731
     17        1           0.000984406    0.001112632   -0.000785556
     18        1           0.001218080    0.000628811   -0.000707197
     19        1          -0.001281516   -0.000983892    0.000792583
     20        1           0.001556153    0.000910207   -0.000635718
     21        1           0.002409486    0.001118463   -0.000460526
     22        1          -0.000096199    0.000477792   -0.001677935
     23        1           0.001689038   -0.000816669    0.000768340
     24        1           0.000858013    0.000324846    0.000980981
 -------------------------------------------------------------------
 Cartesian Forces:  Max     0.010572532 RMS     0.002282204

 GradGradGradGradGradGradGradGradGradGradGradGradGradGradGradGradGradGrad
 Berny optimization.
 Using GEDIIS/GDIIS optimizer.
 FormGI is forming the generalized inverse of G from B-inverse, IUseBI=4.
 Internal  Forces:  Max     0.007301274 RMS     0.001726343
 Search for a local minimum.
 Step number   2 out of a maximum of  126
 All quantities printed in internal units (Hartrees-Bohrs-Radians)
 Mixed Optimization -- RFO/linear search
 Update second derivatives using D2CorX and points    1    2
 DE= -5.41D-03 DEPred=-6.60D-03 R= 8.19D-01
 TightC=F SS=  1.41D+00  RLast= 3.16D-01 DXNew= 5.0454D-01 9.4661D-01
 Trust test= 8.19D-01 RLast= 3.16D-01 DXMaxT set to 5.05D-01
 ITU=  1  0
 Use linear search instead of GDIIS.
     Eigenvalues ---    0.00434   0.00440   0.00451   0.00547   0.00548
     Eigenvalues ---    0.00631   0.00823   0.00943   0.02947   0.03508
     Eigenvalues ---    0.03565   0.04313   0.04534   0.04879   0.04927
     Eigenvalues ---    0.05542   0.05584   0.05645   0.06323   0.06919
     Eigenvalues ---    0.07462   0.08520   0.08531   0.09349   0.10346
     Eigenvalues ---    0.11040   0.12332   0.12334   0.12778   0.13513
     Eigenvalues ---    0.15825   0.16000   0.16000   0.16000   0.16000
     Eigenvalues ---    0.16115   0.21870   0.21920   0.21989   0.22994
     Eigenvalues ---    0.23722   0.24867   0.27101   0.29894   0.29957
     Eigenvalues ---    0.30389   0.31259   0.32414   0.33857   0.33917
     Eigenvalues ---    0.33926   0.34098   0.34114   0.34131   0.34136
     Eigenvalues ---    0.34266   0.34285   0.34299   0.34448   0.34468
     Eigenvalues ---    0.34573   0.34831   0.36587   0.39865   0.44507
     Eigenvalues ---    0.81842
 RFO step:  Lambda=-1.55457817D-03 EMin= 4.33985733D-03
 Quartic linear search produced a step of -0.06846.
 Iteration  1 RMS(Cart)=  0.06379183 RMS(Int)=  0.00187946
 Iteration  2 RMS(Cart)=  0.00251813 RMS(Int)=  0.00013720
 Iteration  3 RMS(Cart)=  0.00000571 RMS(Int)=  0.00013713
 Iteration  4 RMS(Cart)=  0.00000000 RMS(Int)=  0.00013713
 Variable       Old X    -DE/DX   Delta X   Delta X   Delta X     New X
                                 (Linear)    (Quad)   (Total)
    R1        2.90180  -0.00277  -0.00246  -0.00217  -0.00462   2.89717
    R2        2.06930  -0.00055  -0.00021  -0.00097  -0.00117   2.06813
    R3        2.06961   0.00026  -0.00008   0.00089   0.00081   2.07042
    R4        2.06980   0.00030  -0.00008   0.00102   0.00093   2.07074
    R5        2.90715  -0.00354  -0.00189  -0.00617  -0.00806   2.89909
    R6        2.07353   0.00037  -0.00015   0.00138   0.00123   2.07476
    R7        2.07375   0.00028  -0.00014   0.00111   0.00097   2.07472
    R8        2.89946  -0.00361  -0.00119  -0.00816  -0.00935   2.89011
    R9        2.07601   0.00073  -0.00006   0.00213   0.00208   2.07809
   R10        2.07093   0.00058   0.00028   0.00087   0.00115   2.07208
   R11        2.77647  -0.00448  -0.00164  -0.00697  -0.00860   2.76787
   R12        2.07041   0.00144   0.00003   0.00382   0.00385   2.07427
   R13        2.08868   0.00067  -0.00118   0.00477   0.00358   2.09226
   R14        2.77242  -0.00581  -0.00019  -0.01429  -0.01449   2.75793
   R15        1.91848   0.00141   0.00069   0.00123   0.00192   1.92040
   R16        2.89664  -0.00166  -0.00108  -0.00242  -0.00350   2.89314
   R17        2.06870   0.00145   0.00018   0.00346   0.00364   2.07234
   R18        2.08513   0.00074  -0.00098   0.00446   0.00348   2.08861
   R19        2.86935   0.00046  -0.00105   0.00399   0.00294   2.87230
   R20        2.29558  -0.00730   0.00304  -0.01532  -0.01227   2.28331
   R21        2.06001   0.00046  -0.00003   0.00129   0.00126   2.06127
   R22        2.06563   0.00052  -0.00012   0.00171   0.00158   2.06721
   R23        2.06766   0.00010  -0.00015   0.00065   0.00050   2.06816
    A1        1.95219  -0.00160  -0.00196  -0.00497  -0.00692   1.94528
    A2        1.93791   0.00036  -0.00033   0.00325   0.00292   1.94083
    A3        1.93789   0.00040  -0.00031   0.00344   0.00313   1.94102
    A4        1.87787   0.00057   0.00092   0.00027   0.00120   1.87908
    A5        1.87746   0.00055   0.00093   0.00013   0.00107   1.87853
    A6        1.87727  -0.00023   0.00090  -0.00222  -0.00133   1.87594
    A7        1.97921  -0.00241  -0.00304  -0.00239  -0.00542   1.97379
    A8        1.90852   0.00069   0.00023   0.00208   0.00231   1.91083
    A9        1.90855   0.00076   0.00017   0.00232   0.00250   1.91105
   A10        1.90156   0.00090   0.00102   0.00204   0.00307   1.90463
   A11        1.90591   0.00080   0.00067   0.00177   0.00246   1.90837
   A12        1.85605  -0.00065   0.00116  -0.00609  -0.00492   1.85113
   A13        1.98280  -0.00290  -0.00405  -0.00219  -0.00623   1.97657
   A14        1.90269   0.00093   0.00072   0.00174   0.00245   1.90514
   A15        1.91713   0.00098  -0.00005   0.00479   0.00472   1.92185
   A16        1.90353   0.00088   0.00132  -0.00030   0.00105   1.90458
   A17        1.89459   0.00094   0.00177  -0.00033   0.00148   1.89607
   A18        1.85903  -0.00071   0.00052  -0.00390  -0.00335   1.85567
   A19        1.95479  -0.00432  -0.00429  -0.00693  -0.01115   1.94365
   A20        1.90626   0.00141   0.00050   0.00504   0.00546   1.91173
   A21        1.90242   0.00182   0.00087   0.00762   0.00866   1.91108
   A22        1.87459   0.00124   0.00370  -0.00564  -0.00198   1.87261
   A23        1.95852   0.00125  -0.00258   0.01142   0.00894   1.96746
   A24        1.86434  -0.00126   0.00200  -0.01207  -0.01009   1.85426
   A25        1.97886  -0.00327  -0.00280  -0.00345  -0.00626   1.97260
   A26        1.88075   0.00128   0.00068   0.00961   0.01027   1.89102
   A27        1.89111   0.00123   0.00136   0.00746   0.00881   1.89992
   A28        2.02482  -0.00440  -0.00463  -0.00560  -0.01014   2.01467
   A29        1.88513   0.00199   0.00253   0.00345   0.00586   1.89099
   A30        1.97247   0.00247  -0.00357   0.02623   0.02273   1.99520
   A31        1.85256   0.00051   0.00136  -0.00714  -0.00582   1.84674
   A32        1.85781   0.00105   0.00158   0.00026   0.00207   1.85988
   A33        1.86110  -0.00161   0.00332  -0.02093  -0.01765   1.84345
   A34        2.12223  -0.00653  -0.00102  -0.02102  -0.02272   2.09951
   A35        2.06753   0.00096   0.00158   0.00005   0.00097   2.06851
   A36        2.09315   0.00557  -0.00056   0.02241   0.02115   2.11431
   A37        1.98810  -0.00197  -0.00023  -0.00844  -0.00866   1.97944
   A38        1.89263  -0.00033   0.00070  -0.00462  -0.00392   1.88871
   A39        1.89800   0.00048  -0.00003   0.00161   0.00159   1.89958
   A40        1.88756   0.00171  -0.00097   0.01473   0.01376   1.90133
   A41        1.91061   0.00117  -0.00233   0.01445   0.01214   1.92275
   A42        1.88430  -0.00105   0.00304  -0.01879  -0.01576   1.86854
    D1        3.13964   0.00003   0.00018   0.00003   0.00020   3.13984
    D2        1.01374   0.00001   0.00075  -0.00247  -0.00172   1.01202
    D3       -1.01203  -0.00004  -0.00088   0.00236   0.00147  -1.01056
    D4        1.04162   0.00014   0.00054   0.00082   0.00136   1.04298
    D5       -1.08428   0.00011   0.00111  -0.00168  -0.00056  -1.08484
    D6       -3.11006   0.00007  -0.00051   0.00315   0.00263  -3.10742
    D7       -1.04606  -0.00008  -0.00016  -0.00081  -0.00098  -1.04704
    D8        3.11123  -0.00010   0.00041  -0.00331  -0.00290   3.10832
    D9        1.08545  -0.00014  -0.00122   0.00152   0.00029   1.08574
   D10       -3.14087  -0.00004  -0.00009  -0.00292  -0.00301   3.13931
   D11        1.01569   0.00011   0.00041  -0.00233  -0.00191   1.01377
   D12       -1.01519  -0.00012  -0.00060  -0.00134  -0.00196  -1.01715
   D13       -1.01109  -0.00012  -0.00111  -0.00040  -0.00150  -1.01259
   D14       -3.13772   0.00003  -0.00061   0.00020  -0.00040  -3.13812
   D15        1.11459  -0.00020  -0.00162   0.00119  -0.00045   1.11414
   D16        1.00934   0.00005   0.00125  -0.00557  -0.00431   1.00503
   D17       -1.11729   0.00020   0.00176  -0.00497  -0.00321  -1.12050
   D18        3.13502  -0.00004   0.00074  -0.00398  -0.00326   3.13176
   D19        3.12189  -0.00003   0.00240  -0.00954  -0.00714   3.11476
   D20        1.04753   0.00019   0.00018  -0.00151  -0.00132   1.04621
   D21       -0.98349  -0.00011  -0.00304   0.00587   0.00283  -0.98066
   D22       -1.03513  -0.00015   0.00154  -0.00900  -0.00745  -1.04258
   D23       -3.10949   0.00007  -0.00069  -0.00097  -0.00163  -3.11112
   D24        1.14267  -0.00024  -0.00391   0.00641   0.00251   1.14519
   D25        0.98373  -0.00001   0.00393  -0.01397  -0.01006   0.97367
   D26       -1.09064   0.00021   0.00171  -0.00594  -0.00424  -1.09488
   D27       -3.12165  -0.00009  -0.00151   0.00144  -0.00010  -3.12175
   D28       -3.13165   0.00004   0.00020  -0.00765  -0.00756  -3.13920
   D29        1.05869  -0.00035  -0.00022  -0.02143  -0.02175   1.03694
   D30       -1.03866   0.00001   0.00050  -0.00921  -0.00868  -1.04734
   D31       -3.13151  -0.00038   0.00009  -0.02299  -0.02287   3.12880
[...]
 1171475,-0.09107490,0.03094244,0.09020560,-0.01802060,0.01070407,0.030
 82319,0.00307356,-0.00043991,-0.00003080,-0.00011958,-0.00020765,-0.00
 038777,0.00001494,-0.00007711,0.00013711,0.00000502,0.00004355,-0.0000
 8260,0.00002303,-0.00000670,-0.00005864,0.00013145,-0.00000886,0.00018
 400,-0.00000217,0.00021617,0.00032112,-0.00003306,-0.00001742,-0.00003
 890,0.00024754,-0.00024517,0.00070061,-0.00069918,0.00147460,-0.002481
 82,0.00266697,-0.00195444,-0.00591331,0.10259835,-0.00080037,0.0002864
 3,-0.00040658,-0.00723080,0.00493928,0.01661049,0.03148881,-0.07274034
 ,-0.06654200,-0.00239869,0.00096298,0.00388224,0.00002258,-0.00004161,
 -0.00012642,0.00008843,-0.00003483,0.00024830,0.00007470,0.00000137,-0
 .00011157,-0.00000738,0.00002352,0.00002091,-0.00001847,0.00000946,0.0
 0004694,-0.00024217,-0.00007851,-0.00006070,0.00012572,0.00015455,-0.0
 0032839,0.00015757,-0.00001447,-0.00007653,-0.00069984,0.00096050,-0.0
 0051022,0.00139536,-0.00089283,0.00351427,0.01343291,-0.01005674,-0.02
 706545,-0.03476124,0.07504866,0.00136887,-0.00062906,0.00079857,0.0100
 1112,-0.00744189,-0.02341608,0.09205730,-0.06600658,-0.23260284,-0.001
 02320,0.00080999,0.00063872,-0.00034753,-0.00029403,0.00127964,-0.0001
 9572,0.00001916,0.00042246,0.00007738,0.00002964,-0.00019399,-0.000015
 62,-0.00000571,0.00003182,0.00002449,-0.00004156,0.00008760,-0.0000837
 6,0.00023660,0.00052561,-0.00120812,0.00018810,0.00035695,-0.00010015,
 0.00000901,-0.00000039,0.00022126,0.00019168,0.00117569,-0.00218597,0.
 00333562,-0.00284985,0.00150732,-0.00137277,-0.00340282,-0.09987312,0.
 06994787,0.25639562,-0.00007507,0.00016713,0.00011430,0.00146686,-0.00
 137520,0.00090404,-0.00919829,-0.03254950,-0.00609067,-0.06004902,-0.0
 5352688,-0.00706767,0.00198806,0.01245367,-0.00128488,0.00132948,0.001
 97708,0.00047741,0.00014361,0.00028792,-0.00010777,-0.00000902,-0.0000
 8327,0.00004431,0.00008090,-0.00014853,0.00006890,0.00000096,0.0001146
 1,-0.00000475,-0.00001236,-0.00002658,0.00002155,0.00022163,0.00020434
 ,0.00007403,-0.00007591,0.00099902,-0.00036731,-0.00007177,0.00014092,
 -0.00011048,-0.00646556,-0.00073596,-0.00053312,0.00162348,0.00034398,
 0.00034711,0.06647759,-0.00003440,0.00051210,-0.00001214,0.00038882,0.
 00022842,0.00016628,-0.00146423,-0.00337321,-0.00097186,-0.05134292,-0
 .27535220,-0.03782075,-0.00322499,-0.02110465,0.00554765,-0.00186564,0
 .00037331,-0.00098286,0.00029411,0.00061154,0.00026069,-0.00008387,-0.
 00015299,-0.00005183,-0.00015168,-0.00010732,-0.00005243,-0.00008804,0
 .00000209,-0.00003492,-0.00001120,-0.00003113,0.00000161,0.00022420,-0
 .00003301,0.00007016,-0.00028271,0.00062543,-0.00045615,-0.00002208,0.
 00003192,0.00004920,-0.00037161,0.00122055,0.00050522,-0.00023650,0.00
 057602,0.00038477,0.05681972,0.30673829,-0.00005401,0.00015605,-0.0000
 7780,0.00006747,-0.00088273,0.00024592,-0.00015096,-0.00203735,-0.0006
 9584,-0.00903621,-0.04455362,-0.05631503,0.00560937,0.03281871,-0.0010
 8186,0.00148454,0.00090547,0.00086932,0.00032508,0.00007546,0.00002924
 ,0.00001442,0.00001866,-0.00000490,0.00010931,-0.00007347,0.00003996,-
 0.00005115,-0.00000295,-0.00002234,0.00002804,0.00000310,-0.00000469,0
 .00006880,0.00006748,-0.00002339,-0.00025634,0.00036461,0.00009325,-0.
 00000852,-0.00009968,0.00003081,-0.00079184,0.00062560,0.00079576,-0.0
 0017558,0.00076931,0.00034445,0.01179770,0.03473692,0.06328303,-0.0000
 1425,-0.00011992,-0.00037077,0.00109119,-0.00031290,0.00208455,-0.0169
 4373,0.01172759,0.02799630,-0.09573707,0.03072794,0.08279746,0.0047397
 3,-0.00207532,-0.01388491,0.00425528,-0.00126596,-0.00206413,-0.000051
 95,0.00008836,0.00003027,-0.00005959,0.00005205,-0.00006794,0.00002312
 ,-0.00001677,0.00004205,-0.00005267,-0.00000759,-0.00014048,0.00033222
 ,-0.00006995,-0.00012541,-0.00000639,-0.00001558,0.00004039,-0.0000479
 6,0.00007102,-0.00014269,-0.00001704,0.00009736,-0.00130733,0.00170932
 ,-0.00048335,-0.00021904,-0.00652762,-0.00105248,-0.00063499,0.0035282
 9,-0.00259604,-0.00541047,0.10344083,-0.00000174,-0.00002917,0.0002097
 9,0.00012702,-0.00003880,-0.00042986,-0.00314219,0.00145792,0.00298541
 ,0.03081313,-0.07627105,-0.06010260,-0.00439185,0.00619706,0.02302110,
 -0.00316091,0.00052473,0.00011173,-0.00008887,0.00007818,0.00001228,0.
 00001796,-0.00014443,0.00012007,0.00005812,-0.00010235,-0.00000182,0.0
 0006612,-0.00001866,-0.00000891,-0.00005462,-0.00003005,0.00000502,-0.
 00001918,-0.00000944,-0.00000200,0.00000953,0.00005159,-0.00011849,0.0
 0024899,0.00016278,0.00027198,0.00050216,0.00070562,0.00067996,-0.0007
 6631,0.00111411,0.00059923,0.01397238,-0.01032147,-0.02632767,-0.03432
 795,0.07551090,-0.00004725,0.00008104,0.00052445,-0.00006718,-0.000053
 03,0.00042506,-0.00046684,-0.00017485,0.00123341,0.08478361,-0.0605838
 7,-0.20227488,0.00274369,0.00348882,-0.03696236,0.00492297,0.00037664,
 0.00181239,-0.00014145,-0.00010619,0.00033550,0.00021443,0.00016412,0.
 00003556,-0.00041814,0.00041185,-0.00017414,0.00008859,-0.00000768,0.0
 0000619,-0.00021574,0.00000306,-0.00010868,0.00000971,-0.00001134,-0.0
 0002873,-0.00000421,0.00007014,0.00002448,0.00016511,-0.00019482,0.000
 65048,0.00021717,0.00032069,0.00026788,-0.00107713,0.00054703,0.000684
 99,0.00368967,-0.00365400,-0.00437248,-0.09096078,0.05990496,0.2366972
 2,-0.00003031,-0.00003903,0.00001305,-0.00037197,-0.00008927,-0.000289
 41,0.00174414,0.00211864,0.00047775,0.00407861,0.01312739,0.00319127,-
 0.07008239,-0.07756708,-0.02213198,-0.01694848,-0.03923183,-0.00503774
 ,0.00102445,-0.00131425,0.00003037,-0.00015995,0.00010014,-0.00021132,
 -0.00048814,0.00065634,0.00036395,0.00002171,-0.00001638,0.00001705,-0
 .00002720,0.00002021,-0.00000224,-0.00005217,-0.00002137,-0.00003765,-
 0.00001947,-0.00032522,0.00014820,0.00001442,-0.00004071,0.00018743,-0
 .00035703,-0.00098657,-0.00059450,-0.00023402,0.00018338,0.00011780,-0
 .00087510,0.00257875,-0.00290456,-0.00003947,-0.00058802,-0.00059273,0
 .08805405,0.00003629,0.00010607,-0.00001155,0.00010119,0.00032528,0.00
 027585,-0.00046660,0.00086045,-0.00073687,-0.00389242,-0.02255997,-0.0
 0572299,-0.10342107,-0.38747614,-0.01251512,0.00414722,-0.00110186,-0.
 00352253,-0.00084909,0.00029161,0.00036021,-0.00007227,-0.00002167,-0.
 00022080,0.00008309,-0.00013440,-0.00032551,-0.00003185,-0.00000194,-0
 .00001254,0.00000469,-0.00001277,0.00000127,0.00003494,-0.00000852,0.0
 0002345,-0.00018152,0.00023963,-0.00023335,-0.00000728,-0.00000185,-0.
 00004436,0.00111031,0.00042041,0.00026963,0.00013909,-0.00013014,0.000
 02044,0.00176671,-0.00081644,0.00450228,-0.00062475,0.00164075,-0.0003
 2194,0.10160984,0.40531548,-0.00002348,-0.00012151,0.00004770,0.000227
 13,-0.00011168,-0.00025600,0.00092744,0.00041840,0.00137285,0.00622507
 ,0.03499022,-0.00433277,-0.03519420,-0.05074118,-0.03261776,0.00503383
 ,-0.00327554,-0.00235672,-0.00133043,-0.00170334,0.00207114,-0.0002890
 5,-0.00049084,-0.00013459,0.00018827,0.00036376,-0.00084430,0.00004643
 ,0.00000548,0.00000066,0.00002803,-0.00002114,-0.00001490,-0.00004276,
 0.00000492,0.00000348,0.00004024,-0.00018634,0.00004288,0.00000193,0.0
 0008416,-0.00014247,-0.00065678,-0.00066413,0.00004463,0.00017003,-0.0
 0041704,-0.00012118,-0.00196727,0.00221682,-0.00325007,0.00067329,0.00
 033820,0.00085534,0.02771134,0.01768755,0.03934328,0.00001064,-0.00001
 540,0.00003973,0.00010527,0.00013419,-0.00001027,-0.00012064,-0.000135
 82,0.00022714,0.00179152,-0.00272031,0.00093804,-0.01869065,-0.0383853
 3,0.00055234,-0.05341513,-0.04510797,-0.00093140,0.00166451,0.00983030
 ,0.00197188,0.00005855,-0.00099981,-0.00018963,-0.00170995,-0.00107119
 ,-0.00192189,0.00001382,0.00000077,0.00000164,-0.00000435,-0.00000293,
 0.00000036,0.00000859,0.00000203,0.00000656,-0.00003057,0.00005412,-0.
 00005241,-0.00000404,0.00000452,0.00000659,0.00016101,0.00027597,0.000
 03740,0.00000355,-0.00003650,0.00000889,0.00005995,0.00110636,-0.00021
 109,-0.00010927,0.00041776,-0.00022499,-0.00703656,-0.00037742,-0.0019
 1137,0.07298991,0.00000859,0.00001658,-0.00003087,-0.00010027,-0.00004
 667,0.00000231,0.00009451,0.00070730,-0.00012163,0.00137218,0.00118340
 ,0.00125968,-0.00493113,-0.00266224,0.00035976,-0.05740531,-0.28056335
 ,-0.00494887,-0.00078974,-0.01490658,0.00009428,0.00085750,0.00036526,
 0.00035593,0.00078288,0.00177061,0.00242657,-0.00002174,-0.00000103,-0
 .00000787,-0.00000294,-0.00000117,0.00000544,-0.00000241,-0.00000161,0
 .00000097,-0.00001246,0.00000400,0.00000417,-0.00000455,-0.00000271,-0
 .00000469,0.00027020,-0.00004966,0.00008197,0.00003255,-0.00002077,0.0
 0000668,-0.00063601,0.00043035,-0.00071751,0.00001697,-0.00033628,-0.0
 0032262,-0.00004218,0.00176526,-0.00037893,0.06341867,0.30550165,-0.00
 000356,0.00000195,0.00001216,0.00001258,0.00001916,-0.00001076,-0.0000
 8321,-0.00006871,-0.00010433,-0.00006748,-0.00179557,0.00045925,-0.002
 50094,-0.00322655,0.00109346,0.00362760,0.00336176,-0.04686540,0.00735
 156,0.02960399,0.00234425,-0.00077638,-0.00288831,-0.00084038,-0.00291
 627,-0.00220223,-0.00209141,0.00000667,-0.00000137,0.00000408,0.000004
 37,0.00000033,-0.00000296,0.00000929,0.00000348,0.00000068,-0.00001385
 ,0.00002988,-0.00000669,-0.00000420,-0.00000582,-0.00000273,0.00003059
 ,0.00010819,-0.00003309,0.00006322,0.00001131,-0.00000981,-0.00002263,
 0.00028190,0.00030652,-0.00003942,-0.00011902,-0.00019110,-0.00131114,
 0.00022373,0.00042975,0.00166286,0.00197114,0.04628518,0.00004315,0.00
 007225,-0.00009184,-0.00012058,-0.00023516,-0.00002329,-0.00003997,0.0
 0023688,-0.00068358,0.00193198,-0.00269441,0.00573246,-0.03396806,0.01
 366600,0.02156555,-0.10292882,0.05056096,0.08666513,0.00400352,-0.0036
 1594,-0.00526748,-0.00057355,0.00082244,-0.00130291,0.00057517,-0.0006
 2018,-0.00070290,-0.00007157,0.00001171,-0.00002770,0.00000111,-0.0000
 0974,0.00001730,-0.00000738,-0.00001643,0.00000994,-0.00000516,0.00002
 611,0.00000022,-0.00003707,0.00004075,-0.00009025,0.00002286,-0.000017
 27,0.00004171,0.00042535,-0.00007789,-0.00009716,-0.00009457,0.0002848
 9,-0.00036741,0.00063101,0.00017560,-0.00234784,0.00158948,0.00078520,
 -0.00059907,0.00434023,-0.00270801,-0.00482030,0.12391999,0.00000153,0
 .00000228,0.00001273,0.00004633,-0.00003559,-0.00004625,0.00003665,0.0
 0018350,0.00026616,0.00002809,0.00013318,-0.00053576,-0.00058366,0.005
 64469,0.00420405,0.04994730,-0.09584844,-0.08234339,-0.00445239,0.0040
 6272,0.01441283,0.00174801,-0.00060913,0.00191467,-0.00227423,0.000203
 38,-0.00146124,0.00000485,-0.00000243,0.00000052,-0.00000814,-0.000000
 54,0.00000241,-0.00000244,-0.00000088,-0.00000249,0.00000430,-0.000005
 53,0.00000500,0.00000339,0.00001313,0.00002162,-0.00000384,-0.00003773
 ,0.00000399,-0.00010872,-0.00003967,0.00001779,-0.00019027,-0.00012478
 ,-0.00028915,0.00022378,-0.00026272,0.00029236,0.00001244,0.00111047,0
 .00123130,0.01356084,-0.01398609,-0.02481970,-0.05727467,0.09919711,-0
 .00000087,-0.00002099,0.00000899,0.00003377,-0.00000661,-0.00004498,-0
 .00026784,-0.00005738,0.00005222,-0.00052214,0.00034298,0.00380657,-0.
 00003588,0.00527175,0.00580371,0.08114876,-0.08027061,-0.18413724,0.01
 672362,-0.01591936,-0.02625576,-0.00283845,0.00343042,-0.00310508,-0.0
 0048585,0.00108920,0.00582584,0.00001318,-0.00000326,0.00000894,-0.000
 00035,0.00000401,0.00000300,0.00000233,0.00000478,-0.00000377,0.000005
 52,-0.00000533,0.00000513,0.00000117,0.00000328,-0.00000731,0.00000267
 ,0.00000555,-0.00000937,-0.00008954,0.00002845,-0.00015900,-0.00001690
 ,-0.00012976,-0.00020125,0.00165396,-0.00110404,0.00024555,0.00070900,
 0.00058448,0.00079848,0.00001821,-0.00010888,-0.00012273,-0.09702745,0
 .08677551,0.19816853,-0.00000006,-0.00000620,-0.00000747,-0.00001781,0
 .00001588,0.00000587,0.00003152,-0.00002315,-0.00007111,-0.00007130,0.
 00017123,-0.00001122,-0.00014456,0.00002290,0.00044417,0.00015468,-0.0
 0142403,-0.00050868,-0.00662654,0.02059083,-0.00005837,-0.05125817,0.0
 6382643,0.00523736,-0.00328865,-0.00182385,0.00423130,0.00000297,-0.00
 000161,0.00000579,-0.00000584,0.00000356,0.00000128,0.00000007,0.00000
 264,-0.00000018,0.00000315,-0.00000157,-0.00000368,0.00000137,-0.00000
 312,0.00001521,-0.00000274,0.00000889,0.00001319,-0.00003881,0.0000129
 7,0.00001389,0.00000219,0.,-0.00003287,-0.00001020,-0.00003318,0.00009
 047,0.00005472,0.00002949,0.00000930,0.00010335,-0.00038127,0.00051298
 ,-0.00021261,-0.00016142,-0.00027113,0.05882795,-0.00000312,-0.0000075
 0,0.00000110,-0.00000344,0.00001782,-0.00000041,-0.00000401,-0.0000362
 9,-0.00003531,-0.00008913,0.00011331,-0.00011022,-0.00036746,0.0004582
 5,0.00068184,0.00046169,-0.00013111,0.00004647,0.00212801,-0.00386491,
 0.00073195,0.06086628,-0.29168544,-0.02518268,-0.00082543,0.00046171,-
 0.00152415,0.00000556,-0.00000112,0.00000446,-0.00000213,0.00000160,-0
 .00000066,0.00000141,0.00000334,0.00000009,0.00000146,0.00000110,-0.00
 000252,0.00000097,-0.00000326,0.00000908,0.00000084,0.00001217,0.00001
 042,-0.00002549,0.00000744,0.00000701,0.00001626,-0.00000633,-0.000029
 11,0.00001348,-0.00003046,0.00008717,0.00001739,-0.00001280,0.00018249
 ,0.00000088,0.00039865,-0.00003270,0.00012486,0.00016288,-0.00003656,-
 0.06662683,0.31824250,-0.00000876,-0.00000838,0.00000896,0.00000170,0.
 00001653,-0.00001359,-0.00001390,-0.00001639,-0.00002161,-0.00013038,0
 .00013200,-0.00018819,0.00006004,0.00003802,0.00020188,0.00072639,0.00
 275926,0.00031533,0.00143873,-0.02911047,0.00199393,0.00509108,-0.0274
 4785,-0.05218287,0.00539786,0.00188851,-0.00310355,0.00001106,-0.00000
 296,0.00000681,0.00000018,0.00000094,-0.00000321,0.00000229,0.00000430
 ,-0.00000097,0.00000094,0.00000122,-0.00000125,0.00000188,-0.00000199,
 0.00000773,0.00000757,0.00001178,0.00001043,-0.00002739,0.00000139,0.0
 0000541,-0.00001849,0.00000171,-0.00005338,0.00002336,-0.00001864,0.00
 009976,0.00006050,0.00004475,0.00022987,-0.00008541,0.00027419,-0.0011
 1101,0.00004994,0.00006622,0.00066198,-0.00869218,0.02878297,0.0490333
 5,0.00000671,0.00000846,-0.00000467,0.00000713,-0.00001701,0.00000761,
 0.00001226,0.00000111,0.00002397,0.00032665,-0.00021435,-0.00000316,0.
 00001269,0.00049230,-0.00159021,-0.00306687,0.00155725,0.00269345,0.00
 933733,-0.00743694,0.01889368,-0.11309395,0.04519677,-0.11118926,0.001
 38426,-0.00116399,-0.00235948,-0.00000931,0.00000318,-0.00000686,0.000
 00009,-0.00000225,0.00000273,-0.00000078,-0.00000349,0.00000189,-0.000
 00214,0.00000469,-0.00000220,-0.00000272,0.00000409,-0.00000804,0.0000
 0110,0.00000194,0.00000369,0.00002905,-0.00001651,-0.00000207,-0.00000
 100,0.00004043,-0.00001285,-0.00005717,0.00008102,-0.00021228,-0.00004
 409,0.00006637,0.00034919,-0.00007030,0.00010033,-0.00018238,0.0005102
 9,-0.00045690,0.00105076,-0.00358286,0.00029502,-0.00399490,0.11918510
 ,-0.00000137,-0.00000137,0.00000113,0.00000276,0.00000250,-0.00000044,
 0.00000025,-0.00002213,-0.00000303,0.00012631,-0.00005708,-0.00013426,
 0.00000392,0.00051889,0.00005673,0.00088168,0.00147913,-0.00016676,-0.
 00265961,0.00045601,-0.00385266,0.04482806,-0.07955741,0.07399197,-0.0
 0088531,-0.00079229,-0.00016161,0.00000256,-0.00000065,0.00000201,-0.0
 0000150,-0.00000012,-0.00000030,0.00000088,0.00000182,0.00000068,0.000
 00027,0.00000368,-0.00000353,0.00000117,0.00000078,0.00000412,0.000001
 09,0.00000979,0.00001139,-0.00001511,-0.00000753,0.00000350,0.00001280
 ,0.00002200,-0.00003970,-0.00001595,0.00003762,-0.00002857,-0.00003264
 ,0.00005053,0.00038867,-0.00001325,0.00022857,-0.00058156,0.00013966,0
 .00016286,0.00010967,0.01392890,-0.00745397,0.02509959,-0.04918308,0.0
 7955065,0.00000996,0.00001880,-0.00002182,-0.00002717,-0.00003409,0.00
 003275,0.00002563,0.00004919,-0.00003978,0.00006465,-0.00019452,0.0001
 2940,0.00050345,0.00009728,0.00053620,0.00365337,-0.00160369,-0.002414
 57,-0.01658636,0.01157186,-0.02573492,-0.10746596,0.07205367,-0.223945
 53,-0.00054090,-0.00070294,0.00609065,-0.00001847,0.00000367,-0.000008
 93,-0.00000432,-0.00000059,0.00000552,-0.00000161,-0.00000496,0.000001
 67,0.00000028,0.00000421,-0.00000350,0.00000138,0.00000251,0.00000132,
 -0.00001074,-0.00000655,0.,-0.00001984,-0.00000115,0.00001085,0.000013
 94,0.00001054,-0.00002039,-0.00004306,0.00004674,-0.00000636,-0.000010
 36,-0.00000782,-0.00001833,0.00006443,0.00016950,-0.00009652,-0.000416
 50,0.00056945,-0.00117627,0.00331539,-0.00174050,0.00452401,0.11747951
 ,-0.08043723,0.24351032,0.00000417,0.00000128,-0.00000590,-0.00001050,
 -0.00000387,0.00001237,0.00004449,-0.00005788,-0.00001467,0.00044565,-
 0.00010616,-0.00013789,-0.00027382,0.00082180,-0.00130601,0.00014836,0
 .00135736,0.00065561,-0.01826885,-0.00827425,-0.00363764,-0.24489716,-
 0.11761219,-0.02571517,0.00019255,0.00199119,0.00423620,-0.00000411,0.
 00000080,-0.00000026,-0.00000509,0.00000193,0.00000216,-0.00000032,0.0
 0000023,0.00000014,0.00000145,0.00000189,-0.00000199,0.00000079,-0.000
 00122,0.00001116,-0.00000526,0.00000207,0.00000166,-0.00001871,0.00001
 594,0.00001204,0.00000464,0.00003862,-0.00004088,-0.00007662,0.0000850
 4,-0.00014887,0.00018478,0.00000987,0.00038290,-0.00011942,0.00008364,
 -0.00053994,0.00006520,-0.00010081,0.00019343,0.00607817,0.00401294,0.
 00009788,-0.01088148,-0.00712247,0.00001328,0.26739109,0.00000809,0.00
 002025,-0.00000592,0.00000810,-0.00004402,0.00000818,-0.00000268,0.000
 06813,0.00006515,0.00039554,-0.00042479,0.00004045,0.00020491,0.000799
 00,-0.00128579,-0.00141486,-0.00076958,0.00035848,0.00668424,0.0018628
 1,0.00048422,-0.11398230,-0.10043428,-0.01192306,0.00049042,-0.0017356
 0,-0.00163814,-0.00001500,0.00000352,-0.00001170,0.00000333,-0.0000052
 1,0.00000243,-0.00000171,-0.00000587,0.00000172,-0.00000320,0.00000590
 ,0.00000108,-0.00000134,0.00000714,-0.00001774,0.00000110,-0.00001299,
 -0.00000995,0.00004339,-0.00002689,-0.00001552,-0.00000432,0.00005149,
 0.00000928,-0.00003402,0.00011361,-0.00028897,-0.00012996,0.00015254,0
 .00019970,0.00005954,0.00020653,0.00012467,0.00032239,0.00007733,0.000
 01267,-0.02812748,-0.01664758,-0.00251672,0.01064158,0.00536772,0.0001
 3662,0.12485424,0.11137082,-0.00001314,-0.00001086,0.00001599,-0.00001
 445,0.00002291,-0.00002096,-0.00003161,0.00000713,-0.00001617,-0.00056
 358,0.00010705,-0.00032438,-0.00127694,0.00049305,-0.00126375,-0.00055
 450,-0.00214478,-0.00049615,0.02162188,0.01666217,0.00881349,-0.021594
 92,-0.01005622,-0.04871752,0.00168982,-0.00410635,-0.00395691,0.000016
 41,-0.00000505,0.00000938,0.00000272,0.00000144,-0.00000569,0.00000127
 ,0.00000430,-0.00000323,0.00000239,-0.00000816,0.00000692,0.00000274,-
 0.00000455,0.00000984,-0.00000628,-0.00001053,-0.00001742,-0.00002535,
 0.00001751,-0.00000240,0.00003900,-0.00006680,0.00008514,0.00006979,-0
 .00007344,0.00022045,0.00009592,-0.00031826,-0.00115097,0.00000242,-0.
 00037072,0.00055358,-0.00021657,-0.00029864,-0.00016619,-0.00423933,-0
 .00185024,-0.00041983,-0.02093812,-0.01425981,-0.00135574,0.02593041,0
 .01626885,0.04820252\\-0.00000011,0.00000013,0.00000063,-0.00000042,0.
 00000015,0.00000071,0.00000041,0.00000016,0.00000003,-0.00000153,-0.00
 000005,-0.00000265,-0.00000107,-0.00000085,0.00000201,0.00000250,0.000
 00236,-0.00000208,0.00000060,-0.00000091,0.00000130,0.00000135,0.00000
 104,-0.00000342,-0.00000087,0.00000032,-0.00000042,-0.00000034,0.00000
 023,0.00000076,-0.00000032,-0.00000003,0.00000074,-0.00000032,0.000000
 12,0.00000044,-0.00000038,0.00000033,0.00000045,-0.00000030,0.00000040
 ,0.00000029,0.,0.00000008,0.00000012,-0.00000023,-0.00000013,0.0000004
 0,-0.00000028,-0.00000020,0.00000070,0.00000013,0.00000045,0.00000023,
 -0.00000131,-0.00000018,-0.00000109,0.00000035,-0.00000005,-0.00000004
 ,-0.00000031,-0.00000030,0.00000035,0.00000119,-0.00000098,0.00000008,
 0.00000014,-0.00000083,0.00000099,0.00000111,-0.00000125,-0.00000052\\
 \@


 LOGIC IS A SYSTEMATIC METHOD OF COMING TO THE
 WRONG CONCLUSION WITH CONFIDENCE.
 Job cpu time:       0 days  1 hours 50 minutes 27.1 seconds.
 Elapsed time:       0 days  0 hours 27 minutes 37.6 seconds.
 File lengths (MBytes):  RWF=    192 Int=      0 D2E=      0 Chk=     10 Scr=      1
 Normal termination of Gaussian 16 at Sun Jul  3 18:17:56 2022.
### All Done ###
