### Starting Gaussian ###
 Entering Gaussian System, Link 0=g16
 Initial command:
 /cluster/software/gaussian/gaussian-16-A.03/avx2/g16/l1.exe "/local/scratch/yxie/Gau-19156.inp" -scrdir="/local/scratch/yxie/"
 Entering Link 1 = /cluster/software/gaussian/gaussian-16-A.03/avx2/g16/l1.exe PID=     19157.
  
 Copyright (c) 1988,1990,1992,1993,1995,1998,2003,2009,2016,
            Gaussian, Inc.  All Rights Reserved.
  
 This is part of the Gaussian(R) 16 program.  It is based on
 the Gaussian(R) 09 system (copyright 2009, Gaussian, Inc.),
 the Gaussian(R) 03 system (copyright 2003, Gaussian, Inc.),
 the Gaussian(R) 98 system (copyright 1998, Gaussian, Inc.),
 the Gaussian(R) 94 system (copyright 1995, Gaussian, Inc.),
 the Gaussian 92(TM) system (copyright 1992, Gaussian, Inc.),
 the Gaussian 90(TM) system (copyright 1990, Gaussian, Inc.),
 the Gaussian 88(TM) system (copyright 1988, Gaussian, Inc.),
 the Gaussian 86(TM) system (copyright 1986, Carnegie Mellon
 University), and the Gaussian 82(TM) system (copyright 1983,
 Carnegie Mellon University). Gaussian is a federally registered
 trademark of Gaussian, Inc.
  
 This software contains proprietary and confidential information,
 including trade secrets, belonging to Gaussian, Inc.
  
 This software is provided under written license and may be
 used, copied, transmitted, or stored only in accord with that
 written license.
  
 The following legend is applicable only to US Government
 contracts under FAR:
  
                    RESTRICTED RIGHTS LEGEND
  
 Use, reproduction and disclosure by the US Government is
 subject to restrictions as set forth in subparagraphs (a)
 and (c) of the Commercial Computer Software - Restricted
 Rights clause in FAR 52.227-19.
  
 Gaussian, Inc.
 340 Quinnipiac St., Bldg. 40, Wallingford CT 06492
  
  
 ---------------------------------------------------------------
 Warning -- This program may not be used in any manner that
 competes with the business of Gaussian, Inc. or will provide
 assistance to any competitor of Gaussian, Inc.  The licensee
 of this program is prohibited from giving any competitor of
 Gaussian, Inc. access to this program.  By using this program,
 the user acknowledges that Gaussian, Inc. is engaged in the
 business of creating and licensing software in the field of
 computational chemistry and represents and warrants to the
 licensee that it is not a competitor of Gaussian, Inc. and that
 it will not use this program in any manner prohibited above.
 ---------------------------------------------------------------
  

 Cite this work as:
 Gaussian 16, Revision A.03,
 M. J. Frisch, G. W. Trucks, H. B. Schlegel, G. E. Scuseria, 
 M. A. Robb, J. R. Cheeseman, G. Scalmani, V. Barone, 
 G. A. Petersson, H. Nakatsuji, X. Li, M. Caricato, A. V. Marenich, 
 J. Bloino, B. G. Janesko, R. Gomperts, B. Mennucci, H. P. Hratchian, 
 J. V. Ortiz, A. F. Izmaylov, J. L. Sonnenberg, D. Williams-Young, 
 F. Ding, F. Lipparini, F. Egidi, J. Goings, B. Peng, A. Petrone, 
 T. Henderson, D. Ranasinghe, V. G. Zakrzewski, J. Gao, N. Rega, 
 G. Zheng, W. Liang, M. Hada, M. Ehara, K. Toyota, R. Fukuda, 
 J. Hasegawa, M. Ishida, T. Nakajima, Y. Honda, O. Kitao, H. Nakai, 
 T. Vreven, K. Throssell, J. A. Montgomery, Jr., J. E. Peralta, 
 F. Ogliaro, M. J. Bearpark, J. J. Heyd, E. N. Brothers, K. N. Kudin, 
 V. N. Staroverov, T. A. Keith, R. Kobayashi, J. Normand, 
 K. Raghavachari, A. P. Rendell, J. C. Burant, S. S. Iyengar, 
 J. Tomasi, M. Cossi, J. M. Millam, M. Klene, C. Adamo, R. Cammi, 
 J. W. Ochterski, R. L. Martin, K. Morokuma, O. Farkas, 
 J. B. Foresman, and D. J. Fox, Gaussian, Inc., Wallingford CT, 2016.
 
 ******************************************
 Gaussian 16:  ES64L-G16RevA.03 25-Dec-2016
                 4-Aug-2022 
 ******************************************
 %chk=CCCCpCNpCCtN.chk
 %NProcShared=20
 Will use up to   20 processors via shared memory.
 -----------------------------
 # opt freq b3lyp/6-31g(2df,p)
 -----------------------------
 1/18=20,19=15,26=3,38=1/1,3;
 2/9=110,12=2,17=6,18=5,40=1/2;
 3/5=1,6=6,7=104,11=2,25=1,30=1,71=1,74=-5/1,2,3;
 4//1;
 5/5=2,38=5/2;
 6/7=2,8=2,9=2,10=2,28=1/1;
 7//1,2,3,16;
 1/18=20,19=15,26=3/3(2);
 2/9=110/2;
 99//99;
 2/9=110/2;
 3/5=1,6=6,7=104,11=2,25=1,30=1,71=1,74=-5/1,2,3;
 4/5=5,16=3,69=1/1;
 5/5=2,38=5/2;
 7//1,2,3,16;
 1/18=20,19=15,26=3/3(-5);
 2/9=110/2;
 6/7=2,8=2,9=2,10=2,19=2,28=1/1;
 99/9=1/99;
 -------------------
 Title Card Required
 -------------------
 Symbolic Z-matrix:
 Charge =  0 Multiplicity = 1
 C                     0.91471  -0.01583   0.12495 
 C                     2.42627   0.00679   0.09074 
 C                     3.05406   0.3963    1.43051 
 C                     4.60169   0.43422   1.41298 
 C                     5.17947   1.46318   0.40173 
 N                     4.85893   1.15619  -0.9817 
 C                     5.11089   0.74719   2.84551 
 C                     6.63089   0.74719   2.84551 
 N                     7.89185   0.74719   2.84551 
 H                     0.53741  -0.26168  -0.87347 
 H                     0.53024   0.97343   0.3927 
 H                     0.53998  -0.75362   0.83604 
 H                     2.66449   0.74459  -0.67434 
 H                     2.81691  -0.96308  -0.2387 
 H                     2.7267   -0.32409   2.19217 
 H                     2.67195   1.37612   1.74262 
 H                     4.96824  -0.56553   1.13733 
 H                     6.27048   1.50285   0.46622 
 H                     4.80198   2.46102   0.64842 
 H                     5.19692   0.23612  -1.24576 
 H                     5.26707   1.84018  -1.61844 
 H                     4.75133  -0.0006    3.56069 
 H                     4.75593   1.73108   3.17314 
 

 GradGradGradGradGradGradGradGradGradGradGradGradGradGradGradGradGradGrad
 Berny optimization.
 Initialization pass.
                           ----------------------------
                           !    Initial Parameters    !
                           ! (Angstroms and Degrees)  !
 --------------------------                            --------------------------
 ! Name  Definition              Value          Derivative Info.                !
 --------------------------------------------------------------------------------
 ! R1    R(1,2)                  1.5121         estimate D2E/DX2                !
 ! R2    R(1,10)                 1.0953         estimate D2E/DX2                !
 ! R3    R(1,11)                 1.0946         estimate D2E/DX2                !
 ! R4    R(1,12)                 1.0911         estimate D2E/DX2                !
 ! R5    R(2,3)                  1.53           estimate D2E/DX2                !
 ! R6    R(2,13)                 1.0892         estimate D2E/DX2                !
 ! R7    R(2,14)                 1.0963         estimate D2E/DX2                !
 ! R8    R(3,4)                  1.5482         estimate D2E/DX2                !
 ! R9    R(3,15)                 1.0983         estimate D2E/DX2                !
 ! R10   R(3,16)                 1.097          estimate D2E/DX2                !
 ! R11   R(4,5)                  1.5541         estimate D2E/DX2                !
 ! R12   R(4,7)                  1.5522         estimate D2E/DX2                !
 ! R13   R(4,17)                 1.0999         estimate D2E/DX2                !
 ! R14   R(5,6)                  1.4529         estimate D2E/DX2                !
 ! R15   R(5,18)                 1.0936         estimate D2E/DX2                !
 ! R16   R(5,19)                 1.095          estimate D2E/DX2                !
 ! R17   R(6,20)                 1.0151         estimate D2E/DX2                !
 ! R18   R(6,21)                 1.0197         estimate D2E/DX2                !
 ! R19   R(7,8)                  1.52           estimate D2E/DX2                !
 ! R20   R(7,22)                 1.0954         estimate D2E/DX2                !
 ! R21   R(7,23)                 1.0961         estimate D2E/DX2                !
 ! R22   R(8,9)                  1.261          estimate D2E/DX2                !
 ! A1    A(2,1,10)             109.092          estimate D2E/DX2                !
 ! A2    A(2,1,11)             110.0676         estimate D2E/DX2                !
 ! A3    A(2,1,12)             111.604          estimate D2E/DX2                !
 ! A4    A(10,1,11)            107.7488         estimate D2E/DX2                !
 ! A5    A(10,1,12)            108.9055         estimate D2E/DX2                !
 ! A6    A(11,1,12)            109.3344         estimate D2E/DX2                !
 ! A7    A(1,2,3)              113.2144         estimate D2E/DX2                !
 ! A8    A(1,2,13)             104.1609         estimate D2E/DX2                !
 ! A9    A(1,2,14)             110.4734         estimate D2E/DX2                !
 ! A10   A(3,2,13)             110.6643         estimate D2E/DX2                !
 ! A11   A(3,2,14)             110.0093         estimate D2E/DX2                !
 ! A12   A(13,2,14)            108.0742         estimate D2E/DX2                !
 ! A13   A(2,3,4)              113.985          estimate D2E/DX2                !
 ! A14   A(2,3,15)             108.5413         estimate D2E/DX2                !
 ! A15   A(2,3,16)             109.4874         estimate D2E/DX2                !
 ! A16   A(4,3,15)             108.7761         estimate D2E/DX2                !
 ! A17   A(4,3,16)             109.2404         estimate D2E/DX2                !
 ! A18   A(15,3,16)            106.5419         estimate D2E/DX2                !
 ! A19   A(3,4,5)              113.2802         estimate D2E/DX2                !
 ! A20   A(3,4,7)              108.8091         estimate D2E/DX2                !
 ! A21   A(3,4,17)             108.2825         estimate D2E/DX2                !
 ! A22   A(5,4,7)              110.186          estimate D2E/DX2                !
 ! A23   A(5,4,17)             108.3505         estimate D2E/DX2                !
 ! A24   A(7,4,17)             107.7718         estimate D2E/DX2                !
 ! A25   A(4,5,6)              113.4327         estimate D2E/DX2                !
 ! A26   A(4,5,18)             110.8874         estimate D2E/DX2                !
 ! A27   A(4,5,19)             109.1828         estimate D2E/DX2                !
 ! A28   A(6,5,18)             106.4936         estimate D2E/DX2                !
 ! A29   A(6,5,19)             109.3299         estimate D2E/DX2                !
 ! A30   A(18,5,19)            107.3118         estimate D2E/DX2                !
 ! A31   A(5,6,20)             111.4533         estimate D2E/DX2                !
 ! A32   A(5,6,21)             111.3791         estimate D2E/DX2                !
 ! A33   A(20,6,21)            108.1951         estimate D2E/DX2                !
 ! A34   A(4,7,8)              109.1503         estimate D2E/DX2                !
 ! A35   A(4,7,22)             110.9295         estimate D2E/DX2                !
 ! A36   A(4,7,23)             110.5251         estimate D2E/DX2                !
 ! A37   A(8,7,22)             109.1619         estimate D2E/DX2                !
 ! A38   A(8,7,23)             108.8957         estimate D2E/DX2                !
 ! A39   A(22,7,23)            108.1392         estimate D2E/DX2                !
 ! A40   L(7,8,9,18,-1)        180.0            estimate D2E/DX2                !
 ! A41   L(7,8,9,18,-2)        180.0            estimate D2E/DX2                !
 ! D1    D(10,1,2,3)           177.7354         estimate D2E/DX2                !
 ! D2    D(10,1,2,13)           57.455          estimate D2E/DX2                !
 ! D3    D(10,1,2,14)          -58.3779         estimate D2E/DX2                !
 ! D4    D(11,1,2,3)            59.7088         estimate D2E/DX2                !
 ! D5    D(11,1,2,13)          -60.5716         estimate D2E/DX2                !
 ! D6    D(11,1,2,14)         -176.4045         estimate D2E/DX2                !
 ! D7    D(12,1,2,3)           -61.8773         estimate D2E/DX2                !
 ! D8    D(12,1,2,13)          177.8424         estimate D2E/DX2                !
 ! D9    D(12,1,2,14)           62.0094         estimate D2E/DX2                !
 ! D10   D(1,2,3,4)           -179.616          estimate D2E/DX2                !
 ! D11   D(1,2,3,15)            58.998          estimate D2E/DX2                !
 ! D12   D(1,2,3,16)           -56.9299         estimate D2E/DX2                !
 ! D13   D(13,2,3,4)           -63.1118         estimate D2E/DX2                !
 ! D14   D(13,2,3,15)          175.5022         estimate D2E/DX2                !
 ! D15   D(13,2,3,16)           59.5743         estimate D2E/DX2                !
 ! D16   D(14,2,3,4)            56.2437         estimate D2E/DX2                !
 ! D17   D(14,2,3,15)          -65.1424         estimate D2E/DX2                !
 ! D18   D(14,2,3,16)          178.9297         estimate D2E/DX2                !
 ! D19   D(2,3,4,5)             60.807          estimate D2E/DX2                !
 ! D20   D(2,3,4,7)           -176.278          estimate D2E/DX2                !
 ! D21   D(2,3,4,17)           -59.3985         estimate D2E/DX2                !
 ! D22   D(15,3,4,5)          -177.9372         estimate D2E/DX2                !
 ! D23   D(15,3,4,7)           -55.0223         estimate D2E/DX2                !
 ! D24   D(15,3,4,17)           61.8573         estimate D2E/DX2                !
 ! D25   D(16,3,4,5)           -62.014          estimate D2E/DX2                !
 ! D26   D(16,3,4,7)            60.901          estimate D2E/DX2                !
 ! D27   D(16,3,4,17)          177.7805         estimate D2E/DX2                !
 ! D28   D(3,4,5,6)            -63.8003         estimate D2E/DX2                !
 ! D29   D(3,4,5,18)           176.4251         estimate D2E/DX2                !
 ! D30   D(3,4,5,19)            58.3915         estimate D2E/DX2                !
 ! D31   D(7,4,5,6)            174.049          estimate D2E/DX2                !
 ! D32   D(7,4,5,18)            54.2744         estimate D2E/DX2                !
 ! D33   D(7,4,5,19)           -63.7592         estimate D2E/DX2                !
 ! D34   D(17,4,5,6)            56.3665         estimate D2E/DX2                !
 ! D35   D(17,4,5,18)          -63.4081         estimate D2E/DX2                !
 ! D36   D(17,4,5,19)          178.5583         estimate D2E/DX2                !
 ! D37   D(3,4,7,8)            178.4052         estimate D2E/DX2                !
 ! D38   D(3,4,7,22)            58.0855         estimate D2E/DX2                !
 ! D39   D(3,4,7,23)           -61.8548         estimate D2E/DX2                !
 ! D40   D(5,4,7,8)            -56.8396         estimate D2E/DX2                !
 ! D41   D(5,4,7,22)          -177.1592         estimate D2E/DX2                !
 ! D42   D(5,4,7,23)            62.9005         estimate D2E/DX2                !
 ! D43   D(17,4,7,8)            61.1999         estimate D2E/DX2                !
 ! D44   D(17,4,7,22)          -59.1197         estimate D2E/DX2                !
 ! D45   D(17,4,7,23)         -179.06           estimate D2E/DX2                !
 ! D46   D(4,5,6,20)           -58.0029         estimate D2E/DX2                !
 ! D47   D(4,5,6,21)          -178.942          estimate D2E/DX2                !
 ! D48   D(18,5,6,20)           64.2452         estimate D2E/DX2                !
 ! D49   D(18,5,6,21)          -56.6939         estimate D2E/DX2                !
 ! D50   D(19,5,6,20)          179.887          estimate D2E/DX2                !
 ! D51   D(19,5,6,21)           58.9479         estimate D2E/DX2                !
 --------------------------------------------------------------------------------
 Trust Radius=3.00D-01 FncErr=1.00D-07 GrdErr=1.00D-06 EigMax=2.50D+02 EigMin=1.00D-04
 Number of steps in this run=    124 maximum allowed number of steps=    138.
 GradGradGradGradGradGradGradGradGradGradGradGradGradGradGradGradGradGrad

                          Input orientation:                          
 ---------------------------------------------------------------------
 Center     Atomic      Atomic             Coordinates (Angstroms)
 Number     Number       Type             X           Y           Z
 ---------------------------------------------------------------------
      1          6           0        0.914710   -0.015830    0.124950
      2          6           0        2.426270    0.006790    0.090740
      3          6           0        3.054060    0.396300    1.430510
      4          6           0        4.601690    0.434220    1.412980
      5          6           0        5.179470    1.463180    0.401730
      6          7           0        4.858930    1.156190   -0.981700
      7          6           0        5.110890    0.747190    2.845510
      8          6           0        6.630890    0.747190    2.845510
      9          7           0        7.891850    0.747190    2.845510
     10          1           0        0.537410   -0.261680   -0.873470
     11          1           0        0.530240    0.973430    0.392700
     12          1           0        0.539980   -0.753620    0.836040
     13          1           0        2.664490    0.744590   -0.674340
     14          1           0        2.816910   -0.963080   -0.238700
     15          1           0        2.726700   -0.324090    2.192170
     16          1           0        2.671950    1.376120    1.742620
     17          1           0        4.968240   -0.565530    1.137330
     18          1           0        6.270480    1.502850    0.466220
     19          1           0        4.801980    2.461020    0.648420
     20          1           0        5.196920    0.236120   -1.245760
     21          1           0        5.267070    1.840180   -1.618440
     22          1           0        4.751330   -0.000600    3.560690
     23          1           0        4.755930    1.731080    3.173140
 ---------------------------------------------------------------------
                    Distance matrix (angstroms):
                    1          2          3          4          5
     1  C    0.000000
     2  C    1.512116   0.000000
     3  C    2.539913   1.529975   0.000000
     4  C    3.931334   2.581369   1.548194   0.000000
     5  C    4.522417   3.130159   2.591137   1.554096   0.000000
     6  N    4.260889   2.896391   3.107048   2.514340   1.452882
     7  C    5.058811   3.917159   2.521091   1.552217   2.547431
     8  C    6.376391   5.080923   3.862520   2.503546   2.931096
     9  N    7.527558   6.165186   5.052679   3.602117   3.720445
    10  H    1.095281   2.137655   3.474880   4.714923   5.113707
    11  H    1.094597   2.149535   2.789229   4.231835   4.674963
    12  H    1.091057   2.166053   2.827775   4.270985   5.160203
    13  H    2.068534   1.089241   2.168747   2.864608   2.828325
    14  H    2.155896   1.096256   2.165737   2.804627   3.446531
    15  H    2.766176   2.148429   1.098295   2.167431   3.523647
    16  H    2.764466   2.159660   1.097027   2.172495   2.844859
    17  H    4.214047   2.807937   2.162211   1.099928   2.168269
    18  H    5.577376   4.142117   3.535487   2.196175   1.093634
    19  H    4.638930   3.460961   2.816018   2.175451   1.095007
    20  H    4.503293   3.084692   3.432190   2.731747   2.054314
    21  H    5.042541   3.788504   4.034637   3.407193   2.056913
    22  H    5.150164   4.176902   2.752439   2.196388   3.507846
    23  H    5.205586   4.231038   2.777545   2.191757   2.816358
                    6          7          8          9         10
     6  N    0.000000
     7  C    3.857240   0.000000
     8  C    4.237294   1.520000   0.000000
     9  N    4.900349   2.780960   1.260960   0.000000
    10  H    4.549462   5.980414   7.209655   8.302796   0.000000
    11  H    4.545320   5.200944   6.579163   7.762781   1.768823
    12  H    5.060127   5.213791   6.587077   7.767908   1.778886
    13  H    2.253764   4.286517   5.302988   6.301956   2.361504
    14  H    3.035325   4.207103   5.194595   6.179999   2.467998
    15  H    4.100132   2.694226   4.100877   5.315380   3.767630
    16  H    3.500453   2.749609   4.157538   5.372083   3.752676
    17  H    2.732500   2.159042   2.721308   3.631612   4.875233
    18  H    2.051614   2.752579   2.522288   2.976724   6.146253
    19  H    2.088807   2.803541   3.333066   4.160735   5.283541
    20  H    1.015132   4.123965   4.365312   4.925681   4.700791
    21  H    1.019734   4.598464   4.793900   5.292537   5.229004
    22  H    4.688608   1.095425   2.145558   3.306590   6.122668
    23  H    4.195689   1.096074   2.142628   3.302934   6.175926
                   11         12         13         14         15
    11  H    0.000000
    12  H    1.783072   0.000000
    13  H    2.397074   3.006563   0.000000
    14  H    3.062286   2.526529   1.768941   0.000000
    15  H    3.121872   2.608703   3.059874   2.515070   0.000000
    16  H    2.563467   3.146899   2.498116   3.068957   1.759490
    17  H    4.755914   4.442481   3.210269   2.584516   2.489073
    18  H    5.765071   6.169850   3.857331   4.301729   4.344536
    19  H    4.530572   5.341700   3.043795   4.056100   3.800893
    20  H    5.000608   5.196207   2.645423   2.848982   4.270268
    21  H    5.218572   5.924327   2.977426   3.970546   5.065402
    22  H    5.366796   5.072103   4.779716   4.370779   2.465080
    23  H    5.114815   5.423099   4.488918   4.760142   3.050213
                   16         17         18         19         20
    16  H    0.000000
    17  H    3.067463   0.000000
    18  H    3.820298   2.534643   0.000000
    19  H    2.628937   3.070290   1.762889   0.000000
    20  H    4.074983   2.524689   2.384955   2.948572   0.000000
    21  H    4.271618   3.670287   2.338040   2.395914   1.648278
    22  H    3.086188   2.497773   3.760841   3.813588   4.832861
    23  H    2.552520   3.076364   3.110204   2.628525   4.685729
                   21         22         23
    21  H    0.000000
    22  H    5.520674   0.000000
    23  H    4.820001   1.774523   0.000000
 Stoichiometry    C7H14N2
 Framework group  C1[X(C7H14N2)]
 Deg. of freedom    63
 Full point group                 C1      NOp   1
 Largest Abelian subgroup         C1      NOp   1
 Largest concise Abelian subgroup C1      NOp   1
                         Standard orientation:                         
 ---------------------------------------------------------------------
 Center     Atomic      Atomic             Coordinates (Angstroms)
 Number     Number       Type             X           Y           Z
 ---------------------------------------------------------------------
      1          6           0       -3.579352   -0.665594   -0.009550
      2          6           0       -2.245183   -0.037798   -0.344753
      3          6           0       -1.051635   -0.860027    0.145351
      4          6           0        0.323875   -0.228518   -0.180337
      5          6           0        0.526279    1.170012    0.466473
      6          7           0       -0.402298    2.173644   -0.024784
      7          6           0        1.442687   -1.199757    0.282624
      8          6           0        2.796470   -0.604945   -0.069330
      9          7           0        3.919540   -0.111502   -0.361302
     10          1           0       -4.382571   -0.005122   -0.353436
     11          1           0       -3.680182   -0.777050    1.074679
     12          1           0       -3.695371   -1.640609   -0.485251
     13          1           0       -2.274334    0.931181    0.151910
     14          1           0       -2.163368    0.135581   -1.424116
     15          1           0       -1.101177   -1.856066   -0.314762
     16          1           0       -1.132171   -1.012104    1.228797
     17          1           0        0.403971   -0.120046   -1.271969
     18          1           0        1.531156    1.551340    0.264369
     19          1           0        0.423546    1.082145    1.553103
     20          1           0       -0.332538    2.282835   -1.031613
     21          1           0       -0.230817    3.081584    0.406606
     22          1           0        1.340707   -2.175194   -0.205308
     23          1           0        1.393625   -1.353702    1.366723
 ---------------------------------------------------------------------
 Rotational constants (GHZ):           2.9216055           0.7742253           0.6432168
 Standard basis: 6-31G(2df,p) (6D, 7F)
 There are   349 symmetry adapted cartesian basis functions of A   symmetry.
 There are   322 symmetry adapted basis functions of A   symmetry.
   322 basis functions,   494 primitive gaussians,   349 cartesian basis functions
    35 alpha electrons       35 beta electrons
       nuclear repulsion energy       439.5459134598 Hartrees.
 NAtoms=   23 NActive=   23 NUniq=   23 SFac= 1.00D+00 NAtFMM=   60 NAOKFM=F Big=F
 Integral buffers will be    131072 words long.
 Raffenetti 2 integral format.
 Two-electron integral symmetry is turned on.
 One-electron integrals computed using PRISM.
 PrsmSu:  requested number of processors reduced to:  13 ShMem   1 Linda.
 NBasis=   322 RedAO= T EigKep=  2.15D-04  NBF=   322
 NBsUse=   322 1.00D-06 EigRej= -1.00D+00 NBFU=   322
 ExpMin= 1.61D-01 ExpMax= 4.17D+03 ExpMxC= 6.27D+02 IAcc=3 IRadAn=         5 AccDes= 0.00D+00
 Harris functional with IExCor=  402 and IRadAn=       5 diagonalized for initial guess.
 HarFok:  IExCor=  402 AccDes= 0.00D+00 IRadAn=         5 IDoV= 1 UseB2=F ITyADJ=14
 ICtDFT=  3500011 ScaDFX=  1.000000  1.000000  1.000000  1.000000
 FoFCou: FMM=F IPFlag=           0 FMFlag=      100000 FMFlg1=           0
         NFxFlg=           0 DoJE=T BraDBF=F KetDBF=T FulRan=T
         wScrn=  0.000000 ICntrl=       500 IOpCl=  0 I1Cent=   200000004 NGrid=           0
         NMat0=    1 NMatS0=      1 NMatT0=    0 NMatD0=    1 NMtDS0=    0 NMtDT0=    0
 Petite list used in FoFCou.
 Requested convergence on RMS density matrix=1.00D-08 within 128 cycles.
 Requested convergence on MAX density matrix=1.00D-06.
 Requested convergence on             energy=1.00D-06.
 No special actions if energy rises.
 Integral accuracy reduced to 1.0D-05 until final iterations.
 Initial convergence to 1.0D-05 achieved.  Increase integral accuracy.
 SCF Done:  E(RB3LYP) =  -384.663675343     A.U. after   14 cycles
            NFock= 14  Conv=0.56D-08     -V/T= 2.0095

 **********************************************************************

            Population analysis using the SCF density.

 **********************************************************************

 Orbital symmetries:
       Occupied  (A) (A) (A) (A) (A) (A) (A) (A) (A) (A) (A) (A)
                 (A) (A) (A) (A) (A) (A) (A) (A) (A) (A) (A) (A)
                 (A) (A) (A) (A) (A) (A) (A) (A) (A) (A) (A)
       Virtual   (A) (A) (A) (A) (A) (A) (A) (A) (A) (A) (A) (A)
                 (A) (A) (A) (A) (A) (A) (A) (A) (A) (A) (A) (A)
                 (A) (A) (A) (A) (A) (A) (A) (A) (A) (A) (A) (A)
                 (A) (A) (A) (A) (A) (A) (A) (A) (A) (A) (A) (A)
                 (A) (A) (A) (A) (A) (A) (A) (A) (A) (A) (A) (A)
                 (A) (A) (A) (A) (A) (A) (A) (A) (A) (A) (A) (A)
                 (A) (A) (A) (A) (A) (A) (A) (A) (A) (A) (A) (A)
                 (A) (A) (A) (A) (A) (A) (A) (A) (A) (A) (A) (A)
                 (A) (A) (A) (A) (A) (A) (A) (A) (A) (A) (A) (A)
                 (A) (A) (A) (A) (A) (A) (A) (A) (A) (A) (A) (A)
                 (A) (A) (A) (A) (A) (A) (A) (A) (A) (A) (A) (A)
                 (A) (A) (A) (A) (A) (A) (A) (A) (A) (A) (A) (A)
                 (A) (A) (A) (A) (A) (A) (A) (A) (A) (A) (A) (A)
                 (A) (A) (A) (A) (A) (A) (A) (A) (A) (A) (A) (A)
                 (A) (A) (A) (A) (A) (A) (A) (A) (A) (A) (A) (A)
                 (A) (A) (A) (A) (A) (A) (A) (A) (A) (A) (A) (A)
                 (A) (A) (A) (A) (A) (A) (A) (A) (A) (A) (A) (A)
                 (A) (A) (A) (A) (A) (A) (A) (A) (A) (A) (A) (A)
                 (A) (A) (A) (A) (A) (A) (A) (A) (A) (A) (A) (A)
                 (A) (A) (A) (A) (A) (A) (A) (A) (A) (A) (A) (A)
                 (A) (A) (A) (A) (A) (A) (A) (A) (A) (A) (A) (A)
                 (A) (A) (A) (A) (A) (A) (A) (A) (A) (A) (A) (A)
                 (A) (A) (A) (A) (A) (A) (A) (A) (A) (A) (A) (A)
                 (A) (A) (A) (A) (A) (A) (A) (A) (A) (A) (A)
 The electronic state is 1-A.
 Alpha  occ. eigenvalues --  -14.34647 -14.31086 -10.24438 -10.24153 -10.21265
 Alpha  occ. eigenvalues --  -10.21226 -10.18757 -10.16730 -10.16700  -0.89027
 Alpha  occ. eigenvalues --   -0.86097  -0.81809  -0.77380  -0.70714  -0.66911
 Alpha  occ. eigenvalues --   -0.59892  -0.57655  -0.51475  -0.49207  -0.48412
 Alpha  occ. eigenvalues --   -0.46727  -0.44995  -0.42184  -0.41230  -0.40302
 Alpha  occ. eigenvalues --   -0.38605  -0.36701  -0.36098  -0.34487  -0.33327
 Alpha  occ. eigenvalues --   -0.32948  -0.32417  -0.30271  -0.29855  -0.22609
 Alpha virt. eigenvalues --    0.00965   0.01186   0.07230   0.07680   0.09803
 Alpha virt. eigenvalues --    0.10084   0.13519   0.14674   0.14985   0.15792
 Alpha virt. eigenvalues --    0.15953   0.16366   0.17245   0.17588   0.19069
 Alpha virt. eigenvalues --    0.19596   0.20081   0.22152   0.23199   0.24478
 Alpha virt. eigenvalues --    0.25818   0.26424   0.28816   0.34789   0.43280
 Alpha virt. eigenvalues --    0.45690   0.46393   0.47730   0.48487   0.49319
 Alpha virt. eigenvalues --    0.51927   0.54006   0.54745   0.56392   0.57330
 Alpha virt. eigenvalues --    0.58089   0.58516   0.60014   0.61066   0.62159
 Alpha virt. eigenvalues --    0.64235   0.65345   0.67469   0.68481   0.68818
 Alpha virt. eigenvalues --    0.71278   0.72283   0.72547   0.73657   0.74090
 Alpha virt. eigenvalues --    0.74591   0.75658   0.76514   0.76861   0.77835
 Alpha virt. eigenvalues --    0.78459   0.78707   0.79582   0.80501   0.81469
 Alpha virt. eigenvalues --    0.82259   0.82447   0.84371   0.84606   0.85662
 Alpha virt. eigenvalues --    0.86275   0.88944   0.89609   0.90443   0.93844
 Alpha virt. eigenvalues --    1.01886   1.02521   1.05042   1.07223   1.09735
 Alpha virt. eigenvalues --    1.10730   1.14477   1.16165   1.20015   1.23398
 Alpha virt. eigenvalues --    1.24362   1.24951   1.25134   1.28615   1.30155
 Alpha virt. eigenvalues --    1.31766   1.33009   1.36738   1.38957   1.41522
 Alpha virt. eigenvalues --    1.43289   1.44738   1.46837   1.48492   1.53944
 Alpha virt. eigenvalues --    1.55531   1.56793   1.58742   1.59026   1.61907
 Alpha virt. eigenvalues --    1.64061   1.65075   1.66230   1.68453   1.71477
 Alpha virt. eigenvalues --    1.78283   1.79111   1.81064   1.83078   1.83529
 Alpha virt. eigenvalues --    1.85334   1.87463   1.88590   1.92222   1.92946
 Alpha virt. eigenvalues --    1.94801   1.95838   2.00388   2.05162   2.15588
 Alpha virt. eigenvalues --    2.18718   2.19568   2.22368   2.23925   2.24320
 Alpha virt. eigenvalues --    2.25922   2.27690   2.28507   2.34181   2.37616
 Alpha virt. eigenvalues --    2.39525   2.42450   2.45400   2.46391   2.48954
 Alpha virt. eigenvalues --    2.54663   2.56708   2.63811   2.65080   2.66509
 Alpha virt. eigenvalues --    2.68783   2.72206   2.74318   2.74946   2.76573
 Alpha virt. eigenvalues --    2.77362   2.78129   2.78961   2.80184   2.80845
 Alpha virt. eigenvalues --    2.81823   2.82354   2.85221   2.87880   2.88538
 Alpha virt. eigenvalues --    2.89993   2.91689   2.92058   2.94596   2.95418
 Alpha virt. eigenvalues --    2.97090   2.99390   3.00195   3.00991   3.02595
 Alpha virt. eigenvalues --    3.03399   3.05212   3.09135   3.15366   3.17518
 Alpha virt. eigenvalues --    3.19504   3.19975   3.22025   3.28145   3.32229
 Alpha virt. eigenvalues --    3.33692   3.34983   3.37775   3.41196   3.42405
 Alpha virt. eigenvalues --    3.43996   3.46253   3.47072   3.51865   3.57015
 Alpha virt. eigenvalues --    3.58051   3.60600   3.62692   3.62888   3.64052
 Alpha virt. eigenvalues --    3.64723   3.65970   3.67082   3.70061   3.71280
 Alpha virt. eigenvalues --    3.73509   3.75915   3.77572   3.82513   3.83827
 Alpha virt. eigenvalues --    3.85101   3.86992   3.90259   3.91571   3.93180
 Alpha virt. eigenvalues --    3.98076   4.00719   4.01898   4.06175   4.12212
 Alpha virt. eigenvalues --    4.12881   4.14476   4.16122   4.19747   4.22010
 Alpha virt. eigenvalues --    4.25743   4.27222   4.28055   4.30143   4.32404
 Alpha virt. eigenvalues --    4.33663   4.36146   4.37721   4.43697   4.44583
 Alpha virt. eigenvalues --    4.45373   4.47401   4.49616   4.50565   4.53108
 Alpha virt. eigenvalues --    4.56246   4.56597   4.57940   4.59772   4.62050
 Alpha virt. eigenvalues --    4.63056   4.64592   4.64742   4.66394   4.67981
 Alpha virt. eigenvalues --    4.68743   4.70359   4.72785   4.73319   4.74999
 Alpha virt. eigenvalues --    4.76064   4.77175   4.77728   4.79843   4.80964
 Alpha virt. eigenvalues --    4.83866   4.86568   4.87000   4.89143   4.90276
 Alpha virt. eigenvalues --    4.93728   4.93823   4.97488   4.99468   5.01472
 Alpha virt. eigenvalues --    5.10468   5.11518   5.13203   5.16095   5.20033
 Alpha virt. eigenvalues --    5.29269   5.32567   5.37190   5.41267   5.45374
 Alpha virt. eigenvalues --    5.49399   5.54740   5.60404   5.70004   6.02018
 Alpha virt. eigenvalues --    6.24800  10.42173  10.94038  11.27998  11.32617
 Alpha virt. eigenvalues --   11.46083  11.88798  12.10865  12.27674  12.58212
 Alpha virt. eigenvalues --   13.79415  14.10076
          Condensed to atoms (all electrons):
               1          2          3          4          5          6
     1  C    4.993408   0.381560  -0.034888   0.002197   0.000141   0.001151
     2  C    0.381560   4.791388   0.441001  -0.022747  -0.003035  -0.027168
     3  C   -0.034888   0.441001   4.831303   0.409435  -0.027418  -0.003163
     4  C    0.002197  -0.022747   0.409435   4.689715   0.405548  -0.026398
     5  C    0.000141  -0.003035  -0.027418   0.405548   4.866362   0.376108
     6  N    0.001151  -0.027168  -0.003163  -0.026398   0.376108   6.541532
     7  C   -0.000125   0.002122  -0.037739   0.377344  -0.037918   0.001768
     8  C    0.000001  -0.000115   0.002272  -0.032922  -0.005948   0.000051
     9  N   -0.000000  -0.000000  -0.000011  -0.001601  -0.002460   0.000053
    10  H    0.374206  -0.021963   0.003390  -0.000137   0.000000   0.000019
    11  H    0.378824  -0.029259  -0.005125   0.000221  -0.000022   0.000021
    12  H    0.368084  -0.025953  -0.003792   0.000032   0.000002  -0.000025
    13  H   -0.034174   0.371855  -0.024405  -0.003774   0.000327   0.023072
    14  H   -0.038323   0.369104  -0.037038  -0.001682  -0.001220   0.001282
    15  H   -0.005340  -0.036691   0.357243  -0.027555   0.004372  -0.000177
    16  H   -0.002838  -0.033779   0.355063  -0.026115  -0.008414  -0.000070
    17  H   -0.000009  -0.003910  -0.040097   0.358034  -0.048205  -0.002884
    18  H    0.000009  -0.000037   0.004141  -0.036860   0.383311  -0.043171
    19  H   -0.000056   0.000334  -0.006993  -0.024782   0.346544  -0.022456
    20  H   -0.000084   0.001192   0.000018  -0.002476  -0.054201   0.344680
    21  H   -0.000027   0.000525   0.000176   0.004641  -0.043221   0.341335
    22  H   -0.000001  -0.000033  -0.002403  -0.021193   0.003921  -0.000050
    23  H    0.000002  -0.000002  -0.004042  -0.022857  -0.007581   0.000022
               7          8          9         10         11         12
     1  C   -0.000125   0.000001  -0.000000   0.374206   0.378824   0.368084
     2  C    0.002122  -0.000115  -0.000000  -0.021963  -0.029259  -0.025953
     3  C   -0.037739   0.002272  -0.000011   0.003390  -0.005125  -0.003792
     4  C    0.377344  -0.032922  -0.001601  -0.000137   0.000221   0.000032
     5  C   -0.037918  -0.005948  -0.002460   0.000000  -0.000022   0.000002
     6  N    0.001768   0.000051   0.000053   0.000019   0.000021  -0.000025
     7  C    5.040163   0.363455  -0.044321   0.000001   0.000005   0.000000
     8  C    0.363455   4.478694   0.933915  -0.000000   0.000000   0.000000
     9  N   -0.044321   0.933915   6.497759  -0.000000  -0.000000   0.000000
    10  H    0.000001  -0.000000  -0.000000   0.605426  -0.031920  -0.032105
    11  H    0.000005   0.000000  -0.000000  -0.031920   0.607032  -0.033907
    12  H    0.000000   0.000000   0.000000  -0.032105  -0.033907   0.619512
    13  H    0.000065   0.000008  -0.000000  -0.003306  -0.005216   0.005446
    14  H    0.000166   0.000010  -0.000000  -0.002591   0.005957  -0.004293
    15  H   -0.004432   0.000446   0.000002  -0.000093  -0.000389   0.005725
    16  H   -0.003884   0.000242   0.000000  -0.000070   0.005103  -0.000406
    17  H   -0.034475  -0.001046   0.000431   0.000002   0.000011   0.000004
    18  H   -0.005552   0.015699   0.001399  -0.000000  -0.000000  -0.000000
    19  H   -0.002039  -0.000637   0.000121   0.000000  -0.000003   0.000001
    20  H    0.000021  -0.000046   0.000009  -0.000002   0.000001   0.000003
    21  H   -0.000189  -0.000009   0.000003  -0.000000   0.000000   0.000000
    22  H    0.358428  -0.018226   0.000021   0.000000   0.000000   0.000000
    23  H    0.357609  -0.022280  -0.000276   0.000000  -0.000001   0.000000
              13         14         15         16         17         18
     1  C   -0.034174  -0.038323  -0.005340  -0.002838  -0.000009   0.000009
     2  C    0.371855   0.369104  -0.036691  -0.033779  -0.003910  -0.000037
     3  C   -0.024405  -0.037038   0.357243   0.355063  -0.040097   0.004141
     4  C   -0.003774  -0.001682  -0.027555  -0.026115   0.358034  -0.036860
     5  C    0.000327  -0.001220   0.004372  -0.008414  -0.048205   0.383311
     6  N    0.023072   0.001282  -0.000177  -0.000070  -0.002884  -0.043171
     7  C    0.000065   0.000166  -0.004432  -0.003884  -0.034475  -0.005552
     8  C    0.000008   0.000010   0.000446   0.000242  -0.001046   0.015699
     9  N   -0.000000  -0.000000   0.000002   0.000000   0.000431   0.001399
    10  H   -0.003306  -0.002591  -0.000093  -0.000070   0.000002  -0.000000
    11  H   -0.005216   0.005957  -0.000389   0.005103   0.000011  -0.000000
    12  H    0.005446  -0.004293   0.005725  -0.000406   0.000004  -0.000000
    13  H    0.569804  -0.037169   0.005478  -0.005118  -0.000383   0.000260
    14  H   -0.037169   0.661218  -0.004893   0.006355   0.005260  -0.000016
    15  H    0.005478  -0.004893   0.659331  -0.041815  -0.003898  -0.000191
    16  H   -0.005118   0.006355  -0.041815   0.648008   0.006440  -0.000083
    17  H   -0.000383   0.005260  -0.003898   0.006440   0.665276  -0.004068
    18  H    0.000260  -0.000016  -0.000191  -0.000083  -0.004068   0.620391
    19  H   -0.000419   0.000063   0.000016   0.004691   0.006253  -0.044164
    20  H   -0.001447   0.000632   0.000006   0.000078   0.005292  -0.003877
    21  H    0.000212  -0.000024   0.000010  -0.000020  -0.000083  -0.003901
    22  H    0.000004  -0.000003   0.004704  -0.000390  -0.004457   0.000110
    23  H    0.000002   0.000010  -0.000321   0.004925   0.005878  -0.000257
              19         20         21         22         23
     1  C   -0.000056  -0.000084  -0.000027  -0.000001   0.000002
     2  C    0.000334   0.001192   0.000525  -0.000033  -0.000002
     3  C   -0.006993   0.000018   0.000176  -0.002403  -0.004042
     4  C   -0.024782  -0.002476   0.004641  -0.021193  -0.022857
     5  C    0.346544  -0.054201  -0.043221   0.003921  -0.007581
     6  N   -0.022456   0.344680   0.341335  -0.000050   0.000022
     7  C   -0.002039   0.000021  -0.000189   0.358428   0.357609
     8  C   -0.000637  -0.000046  -0.000009  -0.018226  -0.022280
     9  N    0.000121   0.000009   0.000003   0.000021  -0.000276
    10  H    0.000000  -0.000002  -0.000000   0.000000   0.000000
    11  H   -0.000003   0.000001   0.000000   0.000000  -0.000001
    12  H    0.000001   0.000003   0.000000   0.000000   0.000000
    13  H   -0.000419  -0.001447   0.000212   0.000004   0.000002
    14  H    0.000063   0.000632  -0.000024  -0.000003   0.000010
    15  H    0.000016   0.000006   0.000010   0.004704  -0.000321
    16  H    0.004691   0.000078  -0.000020  -0.000390   0.004925
    17  H    0.006253   0.005292  -0.000083  -0.004457   0.005878
    18  H   -0.044164  -0.003877  -0.003901   0.000110  -0.000257
    19  H    0.633187   0.006495  -0.002299  -0.000117   0.004608
    20  H    0.006495   0.505998  -0.029394   0.000002   0.000016
    21  H   -0.002299  -0.029394   0.502256   0.000003  -0.000001
    22  H   -0.000117   0.000002   0.000003   0.558742  -0.034765
    23  H    0.004608   0.000016  -0.000001  -0.034765   0.564650
 Mulliken charges:
               1
     1  C   -0.383718
     2  C   -0.154390
     3  C   -0.176929
     4  C    0.003933
     5  C   -0.146992
     6  N   -0.505531
     7  C   -0.330476
     8  C    0.286437
     9  N   -0.385044
    10  H    0.109144
    11  H    0.108666
    12  H    0.101669
    13  H    0.138878
    14  H    0.077197
    15  H    0.088461
    16  H    0.092095
    17  H    0.090633
    18  H    0.116857
    19  H    0.101653
    20  H    0.227084
    21  H    0.230006
    22  H    0.155703
    23  H    0.154660
 Sum of Mulliken charges =  -0.00000
 Mulliken charges with hydrogens summed into heavy atoms:
               1
     1  C   -0.064238
     2  C    0.061685
     3  C    0.003628
     4  C    0.094566
     5  C    0.071518
     6  N   -0.048441
     7  C   -0.020112
     8  C    0.286437
     9  N   -0.385044
 Electronic spatial extent (au):  <R**2>=           1776.0818
 Charge=             -0.0000 electrons
 Dipole moment (field-independent basis, Debye):
    X=             -2.8625    Y=             -0.2522    Z=              0.5620  Tot=              2.9281
 Quadrupole moment (field-independent basis, Debye-Ang):
   XX=            -80.0679   YY=            -50.6520   ZZ=            -54.5153
   XY=             -1.1170   XZ=              3.1328   YZ=             -0.6282
 Traceless Quadrupole moment (field-independent basis, Debye-Ang):
   XX=            -18.3228   YY=             11.0930   ZZ=              7.2298
   XY=             -1.1170   XZ=              3.1328   YZ=             -0.6282
 Octapole moment (field-independent basis, Debye-Ang**2):
  XXX=            -87.9519  YYY=             19.3491  ZZZ=              0.9111  XYY=              5.7817
  XXY=             -0.0173  XXZ=             10.3060  XZZ=             -2.0515  YZZ=              4.1333
  YYZ=             -0.8442  XYZ=             -0.0463
 Hexadecapole moment (field-independent basis, Debye-Ang**3):
 XXXX=          -2236.2646 YYYY=           -408.5645 ZZZZ=           -123.1191 XXXY=            -21.5509
 XXXZ=             45.8169 YYYX=             -4.6570 YYYZ=              6.0210 ZZZX=              2.0304
 ZZZY=             -5.3315 XXYY=           -385.6276 XXZZ=           -325.3535 YYZZ=            -93.3514
 XXYZ=             -1.0677 YYXZ=              3.4081 ZZXY=             -2.6116
 N-N= 4.395459134598D+02 E-N=-1.770528605445D+03  KE= 3.810524057067D+02
 PrsmSu:  requested number of processors reduced to:  13 ShMem   1 Linda.
 Calling FoFJK, ICntrl=      2127 FMM=F ISym2X=0 I1Cent= 0 IOpClX= 0 NMat=1 NMatS=1 NMatT=0.
 ***** Axes restored to original set *****
 -------------------------------------------------------------------
 Center     Atomic                   Forces (Hartrees/Bohr)
 Number     Number              X              Y              Z
 -------------------------------------------------------------------
      1        6          -0.005514908   -0.005086919    0.000648837
      2        6          -0.005103542    0.007424438   -0.003117064
      3        6           0.005996194   -0.002273781   -0.004492402
      4        6          -0.005483385    0.005939509   -0.003570537
      5        6           0.008944309   -0.005710321   -0.000413236
      6        7          -0.010017287    0.003223729   -0.014071171
      7        6           0.030694695   -0.002020315   -0.010836571
      8        6           0.150844408    0.001051546    0.008861485
      9        7          -0.178871779   -0.000580504   -0.000605261
     10        1          -0.003137344   -0.000745504    0.001768552
     11        1          -0.002553484   -0.000670106    0.001492167
     12        1          -0.005272731   -0.000930219    0.001975546
     13        1           0.009863659   -0.003341416    0.001048552
     14        1           0.000930817    0.000022634   -0.000869089
     15        1           0.000343041    0.000437158    0.001752042
     16        1          -0.000154069    0.001308166    0.000556534
     17        1           0.000378465    0.001220734    0.000206759
     18        1           0.003741321    0.001321992    0.014948787
     19        1          -0.002203534    0.001428621   -0.000468398
     20        1           0.002398364    0.002206794    0.000380092
     21        1           0.000678140   -0.004700938    0.004696981
     22        1           0.001804327    0.000658056   -0.000397615
     23        1           0.001694323   -0.000183355    0.000505009
 -------------------------------------------------------------------
 Cartesian Forces:  Max     0.178871779 RMS     0.028762890

 GradGradGradGradGradGradGradGradGradGradGradGradGradGradGradGradGradGrad
 Berny optimization.
 FormGI is forming the generalized inverse of G from B-inverse, IUseBI=4.
 Internal  Forces:  Max     0.178871354 RMS     0.017691780
 Search for a local minimum.
 Step number   1 out of a maximum of  124
 All quantities printed in internal units (Hartrees-Bohrs-Radians)
 Mixed Optimization -- RFO/linear search
 Second derivative matrix not updated -- first step.
 ITU=  0
     Eigenvalues ---    0.00230   0.00230   0.00230   0.00369   0.00606
     Eigenvalues ---    0.00992   0.03359   0.03479   0.03531   0.03531
     Eigenvalues ---    0.03601   0.04063   0.04071   0.04484   0.04764
     Eigenvalues ---    0.04941   0.04947   0.05323   0.05642   0.05659
     Eigenvalues ---    0.05784   0.05969   0.08448   0.08521   0.09660
     Eigenvalues ---    0.12267   0.12348   0.12952   0.16000   0.16000
     Eigenvalues ---    0.16000   0.16000   0.16000   0.16000   0.16000
     Eigenvalues ---    0.16256   0.17036   0.21938   0.21969   0.21977
     Eigenvalues ---    0.22335   0.27306   0.27464   0.27805   0.29426
     Eigenvalues ---    0.30367   0.31139   0.33690   0.33871   0.34013
     Eigenvalues ---    0.34100   0.34120   0.34193   0.34209   0.34240
     Eigenvalues ---    0.34287   0.34396   0.34691   0.34901   0.37870
     Eigenvalues ---    0.44380   0.45124   0.79315
 RFO step:  Lambda=-5.39368637D-02 EMin= 2.30000000D-03
 Linear search not attempted -- first point.
 Maximum step size (   0.300) exceeded in Quadratic search.
    -- Step size scaled by   0.982
 Iteration  1 RMS(Cart)=  0.15197918 RMS(Int)=  0.00474243
 Iteration  2 RMS(Cart)=  0.00867119 RMS(Int)=  0.00039416
 Iteration  3 RMS(Cart)=  0.00002054 RMS(Int)=  0.00039398
 Iteration  4 RMS(Cart)=  0.00000002 RMS(Int)=  0.00039398
 Variable       Old X    -DE/DX   Delta X   Delta X   Delta X     New X
                                 (Linear)    (Quad)   (Total)
    R1        2.85749   0.01672   0.00000   0.04492   0.04492   2.90241
    R2        2.06978  -0.00036   0.00000  -0.00090  -0.00090   2.06888
    R3        2.06849   0.00066   0.00000   0.00162   0.00162   2.07011
    R4        2.06180   0.00373   0.00000   0.00913   0.00913   2.07093
    R5        2.89123   0.00269   0.00000   0.00759   0.00759   2.89882
    R6        2.05837  -0.00084   0.00000  -0.00205  -0.00205   2.05631
    R7        2.07162   0.00057   0.00000   0.00142   0.00142   2.07305
    R8        2.92566   0.00470   0.00000   0.01391   0.01391   2.93957
    R9        2.07548   0.00083   0.00000   0.00207   0.00207   2.07754
   R10        2.07308   0.00138   0.00000   0.00344   0.00344   2.07652
   R11        2.93682  -0.00346   0.00000  -0.01038  -0.01038   2.92643
   R12        2.93326  -0.00048   0.00000  -0.00143  -0.00143   2.93184
   R13        2.07856  -0.00104   0.00000  -0.00260  -0.00260   2.07596
   R14        2.74555   0.00994   0.00000   0.02256   0.02256   2.76811
   R15        2.06667   0.00466   0.00000   0.01150   0.01150   2.07817
   R16        2.06926   0.00196   0.00000   0.00485   0.00485   2.07411
   R17        1.91832  -0.00130   0.00000  -0.00253  -0.00253   1.91579
   R18        1.92702  -0.00581   0.00000  -0.01147  -0.01147   1.91555
   R19        2.87238  -0.02803   0.00000  -0.07694  -0.07694   2.79544
   R20        2.07005  -0.00130   0.00000  -0.00323  -0.00323   2.06683
   R21        2.07128  -0.00056   0.00000  -0.00140  -0.00140   2.06988
   R22        2.38287  -0.17887   0.00000  -0.20731  -0.20731   2.17556
    A1        1.90401   0.00395   0.00000   0.01950   0.01932   1.92334
    A2        1.92104   0.00187   0.00000   0.00814   0.00806   1.92910
    A3        1.94786   0.00446   0.00000   0.01949   0.01936   1.96722
    A4        1.88057  -0.00224   0.00000  -0.00829  -0.00842   1.87216
    A5        1.90076  -0.00414   0.00000  -0.01820  -0.01841   1.88235
    A6        1.90825  -0.00418   0.00000  -0.02176  -0.02179   1.88646
    A7        1.97596  -0.00528   0.00000  -0.01609  -0.01618   1.95978
    A8        1.81795   0.00968   0.00000   0.06383   0.06393   1.88188
    A9        1.92813  -0.00036   0.00000  -0.00877  -0.00898   1.91915
   A10        1.93146  -0.00282   0.00000  -0.01427  -0.01433   1.91713
   A11        1.92003   0.00180   0.00000  -0.00470  -0.00500   1.91502
   A12        1.88625  -0.00272   0.00000  -0.01762  -0.01784   1.86841
   A13        1.98941   0.02273   0.00000   0.08601   0.08592   2.07533
   A14        1.89440  -0.00749   0.00000  -0.03110  -0.03036   1.86404
   A15        1.91092  -0.00503   0.00000  -0.00579  -0.00654   1.90437
   A16        1.89850  -0.00774   0.00000  -0.03415  -0.03367   1.86483
   A17        1.90660  -0.00678   0.00000  -0.01708  -0.01829   1.88832
   A18        1.85951   0.00314   0.00000  -0.00374  -0.00447   1.85503
   A19        1.97711   0.01465   0.00000   0.07216   0.07147   2.04859
   A20        1.89908  -0.00737   0.00000  -0.03579  -0.03499   1.86408
   A21        1.88989  -0.00169   0.00000   0.00112  -0.00008   1.88981
   A22        1.92311  -0.00671   0.00000  -0.03350  -0.03267   1.89044
   A23        1.89107  -0.00183   0.00000   0.00076  -0.00043   1.89065
   A24        1.88097   0.00264   0.00000  -0.00728  -0.00760   1.87337
   A25        1.97977   0.00712   0.00000   0.02945   0.02958   2.00936
   A26        1.93535  -0.01123   0.00000  -0.05866  -0.05963   1.87572
   A27        1.90560  -0.00093   0.00000  -0.00975  -0.01015   1.89545
   A28        1.85866   0.00787   0.00000   0.05793   0.05863   1.91729
   A29        1.90817  -0.00371   0.00000  -0.01220  -0.01197   1.89620
   A30        1.87294   0.00071   0.00000  -0.00740  -0.00846   1.86449
   A31        1.94523  -0.00181   0.00000  -0.01361  -0.01385   1.93137
   A32        1.94393  -0.00312   0.00000  -0.01961  -0.01986   1.92407
   A33        1.88836   0.00000   0.00000  -0.00974  -0.01022   1.87814
   A34        1.90503   0.01509   0.00000   0.05414   0.05395   1.95898
   A35        1.93609  -0.00187   0.00000  -0.00803  -0.00802   1.92807
   A36        1.92903  -0.00045   0.00000   0.00135   0.00113   1.93015
   A37        1.90523  -0.00703   0.00000  -0.02773  -0.02768   1.87755
   A38        1.90059  -0.00587   0.00000  -0.01651  -0.01691   1.88368
   A39        1.88738  -0.00027   0.00000  -0.00462  -0.00463   1.88275
   A40        3.14159  -0.00096   0.00000  -0.01055  -0.01055   3.13104
   A41        3.14159   0.00173   0.00000   0.01908   0.01908   3.16067
    D1        3.10207   0.00079   0.00000   0.01551   0.01546   3.11752
    D2        1.00278   0.00085   0.00000   0.00047   0.00045   1.00323
    D3       -1.01889  -0.00101   0.00000  -0.00927  -0.00926  -1.02814
    D4        1.04211   0.00006   0.00000   0.00915   0.00909   1.05121
    D5       -1.05717   0.00012   0.00000  -0.00588  -0.00591  -1.06309
    D6       -3.07884  -0.00174   0.00000  -0.01563  -0.01562  -3.09446
    D7       -1.07996   0.00107   0.00000   0.01804   0.01806  -1.06190
    D8        3.10393   0.00113   0.00000   0.00301   0.00306   3.10699
    D9        1.08227  -0.00074   0.00000  -0.00673  -0.00665   1.07562
   D10       -3.13489  -0.00495   0.00000  -0.05080  -0.05105   3.09725
   D11        1.02971  -0.00470   0.00000  -0.04163  -0.04143   0.98828
   D12       -0.99361  -0.00153   0.00000  -0.01670  -0.01647  -1.01008
   D13       -1.10151   0.00201   0.00000   0.00989   0.00950  -1.09201
   D14        3.06309   0.00226   0.00000   0.01906   0.01911   3.08220
   D15        1.03977   0.00542   0.00000   0.04399   0.04408   1.08384
   D16        0.98164  -0.00199   0.00000  -0.02395  -0.02424   0.95740
   D17       -1.13695  -0.00174   0.00000  -0.01479  -0.01462  -1.15157
   D18        3.12291   0.00142   0.00000   0.01014   0.01034   3.13326
   D19        1.06128   0.00634   0.00000   0.06658   0.06713   1.12841
   D20       -3.07663   0.00234   0.00000   0.04665   0.04656  -3.03007
   D21       -1.03670   0.00055   0.00000   0.01918   0.01922  -1.01748
   D22       -3.10559   0.00629   0.00000   0.05931   0.05939  -3.04620
   D23       -0.96032   0.00229   0.00000   0.03939   0.03882  -0.92150
   D24        1.07961   0.00050   0.00000   0.01192   0.01148   1.09109
   D25       -1.08235   0.00204   0.00000   0.02660   0.02713  -1.05522
   D26        1.06292  -0.00196   0.00000   0.00667   0.00656   1.06949
   D27        3.10286  -0.00376   0.00000  -0.02080  -0.02078   3.08207
   D28       -1.11353  -0.00252   0.00000  -0.03357  -0.03425  -1.14778
   D29        3.07920  -0.00951   0.00000  -0.08638  -0.08605   2.99315
   D30        1.01912  -0.00310   0.00000  -0.03625  -0.03700   0.98213
   D31        3.03773   0.00167   0.00000  -0.01325  -0.01333   3.02440
   D32        0.94727  -0.00532   0.00000  -0.06606  -0.06513   0.88214
   D33       -1.11281   0.00109   0.00000  -0.01594  -0.01608  -1.12888
   D34        0.98378   0.00337   0.00000   0.01410   0.01391   0.99769
   D35       -1.10668  -0.00362   0.00000  -0.03871  -0.03789  -1.14457
   D36        3.11643   0.00279   0.00000   0.01141   0.01116   3.12759
   D37        3.11376  -0.00567   0.00000  -0.03680  -0.03712   3.07664
   D38        1.01378  -0.00553   0.00000  -0.03236  -0.03255   0.98123
   D39       -1.07957  -0.00368   0.00000  -0.02221  -0.02231  -1.10188
   D40       -0.99204   0.00324   0.00000   0.00711   0.00721  -0.98483
   D41       -3.09201   0.00338   0.00000   0.01155   0.01177  -3.08024
   D42        1.09782   0.00523   0.00000   0.02170   0.02201   1.11983
   D43        1.06814  -0.00117   0.00000  -0.01497  -0.01509   1.05305
   D44       -1.03183  -0.00103   0.00000  -0.01054  -0.01053  -1.04236
   D45       -3.12519   0.00083   0.00000  -0.00039  -0.00029  -3.12548
   D46       -1.01234   0.00001   0.00000  -0.01316  -0.01352  -1.02586
   D47       -3.12313   0.00342   0.00000   0.02229   0.02167  -3.10146
   D48        1.12129  -0.00414   0.00000  -0.02794  -0.02727   1.09402
   D49       -0.98950  -0.00073   0.00000   0.00750   0.00791  -0.98159
   D50        3.13962  -0.00097   0.00000  -0.01188  -0.01180   3.12783
   D51        1.02883   0.00244   0.00000   0.02356   0.02339   1.05222
         Item               Value     Threshold  Converged?
 Maximum Force            0.178871     0.000450     NO 
 RMS     Force            0.017692     0.000300     NO 
 Maximum Displacement     0.592582     0.001800     NO 
 RMS     Displacement     0.151608     0.001200     NO 
 Predicted change in Energy=-3.058911D-02
 GradGradGradGradGradGradGradGradGradGradGradGradGradGradGradGradGradGrad

                          Input orientation:                          
 ---------------------------------------------------------------------
 Center     Atomic      Atomic             Coordinates (Angstroms)
 Number     Number       Type             X           Y           Z
 ---------------------------------------------------------------------
      1          6           0        0.803551   -0.075092    0.268634
      2          6           0        2.324404   -0.019627    0.061549
      3          6           0        3.069589    0.405232    1.333286
      4          6           0        4.624234    0.454331    1.312950
      5          6           0        5.291813    1.486118    0.370654
      6          7           0        5.083051    1.248554   -1.059619
      7          6           0        5.082616    0.752096    2.764934
      8          6           0        6.555557    0.738226    2.901067
      9          7           0        7.703137    0.710600    2.988775
     10          1           0        0.305051   -0.357310   -0.664342
     11          1           0        0.419086    0.909045    0.557914
     12          1           0        0.507421   -0.795954    1.039114
     13          1           0        2.525912    0.689383   -0.738937
     14          1           0        2.692498   -0.996985   -0.274174
     15          1           0        2.783544   -0.305585    2.121686
     16          1           0        2.699486    1.388359    1.655695
     17          1           0        4.997101   -0.545101    1.050421
     18          1           0        6.368331    1.490306    0.595323
     19          1           0        4.911388    2.485098    0.619611
     20          1           0        5.436393    0.336434   -1.326014
     21          1           0        5.580651    1.941908   -1.606586
     22          1           0        4.680196    0.004175    3.454056
     23          1           0        4.723378    1.735000    3.088363
 ---------------------------------------------------------------------
                    Distance matrix (angstroms):
                    1          2          3          4          5
     1  C    0.000000
     2  C    1.535888   0.000000
     3  C    2.549338   1.533989   0.000000
     4  C    3.996062   2.660801   1.555553   0.000000
     5  C    4.753134   3.341905   2.652028   1.548602   0.000000
     6  N    4.672303   3.236578   3.239015   2.543696   1.464821
     7  C    5.022564   3.938475   2.494435   1.551462   2.512992
     8  C    6.377834   5.151686   3.836768   2.516489   2.925642
     9  N    7.457934   6.167063   4.929874   3.514784   3.642866
    10  H    1.094803   2.172265   3.494948   4.819107   5.416386
    11  H    1.095455   2.176934   2.807169   4.296523   4.910350
    12  H    1.095890   2.204482   2.845011   4.311189   5.342761
    13  H    2.136855   1.088154   2.161119   2.944222   3.084831
    14  H    2.170863   1.097010   2.166181   2.890828   3.652128
    15  H    2.721636   2.129964   1.099389   2.149341   3.545098
    16  H    2.767706   2.159726   1.098846   2.166688   2.895004
    17  H    4.291615   2.897810   2.167590   1.098552   2.162126
    18  H    5.789989   4.349501   3.550165   2.151768   1.099720
    19  H    4.853049   3.643840   2.868344   2.164992   1.097571
    20  H    4.916856   3.425870   3.560670   2.763627   2.054594
    21  H    5.514111   4.151318   4.160487   3.413402   2.049549
    22  H    5.018125   4.130306   2.693059   2.188631   3.475284
    23  H    5.156778   4.242099   2.753833   2.191354   2.787652
                    6          7          8          9         10
     6  N    0.000000
     7  C    3.856641   0.000000
     8  C    4.256259   1.479284   0.000000
     9  N    4.852189   2.630392   1.151259   0.000000
    10  H    5.056118   5.984634   7.278816   8.319698   0.000000
    11  H    4.948156   5.161790   6.570831   7.681527   1.763680
    12  H    5.433331   5.129066   6.511568   7.605867   1.770628
    13  H    2.637133   4.337946   5.430474   6.379651   2.456289
    14  H    3.372553   4.243599   5.293046   6.218456   2.502263
    15  H    4.221822   2.611166   3.990621   5.097732   3.729284
    16  H    3.615779   2.704543   4.104011   5.222355   3.763410
    17  H    2.770714   2.151648   2.738723   3.557617   4.999101
    18  H    2.109317   2.627781   2.432516   2.849257   6.462492
    19  H    2.092445   2.763155   3.310572   4.068862   5.562928
    20  H    1.013794   4.127201   4.391147   4.888306   5.220130
    21  H    1.013666   4.557838   4.766364   5.209454   5.831482
    22  H    4.699366   1.093717   2.088446   3.139060   6.019449
    23  H    4.191868   1.095334   2.094162   3.152503   6.162968
                   11         12         13         14         15
    11  H    0.000000
    12  H    1.773803   0.000000
    13  H    2.483704   3.072783   0.000000
    14  H    3.081188   2.557284   1.757155   0.000000
    15  H    3.084050   2.567715   3.039654   2.495289   0.000000
    16  H    2.575866   3.155399   2.500591   3.068275   1.758880
    17  H    4.828594   4.496696   3.291280   2.696284   2.470791
    18  H    5.977690   6.306679   4.145589   4.522653   4.290187
    19  H    4.761148   5.507831   3.280357   4.224598   3.817310
    20  H    5.389845   5.583090   2.990005   3.226970   4.397320
    21  H    5.691539   6.342971   3.413659   4.330571   5.174460
    22  H    5.231012   4.887146   4.763574   4.342000   2.338472
    23  H    5.060860   5.327236   4.535460   4.784859   2.976811
                   16         17         18         19         20
    16  H    0.000000
    17  H    3.063276   0.000000
    18  H    3.820367   2.496051   0.000000
    19  H    2.677465   3.061870   1.764336   0.000000
    20  H    4.181841   2.572455   2.427234   2.945818   0.000000
    21  H    4.387483   3.685842   2.381761   2.387242   1.636178
    22  H    3.012189   2.485879   3.637409   3.773924   4.850907
    23  H    2.503765   3.070341   2.996831   2.587031   4.685200
                   21         22         23
    21  H    0.000000
    22  H    5.493244   0.000000
    23  H    4.777058   1.769562   0.000000
 Stoichiometry    C7H14N2
 Framework group  C1[X(C7H14N2)]
 Deg. of freedom    63
 Full point group                 C1      NOp   1
 Largest Abelian subgroup         C1      NOp   1
 Largest concise Abelian subgroup C1      NOp   1
                         Standard orientation:                         
 ---------------------------------------------------------------------
 Center     Atomic      Atomic             Coordinates (Angstroms)
 Number     Number       Type             X           Y           Z
 ---------------------------------------------------------------------
      1          6           0       -3.634776   -0.756790    0.020644
      2          6           0       -2.345719   -0.003039   -0.338725
      3          6           0       -1.088571   -0.736737    0.145414
      4          6           0        0.307475   -0.137973   -0.189671
      5          6           0        0.660955    1.235655    0.431910
      6          7           0       -0.153534    2.358973   -0.037626
      7          6           0        1.363805   -1.172311    0.280806
      8          6           0        2.742524   -0.760002   -0.061856
      9          7           0        3.806724   -0.427319   -0.348557
     10          1           0       -4.509606   -0.192535   -0.318297
     11          1           0       -3.722634   -0.871617    1.106515
     12          1           0       -3.682119   -1.753784   -0.431833
     13          1           0       -2.397550    0.982660    0.119301
     14          1           0       -2.290902    0.148915   -1.423777
     15          1           0       -1.118007   -1.743059   -0.296294
     16          1           0       -1.149912   -0.875974    1.233675
     17          1           0        0.393868   -0.055456   -1.281708
     18          1           0        1.722562    1.430175    0.220871
     19          1           0        0.562072    1.162279    1.522553
     20          1           0       -0.074079    2.462787   -1.042956
     21          1           0        0.163839    3.223472    0.385971
     22          1           0        1.183357   -2.143699   -0.188299
     23          1           0        1.312625   -1.308556    1.366428
 ---------------------------------------------------------------------
 Rotational constants (GHZ):           2.6580625           0.7803695           0.6325472
 Standard basis: 6-31G(2df,p) (6D, 7F)
 There are   349 symmetry adapted cartesian basis functions of A   symmetry.
 There are   322 symmetry adapted basis functions of A   symmetry.
   322 basis functions,   494 primitive gaussians,   349 cartesian basis functions
    35 alpha electrons       35 beta electrons
       nuclear repulsion energy       438.2865463102 Hartrees.
 NAtoms=   23 NActive=   23 NUniq=   23 SFac= 1.00D+00 NAtFMM=   60 NAOKFM=F Big=F
 Integral buffers will be    131072 words long.
 Raffenetti 2 integral format.
 Two-electron integral symmetry is turned on.
 One-electron integrals computed using PRISM.
 PrsmSu:  requested number of processors reduced to:  13 ShMem   1 Linda.
 NBasis=   322 RedAO= T EigKep=  1.50D-04  NBF=   322
 NBsUse=   322 1.00D-06 EigRej= -1.00D+00 NBFU=   322
 Initial guess from the checkpoint file:  "CCCCpCNpCCtN.chk"
 B after Tr=    -0.000000   -0.000000    0.000000
         Rot=    0.999750    0.009103   -0.002438    0.020276 Ang=   2.56 deg.
 ExpMin= 1.61D-01 ExpMax= 4.17D+03 ExpMxC= 6.27D+02 IAcc=2 IRadAn=         4 AccDes= 0.00D+00
 Harris functional with IExCor=  402 and IRadAn=       4 diagonalized for initial guess.
 HarFok:  IExCor=  402 AccDes= 0.00D+00 IRadAn=         4 IDoV= 1 UseB2=F ITyADJ=14
 ICtDFT=  3500011 ScaDFX=  1.000000  1.000000  1.000000  1.000000
 FoFCou: FMM=F IPFlag=           0 FMFlag=      100000 FMFlg1=           0
         NFxFlg=           0 DoJE=T BraDBF=F KetDBF=T FulRan=T
         wScrn=  0.000000 ICntrl=       500 IOpCl=  0 I1Cent=   200000004 NGrid=           0
         NMat0=    1 NMatS0=      1 NMatT0=    0 NMatD0=    1 NMtDS0=    0 NMtDT0=    0
 Petite list used in FoFCou.
 Requested convergence on RMS density matrix=1.00D-08 within 128 cycles.
 Requested convergence on MAX density matrix=1.00D-06.
 Requested convergence on             energy=1.00D-06.
 No special actions if energy rises.
 Integral accuracy reduced to 1.0D-05 until final iterations.
 Initial convergence to 1.0D-05 achieved.  Increase integral accuracy.
 SCF Done:  E(RB3LYP) =  -384.690365051     A.U. after   12 cycles
            NFock= 12  Conv=0.45D-08     -V/T= 2.0085
 PrsmSu:  requested number of processors reduced to:  13 ShMem   1 Linda.
 Calling FoFJK, ICntrl=      2127 FMM=F ISym2X=0 I1Cent= 0 IOpClX= 0 NMat=1 NMatS=1 NMatT=0.
 ***** Axes restored to original set *****
 -------------------------------------------------------------------
 Center     Atomic                   Forces (Hartrees/Bohr)
 Number     Number              X              Y              Z
 -------------------------------------------------------------------
      1        6           0.001856278   -0.000705011   -0.001141405
      2        6          -0.001097916    0.002414829    0.000362299
      3        6           0.003546014   -0.000384908   -0.000462569
      4        6          -0.005978949    0.001722986   -0.004049098
      5        6           0.003583426   -0.002544262   -0.001064635
      6        7          -0.012242958   -0.001449548    0.001346914
      7        6           0.014821174   -0.002210906   -0.001689101
      8        6          -0.019546316   -0.000493384    0.000448005
      9        7           0.011425132   -0.000266044    0.001538609
     10        1          -0.000558032   -0.000484503    0.000615369
     11        1          -0.000591413   -0.000243896    0.001004208
     12        1           0.000626940    0.000259678    0.000371586
     13        1           0.004386406    0.000570564   -0.003086938
     14        1           0.000208560   -0.000133054   -0.000331612
     15        1           0.000270789    0.001721571    0.002009793
     16        1          -0.000563508    0.000368675    0.000104626
     17        1           0.000476374   -0.000073141   -0.000724402
     18        1          -0.000286292    0.001509020    0.005005337
     19        1          -0.001070365    0.000512305   -0.001275429
     20        1           0.002389097    0.000133442   -0.000008717
     21        1           0.001175842   -0.000754872    0.000528948
     22        1          -0.001470302    0.000623528    0.000381307
     23        1          -0.001359980   -0.000093071    0.000116903
 -------------------------------------------------------------------
 Cartesian Forces:  Max     0.019546316 RMS     0.003958253

 GradGradGradGradGradGradGradGradGradGradGradGradGradGradGradGradGradGrad
 Berny optimization.
 Using GEDIIS/GDIIS optimizer.
 FormGI is forming the generalized inverse of G from B-inverse, IUseBI=4.
 Internal  Forces:  Max     0.011512404 RMS     0.002933566
 Search for a local minimum.
 Step number   2 out of a maximum of  124
 All quantities printed in internal units (Hartrees-Bohrs-Radians)
 Mixed Optimization -- RFO/linear search
 Update second derivatives using D2CorX and points    1    2
 DE= -2.67D-02 DEPred=-3.06D-02 R= 8.73D-01
 TightC=F SS=  1.41D+00  RLast= 3.67D-01 DXNew= 5.0454D-01 1.1000D+00
 Trust test= 8.73D-01 RLast= 3.67D-01 DXMaxT set to 5.05D-01
 ITU=  1  0
 Use linear search instead of GDIIS.
     Eigenvalues ---    0.00230   0.00230   0.00236   0.00370   0.00606
     Eigenvalues ---    0.00992   0.02953   0.03334   0.03531   0.03536
     Eigenvalues ---    0.03681   0.03895   0.04313   0.04384   0.04706
     Eigenvalues ---    0.04941   0.05306   0.05315   0.05470   0.05503
     Eigenvalues ---    0.05767   0.05802   0.08324   0.09333   0.09771
     Eigenvalues ---    0.12156   0.12911   0.13028   0.15931   0.15991
     Eigenvalues ---    0.16000   0.16000   0.16000   0.16000   0.16000
     Eigenvalues ---    0.16539   0.17613   0.21631   0.21953   0.22115
     Eigenvalues ---    0.23739   0.27181   0.27465   0.27880   0.29433
     Eigenvalues ---    0.30078   0.31365   0.33692   0.33871   0.34011
     Eigenvalues ---    0.34099   0.34121   0.34195   0.34209   0.34238
     Eigenvalues ---    0.34286   0.34392   0.34695   0.34919   0.37910
     Eigenvalues ---    0.44383   0.45127   0.85751
 RFO step:  Lambda=-5.29754668D-03 EMin= 2.29898990D-03
 Quartic linear search produced a step of -0.04517.
 Iteration  1 RMS(Cart)=  0.08824964 RMS(Int)=  0.00207709
 Iteration  2 RMS(Cart)=  0.00304346 RMS(Int)=  0.00025157
 Iteration  3 RMS(Cart)=  0.00000327 RMS(Int)=  0.00025156
 Iteration  4 RMS(Cart)=  0.00000000 RMS(Int)=  0.00025156
 Variable       Old X    -DE/DX   Delta X   Delta X   Delta X     New X
                                 (Linear)    (Quad)   (Total)
    R1        2.90241  -0.00116  -0.00203   0.00223   0.00020   2.90261
    R2        2.06888  -0.00015   0.00004  -0.00051  -0.00047   2.06841
    R3        2.07011   0.00025  -0.00007   0.00090   0.00082   2.07093
    R4        2.07093  -0.00008  -0.00041   0.00093   0.00052   2.07145
    R5        2.89882  -0.00098  -0.00034  -0.00215  -0.00249   2.89633
    R6        2.05631   0.00345   0.00009   0.00901   0.00910   2.06541
    R7        2.07305   0.00029  -0.00006   0.00097   0.00091   2.07396
    R8        2.93957  -0.00819  -0.00063  -0.02568  -0.02631   2.91326
    R9        2.07754   0.00026  -0.00009   0.00097   0.00088   2.07842
   R10        2.07652   0.00055  -0.00016   0.00195   0.00179   2.07831
   R11        2.92643  -0.00727   0.00047  -0.02617  -0.02570   2.90073
   R12        2.93184   0.00142   0.00006   0.00464   0.00471   2.93654
   R13        2.07596   0.00040   0.00012   0.00079   0.00090   2.07687
   R14        2.76811  -0.00025  -0.00102   0.00219   0.00117   2.76928
   R15        2.07817   0.00075  -0.00052   0.00348   0.00296   2.08113
   R16        2.07411   0.00055  -0.00022   0.00211   0.00189   2.07600
   R17        1.91579   0.00072   0.00011   0.00118   0.00130   1.91709
   R18        1.91555  -0.00022   0.00052  -0.00188  -0.00136   1.91419
   R19        2.79544  -0.00790   0.00348  -0.03412  -0.03065   2.76479
   R20        2.06683   0.00035   0.00015   0.00056   0.00071   2.06754
   R21        2.06988   0.00040   0.00006   0.00091   0.00098   2.07086
   R22        2.17556   0.01151   0.00936  -0.01052  -0.00116   2.17441
    A1        1.92334   0.00132  -0.00087   0.01310   0.01219   1.93552
    A2        1.92910   0.00102  -0.00036   0.00744   0.00700   1.93611
    A3        1.96722  -0.00150  -0.00087  -0.00914  -0.00999   1.95723
    A4        1.87216  -0.00034   0.00038   0.00330   0.00356   1.87571
    A5        1.88235  -0.00010   0.00083  -0.00422  -0.00334   1.87901
    A6        1.88646  -0.00040   0.00098  -0.01055  -0.00957   1.87689
    A7        1.95978  -0.00210   0.00073  -0.00827  -0.00774   1.95204
    A8        1.88188   0.00338  -0.00289   0.04745   0.04456   1.92643
    A9        1.91915  -0.00003   0.00041  -0.01020  -0.00991   1.90924
   A10        1.91713  -0.00054   0.00065  -0.00056  -0.00016   1.91697
   A11        1.91502   0.00058   0.00023  -0.01114  -0.01109   1.90393
   A12        1.86841  -0.00122   0.00081  -0.01683  -0.01598   1.85243
   A13        2.07533  -0.00953  -0.00388  -0.02918  -0.03304   2.04230
   A14        1.86404   0.00418   0.00137   0.02360   0.02504   1.88908
   A15        1.90437   0.00250   0.00030   0.00371   0.00384   1.90821
   A16        1.86483   0.00219   0.00152   0.00664   0.00839   1.87323
   A17        1.88832   0.00314   0.00083   0.00421   0.00494   1.89326
   A18        1.85503  -0.00195   0.00020  -0.00708  -0.00696   1.84808
   A19        2.04859  -0.00790  -0.00323  -0.03843  -0.04185   2.00673
   A20        1.86408   0.00253   0.00158   0.01236   0.01432   1.87840
   A21        1.88981   0.00185   0.00000   0.00156   0.00141   1.89122
   A22        1.89044   0.00485   0.00148   0.02700   0.02864   1.91908
   A23        1.89065   0.00138   0.00002   0.00472   0.00446   1.89511
   A24        1.87337  -0.00245   0.00034  -0.00515  -0.00495   1.86842
   A25        2.00936  -0.01094  -0.00134  -0.04375  -0.04554   1.96382
   A26        1.87572   0.00093   0.00269   0.00108   0.00442   1.88014
   A27        1.89545   0.00343   0.00046  -0.00594  -0.00677   1.88869
   A28        1.91729   0.00774  -0.00265   0.07467   0.07236   1.98965
   A29        1.89620   0.00108   0.00054  -0.02057  -0.02122   1.87498
   A30        1.86449  -0.00174   0.00038  -0.00339  -0.00284   1.86165
   A31        1.93137  -0.00139   0.00063  -0.01810  -0.01775   1.91362
   A32        1.92407  -0.00114   0.00090  -0.01757  -0.01696   1.90712
   A33        1.87814  -0.00030   0.00046  -0.01920  -0.01933   1.85881
   A34        1.95898   0.00665  -0.00244   0.03950   0.03700   1.99598
   A35        1.92807  -0.00155   0.00036  -0.01375  -0.01347   1.91460
   A36        1.93015  -0.00174  -0.00005  -0.00814  -0.00846   1.92169
   A37        1.87755  -0.00222   0.00125  -0.01044  -0.00909   1.86846
   A38        1.88368  -0.00105   0.00076   0.00751   0.00806   1.89174
   A39        1.88275  -0.00032   0.00021  -0.01633  -0.01641   1.86634
   A40        3.13104   0.00137   0.00048   0.02936   0.02983   3.16088
   A41        3.16067  -0.00046  -0.00086  -0.00610  -0.00696   3.15371
    D1        3.11752   0.00078  -0.00070   0.02705   0.02644  -3.13922
    D2        1.00323   0.00049  -0.00002   0.00096   0.00089   1.00412
    D3       -1.02814   0.00006   0.00042  -0.00027   0.00025  -1.02790
    D4        1.05121  -0.00026  -0.00041   0.01017   0.00977   1.06098
    D5       -1.06309  -0.00055   0.00027  -0.01591  -0.01578  -1.07887
    D6       -3.09446  -0.00098   0.00071  -0.01715  -0.01642  -3.11089
    D7       -1.06190   0.00057  -0.00082   0.02471   0.02393  -1.03797
    D8        3.10699   0.00028  -0.00014  -0.00138  -0.00163   3.10536
    D9        1.07562  -0.00015   0.00030  -0.00261  -0.00227   1.07334
   D10        3.09725  -0.00083   0.00231  -0.01573  -0.01344   3.08380
   D11        0.98828  -0.00069   0.00187  -0.02412  -0.02210   0.96617
   D12       -1.01008  -0.00181   0.00074  -0.02991  -0.02913  -1.03921
   D13       -1.09201   0.00169  -0.00043   0.03841   0.03786  -1.05415
   D14        3.08220   0.00183  -0.00086   0.03002   0.02920   3.11141
   D15        1.08384   0.00071  -0.00199   0.02423   0.02218   1.10603
   D16        0.95740   0.00023   0.00109   0.01100   0.01201   0.96941
   D17       -1.15157   0.00037   0.00066   0.00261   0.00335  -1.14822
   D18        3.13326  -0.00075  -0.00047  -0.00318  -0.00367   3.12958
   D19        1.12841  -0.00223  -0.00303   0.03296   0.03003   1.15844
   D20       -3.03007   0.00081  -0.00210   0.05229   0.05016  -2.97991
   D21       -1.01748   0.00015  -0.00087   0.05335   0.05244  -0.96504
   D22       -3.04620  -0.00137  -0.00268   0.04993   0.04736  -2.99884
   D23       -0.92150   0.00167  -0.00175   0.06926   0.06749  -0.85401
   D24        1.09109   0.00101  -0.00052   0.07032   0.06977   1.16086
   D25       -1.05522  -0.00103  -0.00123   0.04705   0.04588  -1.00933
   D26        1.06949   0.00201  -0.00030   0.06638   0.06601   1.13550
   D27        3.08207   0.00135   0.00094   0.06744   0.06830  -3.13282
   D28       -1.14778   0.00358   0.00155   0.02974   0.03097  -1.11681
   D29        2.99315   0.00024   0.00389  -0.03820  -0.03450   2.95865
   D30        0.98213   0.00006   0.00167  -0.03179  -0.03003   0.95209
   D31        3.02440   0.00185   0.00060   0.01848   0.01907   3.04347
   D32        0.88214  -0.00149   0.00294  -0.04946  -0.04639   0.83574
   D33       -1.12888  -0.00168   0.00073  -0.04305  -0.04193  -1.17081
   D34        0.99769   0.00144  -0.00063   0.00771   0.00687   1.00456
   D35       -1.14457  -0.00190   0.00171  -0.06023  -0.05859  -1.20317
   D36        3.12759  -0.00208  -0.00050  -0.05382  -0.05413   3.07346
   D37        3.07664   0.00142   0.00168  -0.07082  -0.06934   3.00730
   D38        0.98123   0.00087   0.00147  -0.07449  -0.07303   0.90820
   D39       -1.10188   0.00338   0.00101  -0.04013  -0.03926  -1.14115
   D40       -0.98483  -0.00359  -0.00033  -0.09298  -0.09327  -1.07810
   D41       -3.08024  -0.00414  -0.00053  -0.09665  -0.09696   3.10598
   D42        1.11983  -0.00164  -0.00099  -0.06229  -0.06320   1.05663
   D43        1.05305  -0.00077   0.00068  -0.07622  -0.07562   0.97743
   D44       -1.04236  -0.00132   0.00048  -0.07988  -0.07931  -1.12167
   D45       -3.12548   0.00119   0.00001  -0.04553  -0.04555   3.11216
   D46       -1.02586  -0.00179   0.00061  -0.06529  -0.06390  -1.08975
   D47       -3.10146   0.00019  -0.00098  -0.01893  -0.01945  -3.12092
   D48        1.09402  -0.00237   0.00123  -0.03739  -0.03620   1.05781
   D49       -0.98159  -0.00039  -0.00036   0.00897   0.00824  -0.97335
   D50        3.12783   0.00047   0.00053  -0.01161  -0.01132   3.11651
   D51        1.05222   0.00245  -0.00106   0.03475   0.03312   1.08534
         Item               Value     Threshold  Converged?
 Maximum Force            0.011512     0.000450     NO 
 RMS     Force            0.002934     0.000300     NO 
 Maximum Displacement     0.390178     0.001800     NO 
 RMS     Displacement     0.087934     0.001200     NO 
 Predicted change in Energy=-2.904545D-03
 GradGradGradGradGradGradGradGradGradGradGradGradGradGradGradGradGradGrad

                          Input orientation:                          
 ---------------------------------------------------------------------
 Center     Atomic      Atomic             Coordinates (Angstroms)
 Number     Number       Type             X           Y           Z
 ---------------------------------------------------------------------
      1          6           0        0.862166   -0.078293    0.237403
      2          6           0        2.386386   -0.015007    0.058434
[...]
 ,0.07145147,-0.27185241,-0.01404635,0.00357232,-0.01551242,-0.00162180
 ,0.00136585,-0.00014395,0.00017746,0.00002074,0.00009864,0.00011872,-0
 .00041796,0.00016771,-0.00000426,-0.00021084,0.00037651,0.00009035,-0.
 00007347,0.00000095,-0.00008363,-0.00005150,0.00003713,0.00001840,0.00
 059934,0.00048205,0.00029374,-0.00026258,0.00171098,0.00000481,0.00040
 382,0.00061837,-0.00036420,0.00527259,-0.01513477,-0.00131682,-0.07870
 030,0.29712242,0.00122839,-0.00246072,-0.00054332,0.00516706,-0.012508
 24,-0.04978903,0.00663035,-0.02773407,-0.00408788,0.00155427,-0.000094
 12,0.00063214,-0.00011657,-0.00004916,-0.00010313,0.00036034,-0.000236
 10,0.00009760,0.00017356,0.00005265,0.00005845,-0.00001778,0.00009647,
 0.00003686,-0.00001398,-0.00000971,-0.00001485,-0.00009047,0.00041553,
 0.00013317,0.00037552,-0.00029671,0.00086713,-0.00027172,-0.00057922,0
 .00014529,-0.00930689,0.02575146,0.00260144,-0.00348209,0.01922473,0.0
 5244950,0.00144106,0.00089483,-0.00109432,0.00307581,0.00635242,-0.012
 10259,-0.07002101,-0.03457513,0.06233620,-0.01343253,-0.01799326,0.025
 38924,-0.00623545,0.00193681,-0.00183043,0.00057990,0.00015623,0.00009
 048,0.00009366,-0.00118733,0.00199699,0.00048083,0.00037517,0.00017521
 ,0.00023738,-0.00007345,-0.00008614,0.00010985,-0.00000640,0.00019373,
 -0.00004305,0.00002332,-0.00000898,0.00001113,-0.00036508,0.00039756,-
 0.00091846,-0.00141838,-0.00257525,0.00029996,0.00002605,0.00070783,0.
 08244351,0.00073389,0.00032818,0.00006422,0.00337185,0.00693377,-0.013
 86907,-0.03526632,-0.10632011,0.09715288,0.00061736,-0.00022328,-0.001
 22507,-0.00040842,0.00009371,-0.00004708,0.00004368,0.00006993,0.00001
 974,0.00012997,0.00039228,0.00032516,0.00011194,0.00011481,-0.00036075
 ,0.00009255,-0.00001602,0.00000214,0.00030464,-0.00001074,-0.00007099,
 -0.00011586,-0.00006658,0.00010889,0.00013954,0.00009315,0.00035671,-0
 .00180221,-0.00017306,-0.00279421,0.00061577,0.00104925,0.00044468,0.0
 4194711,0.11178356,0.00158820,0.00061815,0.00096885,0.00660396,0.01303
 180,-0.02721162,0.06429406,0.09829538,-0.21079761,-0.00004695,0.001238
 19,-0.00237823,-0.00039869,-0.00108249,0.00066710,0.00018880,0.0001412
 2,0.00019779,-0.00231418,-0.00039279,0.00054008,-0.00020579,-0.0004655
 1,0.00023462,-0.00004261,0.00004247,0.00001449,0.00008001,-0.00034770,
 0.00050170,-0.00011002,-0.00001879,0.00003417,-0.00126720,-0.00034075,
 0.00057868,-0.00330618,-0.00361051,-0.00341679,0.00050806,-0.00028376,
 0.00119546,-0.06487301,-0.10594945,0.23627909,0.00134340,-0.00099125,0
 .00022852,0.00319080,-0.01379221,-0.00125175,-0.06921575,0.07053246,0.
 00588815,-0.01429858,0.03164967,0.00379304,0.00175107,0.00262976,-0.00
 055706,0.00013120,-0.00048271,0.00025481,0.00044635,0.00059082,0.00091
 092,0.00017698,-0.00049163,-0.00008549,-0.00005929,0.00002865,-0.00000
 874,0.00012184,0.00018822,0.00009221,-0.00009967,0.00045631,-0.0000884
 5,-0.00003083,-0.00002430,0.00000546,0.00026372,0.00062247,0.00049650,
 -0.00098452,-0.00145285,-0.00262597,0.00292798,-0.00943297,-0.00079065
 ,0.08018743,0.00083864,0.00032864,0.00056822,0.00386120,-0.01479222,-0
 .00179880,0.07136076,-0.26961240,-0.01682180,0.00033452,-0.00201341,-0
 .00058825,-0.00111772,0.00076430,0.00047424,0.00014741,0.00025481,-0.0
 0003790,0.00014685,-0.00014909,0.00003229,0.00014349,0.00026629,0.0002
 5819,0.00004128,-0.00002993,-0.00006519,-0.00014823,0.00048701,0.00000
 705,-0.00098891,0.00039485,-0.00011721,-0.00002595,-0.00004683,0.00000
 166,-0.00014186,0.00090662,-0.00001510,-0.00145876,0.00018769,-0.00278
 470,0.00463639,-0.01535365,-0.00081908,-0.07805648,0.29605107,0.001340
 73,0.00017726,0.00079963,0.00713229,-0.02783159,-0.00302228,0.00516328
 ,-0.01584105,-0.04855340,0.00141853,-0.00145610,-0.00087399,0.00037480
 ,-0.00092914,0.00012452,-0.00012780,0.00030684,0.00004451,-0.00003135,
 0.00054040,0.00013338,0.00012904,-0.00030960,0.00001719,-0.00001058,0.
 00006839,-0.00001524,0.00023498,0.00030284,-0.00005630,-0.00056779,0.0
 0048925,0.00025196,-0.00017825,0.00012289,-0.00000573,0.00084048,0.000
 43996,0.00121555,-0.00267693,-0.00289606,-0.00401425,-0.00838392,0.025
 76509,0.00170709,-0.00497003,0.02126300,0.05143951,0.00001991,-0.00023
 501,0.00009637,0.00204407,0.00173142,0.00108705,-0.01362014,0.02986912
 ,0.00864581,-0.06974310,0.06762996,0.02534157,0.00383561,-0.01282891,-
 0.00324753,0.00024924,0.00047808,-0.00099751,0.00179450,-0.01040585,-0
 .00544538,0.00124146,-0.00110969,0.00006661,-0.00006683,0.00025853,0.0
 0009960,0.00002929,-0.00008399,-0.00004589,0.00028357,-0.00019230,0.00
 000138,0.00004388,0.00005172,0.00000373,-0.00006355,-0.00006113,-0.000
 28910,-0.00014924,-0.00122881,-0.00048878,0.00036686,-0.00040447,0.000
 31054,-0.00622515,-0.00003184,0.00065652,0.07995450,-0.00003070,0.0004
 2306,0.00013313,-0.00084173,0.00055140,-0.00024428,0.00112543,-0.00161
 168,-0.00026984,0.06677620,-0.24731123,-0.06898006,0.00710760,-0.02472
 213,-0.00663939,0.00026252,0.00238121,-0.00119192,0.00047590,-0.003176
 25,-0.00159104,0.00045875,0.00008330,-0.00022264,-0.00044929,0.0002180
 4,0.00020336,0.00008101,0.00000503,0.00001084,-0.00021104,-0.00005688,
 -0.00004642,-0.00003251,-0.00002234,0.00001433,0.00009104,-0.00004444,
 0.00003469,0.00036534,0.00054452,0.00050264,0.00049578,0.00013612,-0.0
 0010728,0.00011254,0.00097840,-0.00035375,-0.07224252,0.27123084,-0.00
 005001,0.00013022,-0.00004725,-0.00074034,0.00063337,0.00034806,-0.000
 13769,-0.00051817,0.00031664,0.02413419,-0.06754363,-0.07023309,-0.005
 53044,0.01973610,0.00465024,-0.00071103,-0.00019553,0.00207826,0.00686
 068,-0.02938540,-0.01473308,0.00195361,-0.00068228,0.00105055,-0.00073
 509,0.00042059,0.00005648,0.00001532,-0.00000343,0.00000207,-0.0000541
 8,-0.00005387,-0.00004330,0.00003003,-0.00001160,-0.00002102,0.0000448
 8,0.00012351,0.00005486,0.00008993,0.00009305,0.00030145,-0.00004898,-
 0.00006464,-0.00007498,-0.00028032,0.00038065,0.00034645,-0.02478247,0
 .07519423,0.08218185,0.00001707,-0.00008878,-0.00008784,-0.00003477,0.
 00011833,0.00011717,0.00053209,-0.00229517,0.00183430,-0.01528787,0.00
 000995,-0.00093846,-0.27808778,-0.00918364,-0.03696953,-0.00014886,-0.
 00180113,-0.00884605,-0.00018320,0.00034736,-0.00058522,-0.00026153,0.
 00004043,0.00045515,0.00022590,0.00065540,-0.00139647,-0.00007116,-0.0
 0000170,-0.00003710,0.00000587,0.00001663,0.00000623,-0.00000024,-0.00
 000184,0.00003245,0.00011041,0.00003320,0.00002220,-0.00002091,-0.0000
 7347,-0.00002746,-0.00094497,-0.00032450,0.00006154,0.00044452,-0.0001
 4241,-0.00012810,0.00051534,-0.00033219,-0.00015400,0.30362315,-0.0000
 0992,-0.00009354,-0.00010948,0.00001907,0.00017251,0.00008354,0.000350
 07,-0.00328295,0.00326135,-0.02571846,-0.00145011,-0.00161465,-0.00747
 635,-0.05504193,-0.00151544,-0.00713943,0.00305694,-0.00519833,-0.0002
 9958,0.00079271,-0.00052447,-0.00047023,0.00013798,0.00080851,0.000611
 25,-0.00022716,-0.00017577,-0.00006946,0.00000801,-0.00003533,-0.00001
 733,0.00001965,0.00000570,0.00004237,0.00002381,0.00001077,0.00001599,
 -0.00006103,-0.00009101,0.00001070,0.00002470,-0.00000920,-0.00159053,
 0.00029070,0.00015379,-0.00020978,0.00046852,0.00007914,0.00044545,0.0
 0060962,-0.00083445,0.01314344,0.05292112,0.00007099,-0.00000358,0.000
 36866,-0.00018677,-0.00003567,-0.00077842,0.00086751,0.00313079,-0.002
 55832,0.01826520,0.00047206,0.00245170,-0.03928347,-0.00232802,-0.0542
 9757,-0.03654214,-0.00505269,-0.02423679,0.00137979,0.00052594,0.00018
 302,0.00047644,0.00061288,-0.00120667,-0.00079241,0.00032297,-0.000577
 24,0.00011578,0.00000967,0.00003782,-0.00001857,0.00000535,-0.00002515
 ,-0.00014725,-0.00003559,0.00005504,0.00050984,0.00009244,0.00016175,0
 .00001939,0.00003627,0.00006692,0.00138487,0.00030767,0.00010686,-0.00
 035255,0.00011808,0.00003784,-0.00055291,0.00003034,0.00034689,0.04887
 167,0.00077036,0.07412774,-0.00001420,0.00002568,0.00001183,-0.0001364
 2,-0.00010311,-0.00011376,0.00139422,-0.00159478,-0.00059074,0.0044590
 9,-0.01347323,-0.00219583,-0.09426101,0.09464661,0.02162536,0.00399126
 ,-0.00704234,-0.00115343,-0.00010223,0.00038831,-0.00020260,-0.0004999
 1,0.00003735,0.00018312,0.00015676,0.00005705,-0.00046016,0.00001677,0
 .00001382,0.00001205,-0.00003301,0.00000358,0.00000047,-0.00000099,-0.
 00000179,-0.00000602,-0.00003769,-0.00002112,-0.00001291,-0.00003047,0
 .00012655,0.00001985,0.00018665,0.00007749,-0.00009691,-0.00001482,0.0
 0031875,0.00014867,-0.00046257,-0.00248740,0.00157624,-0.01313980,0.02
 853323,0.00589455,0.09707341,-0.00000276,-0.00004092,0.00000202,-0.000
 29382,0.00011696,-0.00014295,0.00215198,0.00052099,-0.00090122,0.00860
 421,-0.02433816,-0.00378887,0.09075306,-0.24188435,-0.04753929,0.00154
 430,-0.00526094,-0.00372998,-0.00006328,0.00012909,-0.00091350,0.00004
 218,-0.00004905,0.00006596,-0.00010753,0.00004990,0.00001143,-0.000011
 48,0.00000568,0.00000518,-0.00006937,0.00002592,-0.00000454,-0.0000310
 6,0.00000022,0.00000760,0.00007895,-0.00007460,0.00001724,0.00011207,0
 .00021775,0.00013452,0.00004061,0.00064739,0.00004121,-0.00139043,0.00
 084501,0.00024669,-0.00195487,-0.00231952,0.00335800,-0.00006121,0.001
 33340,0.00067215,-0.09896470,0.26702353,0.00001342,-0.00004235,0.00007
 092,0.00003519,0.00002906,0.00002634,-0.00111498,-0.00006020,0.0006175
 1,-0.00694339,0.01772762,0.00342552,0.01854867,-0.04050610,-0.05790202
 ,0.01249615,-0.03524083,-0.01533244,-0.00024445,0.00058255,0.00146182,
 0.00000921,0.00003484,0.00008074,-0.00000926,-0.00003374,-0.00006513,0
 .00002255,0.00001011,-0.00000130,-0.00000918,0.00001007,0.00000540,-0.
 00002024,0.00001245,0.00000363,0.00018734,-0.00004243,-0.00003024,0.00
 003246,-0.00003866,-0.00006475,-0.00023561,-0.00002410,-0.00000010,0.0
 0013927,-0.00039592,0.00010388,0.00169501,0.00279179,-0.00218945,-0.00
 137335,0.00450755,0.00247503,-0.02343359,0.05268783,0.07350127,-0.0001
 0154,-0.00006191,-0.00025044,0.00003134,-0.00033571,0.00034212,-0.0000
 4200,0.00026986,0.00009610,-0.00017915,0.00124643,0.00054596,-0.000936
 41,-0.00914020,-0.00927675,-0.12277187,0.19184302,0.07106802,0.0001560
 3,-0.00048244,-0.00002823,0.00018518,0.00001681,-0.00012110,-0.0001325
 7,-0.00006213,0.00022463,-0.00005302,-0.00000644,0.00001093,0.00012518
 ,-0.00005188,-0.00002708,0.00010790,0.00000371,-0.00005441,-0.00029006
 ,0.00086780,0.00004744,-0.00015337,-0.00043740,0.00025384,-0.00002879,
 -0.00012665,-0.00009934,0.00010933,-0.00018801,-0.00019194,0.00015718,
 -0.00044309,0.00046312,0.00171286,-0.00122500,0.00028666,0.00094775,-0
 .00039436,-0.00071004,0.11864009,-0.00001095,-0.00005052,-0.00005773,0
 .00003581,-0.00008808,0.00010353,-0.00011148,-0.00015141,0.00003330,-0
 .00027501,0.00221781,0.00020670,0.00478169,-0.00619077,-0.00285715,0.1
 4142520,-0.28955179,-0.07447539,0.00003971,-0.00011972,0.00013027,0.00
 002109,0.00003402,-0.00009150,-0.00003715,-0.00006934,0.00009134,-0.00
 001509,0.00000534,0.00000173,0.00003271,-0.00001059,-0.00000686,0.0000
 1933,0.00000569,-0.00001089,0.00015811,0.00035172,-0.00003031,-0.00010
 409,-0.00013917,0.00009189,-0.00005358,-0.00000539,-0.00000325,0.00002
 060,-0.00009391,-0.00006476,0.00042824,-0.00012632,-0.00034838,-0.0002
 2679,0.00050519,0.00137413,-0.00106509,0.00172287,-0.00126780,-0.16488
 398,0.31801821,0.00002156,0.00002306,-0.00001452,0.00003082,-0.0000944
 7,0.00001780,0.00018792,0.00011936,0.00002072,0.00035827,-0.00187187,0
 .00104082,0.02106238,-0.03488599,-0.01418196,0.05211318,-0.07116223,-0
 .08309330,-0.00034043,0.00025103,-0.00000026,0.00002156,-0.00002264,-0
 .00010221,-0.00002801,0.00004300,0.00009536,-0.00003769,-0.00001217,-0
 .00001251,-0.00001652,0.00000569,0.00000019,-0.00000647,-0.00000284,0.
 00000261,0.00007213,0.00016450,0.00001994,0.00004052,0.00005695,0.0000
 5059,-0.00003566,0.00002784,0.00000720,-0.00025241,0.00008978,0.000051
 53,0.00003906,0.00148631,-0.00025586,-0.00040936,0.00012269,0.00179280
 ,-0.00144174,-0.00089171,-0.00731321,-0.05918517,0.08687902,0.09490797
 ,0.00007052,-0.00026077,0.00027973,-0.00091696,0.00016984,-0.00022404,
 0.00041670,-0.00016094,-0.00061658,0.00025525,0.00018261,0.00034224,-0
 .00276804,0.00530486,-0.01138885,-0.07029892,-0.12890541,0.10421717,0.
 00014476,-0.00028053,-0.00000280,-0.00001428,0.00008932,-0.00002741,0.
 00008971,-0.00009789,0.00013699,-0.00005843,-0.00003133,-0.00002658,-0
 .00006923,0.00005741,0.00004257,-0.00016444,0.00002793,0.00003043,0.00
 037430,-0.00042023,0.00059203,0.00007120,0.00004764,-0.00009234,-0.000
 07115,0.00005659,0.00005683,-0.00007181,0.00013559,0.00005848,-0.00003
 911,-0.00003609,-0.00009834,0.00089463,0.00081358,-0.00018923,0.000279
 35,0.00002889,0.00064331,0.00260049,0.01983519,-0.01217487,0.06922062,
 0.00004501,0.00002772,0.00010026,-0.00001253,0.00008595,-0.00026663,-0
 .00010356,0.00007777,-0.00001468,0.00001009,0.00020227,-0.00119439,0.0
 0109340,0.00695902,-0.00750609,-0.08825311,-0.27083708,0.14927357,-0.0
 0016630,0.00051071,-0.00035732,0.00008971,-0.00002802,0.00002944,-0.00
 003588,0.00003055,-0.00005775,0.00001053,-0.00000440,-0.00000267,-0.00
 001596,0.00000308,0.00000007,-0.00003174,-0.00000504,0.00000652,-0.000
 13570,-0.00020071,0.00016517,0.00002954,0.00006692,-0.00003878,0.00005
 066,0.00000623,0.00002001,0.00000424,-0.00001784,0.00003083,-0.0000305
 0,0.00048970,-0.00013205,0.00014079,-0.00012277,-0.00071532,0.00029301
 ,0.00055983,-0.00004309,-0.01639379,-0.02618419,0.01943258,0.10342134,
 0.28837959,0.00000797,-0.00000595,0.00016666,-0.00027907,-0.00009280,-
 0.00002167,-0.00031255,-0.00007599,0.00001707,-0.00299180,-0.00401465,
 -0.00599820,0.01602984,0.03075266,-0.02286555,0.07110635,0.14038068,-0
 .15474838,0.00113257,0.00169945,-0.00099387,0.00038696,0.00004639,-0.0
 0005540,-0.00019936,-0.00004847,0.00012066,0.00001301,-0.00001056,-0.0
 0000489,-0.00001817,0.00001176,0.00000425,-0.00007339,-0.00000810,0.00
 001263,0.00036380,-0.00004437,0.00009508,0.00002664,0.00006164,-0.0000
 4547,0.00006062,0.00000954,0.00000127,0.00010094,-0.00001134,0.0000030
 3,-0.00028723,-0.00016530,0.00033764,-0.00064545,0.00045302,0.00129975
 ,0.00066356,-0.00042166,0.00127187,-0.00329849,-0.00976720,0.00659974,
 -0.08160539,-0.15866271,0.17549023,-0.00002137,0.00003317,0.00000723,0
 .00005748,0.00003517,0.00002335,0.00075199,0.00109787,-0.00202592,0.00
 367389,0.00702067,-0.00564544,-0.00117919,-0.00055909,-0.00177149,0.00
 040162,0.00043062,-0.00050193,-0.09429163,-0.07792060,0.07012211,-0.02
 498503,-0.02390081,0.02051087,0.00054792,0.00339089,-0.00273866,0.0000
 1588,-0.00000584,0.00001689,-0.00000066,-0.00000216,-0.00000146,-0.000
 02655,-0.00001609,0.00000442,0.00001121,0.00003433,0.00003687,-0.00000
 254,0.00002301,0.00002224,-0.00059085,-0.00022003,-0.00031315,-0.00012
 080,-0.00003174,0.00000143,0.00010603,-0.00006201,0.00057262,0.0001748
 5,0.00006310,-0.00004779,0.00001976,-0.00015103,0.00013911,-0.00000677
 ,-0.00000591,-0.00004896,0.00004938,-0.00003812,-0.00022775,0.11122360
 ,0.00001218,-0.00000339,0.00006022,0.00031609,0.00026194,-0.00025600,-
 0.00029223,-0.00008332,-0.00014021,0.00189849,0.00277643,-0.00344011,-
 0.00017236,0.00060423,-0.00045471,-0.00011820,0.00029973,-0.00018258,-
 0.07647907,-0.16426031,0.10561085,-0.00004988,0.00428686,-0.00511229,0
 .00204983,-0.00055355,0.00116585,0.00001478,-0.00000128,-0.00001163,0.
 00001048,-0.00000963,0.00000765,0.00000861,0.00002247,0.00000193,-0.00
 009021,-0.00008290,-0.00011262,-0.00000201,-0.00006274,-0.00002231,0.0
 0047589,0.00044594,-0.00015668,-0.00005149,0.00001420,0.00006106,0.000
 40050,0.00059748,0.00022779,-0.00000231,-0.00011199,-0.00017167,-0.000
 01827,0.00035097,-0.00026560,-0.00000832,0.00001391,0.00009846,0.00000
 250,0.00000857,-0.00006199,0.08531373,0.17534883,-0.00003821,0.0000120
 1,0.00007388,-0.00004521,-0.00044383,0.00018118,0.00230134,0.00077348,
 0.00042963,0.01152418,0.02114688,-0.02047477,-0.00334162,-0.00337816,-
 0.00415587,0.00049571,0.00185466,-0.00104590,0.06818488,0.10510618,-0.
 13417694,0.00155384,-0.00397306,0.00182966,-0.00179477,0.00122662,-0.0
 0006198,0.00003957,0.00000516,0.00000568,0.00001234,-0.00001532,-0.000
 00210,-0.00004588,-0.00001165,-0.00000008,0.00020588,0.00009447,0.0002
 1539,0.00000161,-0.00001601,-0.00007748,-0.00124686,-0.00034437,0.0008
 0135,-0.00002016,-0.00017277,0.00020143,0.00054016,-0.00039315,0.00120
 169,0.00001573,-0.00031374,0.00019527,-0.00015915,0.00017418,0.0001040
 3,0.00008691,0.00006058,0.00004822,0.00002335,-0.00017276,-0.00070163,
 -0.07301311,-0.11408048,0.14937737,-0.00001020,0.00002617,0.00001570,-
 0.00008671,-0.00009304,0.00004766,0.00108751,-0.00066007,0.00018664,0.
 00313384,-0.00988834,-0.00328769,-0.00000621,0.00002189,0.00060835,-0.
 00008061,-0.00012752,-0.00003964,-0.06115096,0.05740947,0.02164916,-0.
 01653124,0.03520644,0.01142502,-0.00105997,-0.00417162,-0.00170216,0.0
 0000734,0.00000851,0.00000381,-0.00002976,0.00001443,-0.00000831,-0.00
 000825,-0.00000990,-0.00000044,0.00004317,0.00001581,0.00005078,-0.000
 05773,0.00012918,0.00004079,0.00003167,-0.00014093,0.00017268,0.000026
 59,0.00036703,-0.00023254,-0.00027174,-0.00018356,-0.00241773,-0.00007
 561,0.00017783,-0.00002960,0.00020810,0.00013964,0.00013240,-0.0000777
 7,-0.00000855,0.00002989,0.00000545,0.00002888,0.00004642,0.00419175,-
 0.01321875,-0.00528052,0.07071133,-0.00001520,-0.00000800,-0.00003799,
 -0.00024028,0.00009327,0.00003289,0.00027630,0.00047158,0.00033288,0.0
 0045799,-0.00379339,-0.00256904,-0.00033426,0.00085086,0.00081462,-0.0
 0016458,0.00019353,-0.00001936,0.05700840,-0.25735771,-0.07684237,0.00
 574542,-0.00207844,0.00093266,-0.00245890,0.00041673,-0.00056464,-0.00
 001134,-0.00000049,0.00000345,-0.00001394,0.00000670,-0.00001179,-0.00
 000334,-0.00001351,0.00000073,0.00004260,0.00003249,0.00004635,0.00008
 057,0.00008339,0.00010846,-0.00014813,-0.00021619,-0.00000420,-0.00045
 964,0.00016187,-0.00021158,-0.00048313,0.00114206,-0.00052408,0.000029
 62,0.00002661,-0.00013856,0.00025040,0.00041802,-0.00043306,-0.0000063
 3,-0.00009353,0.00014366,0.00001990,-0.00000787,-0.00002406,0.00547088
 ,-0.01986246,-0.00713894,-0.06504301,0.27953447,-0.00002016,0.00009409
 ,0.00004478,-0.00005614,0.00003055,-0.00017095,0.00147847,-0.00000279,
 0.00132215,0.00716744,-0.02909697,-0.01316215,0.00045478,-0.00176120,0
 .00148747,-0.00007966,0.00040307,0.00025656,0.02126016,-0.07743349,-0.
 07120820,0.00106325,0.00341593,-0.00019887,-0.00123970,-0.00076975,0.0
 0050380,0.00002295,-0.00000406,-0.00000898,-0.00004661,0.00000069,0.00
 000097,-0.00000546,0.00000365,-0.00000209,0.00001064,-0.00003236,0.000
 02445,0.00005232,0.00022049,0.00010414,-0.00021095,0.00016517,0.000043
 50,-0.00062625,0.00043490,0.00006369,-0.00244660,-0.00019660,-0.005675
 12,0.00018195,0.00016544,-0.00002692,-0.00026885,0.00090969,-0.0002493
 1,-0.00018271,0.00000873,0.00031834,0.00002328,0.00010582,0.00001521,-
 0.00512148,0.01723506,0.00603196,-0.02141068,0.08610396,0.08048557\\0.
 00000004,0.00000053,0.,-0.00000377,0.00000186,0.00000330,0.00000470,0.
 00000148,-0.00000204,-0.00000221,-0.00000286,0.00000223,-0.00000499,-0
 .00000222,-0.00001016,0.00000621,-0.00000003,0.00000586,0.00000260,-0.
 00000192,0.00000253,0.00000740,0.00000052,0.00000011,-0.00000993,-0.00
 000056,-0.00000065,0.00000044,0.00000169,0.00000020,-0.00000005,0.0000
 0147,0.00000030,-0.00000025,0.00000108,0.00000044,0.00000002,-0.000002
 05,-0.00000105,0.00000050,-0.00000065,-0.00000129,-0.00000103,0.000000
 73,0.00000060,0.00000058,0.00000111,-0.00000020,-0.00000074,0.00000024
 ,-0.00000045,0.00000162,-0.00000056,0.00000087,0.00000184,0.00000078,0
 .00000044,-0.00000107,-0.00000117,-0.00000002,-0.00000083,-0.00000169,
 -0.00000020,-0.00000107,0.00000124,-0.00000064,-0.00000003,0.00000097,
 -0.00000019\\\@


 BULLDOZER: SOMEONE WHO SLEEPS THROUGH SPEECHES.
 Job cpu time:       0 days  2 hours 19 minutes 28.7 seconds.
 Elapsed time:       0 days  0 hours 34 minutes 52.9 seconds.
 File lengths (MBytes):  RWF=    178 Int=      0 D2E=      0 Chk=     10 Scr=      1
 Normal termination of Gaussian 16 at Thu Aug  4 03:02:41 2022.
### All Done ###
