### Starting Gaussian ###
 Entering Gaussian System, Link 0=g16
 Initial command:
 /cluster/software/gaussian/gaussian-16-A.03/avx2/g16/l1.exe "/local/scratch/ks29c/Gau-3507.inp" -scrdir="/local/scratch/ks29c/"
 Entering Link 1 = /cluster/software/gaussian/gaussian-16-A.03/avx2/g16/l1.exe PID=      3508.
  
 Copyright (c) 1988,1990,1992,1993,1995,1998,2003,2009,2016,
            Gaussian, Inc.  All Rights Reserved.
  
 This is part of the Gaussian(R) 16 program.  It is based on
 the Gaussian(R) 09 system (copyright 2009, Gaussian, Inc.),
 the Gaussian(R) 03 system (copyright 2003, Gaussian, Inc.),
 the Gaussian(R) 98 system (copyright 1998, Gaussian, Inc.),
 the Gaussian(R) 94 system (copyright 1995, Gaussian, Inc.),
 the Gaussian 92(TM) system (copyright 1992, Gaussian, Inc.),
 the Gaussian 90(TM) system (copyright 1990, Gaussian, Inc.),
 the Gaussian 88(TM) system (copyright 1988, Gaussian, Inc.),
 the Gaussian 86(TM) system (copyright 1986, Carnegie Mellon
 University), and the Gaussian 82(TM) system (copyright 1983,
 Carnegie Mellon University). Gaussian is a federally registered
 trademark of Gaussian, Inc.
  
 This software contains proprietary and confidential information,
 including trade secrets, belonging to Gaussian, Inc.
  
 This software is provided under written license and may be
 used, copied, transmitted, or stored only in accord with that
 written license.
  
 The following legend is applicable only to US Government
 contracts under FAR:
  
                    RESTRICTED RIGHTS LEGEND
  
 Use, reproduction and disclosure by the US Government is
 subject to restrictions as set forth in subparagraphs (a)
 and (c) of the Commercial Computer Software - Restricted
 Rights clause in FAR 52.227-19.
  
 Gaussian, Inc.
 340 Quinnipiac St., Bldg. 40, Wallingford CT 06492
  
  
 ---------------------------------------------------------------
 Warning -- This program may not be used in any manner that
 competes with the business of Gaussian, Inc. or will provide
 assistance to any competitor of Gaussian, Inc.  The licensee
 of this program is prohibited from giving any competitor of
 Gaussian, Inc. access to this program.  By using this program,
 the user acknowledges that Gaussian, Inc. is engaged in the
 business of creating and licensing software in the field of
 computational chemistry and represents and warrants to the
 licensee that it is not a competitor of Gaussian, Inc. and that
 it will not use this program in any manner prohibited above.
 ---------------------------------------------------------------
  

 Cite this work as:
 Gaussian 16, Revision A.03,
 M. J. Frisch, G. W. Trucks, H. B. Schlegel, G. E. Scuseria, 
 M. A. Robb, J. R. Cheeseman, G. Scalmani, V. Barone, 
 G. A. Petersson, H. Nakatsuji, X. Li, M. Caricato, A. V. Marenich, 
 J. Bloino, B. G. Janesko, R. Gomperts, B. Mennucci, H. P. Hratchian, 
 J. V. Ortiz, A. F. Izmaylov, J. L. Sonnenberg, D. Williams-Young, 
 F. Ding, F. Lipparini, F. Egidi, J. Goings, B. Peng, A. Petrone, 
 T. Henderson, D. Ranasinghe, V. G. Zakrzewski, J. Gao, N. Rega, 
 G. Zheng, W. Liang, M. Hada, M. Ehara, K. Toyota, R. Fukuda, 
 J. Hasegawa, M. Ishida, T. Nakajima, Y. Honda, O. Kitao, H. Nakai, 
 T. Vreven, K. Throssell, J. A. Montgomery, Jr., J. E. Peralta, 
 F. Ogliaro, M. J. Bearpark, J. J. Heyd, E. N. Brothers, K. N. Kudin, 
 V. N. Staroverov, T. A. Keith, R. Kobayashi, J. Normand, 
 K. Raghavachari, A. P. Rendell, J. C. Burant, S. S. Iyengar, 
 J. Tomasi, M. Cossi, J. M. Millam, M. Klene, C. Adamo, R. Cammi, 
 J. W. Ochterski, R. L. Martin, K. Morokuma, O. Farkas, 
 J. B. Foresman, and D. J. Fox, Gaussian, Inc., Wallingford CT, 2016.
 
 ******************************************
 Gaussian 16:  ES64L-G16RevA.03 25-Dec-2016
                 4-Aug-2022 
 ******************************************
 %chk=CCCC1OC12CC2O.chk
 %NProcShared=20
 Will use up to   20 processors via shared memory.
 -----------------------------
 # opt freq b3lyp/6-31g(2df,p)
 -----------------------------
 1/18=20,19=15,26=3,38=1/1,3;
 2/9=110,12=2,17=6,18=5,40=1/2;
 3/5=1,6=6,7=104,11=2,25=1,30=1,71=1,74=-5/1,2,3;
 4//1;
 5/5=2,38=5/2;
 6/7=2,8=2,9=2,10=2,28=1/1;
 7//1,2,3,16;
 1/18=20,19=15,26=3/3(2);
 2/9=110/2;
 99//99;
 2/9=110/2;
 3/5=1,6=6,7=104,11=2,25=1,30=1,71=1,74=-5/1,2,3;
 4/5=5,16=3,69=1/1;
 5/5=2,38=5/2;
 7//1,2,3,16;
 1/18=20,19=15,26=3/3(-5);
 2/9=110/2;
 6/7=2,8=2,9=2,10=2,19=2,28=1/1;
 99/9=1/99;
 -------------------
 Title Card Required
 -------------------
 Symbolic Z-matrix:
 Charge =  0 Multiplicity = 1
 C                     0.90711  -0.04168  -0.01371 
 C                     2.42698  -0.02375  -0.01163 
 C                     2.97933  -0.86491  -1.15554 
 C                     4.47062  -0.87421  -1.26164 
 O                     5.25232   0.03705  -0.40391 
 C                     5.12643   0.29924  -1.77766 
 C                     6.18767   0.74525  -2.64748 
 C                     4.94804   1.6245   -2.33569 
 O                     5.22249   2.79705  -1.54906 
 H                     0.51874   0.57464   0.8021 
 H                     0.52736  -1.06039   0.11479 
 H                     0.51437   0.35297  -0.9567 
 H                     2.79791  -0.40941   0.94493 
 H                     2.77207   1.01261  -0.09894 
 H                     2.55911  -0.5173   -2.10884 
 H                     2.63311  -1.89952  -1.03572 
 H                     4.88502  -1.84465  -1.49494 
 H                     6.23704   0.27152  -3.62016 
 H                     7.14118   1.0541   -2.24273 
 H                     4.18503   1.71747  -3.10005 
 H                     5.92342   2.65459  -0.88926 
 

 GradGradGradGradGradGradGradGradGradGradGradGradGradGradGradGradGradGrad
 Berny optimization.
 Initialization pass.
                           ----------------------------
                           !    Initial Parameters    !
                           ! (Angstroms and Degrees)  !
 --------------------------                            --------------------------
 ! Name  Definition              Value          Derivative Info.                !
 --------------------------------------------------------------------------------
 ! R1    R(1,2)                  1.52           estimate D2E/DX2                !
 ! R2    R(1,10)                 1.0937         estimate D2E/DX2                !
 ! R3    R(1,11)                 1.0948         estimate D2E/DX2                !
 ! R4    R(1,12)                 1.0951         estimate D2E/DX2                !
 ! R5    R(2,3)                  1.5235         estimate D2E/DX2                !
 ! R6    R(2,13)                 1.0961         estimate D2E/DX2                !
 ! R7    R(2,14)                 1.0958         estimate D2E/DX2                !
 ! R8    R(3,4)                  1.4951         estimate D2E/DX2                !
 ! R9    R(3,15)                 1.0983         estimate D2E/DX2                !
 ! R10   R(3,16)                 1.0976         estimate D2E/DX2                !
 ! R11   R(4,5)                  1.4755         estimate D2E/DX2                !
 ! R12   R(4,6)                  1.4399         estimate D2E/DX2                !
 ! R13   R(4,17)                 1.0807         estimate D2E/DX2                !
 ! R14   R(5,6)                  1.4042         estimate D2E/DX2                !
 ! R15   R(6,7)                  1.4428         estimate D2E/DX2                !
 ! R16   R(6,8)                  1.449          estimate D2E/DX2                !
 ! R17   R(7,8)                  1.5514         estimate D2E/DX2                !
 ! R18   R(7,18)                 1.083          estimate D2E/DX2                !
 ! R19   R(7,19)                 1.0809         estimate D2E/DX2                !
 ! R20   R(8,9)                  1.4384         estimate D2E/DX2                !
 ! R21   R(8,20)                 1.084          estimate D2E/DX2                !
 ! R22   R(9,21)                 0.9731         estimate D2E/DX2                !
 ! A1    A(2,1,10)             110.3282         estimate D2E/DX2                !
 ! A2    A(2,1,11)             110.9573         estimate D2E/DX2                !
 ! A3    A(2,1,12)             110.8265         estimate D2E/DX2                !
 ! A4    A(10,1,11)            108.2786         estimate D2E/DX2                !
 ! A5    A(10,1,12)            108.1723         estimate D2E/DX2                !
 ! A6    A(11,1,12)            108.1809         estimate D2E/DX2                !
 ! A7    A(1,2,3)              110.7921         estimate D2E/DX2                !
 ! A8    A(1,2,13)             109.5995         estimate D2E/DX2                !
 ! A9    A(1,2,14)             109.0231         estimate D2E/DX2                !
 ! A10   A(3,2,13)             109.7738         estimate D2E/DX2                !
 ! A11   A(3,2,14)             110.3753         estimate D2E/DX2                !
 ! A12   A(13,2,14)            107.2019         estimate D2E/DX2                !
 ! A13   A(2,3,4)              114.7298         estimate D2E/DX2                !
 ! A14   A(2,3,15)             109.7705         estimate D2E/DX2                !
 ! A15   A(2,3,16)             108.9118         estimate D2E/DX2                !
 ! A16   A(4,3,15)             108.785          estimate D2E/DX2                !
 ! A17   A(4,3,16)             108.453          estimate D2E/DX2                !
 ! A18   A(15,3,16)            105.8081         estimate D2E/DX2                !
 ! A19   A(3,4,5)              118.9038         estimate D2E/DX2                !
 ! A20   A(3,4,6)              118.337          estimate D2E/DX2                !
 ! A21   A(3,4,17)             113.7901         estimate D2E/DX2                !
 ! A22   A(5,4,17)             118.4846         estimate D2E/DX2                !
 ! A23   A(6,4,17)             118.6717         estimate D2E/DX2                !
 ! A24   A(4,6,7)              143.4139         estimate D2E/DX2                !
 ! A25   A(4,6,8)              145.823          estimate D2E/DX2                !
 ! A26   A(5,6,7)              125.5605         estimate D2E/DX2                !
 ! A27   A(5,6,8)              123.9578         estimate D2E/DX2                !
 ! A28   A(6,7,18)             116.0878         estimate D2E/DX2                !
 ! A29   A(6,7,19)             120.7582         estimate D2E/DX2                !
 ! A30   A(8,7,18)             117.6977         estimate D2E/DX2                !
 ! A31   A(8,7,19)             117.882          estimate D2E/DX2                !
 ! A32   A(18,7,19)            114.9018         estimate D2E/DX2                !
 ! A33   A(6,8,9)              120.7619         estimate D2E/DX2                !
 ! A34   A(6,8,20)             115.8908         estimate D2E/DX2                !
 ! A35   A(7,8,9)              114.7991         estimate D2E/DX2                !
 ! A36   A(7,8,20)             117.9895         estimate D2E/DX2                !
 ! A37   A(9,8,20)             116.7441         estimate D2E/DX2                !
 ! A38   A(8,9,21)             112.8861         estimate D2E/DX2                !
 ! D1    D(10,1,2,3)          -179.2653         estimate D2E/DX2                !
 ! D2    D(10,1,2,13)           59.447          estimate D2E/DX2                !
 ! D3    D(10,1,2,14)          -57.6071         estimate D2E/DX2                !
 ! D4    D(11,1,2,3)            60.731          estimate D2E/DX2                !
 ! D5    D(11,1,2,13)          -60.5567         estimate D2E/DX2                !
 ! D6    D(11,1,2,14)         -177.6108         estimate D2E/DX2                !
 ! D7    D(12,1,2,3)           -59.4791         estimate D2E/DX2                !
 ! D8    D(12,1,2,13)          179.2332         estimate D2E/DX2                !
 ! D9    D(12,1,2,14)           62.1791         estimate D2E/DX2                !
 ! D10   D(1,2,3,4)            178.1962         estimate D2E/DX2                !
 ! D11   D(1,2,3,15)            55.3566         estimate D2E/DX2                !
 ! D12   D(1,2,3,16)           -60.0567         estimate D2E/DX2                !
 ! D13   D(13,2,3,4)           -60.6189         estimate D2E/DX2                !
 ! D14   D(13,2,3,15)          176.5415         estimate D2E/DX2                !
 ! D15   D(13,2,3,16)           61.1281         estimate D2E/DX2                !
 ! D16   D(14,2,3,4)            57.3356         estimate D2E/DX2                !
 ! D17   D(14,2,3,15)          -65.5041         estimate D2E/DX2                !
 ! D18   D(14,2,3,16)          179.0826         estimate D2E/DX2                !
 ! D19   D(2,3,4,5)             -7.9175         estimate D2E/DX2                !
 ! D20   D(2,3,4,6)            -74.4502         estimate D2E/DX2                !
 ! D21   D(2,3,4,17)           139.0931         estimate D2E/DX2                !
 ! D22   D(15,3,4,5)           115.4508         estimate D2E/DX2                !
 ! D23   D(15,3,4,6)            48.9181         estimate D2E/DX2                !
 ! D24   D(15,3,4,17)          -97.5386         estimate D2E/DX2                !
 ! D25   D(16,3,4,5)          -129.9141         estimate D2E/DX2                !
 ! D26   D(16,3,4,6)           163.5533         estimate D2E/DX2                !
 ! D27   D(16,3,4,17)           17.0966         estimate D2E/DX2                !
 ! D28   D(3,4,6,7)           -138.5793         estimate D2E/DX2                !
 ! D29   D(3,4,6,8)             -2.8012         estimate D2E/DX2                !
 ! D30   D(17,4,6,7)             6.2317         estimate D2E/DX2                !
 ! D31   D(17,4,6,8)           142.0097         estimate D2E/DX2                !
 ! D32   D(4,6,7,18)            46.7255         estimate D2E/DX2                !
 ! D33   D(4,6,7,19)          -100.0954         estimate D2E/DX2                !
 ! D34   D(5,6,7,18)           137.3213         estimate D2E/DX2                !
 ! D35   D(5,6,7,19)            -9.4996         estimate D2E/DX2                !
 ! D36   D(4,6,8,9)            105.8821         estimate D2E/DX2                !
 ! D37   D(4,6,8,20)           -44.6955         estimate D2E/DX2                !
 ! D38   D(5,6,8,9)             15.8591         estimate D2E/DX2                !
 ! D39   D(5,6,8,20)          -134.7186         estimate D2E/DX2                !
 ! D40   D(18,7,8,9)          -143.256          estimate D2E/DX2                !
 ! D41   D(18,7,8,20)            0.5427         estimate D2E/DX2                !
 ! D42   D(19,7,8,9)             1.406          estimate D2E/DX2                !
 ! D43   D(19,7,8,20)          145.2047         estimate D2E/DX2                !
 ! D44   D(6,8,9,21)            30.4287         estimate D2E/DX2                !
 ! D45   D(7,8,9,21)           -34.9664         estimate D2E/DX2                !
 ! D46   D(20,8,9,21)         -179.2329         estimate D2E/DX2                !
 --------------------------------------------------------------------------------
 Trust Radius=3.00D-01 FncErr=1.00D-07 GrdErr=1.00D-06 EigMax=2.50D+02 EigMin=1.00D-04
 Number of steps in this run=    116 maximum allowed number of steps=    126.
 GradGradGradGradGradGradGradGradGradGradGradGradGradGradGradGradGradGrad

                          Input orientation:                          
 ---------------------------------------------------------------------
 Center     Atomic      Atomic             Coordinates (Angstroms)
 Number     Number       Type             X           Y           Z
 ---------------------------------------------------------------------
      1          6           0        0.907110   -0.041680   -0.013710
      2          6           0        2.426980   -0.023750   -0.011630
      3          6           0        2.979330   -0.864910   -1.155540
      4          6           0        4.470620   -0.874210   -1.261640
      5          8           0        5.252320    0.037050   -0.403910
      6          6           0        5.126430    0.299240   -1.777660
      7          6           0        6.187670    0.745250   -2.647480
      8          6           0        4.948040    1.624500   -2.335690
      9          8           0        5.222490    2.797050   -1.549060
     10          1           0        0.518740    0.574640    0.802100
     11          1           0        0.527360   -1.060390    0.114790
     12          1           0        0.514370    0.352970   -0.956700
     13          1           0        2.797910   -0.409410    0.944930
     14          1           0        2.772070    1.012610   -0.098940
     15          1           0        2.559110   -0.517300   -2.108840
     16          1           0        2.633110   -1.899520   -1.035720
     17          1           0        4.885020   -1.844650   -1.494940
     18          1           0        6.237040    0.271520   -3.620160
     19          1           0        7.141180    1.054100   -2.242730
     20          1           0        4.185030    1.717470   -3.100050
     21          1           0        5.923420    2.654590   -0.889260
 ---------------------------------------------------------------------
                    Distance matrix (angstroms):
                    1          2          3          4          5
     1  C    0.000000
     2  C    1.519977   0.000000
     3  C    2.505111   1.523539   0.000000
     4  C    3.866399   2.542100   1.495088   0.000000
     5  O    4.363405   2.853091   2.558313   1.475517   0.000000
     6  C    4.585892   3.241946   2.520380   1.439913   1.404201
     7  C    5.953177   4.656378   3.887409   2.737054   2.531804
     8  C    4.949430   3.804435   3.386109   2.761352   2.518801
     9  O    5.388710   4.258577   4.312375   3.758466   2.988287
    10  H    1.093722   2.159075   3.458202   4.687808   4.914290
    11  H    1.094757   2.167755   2.768412   4.180732   4.878388
    12  H    1.095091   2.166368   2.756592   4.153417   4.780539
    13  H    2.151590   1.096052   2.156935   2.807659   2.835987
    14  H    2.144031   1.095788   2.164357   2.792317   2.682604
    15  H    2.710145   2.158550   1.098271   2.121085   3.235347
    16  H    2.734072   2.147036   1.097562   2.116304   3.318094
    17  H    4.611780   3.399683   2.169502   1.080699   2.205913
    18  H    6.443037   5.255971   4.240106   3.161575   3.371782
    19  H    6.710655   5.325716   4.710157   3.436977   2.825499
    20  H    4.833721   3.957389   3.450148   3.190316   3.351431
    21  H    5.761929   4.490972   4.596243   3.834283   2.745443
                    6          7          8          9         10
     6  C    0.000000
     7  C    1.442824   0.000000
     8  C    1.448977   1.551443   0.000000
     9  O    2.510088   2.519520   1.438396   0.000000
    10  H    5.287893   6.638183   5.528710   5.708969   0.000000
    11  H    5.155716   6.552067   5.723277   6.300197   1.773638
    12  H    4.684865   5.932871   4.814128   5.337678   1.772719
    13  H    3.651943   5.072388   4.418407   4.730746   2.486638
    14  H    2.978256   4.269995   3.179985   3.360302   2.466006
    15  H    2.714323   3.879512   3.216482   4.288573   3.718738
    16  H    3.406122   4.714602   4.412204   5.387595   3.737594
    17  H    2.175885   3.119748   3.570131   4.654266   5.494885
    18  H    2.151518   1.083035   2.267584   3.420098   7.235138
    19  H    2.201209   1.080922   2.268008   2.683361   7.304628
    20  H    2.155534   2.271695   1.084008   2.155780   5.474899
    21  H    2.640477   2.608974   2.025984   0.973105   6.033030
                   11         12         13         14         15
    11  H    0.000000
    12  H    1.773653   0.000000
    13  H    2.503658   3.067894   0.000000
    14  H    3.062961   2.503615   1.764220   0.000000
    15  H    3.060635   2.503150   3.064992   2.534891   0.000000
    16  H    2.542046   3.093382   2.484061   3.062249   1.751455
    17  H    4.711210   4.921567   3.516946   3.818024   2.747469
    18  H    6.951567   6.312654   5.755982   4.995420   4.053825
    19  H    7.332911   6.786757   5.582744   4.866896   4.845884
    20  H    5.606269   4.464253   4.775938   3.391157   2.936036
    21  H    6.627719   5.878760   4.745647   3.640290   4.781929
                   16         17         18         19         20
    16  H    0.000000
    17  H    2.298911   0.000000
    18  H    4.937718   3.289786   0.000000
    19  H    5.522992   3.748626   1.824065   0.000000
    20  H    4.444382   3.969265   2.563597   3.148631   0.000000
    21  H    5.620277   4.657068   3.638021   2.424126   2.964420
                   21
    21  H    0.000000
 Stoichiometry    C7H12O2
 Framework group  C1[X(C7H12O2)]
 Deg. of freedom    57
 Full point group                 C1      NOp   1
 Largest Abelian subgroup         C1      NOp   1
 Largest concise Abelian subgroup C1      NOp   1
                         Standard orientation:                         
 ---------------------------------------------------------------------
 Center     Atomic      Atomic             Coordinates (Angstroms)
 Number     Number       Type             X           Y           Z
 ---------------------------------------------------------------------
      1          6           0       -3.332529    0.808539   -0.239523
      2          6           0       -2.043819    0.303139    0.388274
      3          6           0       -1.432989   -0.810663   -0.452859
      4          6           0       -0.135704   -1.344913    0.063783
      5          8           0        0.517817   -0.659578    1.195320
      6          6           0        1.047940   -0.541392   -0.099586
      7          6           0        2.448582   -0.598009   -0.441258
      8          6           0        1.599151    0.684985   -0.639679
      9          8           0        1.947512    1.779151    0.226594
     10          1           0       -3.757498    1.616258    0.363154
     11          1           0       -4.074234    0.006479   -0.310703
     12          1           0       -3.149138    1.194800   -1.247686
     13          1           0       -2.247696   -0.065586    1.400107
     14          1           0       -1.341175    1.138614    0.483267
     15          1           0       -1.285844   -0.460020   -1.483197
     16          1           0       -2.148754   -1.640117   -0.518649
     17          1           0       -0.046976   -2.419522   -0.008697
     18          1           0        2.701025   -1.175790   -1.321828
     19          1           0        3.206425   -0.588335    0.329438
     20          1           0        1.289898    0.939641   -1.646946
     21          1           0        2.227539    1.486880    1.111521
 ---------------------------------------------------------------------
 Rotational constants (GHZ):           2.8585089           0.9804725           0.8483195
 Standard basis: 6-31G(2df,p) (6D, 7F)
 There are   339 symmetry adapted cartesian basis functions of A   symmetry.
 There are   312 symmetry adapted basis functions of A   symmetry.
   312 basis functions,   480 primitive gaussians,   339 cartesian basis functions
    35 alpha electrons       35 beta electrons
       nuclear repulsion energy       466.9665686046 Hartrees.
 NAtoms=   21 NActive=   21 NUniq=   21 SFac= 1.00D+00 NAtFMM=   60 NAOKFM=F Big=F
 Integral buffers will be    131072 words long.
 Raffenetti 2 integral format.
 Two-electron integral symmetry is turned on.
 One-electron integrals computed using PRISM.
 PrsmSu:  requested number of processors reduced to:  13 ShMem   1 Linda.
 NBasis=   312 RedAO= T EigKep=  5.39D-04  NBF=   312
 NBsUse=   312 1.00D-06 EigRej= -1.00D+00 NBFU=   312
 ExpMin= 1.61D-01 ExpMax= 5.48D+03 ExpMxC= 8.25D+02 IAcc=3 IRadAn=         5 AccDes= 0.00D+00
 Harris functional with IExCor=  402 and IRadAn=       5 diagonalized for initial guess.
 HarFok:  IExCor=  402 AccDes= 0.00D+00 IRadAn=         5 IDoV= 1 UseB2=F ITyADJ=14
 ICtDFT=  3500011 ScaDFX=  1.000000  1.000000  1.000000  1.000000
 FoFCou: FMM=F IPFlag=           0 FMFlag=      100000 FMFlg1=           0
         NFxFlg=           0 DoJE=T BraDBF=F KetDBF=T FulRan=T
         wScrn=  0.000000 ICntrl=       500 IOpCl=  0 I1Cent=   200000004 NGrid=           0
         NMat0=    1 NMatS0=      1 NMatT0=    0 NMatD0=    1 NMtDS0=    0 NMtDT0=    0
 Petite list used in FoFCou.
 Requested convergence on RMS density matrix=1.00D-08 within 128 cycles.
 Requested convergence on MAX density matrix=1.00D-06.
 Requested convergence on             energy=1.00D-06.
 No special actions if energy rises.
 Integral accuracy reduced to 1.0D-05 until final iterations.
 Initial convergence to 1.0D-05 achieved.  Increase integral accuracy.
 SCF Done:  E(RB3LYP) =  -424.339292355     A.U. after   13 cycles
            NFock= 13  Conv=0.56D-08     -V/T= 2.0072

 **********************************************************************

            Population analysis using the SCF density.

 **********************************************************************

 Orbital symmetries:
       Occupied  (A) (A) (A) (A) (A) (A) (A) (A) (A) (A) (A) (A)
                 (A) (A) (A) (A) (A) (A) (A) (A) (A) (A) (A) (A)
                 (A) (A) (A) (A) (A) (A) (A) (A) (A) (A) (A)
       Virtual   (A) (A) (A) (A) (A) (A) (A) (A) (A) (A) (A) (A)
                 (A) (A) (A) (A) (A) (A) (A) (A) (A) (A) (A) (A)
                 (A) (A) (A) (A) (A) (A) (A) (A) (A) (A) (A) (A)
                 (A) (A) (A) (A) (A) (A) (A) (A) (A) (A) (A) (A)
                 (A) (A) (A) (A) (A) (A) (A) (A) (A) (A) (A) (A)
                 (A) (A) (A) (A) (A) (A) (A) (A) (A) (A) (A) (A)
                 (A) (A) (A) (A) (A) (A) (A) (A) (A) (A) (A) (A)
                 (A) (A) (A) (A) (A) (A) (A) (A) (A) (A) (A) (A)
                 (A) (A) (A) (A) (A) (A) (A) (A) (A) (A) (A) (A)
                 (A) (A) (A) (A) (A) (A) (A) (A) (A) (A) (A) (A)
                 (A) (A) (A) (A) (A) (A) (A) (A) (A) (A) (A) (A)
                 (A) (A) (A) (A) (A) (A) (A) (A) (A) (A) (A) (A)
                 (A) (A) (A) (A) (A) (A) (A) (A) (A) (A) (A) (A)
                 (A) (A) (A) (A) (A) (A) (A) (A) (A) (A) (A) (A)
                 (A) (A) (A) (A) (A) (A) (A) (A) (A) (A) (A) (A)
                 (A) (A) (A) (A) (A) (A) (A) (A) (A) (A) (A) (A)
                 (A) (A) (A) (A) (A) (A) (A) (A) (A) (A) (A) (A)
                 (A) (A) (A) (A) (A) (A) (A) (A) (A) (A) (A) (A)
                 (A) (A) (A) (A) (A) (A) (A) (A) (A) (A) (A) (A)
                 (A) (A) (A) (A) (A) (A) (A) (A) (A) (A) (A) (A)
                 (A) (A) (A) (A) (A) (A) (A) (A) (A) (A) (A) (A)
                 (A) (A) (A) (A) (A) (A) (A) (A) (A) (A) (A) (A)
                 (A) (A) (A) (A) (A) (A) (A) (A) (A) (A) (A) (A)
                 (A)
 The electronic state is 1-A.
 Alpha  occ. eigenvalues --  -19.15178 -19.14298 -10.24392 -10.24097 -10.23193
 Alpha  occ. eigenvalues --  -10.18418 -10.18387 -10.17613 -10.16977  -1.07090
 Alpha  occ. eigenvalues --   -1.01069  -0.84549  -0.79648  -0.72162  -0.63454
 Alpha  occ. eigenvalues --   -0.62205  -0.58010  -0.56570  -0.51548  -0.49771
 Alpha  occ. eigenvalues --   -0.47508  -0.45536  -0.42805  -0.42195  -0.39527
 Alpha  occ. eigenvalues --   -0.38843  -0.38045  -0.35901  -0.35006  -0.33883
 Alpha  occ. eigenvalues --   -0.33286  -0.31247  -0.30143  -0.25473  -0.23806
 Alpha virt. eigenvalues --    0.06146   0.06803   0.08904   0.10739   0.10893
 Alpha virt. eigenvalues --    0.12462   0.13396   0.14990   0.16082   0.17522
 Alpha virt. eigenvalues --    0.17883   0.18800   0.19460   0.20184   0.21668
 Alpha virt. eigenvalues --    0.23380   0.25157   0.26098   0.26765   0.28019
 Alpha virt. eigenvalues --    0.31007   0.36279   0.40374   0.42143   0.44991
 Alpha virt. eigenvalues --    0.47136   0.47942   0.49359   0.50270   0.51339
 Alpha virt. eigenvalues --    0.52846   0.54104   0.54972   0.56909   0.57810
 Alpha virt. eigenvalues --    0.59471   0.60832   0.62326   0.62872   0.65181
 Alpha virt. eigenvalues --    0.67513   0.70025   0.70818   0.72007   0.72688
 Alpha virt. eigenvalues --    0.74259   0.75126   0.75334   0.75383   0.77405
 Alpha virt. eigenvalues --    0.78845   0.79736   0.80924   0.81821   0.83439
 Alpha virt. eigenvalues --    0.86155   0.86988   0.88792   0.89525   0.91134
 Alpha virt. eigenvalues --    0.94623   0.95418   0.97370   0.98723   1.01897
 Alpha virt. eigenvalues --    1.04217   1.06903   1.09421   1.13290   1.14641
 Alpha virt. eigenvalues --    1.15020   1.19223   1.21256   1.21808   1.22872
 Alpha virt. eigenvalues --    1.24344   1.26839   1.29417   1.31895   1.34828
 Alpha virt. eigenvalues --    1.36975   1.39795   1.40998   1.41656   1.44164
 Alpha virt. eigenvalues --    1.46487   1.47514   1.48862   1.50626   1.52873
 Alpha virt. eigenvalues --    1.53558   1.54876   1.56645   1.59160   1.61077
 Alpha virt. eigenvalues --    1.61920   1.65004   1.65487   1.66867   1.69977
 Alpha virt. eigenvalues --    1.71819   1.76543   1.82454   1.84419   1.85628
 Alpha virt. eigenvalues --    1.90016   1.92225   1.93684   1.95005   1.96661
 Alpha virt. eigenvalues --    1.97712   2.03501   2.08884   2.10325   2.14560
 Alpha virt. eigenvalues --    2.15279   2.17306   2.19689   2.24093   2.25576
 Alpha virt. eigenvalues --    2.30978   2.34270   2.35396   2.38731   2.43787
 Alpha virt. eigenvalues --    2.46435   2.48303   2.53180   2.55058   2.57989
 Alpha virt. eigenvalues --    2.63344   2.64145   2.67145   2.68377   2.70976
 Alpha virt. eigenvalues --    2.73953   2.75285   2.76125   2.79128   2.82337
 Alpha virt. eigenvalues --    2.84287   2.86211   2.86447   2.87017   2.89361
 Alpha virt. eigenvalues --    2.91044   2.91953   2.93398   2.97301   2.98209
 Alpha virt. eigenvalues --    2.99928   3.02623   3.03757   3.05025   3.05895
 Alpha virt. eigenvalues --    3.11625   3.12747   3.14714   3.17532   3.19724
 Alpha virt. eigenvalues --    3.21565   3.24090   3.27107   3.31857   3.32869
 Alpha virt. eigenvalues --    3.33417   3.35171   3.36860   3.41574   3.44156
 Alpha virt. eigenvalues --    3.44284   3.45722   3.49014   3.53892   3.54630
 Alpha virt. eigenvalues --    3.56620   3.58571   3.62092   3.65107   3.68179
 Alpha virt. eigenvalues --    3.69771   3.73253   3.74228   3.77062   3.80911
 Alpha virt. eigenvalues --    3.83565   3.87477   3.87785   3.95033   3.97898
 Alpha virt. eigenvalues --    3.99560   4.02019   4.05112   4.11125   4.13818
 Alpha virt. eigenvalues --    4.18216   4.23146   4.25149   4.29256   4.30131
 Alpha virt. eigenvalues --    4.33726   4.38910   4.39459   4.40502   4.43451
 Alpha virt. eigenvalues --    4.44655   4.45193   4.49186   4.50033   4.51920
 Alpha virt. eigenvalues --    4.53376   4.54812   4.56631   4.59867   4.60425
 Alpha virt. eigenvalues --    4.61570   4.62954   4.64143   4.66248   4.66609
 Alpha virt. eigenvalues --    4.69619   4.71372   4.72622   4.74684   4.75037
 Alpha virt. eigenvalues --    4.76349   4.77401   4.77664   4.79997   4.82377
 Alpha virt. eigenvalues --    4.85922   4.87878   4.89601   4.91328   4.93624
 Alpha virt. eigenvalues --    4.94698   4.97610   5.00844   5.04973   5.09505
 Alpha virt. eigenvalues --    5.15439   5.21158   5.27390   5.29372   5.31635
 Alpha virt. eigenvalues --    5.33333   5.36885   5.41788   5.45819   5.47678
 Alpha virt. eigenvalues --    5.50593   5.52903   5.56708   5.64458   5.68097
 Alpha virt. eigenvalues --    5.74881   5.81372   5.88609   5.95445   5.96153
 Alpha virt. eigenvalues --    6.06545   6.07482   6.13741   6.19159   6.27347
 Alpha virt. eigenvalues --    6.35023   7.02417   7.15835  10.69674  11.09460
 Alpha virt. eigenvalues --   11.50059  11.91348  12.04401  12.24853  12.43562
 Alpha virt. eigenvalues --   13.30171  13.37947
          Condensed to atoms (all electrons):
               1          2          3          4          5          6
     1  C    4.977648   0.387166  -0.036290   0.002210   0.000738   0.000050
     2  C    0.387166   4.752742   0.414875  -0.023046   0.004630  -0.002148
     3  C   -0.036290   0.414875   4.956077   0.360274  -0.040325   0.011018
     4  C    0.002210  -0.023046   0.360274   4.931196   0.245729   0.299331
     5  O    0.000738   0.004630  -0.040325   0.245729   7.818691   0.313041
     6  C    0.000050  -0.002148   0.011018   0.299331   0.313041   4.380485
     7  C    0.000006   0.000340  -0.000220  -0.034996  -0.017565   0.308115
     8  C   -0.000120   0.000127  -0.002462  -0.025225  -0.029338   0.383311
     9  O    0.000003  -0.000481  -0.000092   0.002773  -0.002342  -0.020880
    10  H    0.375842  -0.023367   0.003387  -0.000141   0.000002  -0.000001
    11  H    0.376103  -0.027176  -0.004576   0.000128  -0.000004  -0.000001
    12  H    0.376582  -0.027625  -0.005286   0.000258  -0.000002  -0.000015
    13  H   -0.037943   0.378150  -0.036053   0.000320   0.001590  -0.000828
    14  H   -0.035075   0.375830  -0.035695  -0.001624   0.003470  -0.000365
    15  H   -0.004286  -0.029540   0.357533  -0.024210   0.001995  -0.014960
    16  H   -0.002977  -0.031123   0.352400  -0.019270   0.000800   0.002168
    17  H   -0.000124   0.004425  -0.074022   0.365616  -0.020045  -0.015871
    18  H   -0.000000  -0.000010   0.000368  -0.006727   0.002207  -0.010568
    19  H   -0.000000   0.000001  -0.000008   0.003337  -0.002854  -0.005840
    20  H    0.000019   0.000030  -0.000009  -0.003666   0.001738  -0.047740
    21  H    0.000001   0.000032  -0.000001  -0.000058   0.003611  -0.002464
               7          8          9         10         11         12
     1  C    0.000006  -0.000120   0.000003   0.375842   0.376103   0.376582
     2  C    0.000340   0.000127  -0.000481  -0.023367  -0.027176  -0.027625
     3  C   -0.000220  -0.002462  -0.000092   0.003387  -0.004576  -0.005286
     4  C   -0.034996  -0.025225   0.002773  -0.000141   0.000128   0.000258
     5  O   -0.017565  -0.029338  -0.002342   0.000002  -0.000004  -0.000002
     6  C    0.308115   0.383311  -0.020880  -0.000001  -0.000001  -0.000015
     7  C    5.277374   0.224110  -0.021158  -0.000000   0.000000  -0.000000
     8  C    0.224110   4.749690   0.357150   0.000001   0.000001   0.000006
     9  O   -0.021158   0.357150   7.853654  -0.000000  -0.000000  -0.000000
    10  H   -0.000000   0.000001  -0.000000   0.600616  -0.031964  -0.031530
    11  H    0.000000   0.000001  -0.000000  -0.031964   0.606097  -0.034021
    12  H   -0.000000   0.000006  -0.000000  -0.031530  -0.034021   0.603991
    13  H   -0.000003   0.000076  -0.000002  -0.001988  -0.004556   0.005582
    14  H    0.000062   0.001433   0.002177  -0.002327   0.005352  -0.004144
    15  H    0.000092   0.002151  -0.000073  -0.000036  -0.000523   0.005868
    16  H   -0.000188   0.000161  -0.000001  -0.000070   0.005118  -0.000516
    17  H   -0.002054   0.002554  -0.000040   0.000003  -0.000001   0.000004
    18  H    0.344125  -0.008347   0.002053  -0.000000  -0.000000   0.000000
    19  H    0.360820  -0.014107  -0.001969   0.000000   0.000000  -0.000000
    20  H   -0.021537   0.366664  -0.018651  -0.000000  -0.000000   0.000010
    21  H    0.002271  -0.061169   0.310893  -0.000000  -0.000000  -0.000000
              13         14         15         16         17         18
     1  C   -0.037943  -0.035075  -0.004286  -0.002977  -0.000124  -0.000000
     2  C    0.378150   0.375830  -0.029540  -0.031123   0.004425  -0.000010
     3  C   -0.036053  -0.035695   0.357533   0.352400  -0.074022   0.000368
     4  C    0.000320  -0.001624  -0.024210  -0.019270   0.365616  -0.006727
     5  O    0.001590   0.003470   0.001995   0.000800  -0.020045   0.002207
     6  C   -0.000828  -0.000365  -0.014960   0.002168  -0.015871  -0.010568
     7  C   -0.000003   0.000062   0.000092  -0.000188  -0.002054   0.344125
     8  C    0.000076   0.001433   0.002151   0.000161   0.002554  -0.008347
     9  O   -0.000002   0.002177  -0.000073  -0.000001  -0.000040   0.002053
    10  H   -0.001988  -0.002327  -0.000036  -0.000070   0.000003  -0.000000
    11  H   -0.004556   0.005352  -0.000523   0.005118  -0.000001  -0.000000
    12  H    0.005582  -0.004144   0.005868  -0.000516   0.000004   0.000000
    13  H    0.627870  -0.037157   0.006163  -0.006013   0.000310   0.000000
    14  H   -0.037157   0.606555  -0.005306   0.006047   0.000028  -0.000006
    15  H    0.006163  -0.005306   0.638144  -0.044259   0.006065   0.000076
    16  H   -0.006013   0.006047  -0.044259   0.648976  -0.006634  -0.000005
    17  H    0.000310   0.000028   0.006065  -0.006634   0.637588   0.000774
    18  H    0.000000  -0.000006   0.000076  -0.000005   0.000774   0.601654
    19  H    0.000000   0.000004  -0.000009   0.000003  -0.000015  -0.033576
    20  H    0.000007  -0.000049   0.002159  -0.000045   0.000061  -0.004919
    21  H   -0.000002   0.000007  -0.000004  -0.000000   0.000004  -0.000106
              19         20         21
     1  C   -0.000000   0.000019   0.000001
     2  C    0.000001   0.000030   0.000032
     3  C   -0.000008  -0.000009  -0.000001
     4  C    0.003337  -0.003666  -0.000058
     5  O   -0.002854   0.001738   0.003611
     6  C   -0.005840  -0.047740  -0.002464
     7  C    0.360820  -0.021537   0.002271
     8  C   -0.014107   0.366664  -0.061169
     9  O   -0.001969  -0.018651   0.310893
    10  H    0.000000  -0.000000  -0.000000
    11  H    0.000000  -0.000000  -0.000000
    12  H   -0.000000   0.000010  -0.000000
    13  H    0.000000   0.000007  -0.000002
    14  H    0.000004  -0.000049   0.000007
    15  H   -0.000009   0.002159  -0.000004
    16  H    0.000003  -0.000045  -0.000000
    17  H   -0.000015   0.000061   0.000004
    18  H   -0.033576  -0.004919  -0.000106
    19  H    0.566446   0.001396   0.002926
    20  H    0.001396   0.598023   0.004225
    21  H    0.002926   0.004225   0.438670
 Mulliken charges:
               1
     1  C   -0.379552
     2  C   -0.153830
     3  C   -0.220892
     4  C   -0.072209
     5  O   -0.285766
     6  C    0.424163
     7  C   -0.419593
     8  C    0.053336
     9  O   -0.463013
    10  H    0.111573
    11  H    0.110025
    12  H    0.110839
    13  H    0.104477
    14  H    0.120783
    15  H    0.102959
    16  H    0.095427
    17  H    0.101372
    18  H    0.113007
    19  H    0.123445
    20  H    0.122284
    21  H    0.301166
 Sum of Mulliken charges =  -0.00000
 Mulliken charges with hydrogens summed into heavy atoms:
               1
     1  C   -0.047115
     2  C    0.071430
     3  C   -0.022506
     4  C    0.029163
     5  O   -0.285766
     6  C    0.424163
     7  C   -0.183141
     8  C    0.175620
     9  O   -0.161847
 Electronic spatial extent (au):  <R**2>=           1465.7219
 Charge=             -0.0000 electrons
 Dipole moment (field-independent basis, Debye):
    X=             -0.2158    Y=             -1.5342    Z=             -1.0295  Tot=              1.8601
 Quadrupole moment (field-independent basis, Debye-Ang):
   XX=            -52.9317   YY=            -56.6221   ZZ=            -53.6097
   XY=             -1.3251   XZ=              1.3212   YZ=              2.3845
 Traceless Quadrupole moment (field-independent basis, Debye-Ang):
   XX=              1.4561   YY=             -2.2343   ZZ=              0.7781
   XY=             -1.3251   XZ=              1.3212   YZ=              2.3845
 Octapole moment (field-independent basis, Debye-Ang**2):
  XXX=             18.3093  YYY=             -8.6542  ZZZ=              2.9638  XYY=             -4.9755
  XXY=             -5.1097  XXZ=             13.1394  XZZ=              8.8387  YZZ=              7.6887
  YYZ=              2.6742  XYZ=              4.9877
 Hexadecapole moment (field-independent basis, Debye-Ang**3):
 XXXX=          -1362.2084 YYYY=           -389.0622 ZZZZ=           -177.3814 XXXY=             10.1609
 XXXZ=             24.7285 YYYX=              0.1740 YYYZ=              4.0502 ZZZX=              6.1005
 ZZZY=              4.4631 XXYY=           -300.4566 XXZZ=           -243.2559 YYZZ=            -88.5638
 XXYZ=             15.3882 YYXZ=              3.8188 ZZXY=             12.2113
 N-N= 4.669665686046D+02 E-N=-1.923128038726D+03  KE= 4.212898896320D+02
 PrsmSu:  requested number of processors reduced to:  13 ShMem   1 Linda.
 Calling FoFJK, ICntrl=      2127 FMM=F ISym2X=0 I1Cent= 0 IOpClX= 0 NMat=1 NMatS=1 NMatT=0.
 ***** Axes restored to original set *****
 -------------------------------------------------------------------
 Center     Atomic                   Forces (Hartrees/Bohr)
 Number     Number              X              Y              Z
 -------------------------------------------------------------------
      1        6          -0.003250103    0.001454666    0.002815703
      2        6          -0.002479328    0.003459581    0.000439028
      3        6          -0.010379754   -0.006699915    0.005991286
      4        6          -0.001345174    0.014254741   -0.007274032
      5        8          -0.005582375   -0.022058345    0.004355669
      6        6           0.008759425   -0.004127616    0.031544227
      7        6           0.001275972   -0.000176764   -0.027815807
      8        6           0.024639393    0.017897434    0.006977161
      9        8          -0.017613895   -0.009202170   -0.011341853
     10        1          -0.002373387   -0.000352527   -0.000216224
     11        1          -0.001810335   -0.000092688   -0.000156465
     12        1          -0.001521637   -0.000121948    0.000115287
     13        1           0.001831912    0.001254196   -0.000863642
     14        1           0.002616268   -0.001472346    0.000751438
     15        1          -0.000346644    0.000127227    0.000130770
     16        1          -0.001436543    0.000384464    0.000456783
     17        1           0.011827413   -0.002869223    0.005081495
     18        1           0.003735892    0.001209077   -0.004320788
     19        1           0.001300386    0.001606836    0.002710043
     20        1           0.001675460    0.015278482    0.000242524
     21        1          -0.009522947   -0.009753162   -0.009622603
 -------------------------------------------------------------------
 Cartesian Forces:  Max     0.031544227 RMS     0.009040951

 GradGradGradGradGradGradGradGradGradGradGradGradGradGradGradGradGradGrad
 Berny optimization.
 FormGI is forming the generalized inverse of G from B-inverse, IUseBI=4.
 Internal  Forces:  Max     0.032095760 RMS     0.006997242
 Search for a local minimum.
 Step number   1 out of a maximum of  116
 All quantities printed in internal units (Hartrees-Bohrs-Radians)
 Mixed Optimization -- RFO/linear search
 Second derivative matrix not updated -- first step.
 ITU=  0
     Eigenvalues ---    0.00455   0.00502   0.00831   0.01184   0.02117
     Eigenvalues ---    0.02635   0.02657   0.03026   0.03054   0.03361
     Eigenvalues ---    0.03545   0.03811   0.04968   0.04971   0.05636
     Eigenvalues ---    0.05700   0.06949   0.08075   0.08095   0.08839
     Eigenvalues ---    0.11064   0.11712   0.11882   0.11993   0.12533
     Eigenvalues ---    0.13907   0.16000   0.16000   0.16000   0.16000
     Eigenvalues ---    0.16748   0.18078   0.21550   0.21888   0.21927
     Eigenvalues ---    0.23707   0.28033   0.30028   0.30369   0.32840
     Eigenvalues ---    0.32898   0.33874   0.33953   0.34123   0.34152
     Eigenvalues ---    0.34231   0.34269   0.34386   0.34853   0.35514
     Eigenvalues ---    0.35630   0.35883   0.35910   0.37160   0.39806
     Eigenvalues ---    0.40554   0.52747
 RFO step:  Lambda=-2.35402305D-02 EMin= 4.54573108D-03
 Linear search not attempted -- first point.
 Iteration  1 RMS(Cart)=  0.09049882 RMS(Int)=  0.00483029
 Iteration  2 RMS(Cart)=  0.00676565 RMS(Int)=  0.00083231
 Iteration  3 RMS(Cart)=  0.00002851 RMS(Int)=  0.00083188
 Iteration  4 RMS(Cart)=  0.00000002 RMS(Int)=  0.00083188
 Variable       Old X    -DE/DX   Delta X   Delta X   Delta X     New X
                                 (Linear)    (Quad)   (Total)
    R1        2.87234   0.00894   0.00000   0.02732   0.02732   2.89966
    R2        2.06683   0.00048   0.00000   0.00132   0.00132   2.06815
    R3        2.06879   0.00069   0.00000   0.00190   0.00190   2.07069
    R4        2.06942   0.00040   0.00000   0.00110   0.00110   2.07052
    R5        2.87907   0.00698   0.00000   0.02157   0.02157   2.90064
    R6        2.07124  -0.00057   0.00000  -0.00158  -0.00158   2.06966
    R7        2.07074  -0.00063   0.00000  -0.00172  -0.00172   2.06902
    R8        2.82531   0.01976   0.00000   0.05605   0.05605   2.88136
    R9        2.07543   0.00006   0.00000   0.00016   0.00016   2.07560
   R10        2.07409   0.00014   0.00000   0.00039   0.00039   2.07448
   R11        2.78832  -0.01400   0.00000  -0.04036  -0.04022   2.74811
   R12        2.72104   0.01249   0.00000   0.02519   0.02452   2.74557
   R13        2.04222   0.00602   0.00000   0.01572   0.01572   2.05794
   R14        2.65356   0.00871   0.00000   0.02505   0.02559   2.67914
   R15        2.72654   0.01977   0.00000   0.06214   0.06361   2.79016
   R16        2.73817   0.01778   0.00000   0.04182   0.04187   2.78004
   R17        2.93180   0.00377   0.00000  -0.00390  -0.00536   2.92645
   R18        2.04664   0.00352   0.00000   0.00927   0.00927   2.05591
   R19        2.04265   0.00262   0.00000   0.00685   0.00685   2.04950
   R20        2.71817  -0.03210   0.00000  -0.07613  -0.07613   2.64205
   R21        2.04848  -0.00004   0.00000  -0.00011  -0.00011   2.04837
   R22        1.83890  -0.01195   0.00000  -0.02170  -0.02170   1.81721
    A1        1.92559   0.00277   0.00000   0.01583   0.01576   1.94135
    A2        1.93657   0.00150   0.00000   0.00784   0.00780   1.94437
    A3        1.93429   0.00118   0.00000   0.00601   0.00597   1.94026
    A4        1.88982  -0.00209   0.00000  -0.01060  -0.01068   1.87914
    A5        1.88796  -0.00193   0.00000  -0.00987  -0.00993   1.87804
    A6        1.88811  -0.00167   0.00000  -0.01051  -0.01051   1.87760
    A7        1.93369   0.00523   0.00000   0.02596   0.02591   1.95959
    A8        1.91287  -0.00068   0.00000   0.00332   0.00343   1.91631
    A9        1.90281   0.00021   0.00000   0.01170   0.01177   1.91459
   A10        1.91592  -0.00216   0.00000  -0.01311  -0.01332   1.90259
   A11        1.92641  -0.00261   0.00000  -0.01427  -0.01462   1.91179
   A12        1.87103  -0.00017   0.00000  -0.01474  -0.01497   1.85606
   A13        2.00241   0.00118   0.00000   0.00544   0.00541   2.00783
   A14        1.91586  -0.00114   0.00000  -0.01135  -0.01136   1.90450
   A15        1.90087  -0.00069   0.00000  -0.00126  -0.00134   1.89953
   A16        1.89866  -0.00025   0.00000  -0.00279  -0.00278   1.89588
   A17        1.89286   0.00075   0.00000   0.01134   0.01131   1.90417
   A18        1.84670   0.00009   0.00000  -0.00165  -0.00167   1.84503
   A19        2.07526  -0.00199   0.00000  -0.01845  -0.01873   2.05653
   A20        2.06537   0.00574   0.00000   0.04751   0.04644   2.11181
   A21        1.98601   0.00483   0.00000   0.02763   0.02541   2.01142
   A22        2.06795  -0.00638   0.00000  -0.06353  -0.06469   2.00325
   A23        2.07121  -0.00788   0.00000  -0.01913  -0.02137   2.04984
   A24        2.50304   0.00478   0.00000   0.02255   0.02200   2.52504
   A25        2.54509  -0.00017   0.00000  -0.01756  -0.01719   2.52791
   A26        2.19144   0.01157   0.00000   0.03572   0.03460   2.22604
   A27        2.16347   0.01152   0.00000   0.05471   0.05460   2.21807
   A28        2.02611   0.00995   0.00000   0.05837   0.05801   2.08413
   A29        2.10763  -0.01001   0.00000  -0.04179  -0.04081   2.06681
   A30        2.05421  -0.00235   0.00000  -0.01382  -0.01455   2.03966
   A31        2.05743   0.00086   0.00000   0.00216   0.00286   2.06029
   A32        2.00541  -0.00025   0.00000  -0.00644  -0.00665   1.99876
   A33        2.10769  -0.00573   0.00000  -0.03561  -0.03668   2.07101
   A34        2.02268   0.01288   0.00000   0.08754   0.08762   2.11029
   A35        2.00362   0.01030   0.00000   0.09383   0.09619   2.09982
   A36        2.05931  -0.00040   0.00000  -0.01036  -0.01094   2.04837
   A37        2.03757  -0.01161   0.00000  -0.08696  -0.08730   1.95027
   A38        1.97023  -0.02072   0.00000  -0.11290  -0.11290   1.85733
    D1       -3.12877  -0.00004   0.00000  -0.00300  -0.00305  -3.13182
    D2        1.03755  -0.00028   0.00000  -0.00562  -0.00567   1.03187
    D3       -1.00543   0.00019   0.00000   0.00351   0.00362  -1.00181
    D4        1.05996  -0.00021   0.00000  -0.00520  -0.00527   1.05469
    D5       -1.05691  -0.00045   0.00000  -0.00781  -0.00789  -1.06481
    D6       -3.09989   0.00001   0.00000   0.00131   0.00140  -3.09849
    D7       -1.03811   0.00011   0.00000  -0.00116  -0.00119  -1.03930
    D8        3.12821  -0.00013   0.00000  -0.00377  -0.00382   3.12439
    D9        1.08523   0.00034   0.00000   0.00535   0.00547   1.09070
   D10        3.11011  -0.00021   0.00000  -0.00366  -0.00367   3.10644
   D11        0.96615   0.00015   0.00000   0.00493   0.00492   0.97108
   D12       -1.04819   0.00106   0.00000   0.01386   0.01382  -1.03436
   D13       -1.05800   0.00091   0.00000   0.00870   0.00858  -1.04942
   D14        3.08123   0.00127   0.00000   0.01729   0.01717   3.09840
   D15        1.06689   0.00218   0.00000   0.02622   0.02608   1.09296
   D16        1.00069  -0.00219   0.00000  -0.02600  -0.02585   0.97484
   D17       -1.14326  -0.00183   0.00000  -0.01741  -0.01726  -1.16052
   D18        3.12558  -0.00092   0.00000  -0.00848  -0.00835   3.11723
   D19       -0.13819   0.00575   0.00000   0.07131   0.07059  -0.06760
   D20       -1.29940  -0.00059   0.00000   0.04362   0.04489  -1.25451
   D21        2.42763  -0.00223   0.00000  -0.04055  -0.04103   2.38660
   D22        2.01500   0.00491   0.00000   0.05814   0.05739   2.07239
   D23        0.85378  -0.00143   0.00000   0.03045   0.03170   0.88548
   D24       -1.70237  -0.00308   0.00000  -0.05373  -0.05422  -1.75659
   D25       -2.26743   0.00528   0.00000   0.06071   0.05993  -2.20750
   D26        2.85454  -0.00106   0.00000   0.03302   0.03424   2.88878
   D27        0.29839  -0.00271   0.00000  -0.05116  -0.05168   0.24671
   D28       -2.41866   0.00212   0.00000  -0.01685  -0.01658  -2.43524
   D29       -0.04889  -0.00930   0.00000  -0.09879  -0.09767  -0.14656
   D30        0.10876   0.00841   0.00000   0.08864   0.08756   0.19632
   D31        2.47854  -0.00301   0.00000   0.00670   0.00646   2.48500
   D32        0.81551  -0.00037   0.00000  -0.01438  -0.01468   0.80083
   D33       -1.74699  -0.00005   0.00000  -0.03230  -0.03286  -1.77986
   D34        2.39671  -0.00117   0.00000  -0.00246  -0.00283   2.39388
   D35       -0.16580  -0.00085   0.00000  -0.02038  -0.02101  -0.18681
   D36        1.84799  -0.01375   0.00000  -0.11396  -0.11474   1.73325
   D37       -0.78008  -0.00143   0.00000  -0.01811  -0.01765  -0.79774
   D38        0.27679  -0.00985   0.00000  -0.12766  -0.12746   0.14933
   D39       -2.35128   0.00248   0.00000  -0.03181  -0.03037  -2.38166
   D40       -2.50029   0.00353   0.00000  -0.00376  -0.00395  -2.50424
   D41        0.00947  -0.00321   0.00000  -0.03975  -0.03911  -0.02964
   D42        0.02454   0.00056   0.00000  -0.03598  -0.03571  -0.01117
   D43        2.53430  -0.00617   0.00000  -0.07197  -0.07087   2.46343
   D44        0.53108   0.00291   0.00000  -0.01219  -0.01651   0.51457
   D45       -0.61028  -0.00520   0.00000  -0.06763  -0.06619  -0.67646
   D46       -3.12820  -0.00264   0.00000  -0.05982  -0.05695   3.09803
         Item               Value     Threshold  Converged?
 Maximum Force            0.032096     0.000450     NO 
 RMS     Force            0.006997     0.000300     NO 
 Maximum Displacement     0.453002     0.001800     NO 
 RMS     Displacement     0.090108     0.001200     NO 
 Predicted change in Energy=-1.367919D-02
 GradGradGradGradGradGradGradGradGradGradGradGradGradGradGradGradGradGrad

                          Input orientation:                          
 ---------------------------------------------------------------------
 Center     Atomic      Atomic             Coordinates (Angstroms)
 Number     Number       Type             X           Y           Z
 ---------------------------------------------------------------------
      1          6           0        0.878159   -0.024401    0.049055
      2          6           0        2.411513   -0.018175   -0.008175
      3          6           0        2.954261   -0.874926   -1.160340
      4          6           0        4.472112   -0.874744   -1.305225
      5          8           0        5.238804   -0.015703   -0.416951
      6          6           0        5.176526    0.296298   -1.798531
      7          6           0        6.276153    0.764106   -2.665705
      8          6           0        5.019394    1.629293   -2.400755
      9          8           0        5.098040    2.752842   -1.572405
     10          1           0        0.509657    0.598923    0.869680
     11          1           0        0.487716   -1.037129    0.199479
     12          1           0        0.445949    0.362186   -0.880591
     13          1           0        2.819497   -0.391734    0.937079
     14          1           0        2.772657    1.009918   -0.114742
     15          1           0        2.511695   -0.530027   -2.104570
     16          1           0        2.606099   -1.907646   -1.028565
     17          1           0        4.920427   -1.848331   -1.497842
     18          1           0        6.383705    0.346230   -3.664420
     19          1           0        7.208833    1.063643   -2.200271
     20          1           0        4.340451    1.788922   -3.230519
     21          1           0        5.683702    2.515624   -0.847526
 ---------------------------------------------------------------------
                    Distance matrix (angstroms):
                    1          2          3          4          5
     1  C    0.000000
     2  C    1.534434   0.000000
     3  C    2.548769   1.534953   0.000000
     4  C    3.933657   2.581108   1.524750   0.000000
     5  O    4.385483   2.856690   2.551476   1.454235   0.000000
     6  C    4.689604   3.309013   2.591817   1.452891   1.417740
     7  C    6.093440   4.754984   3.998439   2.791290   2.596361
     8  C    5.087839   3.903797   3.474840   2.787455   2.586433
     9  O    5.305621   4.164467   4.233945   3.690875   3.003287
    10  H    1.094419   2.183689   3.502756   4.754257   4.939435
    11  H    1.095761   2.186866   2.821216   4.262149   4.898585
    12  H    1.095672   2.183856   2.810753   4.233237   4.830033
    13  H    2.166174   1.095218   2.156572   2.827077   2.797829
    14  H    2.164664   1.094878   2.163074   2.803096   2.687956
    15  H    2.749945   2.160301   1.098358   2.144998   3.248032
    16  H    2.773744   2.156191   1.097767   2.150681   3.299190
    17  H    4.696759   3.444304   2.219738   1.089017   2.151328
    18  H    6.651188   5.411029   4.418453   3.272731   3.462348
    19  H    6.805934   5.384227   4.789665   3.471037   2.868141
    20  H    5.102080   4.167722   3.647363   3.289257   3.461196
    21  H    5.508977   4.222780   4.363889   3.629330   2.605944
                    6          7          8          9         10
     6  C    0.000000
     7  C    1.476487   0.000000
     8  C    1.471135   1.548609   0.000000
     9  O    2.468178   2.557015   1.398111   0.000000
    10  H    5.384293   6.765997   5.665257   5.626403   0.000000
    11  H    5.268303   6.705202   5.865759   6.225637   1.768140
    12  H    4.819265   6.110602   4.983258   5.275964   1.767357
    13  H    3.675941   5.124890   4.479424   4.623595   2.514221
    14  H    3.020428   4.340774   3.264553   3.251149   2.501835
    15  H    2.806742   4.020050   3.322490   4.213029   3.758836
    16  H    3.472364   4.825741   4.496313   5.312785   3.779060
    17  H    2.180696   3.166500   3.594289   4.605204   5.572173
    18  H    2.222907   1.087943   2.259302   3.438204   7.424713
    19  H    2.209182   1.084548   2.270198   2.775438   7.383734
    20  H    2.231040   2.261903   1.083952   2.062141   5.736090
    21  H    2.467194   2.593181   1.907723   0.961624   5.778692
                   11         12         13         14         15
    11  H    0.000000
    12  H    1.768157   0.000000
    13  H    2.529386   3.083188   0.000000
    14  H    3.083845   2.533703   1.753040   0.000000
    15  H    3.108421   2.561538   3.060310   2.529614   0.000000
    16  H    2.598738   3.136923   2.491442   3.061861   1.750581
    17  H    4.815379   5.028751   3.530499   3.833467   2.812123
    18  H    7.183738   6.557966   5.867024   5.106894   4.265375
    19  H    7.439453   6.926052   5.588145   4.902241   4.961054
    20  H    5.881754   4.767063   4.943424   3.573918   3.160639
    21  H    6.380952   5.663254   4.454348   3.358318   4.573596
                   16         17         18         19         20
    16  H    0.000000
    17  H    2.362171   0.000000
    18  H    5.128157   3.413405   0.000000
    19  H    5.602376   3.769589   1.827362   0.000000
    20  H    4.639095   4.070399   2.538606   3.132899   0.000000
    21  H    5.391635   4.477678   3.623695   2.502836   2.830384
                   21
    21  H    0.000000
 Stoichiometry    C7H12O2
 Framework group  C1[X(C7H12O2)]
 Deg. of freedom    57
 Full point group                 C1      NOp   1
 Largest Abelian subgroup         C1      NOp   1
 Largest concise Abelian subgroup C1      NOp   1
                         Standard orientation:                         
 ---------------------------------------------------------------------
 Center     Atomic      Atomic             Coordinates (Angstroms)
 Number     Number       Type             X           Y           Z
 ---------------------------------------------------------------------
      1          6           0       -3.388599    0.778078   -0.216791
      2          6           0       -2.067002    0.265062    0.370308
      3          6           0       -1.428055   -0.825692   -0.500373
      4          6           0       -0.085625   -1.347211    0.000391
      5          8           0        0.491314   -0.717089    1.177203
      6          6           0        1.112849   -0.530172   -0.083251
      7          6           0        2.558404   -0.539225   -0.383756
      8          6           0        1.683286    0.717352   -0.614784
      9          8           0        1.793778    1.820503    0.237016
     10          1           0       -3.823933    1.561202    0.411662
     11          1           0       -4.126733   -0.027070   -0.303898
     12          1           0       -3.239840    1.200242   -1.216864
     13          1           0       -2.238191   -0.135341    1.375233
     14          1           0       -1.366390    1.098448    0.485920
     15          1           0       -1.296317   -0.440489   -1.520497
     16          1           0       -2.129631   -1.665458   -0.587989
     17          1           0        0.039430   -2.428021   -0.046206
     18          1           0        2.916601   -1.058588   -1.270084
     19          1           0        3.257958   -0.528113    0.444945
     20          1           0        1.504866    1.018475   -1.640670
     21          1           0        1.909903    1.468259    1.124237
 ---------------------------------------------------------------------
 Rotational constants (GHZ):           2.8409768           0.9648632           0.8314786
 Standard basis: 6-31G(2df,p) (6D, 7F)
 There are   339 symmetry adapted cartesian basis functions of A   symmetry.
 There are   312 symmetry adapted basis functions of A   symmetry.
   312 basis functions,   480 primitive gaussians,   339 cartesian basis functions
    35 alpha electrons       35 beta electrons
       nuclear repulsion energy       464.1709900025 Hartrees.
 NAtoms=   21 NActive=   21 NUniq=   21 SFac= 1.00D+00 NAtFMM=   60 NAOKFM=F Big=F
 Integral buffers will be    131072 words long.
 Raffenetti 2 integral format.
 Two-electron integral symmetry is turned on.
 One-electron integrals computed using PRISM.
 PrsmSu:  requested number of processors reduced to:  13 ShMem   1 Linda.
 NBasis=   312 RedAO= T EigKep=  5.56D-04  NBF=   312
 NBsUse=   312 1.00D-06 EigRej= -1.00D+00 NBFU=   312
 Initial guess from the checkpoint file:  "CCCC1OC12CC2O.chk"
 B after Tr=     0.000000   -0.000000    0.000000
         Rot=    0.999848   -0.011263    0.006566   -0.011560 Ang=  -2.00 deg.
 ExpMin= 1.61D-01 ExpMax= 5.48D+03 ExpMxC= 8.25D+02 IAcc=2 IRadAn=         4 AccDes= 0.00D+00
 Harris functional with IExCor=  402 and IRadAn=       4 diagonalized for initial guess.
 HarFok:  IExCor=  402 AccDes= 0.00D+00 IRadAn=         4 IDoV= 1 UseB2=F ITyADJ=14
 ICtDFT=  3500011 ScaDFX=  1.000000  1.000000  1.000000  1.000000
 FoFCou: FMM=F IPFlag=           0 FMFlag=      100000 FMFlg1=           0
         NFxFlg=           0 DoJE=T BraDBF=F KetDBF=T FulRan=T
         wScrn=  0.000000 ICntrl=       500 IOpCl=  0 I1Cent=   200000004 NGrid=           0
         NMat0=    1 NMatS0=      1 NMatT0=    0 NMatD0=    1 NMtDS0=    0 NMtDT0=    0
 Petite list used in FoFCou.
 Requested convergence on RMS density matrix=1.00D-08 within 128 cycles.
 Requested convergence on MAX density matrix=1.00D-06.
 Requested convergence on             energy=1.00D-06.
 No special actions if energy rises.
 Integral accuracy reduced to 1.0D-05 until final iterations.
 Initial convergence to 1.0D-05 achieved.  Increase integral accuracy.
 SCF Done:  E(RB3LYP) =  -424.351928511     A.U. after   12 cycles
            NFock= 12  Conv=0.39D-08     -V/T= 2.0076
 PrsmSu:  requested number of processors reduced to:  13 ShMem   1 Linda.
 Calling FoFJK, ICntrl=      2127 FMM=F ISym2X=0 I1Cent= 0 IOpClX= 0 NMat=1 NMatS=1 NMatT=0.
 ***** Axes restored to original set *****
 -------------------------------------------------------------------
 Center     Atomic                   Forces (Hartrees/Bohr)
 Number     Number              X              Y              Z
 -------------------------------------------------------------------
      1        6           0.001864636   -0.000253496   -0.000351141
      2        6          -0.001114330    0.001289263   -0.000321860
      3        6          -0.002843032   -0.002259938    0.000989330
      4        6          -0.005954327    0.005193442   -0.004738435
      5        8           0.000782324   -0.002053775   -0.002236422
      6        6          -0.000913886   -0.007389385    0.005358548
      7        6          -0.001696719    0.001515229   -0.008925252
      8        6           0.006005586    0.000341966    0.005517250
      9        8          -0.001044223    0.000740379   -0.005630230
     10        1           0.000348927   -0.000093224    0.000024442
     11        1          -0.000088642   -0.000128296   -0.000128952
     12        1          -0.000177141   -0.000016431   -0.000106572
     13        1           0.000453531    0.000629537    0.000277331
     14        1           0.000647263   -0.000076478    0.000229197
     15        1           0.000442051   -0.000253298   -0.000302573
     16        1           0.001044712    0.000225133    0.000128218
     17        1           0.003241030    0.000004695    0.002694560
     18        1           0.000997985   -0.000739155    0.001268474
     19        1           0.000706062    0.001004667    0.001426193
     20        1          -0.001483171    0.001213980    0.000608976
     21        1          -0.001218634    0.001105186    0.004218915
 -------------------------------------------------------------------
 Cartesian Forces:  Max     0.008925252 RMS     0.002631885

 GradGradGradGradGradGradGradGradGradGradGradGradGradGradGradGradGradGrad
 Berny optimization.
 Using GEDIIS/GDIIS optimizer.
 FormGI is forming the generalized inverse of G from B-inverse, IUseBI=4.
 Internal  Forces:  Max     0.005127045 RMS     0.001245254
 Search for a local minimum.
 Step number   2 out of a maximum of  116
 All quantities printed in internal units (Hartrees-Bohrs-Radians)
 Mixed Optimization -- RFO/linear search
 Update second derivatives using D2CorX and points    1    2
 DE= -1.26D-02 DEPred=-1.37D-02 R= 9.24D-01
 TightC=F SS=  1.41D+00  RLast= 4.13D-01 DXNew= 5.0454D-01 1.2385D+00
 Trust test= 9.24D-01 RLast= 4.13D-01 DXMaxT set to 5.05D-01
 ITU=  1  0
 Use linear search instead of GDIIS.
     Eigenvalues ---    0.00455   0.00502   0.00829   0.01175   0.02211
     Eigenvalues ---    0.02589   0.02696   0.03096   0.03201   0.03369
     Eigenvalues ---    0.03518   0.03645   0.04921   0.04971   0.05553
     Eigenvalues ---    0.05579   0.06621   0.08340   0.08468   0.08913
     Eigenvalues ---    0.10801   0.11041   0.11106   0.12194   0.12573
     Eigenvalues ---    0.14334   0.15992   0.16000   0.16000   0.16503
     Eigenvalues ---    0.16960   0.18440   0.21310   0.21866   0.22116
     Eigenvalues ---    0.23619   0.28175   0.30040   0.30579   0.32702
     Eigenvalues ---    0.33092   0.33874   0.33956   0.34124   0.34153
     Eigenvalues ---    0.34230   0.34268   0.34387   0.34714   0.35501
     Eigenvalues ---    0.35652   0.35703   0.35912   0.36452   0.39987
     Eigenvalues ---    0.41111   0.53041
 RFO step:  Lambda=-2.19881423D-03 EMin= 4.54569303D-03
 Quartic linear search produced a step of  0.06951.
 Iteration  1 RMS(Cart)=  0.05740511 RMS(Int)=  0.00174524
 Iteration  2 RMS(Cart)=  0.00184137 RMS(Int)=  0.00016924
 Iteration  3 RMS(Cart)=  0.00000355 RMS(Int)=  0.00016922
 Iteration  4 RMS(Cart)=  0.00000000 RMS(Int)=  0.00016922
 Variable       Old X    -DE/DX   Delta X   Delta X   Delta X     New X
                                 (Linear)    (Quad)   (Total)
    R1        2.89966  -0.00197   0.00190  -0.00748  -0.00558   2.89408
    R2        2.06815  -0.00015   0.00009  -0.00050  -0.00040   2.06775
    R3        2.07069   0.00013   0.00013   0.00036   0.00049   2.07118
    R4        2.07052   0.00015   0.00008   0.00045   0.00053   2.07105
    R5        2.90064  -0.00021   0.00150  -0.00124   0.00026   2.90090
    R6        2.06966   0.00019  -0.00011   0.00064   0.00053   2.07019
    R7        2.06902   0.00012  -0.00012   0.00041   0.00029   2.06931
    R8        2.88136  -0.00053   0.00390  -0.00300   0.00090   2.88226
    R9        2.07560   0.00000   0.00001   0.00000   0.00002   2.07561
   R10        2.07448  -0.00053   0.00003  -0.00165  -0.00163   2.07285
   R11        2.74811  -0.00160  -0.00280  -0.00248  -0.00532   2.74278
   R12        2.74557  -0.00099   0.00170  -0.00304  -0.00144   2.74413
   R13        2.05794   0.00085   0.00109   0.00216   0.00325   2.06120
   R14        2.67914  -0.00206   0.00178  -0.00668  -0.00475   2.67439
   R15        2.79016   0.00285   0.00442   0.01130   0.01565   2.80581
   R16        2.78004   0.00236   0.00291   0.00381   0.00681   2.78686
   R17        2.92645  -0.00006  -0.00037  -0.00451  -0.00490   2.92155
   R18        2.05591  -0.00078   0.00064  -0.00253  -0.00188   2.05403
   R19        2.04950   0.00150   0.00048   0.00426   0.00473   2.05423
   R20        2.64205   0.00052  -0.00529   0.00306  -0.00223   2.63982
   R21        2.04837   0.00064  -0.00001   0.00191   0.00191   2.05028
   R22        1.81721   0.00217  -0.00151   0.00481   0.00330   1.82051
    A1        1.94135  -0.00048   0.00110  -0.00378  -0.00269   1.93866
    A2        1.94437   0.00009   0.00054   0.00027   0.00080   1.94517
    A3        1.94026   0.00025   0.00042   0.00173   0.00215   1.94241
    A4        1.87914   0.00017  -0.00074   0.00095   0.00020   1.87934
    A5        1.87804   0.00014  -0.00069   0.00139   0.00070   1.87873
    A6        1.87760  -0.00016  -0.00073  -0.00043  -0.00117   1.87643
    A7        1.95959  -0.00084   0.00180  -0.00370  -0.00190   1.95769
    A8        1.91631   0.00030   0.00024   0.00249   0.00273   1.91904
    A9        1.91459   0.00065   0.00082   0.00467   0.00550   1.92008
   A10        1.90259   0.00040  -0.00093   0.00286   0.00192   1.90451
   A11        1.91179  -0.00000  -0.00102  -0.00109  -0.00213   1.90966
   A12        1.85606  -0.00049  -0.00104  -0.00534  -0.00640   1.84966
   A13        2.00783  -0.00301   0.00038  -0.01657  -0.01622   1.99161
   A14        1.90450   0.00073  -0.00079   0.00134   0.00043   1.90493
   A15        1.89953   0.00183  -0.00009   0.01500   0.01488   1.91441
   A16        1.89588   0.00075  -0.00019  -0.00181  -0.00206   1.89381
   A17        1.90417   0.00021   0.00079  -0.00172  -0.00085   1.90332
   A18        1.84503  -0.00030  -0.00012   0.00551   0.00536   1.85039
   A19        2.05653   0.00006  -0.00130  -0.00352  -0.00501   2.05152
   A20        2.11181   0.00089   0.00323   0.00765   0.01029   2.12209
   A21        2.01142   0.00124   0.00177   0.00916   0.00996   2.02138
   A22        2.00325  -0.00180  -0.00450  -0.03620  -0.04088   1.96238
   A23        2.04984  -0.00126  -0.00149   0.00940   0.00703   2.05687
   A24        2.52504   0.00082   0.00153   0.00985   0.01125   2.53629
   A25        2.52791   0.00054  -0.00119  -0.00212  -0.00329   2.52462
   A26        2.22604   0.00021   0.00240  -0.00017   0.00212   2.22817
   A27        2.21807  -0.00020   0.00380  -0.00461  -0.00080   2.21727
   A28        2.08413  -0.00067   0.00403  -0.00471  -0.00086   2.08327
   A29        2.06681   0.00019  -0.00284  -0.00550  -0.00821   2.05861
   A30        2.03966   0.00099  -0.00101   0.01806   0.01697   2.05663
   A31        2.06029  -0.00097   0.00020  -0.00909  -0.00884   2.05145
   A32        1.99876   0.00013  -0.00046   0.00131   0.00078   1.99954
   A33        2.07101   0.00269  -0.00255   0.01860   0.01566   2.08667
   A34        2.11029  -0.00067   0.00609  -0.00774  -0.00170   2.10860
   A35        2.09982   0.00263   0.00669   0.02438   0.03108   2.13089
   A36        2.04837  -0.00005  -0.00076   0.00033  -0.00042   2.04795
   A37        1.95027  -0.00304  -0.00607  -0.02296  -0.02898   1.92128
   A38        1.85733   0.00513  -0.00785   0.03685   0.02900   1.88633
    D1       -3.13182   0.00002  -0.00021  -0.00482  -0.00503  -3.13685
    D2        1.03187  -0.00013  -0.00039  -0.00771  -0.00811   1.02377
    D3       -1.00181  -0.00009   0.00025  -0.00541  -0.00515  -1.00696
    D4        1.05469   0.00008  -0.00037  -0.00363  -0.00400   1.05069
    D5       -1.06481  -0.00007  -0.00055  -0.00652  -0.00708  -1.07188
    D6       -3.09849  -0.00003   0.00010  -0.00422  -0.00412  -3.10261
    D7       -1.03930   0.00004  -0.00008  -0.00443  -0.00452  -1.04382
    D8        3.12439  -0.00011  -0.00027  -0.00732  -0.00759   3.11680
    D9        1.09070  -0.00007   0.00038  -0.00502  -0.00464   1.08607
   D10        3.10644   0.00006  -0.00026   0.00315   0.00292   3.10936
   D11        0.97108   0.00063   0.00034   0.01619   0.01654   0.98761
   D12       -1.03436  -0.00039   0.00096   0.00082   0.00173  -1.03263
   D13       -1.04942   0.00015   0.00060   0.00584   0.00646  -1.04296
   D14        3.09840   0.00073   0.00119   0.01888   0.02008   3.11848
   D15        1.09296  -0.00029   0.00181   0.00351   0.00528   1.09824
   D16        0.97484  -0.00021  -0.00180   0.00046  -0.00130   0.97355
   D17       -1.16052   0.00037  -0.00120   0.01350   0.01232  -1.14820
   D18        3.11723  -0.00065  -0.00058  -0.00187  -0.00249   3.11474
   D19       -0.06760   0.00130   0.00491   0.07533   0.08006   0.01246
   D20       -1.25451   0.00138   0.00312   0.07638   0.07972  -1.17478
   D21        2.38660  -0.00009  -0.00285   0.01857   0.01565   2.40226
   D22        2.07239   0.00072   0.00399   0.06410   0.06794   2.14033
   D23        0.88548   0.00081   0.00220   0.06515   0.06760   0.95309
   D24       -1.75659  -0.00067  -0.00377   0.00734   0.00353  -1.75306
   D25       -2.20750   0.00088   0.00417   0.06875   0.07272  -2.13477
   D26        2.88878   0.00097   0.00238   0.06979   0.07239   2.96117
   D27        0.24671  -0.00051  -0.00359   0.01198   0.00831   0.25502
   D28       -2.43524  -0.00014  -0.00115  -0.00739  -0.00849  -2.44373
   D29       -0.14656  -0.00011  -0.00679  -0.00206  -0.00877  -0.15533
   D30        0.19632   0.00206   0.00609   0.05156   0.05765   0.25397
   D31        2.48500   0.00209   0.00045   0.05688   0.05737   2.54237
   D32        0.80083  -0.00164  -0.00102  -0.02561  -0.02666   0.77417
   D33       -1.77986  -0.00101  -0.00228  -0.00896  -0.01129  -1.79115
   D34        2.39388  -0.00074  -0.00020  -0.01605  -0.01632   2.37757
   D35       -0.18681  -0.00011  -0.00146   0.00061  -0.00095  -0.18776
   D36        1.73325  -0.00259  -0.00798  -0.03206  -0.04023   1.69302
   D37       -0.79774   0.00026  -0.00123  -0.00260  -0.00375  -0.80149
   D38        0.14933  -0.00267  -0.00886  -0.02576  -0.03474   0.11459
   D39       -2.38166   0.00018  -0.00211   0.00370   0.00174  -2.37991
   D40       -2.50424   0.00130  -0.00027  -0.00031  -0.00048  -2.50472
   D41       -0.02964  -0.00059  -0.00272  -0.00624  -0.00891  -0.03855
   D42       -0.01117   0.00159  -0.00248   0.01619   0.01384   0.00268
   D43        2.46343  -0.00030  -0.00493   0.01026   0.00541   2.46884
   D44        0.51457   0.00003  -0.00115  -0.10168  -0.10300   0.41157
   D45       -0.67646  -0.00290  -0.00460  -0.12382  -0.12859  -0.80505
   D46        3.09803  -0.00201  -0.00396  -0.12514  -0.12876   2.96927
         Item               Value     Threshold  Converged?
 Maximum Force            0.005127     0.000450     NO 
 RMS     Force            0.001245     0.000300     NO 
 Maximum Displacement     0.272656     0.001800     NO 
 RMS     Displacement     0.057512     0.001200     NO 
 Predicted change in Energy=-1.268408D-03
 GradGradGradGradGradGradGradGradGradGradGradGradGradGradGradGradGradGrad

                          Input orientation:                          
 ---------------------------------------------------------------------
 Center     Atomic      Atomic             Coordinates (Angstroms)
 Number     Number       Type             X           Y           Z
 ---------------------------------------------------------------------
      1          6           0        0.908715    0.005009    0.048934
      2          6           0        2.436962    0.008038   -0.050500
      3          6           0        2.946161   -0.906558   -1.173325
      4          6           0        4.462161   -0.902714   -1.340774
      5          8           0        5.235231   -0.071746   -0.436079
      6          6           0        5.172939    0.274682   -1.806835
      7          6           0        6.274852    0.774776   -2.667204
      8          6           0        5.018147    1.626625   -2.375298
      9          8           0        5.054895    2.738030   -1.529815
     10          1           0        0.565247    0.665610    0.850757
     11          1           0        0.522583   -0.999443    0.256881
     12          1           0        0.448500    0.348515   -0.884510
     13          1           0        2.874127   -0.314269    0.900876
     14          1           0        2.799535    1.027502   -0.218816
     15          1           0        2.489634   -0.598607   -2.123671
     16          1           0        2.608295   -1.934667   -0.994319
     17          1           0        4.923966   -1.876470   -1.508836
     18          1           0        6.393174    0.371726   -3.669701
     19          1           0        7.204100    1.068464   -2.185615
     20          1           0        4.336706    1.808162   -3.199812
     21          1           0        5.539418    2.492506   -0.734178
 ---------------------------------------------------------------------
                    Distance matrix (angstroms):
                    1          2          3          4          5
     1  C    0.000000
     2  C    1.531481   0.000000
     3  C    2.544809   1.535091   0.000000
     4  C    3.922017   2.568210   1.525224   0.000000
     5  O    4.354293   2.825835   2.545640   1.451419   0.000000
     6  C    4.658348   3.262113   2.599078   1.452130   1.415226
     7  C    6.063445   4.707910   4.017305   2.803433   2.602946
     8  C    5.039242   3.832365   3.486385   2.788712   2.586921
     9  O    5.210821   4.061379   4.225738   3.693519   3.020533
    10  H    1.094205   2.178987   3.498196   4.737973   4.899837
    11  H    1.096022   2.185029   2.815643   4.252309   4.852821
    12  H    1.095952   2.182997   2.810148   4.228855   4.826023
    13  H    2.165777   1.095497   2.158311   2.809468   2.724166
    14  H    2.166190   1.095032   2.161752   2.783675   2.681076
    15  H    2.753882   2.160747   1.098366   2.143891   3.265555
    16  H    2.781958   2.166622   1.096907   2.149831   3.268470
    17  H    4.699877   3.444314   2.228230   1.090738   2.122433
    18  H    6.636416   5.374244   4.443850   3.282821   3.463208
    19  H    6.764319   5.329992   4.801613   3.481025   2.870087
    20  H    5.055376   4.094830   3.661963   3.289470   3.461159
    21  H    5.314538   4.033017   4.297844   3.613303   2.599381
                    6          7          8          9         10
     6  C    0.000000
     7  C    1.484769   0.000000
     8  C    1.474740   1.546015   0.000000
     9  O    2.481684   2.576104   1.396930   0.000000
    10  H    5.333521   6.707276   5.582052   5.488077   0.000000
    11  H    5.244820   6.692288   5.833926   6.140264   1.768308
    12  H    4.814193   6.107869   4.973699   5.229252   1.767861
    13  H    3.600431   5.047984   4.370035   4.469959   2.508706
    14  H    2.953234   4.258673   3.151444   3.119499   2.503397
    15  H    2.839568   4.063186   3.377625   4.250456   3.761480
    16  H    3.481207   4.856260   4.516335   5.301575   3.786792
    17  H    2.185921   3.193089   3.609889   4.616405   5.570304
    18  H    2.229049   1.086946   2.267366   3.459696   7.381440
    19  H    2.213409   1.087052   2.264049   2.799394   7.311376
    20  H    2.234106   2.260081   1.084961   2.041896   5.651234
    21  H    2.490711   2.688503   1.927368   0.963370   5.530999
                   11         12         13         14         15
    11  H    0.000000
    12  H    1.767838   0.000000
    13  H    2.532579   3.083918   0.000000
    14  H    3.085337   2.536047   1.749178   0.000000
    15  H    3.113998   2.568810   3.062118   2.523636   0.000000
    16  H    2.605828   3.144788   2.507613   3.067967   1.753445
    17  H    4.822769   5.036877   3.528317   3.822357   2.817255
    18  H    7.194581   6.564829   5.808998   5.025226   4.309221
    19  H    7.408421   6.917321   5.494274   4.823917   5.000915
    20  H    5.863353   4.754928   4.843500   3.443640   3.219052
    21  H    6.192297   5.526006   4.201805   3.149412   4.559260
                   16         17         18         19         20
    16  H    0.000000
    17  H    2.372855   0.000000
    18  H    5.177106   3.447071   0.000000
    19  H    5.617776   3.785456   1.829087   0.000000
    20  H    4.675507   4.096436   2.552098   3.130128   0.000000
    21  H    5.315921   4.479601   3.720739   2.627876   2.827400
                   21
    21  H    0.000000
 Stoichiometry    C7H12O2
 Framework group  C1[X(C7H12O2)]
 Deg. of freedom    57
 Full point group                 C1      NOp   1
 Largest Abelian subgroup         C1      NOp   1
 Largest concise Abelian subgroup C1      NOp   1
                         Standard orientation:                         
 ---------------------------------------------------------------------
 Center     Atomic      Atomic             Coordinates (Angstroms)
 Number     Number       Type             X           Y           Z
 ---------------------------------------------------------------------
      1          6           0       -3.353044    0.783984   -0.205126
      2          6           0       -2.016264    0.280583    0.347181
[...]
 767,0.00002025,-0.00001647,-0.00008135,-0.00003149,0.00003247,0.000067
 15,0.00003937,-0.08348164,0.25053427,0.03834305,-0.09331887,-0.0941147
 3,0.00266698,-0.00795783,-0.00512206,0.00222968,0.00135040,0.00005072,
 -0.00017960,-0.00093271,0.00010273,0.00020713,0.00017006,0.00001490,-0
 .00009195,-0.00008475,0.00007232,0.00000335,0.00001069,0.00000498,0.00
 001544,-0.00009140,-0.00000056,-0.00001444,0.00010910,0.00004468,-0.04
 391670,0.10280017,0.09871329,-0.04731749,-0.00885253,0.00790188,-0.002
 64364,-0.02447088,0.02309690,0.00162843,-0.00174501,-0.00026888,-0.000
 02602,-0.00009165,-0.00032306,-0.00004965,0.00009999,-0.00004255,0.000
 15876,-0.00031154,0.00005438,-0.00017170,-0.00000831,-0.00000778,0.000
 03820,0.00017445,0.00003111,-0.00010098,0.00004121,0.00002497,-0.00020
 141,0.00746361,-0.00816697,0.05258346,-0.00957838,-0.18868050,0.128388
 13,-0.00068886,-0.00409759,0.00264366,0.00034171,0.00086920,-0.0008873
 1,0.00002972,0.00019372,-0.00006148,-0.00011431,0.00000546,-0.00002576
 ,0.00018354,-0.00010880,-0.00006234,-0.00004395,-0.00001969,0.00003183
 ,-0.00000541,0.00001320,0.00000411,-0.00008948,0.00000538,0.00001224,-
 0.00136074,-0.01943264,0.01893465,0.01183809,0.20340882,0.00860686,0.1
 2830822,-0.16447618,0.00077692,0.00692776,-0.00708611,-0.00083446,0.00
 096966,-0.00002454,0.00012528,-0.00028496,0.00031616,0.00002904,-0.000
 10271,-0.00009353,-0.00018698,0.00016460,0.00005326,0.00005211,-0.0000
 0226,-0.00003434,-0.00003098,-0.00003639,-0.00000008,0.00006327,-0.000
 03696,-0.00002705,-0.00121401,-0.01078566,0.01007618,-0.01164673,-0.14
 278689,0.17644519,-0.13614847,-0.03471577,-0.11751951,-0.02048096,-0.0
 0721203,-0.02528411,0.00163481,-0.00100475,-0.00162622,-0.00015941,-0.
 00028227,0.00000444,0.00001998,0.00036505,0.00065648,0.00001703,-0.000
 07642,-0.00029167,-0.00005159,-0.00000459,0.00007137,0.00000860,0.0000
 0544,-0.00021069,-0.00010588,0.00002771,0.00016340,0.00684551,0.001946
 86,0.00924369,0.00064065,0.00089621,0.00151991,0.15170316,-0.03479851,
 -0.06146483,-0.04595767,-0.00297653,-0.00194080,-0.00369019,0.00055792
 ,0.00028169,0.00070698,0.00004361,-0.00004240,0.00000330,-0.00005165,-
 0.00003834,0.00007909,-0.00001552,0.00002338,-0.00006070,-0.00001828,-
 0.00000246,0.00001054,-0.00001873,0.00001466,-0.00009072,-0.00003325,-
 0.00000925,0.00005862,-0.01689913,-0.00591026,-0.02138259,0.01503299,0
 .00608696,0.01906658,0.03998975,0.06188016,-0.11832938,-0.04617189,-0.
 20259365,0.00704901,0.00239295,0.00898448,0.00004077,0.00044761,0.0009
 5488,-0.00005975,0.00025705,0.00024593,0.00019461,-0.00008294,-0.00011
 143,0.00004558,-0.00001347,0.00006380,-0.00003128,-0.00000387,-0.00001
 370,0.00000433,0.00001507,-0.00001325,-0.00001548,0.00000805,0.0000146
 5,-0.00742298,-0.00192871,-0.01063759,-0.01205417,-0.00601772,-0.01674
 447,0.12912066,0.05098111,0.21838136,-0.02056364,-0.00749890,-0.024543
 27,-0.13030342,-0.03610550,-0.11685533,0.00760168,0.00296848,0.0102900
 8,0.00040753,-0.00050580,0.00041186,-0.00146723,0.00061025,0.00002347,
 0.00022097,0.00004808,0.00030506,-0.00000714,-0.00009697,-0.00014070,-
 0.00003252,-0.00018361,-0.00006217,-0.00010779,0.00013982,0.00013269,0
 .00113044,0.00063588,-0.00012544,0.00153928,-0.00017345,0.00013421,-0.
 00553693,-0.00086015,0.00281097,0.14700392,-0.00286192,-0.00137188,-0.
 00334072,-0.03502080,-0.06369712,-0.04564407,-0.01501345,-0.00837566,-
 0.02428582,-0.00163942,0.00034562,-0.00065434,0.00040337,0.00047160,0.
 00166554,-0.00023027,0.00013395,-0.00041046,0.00006618,0.00007269,0.00
 012544,0.00016190,0.00024056,0.00034641,0.00027897,-0.00024188,-0.0003
 9937,0.00019156,0.00027130,0.00045449,0.00009191,0.00001704,-0.0004746
 3,-0.00082452,0.00078125,0.00012729,0.03873718,0.06870272,0.00750628,0
 .00306311,0.00923245,-0.11596753,-0.04683740,-0.20635446,-0.00667184,-
 0.00446844,-0.01307768,-0.00213858,-0.00068218,-0.00097137,-0.00022957
 ,0.00135941,0.00226228,0.00004890,-0.00007149,-0.00111146,-0.00000462,
 0.00003661,0.00029343,0.00003800,-0.00019814,-0.00090603,-0.00050405,0
 .00007180,0.00064660,-0.00082475,0.00007882,0.00054238,-0.00064174,-0.
 00016626,0.00078965,0.00299549,0.00053450,0.00060598,0.12550052,0.0548
 6657,0.22356832,-0.00335299,-0.02492128,0.02257142,-0.04684261,-0.0068
 8644,0.00406105,-0.00021576,0.00978497,-0.00837184,0.00106985,0.000276
 10,-0.00075500,-0.00023968,-0.00049083,0.00033731,-0.00097197,0.000611
 64,0.00010617,0.00034647,0.00016814,0.00018035,-0.00116251,-0.00048573
 ,0.00030366,0.00032593,-0.00014220,-0.00009941,0.00136603,0.00051621,-
 0.00034668,-0.00611762,-0.00100842,0.00213079,0.00148904,0.00005771,-0
 .00073560,0.00066550,0.01449327,-0.01206476,0.05415012,-0.00052502,-0.
 00271496,0.00247725,-0.00629041,-0.19481265,0.12573108,-0.00000590,-0.
 02333081,0.01780724,-0.00131253,-0.00005165,0.00044729,0.00021403,0.00
 033907,-0.00027723,0.00075326,-0.00062617,0.00031102,-0.00052235,-0.00
 011044,-0.00000100,-0.00061689,0.00062576,0.00068244,0.00000135,0.0000
 4286,-0.00011295,-0.00034863,0.00067359,-0.00008744,-0.00053286,0.0011
 2751,-0.00013090,-0.00004923,-0.00007774,-0.00016275,0.00063200,0.0060
 7943,-0.00493728,0.00709471,0.21496096,0.00096171,0.00732625,-0.007082
 44,0.00347059,0.12697723,-0.15816897,-0.00059397,-0.01293280,0.0098947
 2,-0.00020053,0.00059679,0.00037636,-0.00024700,-0.00013558,0.00031166
 ,-0.00007715,0.00079051,-0.00026592,0.00031869,0.00008435,-0.00015378,
 0.00081766,0.00030069,0.00049941,0.00049490,-0.00043221,-0.00055609,-0
 .00008793,-0.00024027,-0.00009258,0.00231507,-0.00033757,0.00078036,0.
 00018573,-0.00040685,0.00088305,0.00127398,0.01955259,-0.01694089,-0.0
 0941922,-0.13845027,0.16980987,0.00147658,-0.00003061,0.00054850,0.006
 02368,0.00268921,0.01097904,-0.11422918,-0.02649053,-0.10640858,-0.015
 78612,-0.00726096,-0.02854075,-0.00720706,-0.00115146,0.00256580,0.000
 96627,-0.00021842,-0.00187288,0.00000472,-0.00002715,0.00028703,-0.000
 04970,0.00005865,0.00007851,0.00007788,-0.00018919,0.00007085,0.000097
 85,-0.00007657,-0.00016673,-0.00004512,0.00001457,0.00001768,-0.000005
 59,-0.00006329,-0.00044231,-0.00083354,0.00234792,0.00154634,0.0003554
 8,-0.00062951,-0.00041670,0.12639072,-0.00120073,0.00072874,0.00069044
 ,-0.01449360,-0.00772249,-0.02488120,-0.02597830,-0.05603114,-0.042697
 13,-0.00260646,-0.00189698,-0.00229225,-0.00096521,0.00066856,0.000611
 87,0.00037496,0.00005935,-0.00074857,-0.00001594,0.00006513,0.00005773
 ,-0.00005169,-0.00003135,-0.00026821,-0.00004843,0.00009482,0.00021117
 ,-0.00007494,-0.00003222,0.00035225,0.00015518,0.00001126,0.00005746,0
 .00069409,0.00037112,0.00020222,0.00251212,-0.00439631,-0.00279525,-0.
 00067519,0.00116066,0.00061876,0.02898394,0.06223764,-0.00091210,0.000
 47237,0.00018738,-0.00684808,-0.00337437,-0.01192802,-0.10652585,-0.04
 299501,-0.21822436,0.00350564,0.00150272,0.00612305,0.00351840,0.00131
 103,0.00127313,-0.00106729,-0.00030179,0.00064467,-0.00010132,-0.00010
 055,-0.00008868,-0.00001142,0.00005931,-0.00009666,-0.00009696,0.00000
 734,0.00004800,0.00025249,0.00007852,0.00038408,-0.00001503,-0.0000195
 0,-0.00002796,0.00090863,-0.00002529,0.00011076,0.00164105,-0.00258633
 ,0.00017879,0.00034340,0.00000535,0.00113224,0.11732357,0.05006550,0.2
 3807024,0.00090700,0.00084667,-0.00120168,0.00018682,0.00953677,-0.007
 18314,-0.04968052,-0.02213796,0.01776204,-0.00973181,-0.02967033,0.023
 57236,0.00272684,0.00145787,-0.00256546,-0.00430899,0.00218537,0.00391
 546,-0.00080194,-0.00054633,-0.00131950,0.00012620,0.00047619,0.000364
 52,-0.00006381,-0.00031849,-0.00033094,0.00003004,-0.00022324,0.000023
 96,0.00002660,-0.00020275,0.00045654,-0.00006117,0.00002413,-0.0000795
 2,0.00027933,-0.00058879,0.00032667,-0.00051201,0.00237112,0.00153373,
 0.00206581,0.01346751,-0.01108818,0.05780770,-0.00147643,0.00109103,0.
 00102939,-0.00123405,-0.02443101,0.01754708,-0.02202248,-0.19490807,0.
 11975030,-0.00169798,-0.00229944,0.00153754,-0.00020292,-0.00010109,-0
 .00034878,0.00017386,0.00132987,0.00056045,-0.00018026,0.00014954,-0.0
 0030066,0.00034315,-0.00004890,0.00010272,-0.00012875,0.00010289,0.000
 03876,-0.00024636,0.00042355,-0.00031358,0.00094985,0.00053720,-0.0007
 6140,0.00015764,0.00004678,-0.00005210,-0.00052221,0.00088170,-0.00009
 648,0.00214365,-0.00398616,-0.00337872,0.00117168,0.00470096,-0.003990
 45,0.02337224,0.21580296,-0.00062684,-0.00041559,0.00090040,-0.0008323
 8,-0.01175230,0.00907936,0.01849620,0.11984166,-0.14487911,0.00161307,
 0.00681047,-0.00601600,0.00115489,0.00029881,0.00191114,-0.00023349,-0
 .00213649,-0.00021434,0.00017204,0.00008239,0.00032829,-0.00006734,-0.
 00022670,-0.00012834,0.00003929,0.00019886,0.00016771,-0.00025645,-0.0
 0009523,0.00009159,-0.00022396,0.00033497,0.00004293,0.00003934,0.0001
 4229,-0.00011433,-0.00041478,0.00051112,0.00076412,0.00154140,-0.00302
 392,-0.00017477,0.00330001,0.02066386,-0.01792693,-0.02390025,-0.13106
 597,0.15633067,-0.00006201,0.00203779,0.00081307,-0.00512961,-0.003746
 47,0.00024483,-0.00877734,0.02716644,0.01207115,-0.09047282,0.09300115
 ,0.04076329,0.00392355,-0.02232730,-0.00864441,-0.00017418,-0.01047826
 ,-0.00529017,0.00090057,0.00104793,0.00061096,-0.00029352,0.00048637,-
 0.00159501,0.00014711,-0.00113986,0.00006063,-0.00075415,-0.00007325,0
 .00026826,0.00001747,-0.00007807,0.00004475,0.00000296,-0.00002612,-0.
 00008620,0.00012837,-0.00004954,0.00020304,0.00001140,0.00005098,-0.00
 024072,0.00085438,-0.00023651,-0.00094245,0.00108875,-0.00064965,0.000
 20077,0.09885624,-0.00014857,0.00005462,0.00000528,-0.00056938,0.00079
 317,0.00010529,-0.00247674,0.00237531,0.00216706,0.08934608,-0.2404302
 3,-0.08248946,-0.00753246,-0.00493806,-0.00250292,0.00728821,-0.020834
 81,-0.01086524,-0.00017809,0.00144943,0.00140020,-0.00061018,0.0024170
 2,-0.00298479,-0.00064100,-0.00162999,-0.00020770,-0.00004441,0.000001
 25,0.00001633,0.00003465,0.00000624,-0.00001632,0.00002069,0.00000363,
 0.00000464,-0.00004036,0.00001800,0.00013087,-0.00017323,0.00018332,0.
 00002993,0.00085555,0.00007297,-0.00007092,0.00051961,0.00071623,-0.00
 025207,-0.08517123,0.26012644,0.00003572,-0.00044610,-0.00002140,0.001
 18229,0.00072397,0.00102290,0.00396348,-0.00642985,0.00028241,0.041840
 15,-0.07573932,-0.07730256,0.00132452,-0.02998487,-0.01178242,-0.01118
 085,0.01819286,0.00355511,-0.00067732,-0.00142728,-0.00075690,0.001426
 92,-0.00083867,0.00274233,0.00088017,0.00138233,0.00064329,0.00013692,
 0.00001022,-0.00009461,-0.00001648,0.00001368,-0.00001643,-0.00000407,
 0.00000643,-0.00000352,-0.00030230,0.00018992,0.00012678,0.00013362,-0
 .00018954,-0.00005298,0.00088912,0.00009693,0.00015729,-0.00062762,-0.
 00024917,-0.00004059,-0.03914287,0.09434122,0.08198352,0.00002659,0.00
 000449,-0.00000226,-0.00005834,0.00006033,-0.00002785,0.00006641,0.000
 16809,-0.00002559,0.00244816,-0.00083624,-0.00161074,-0.00138189,0.001
 53060,0.00191219,-0.00266369,0.00381907,0.01389862,-0.04763583,-0.0037
 0903,-0.01365174,-0.00208567,0.00036101,0.01253496,-0.00051909,-0.0011
 3586,0.00199136,-0.00001135,0.00000366,0.00000634,-0.00000656,-0.00001
 081,0.00000433,-0.00001886,-0.00000710,-0.00000315,0.00003447,-0.00002
 020,-0.00004985,-0.00000461,-0.00000721,0.00004122,-0.00006320,-0.0000
 2852,-0.00000818,0.00000149,0.00001204,-0.00000586,-0.00008459,-0.0004
 8743,0.00033995,0.04713704,-0.00001215,-0.00001339,-0.00002523,0.00003
 255,0.00000566,0.00003379,-0.00022793,0.00026058,-0.00047141,0.0028977
 0,0.00092025,-0.00014693,-0.00608704,-0.00210772,0.00541589,0.01065461
 ,0.00602050,0.01895878,-0.00267611,-0.04395891,-0.04868491,-0.01133459
 ,-0.00021705,-0.02105102,0.00450285,-0.00270285,-0.00556630,0.00000139
 ,-0.00000311,-0.00000177,0.00000064,0.00000576,0.00000427,-0.00000389,
 0.00000635,0.00000620,0.00006112,-0.00010355,-0.00002141,-0.00001340,0
 .00001174,-0.00007133,-0.00014639,0.00000208,0.00003478,0.00023013,0.0
 0001617,-0.00005632,-0.00016699,-0.00030950,-0.00013556,0.00292799,0.0
 4264718,-0.00002634,0.00000222,0.00001340,-0.00000045,-0.00001920,0.00
 000474,0.00000576,0.00003100,0.00006971,-0.00141178,0.00014587,0.00101
 477,0.00222889,-0.00062068,-0.00055278,-0.00124209,-0.00405330,-0.0106
 4440,-0.01454575,-0.04921043,-0.32577781,0.00125999,0.00179042,-0.0023
 0281,0.00011236,0.00036565,0.00041093,0.00001098,-0.00000736,-0.000007
 14,0.00000945,0.00000874,-0.00000609,0.00002363,0.00000783,0.00000372,
 -0.00003767,0.00002914,0.00006581,-0.00001024,0.00000026,-0.00001919,0
 .00010875,0.00001798,0.00000212,-0.00000517,-0.00000551,-0.00001029,0.
 00026789,0.00042408,-0.00033058,0.01093720,0.05252770,0.34391799,0.000
 04134,-0.00004501,0.00005020,-0.00006235,0.00002667,-0.00011854,0.0001
 8145,-0.00018788,0.00032719,-0.00071945,0.00246084,-0.00079775,0.00285
 990,-0.00087313,0.00013932,-0.01415276,0.00199383,-0.00289865,-0.28390
 608,-0.03390234,-0.10554650,-0.01412992,-0.00481292,-0.00373309,0.0041
 4880,0.00010035,-0.00068176,-0.00001334,0.00001112,0.00000367,-0.00003
 730,-0.00000653,0.00001118,-0.00000796,-0.00000241,-0.00000654,0.00000
 868,-0.00000341,0.00001327,0.00007687,-0.00012507,0.00002655,0.0000198
 9,0.00000891,-0.00002105,-0.00011721,-0.00001440,0.00002237,0.00001941
 ,-0.00009268,0.00002888,0.00356684,0.00068660,0.00212818,0.30392284,-0
 .00002037,0.00012632,0.00000395,0.00016324,-0.00029013,-0.00002320,0.0
 0046392,-0.00107905,0.00099171,-0.00400787,0.00273578,-0.00021742,0.00
 625948,0.00172988,-0.00098813,-0.02236951,-0.00677319,-0.01232292,-0.0
 3462851,-0.03725824,-0.01724693,0.02514075,0.00408862,0.01510761,-0.00
 578048,0.00209800,0.00234352,-0.00003532,0.00001170,0.00001540,0.00003
 748,0.00001415,-0.00002873,0.00001113,-0.00000935,-0.00000266,-0.00000
 823,0.00004264,0.00001957,-0.00010148,0.00012987,-0.00002747,0.0000770
 6,0.00001450,-0.00003584,-0.00056585,-0.00003248,0.00016550,0.00003349
 ,-0.00005703,-0.00006896,-0.00434498,-0.00085234,-0.00102275,0.0357941
 2,0.03614658,-0.00002954,0.00001948,-0.00003872,0.00005082,0.00006057,
 0.00008701,-0.00013140,0.00052563,-0.00042574,0.00232166,-0.00181892,-
 0.00023239,-0.00351715,0.00037610,0.00167497,0.01797319,0.00069933,0.0
 0471758,-0.10668926,-0.01652991,-0.09249393,0.00670525,0.00233569,-0.0
 0190410,-0.00096272,-0.00081575,0.00098437,0.00001328,-0.00000977,-0.0
 0000446,0.00002460,0.00000139,-0.00000068,0.00000792,0.00000649,0.0000
 0361,-0.00000674,-0.00001538,0.00000279,-0.00006836,0.00006484,-0.0000
 3721,0.00001284,0.00001820,0.00002759,0.00024028,0.00004719,-0.0000462
 6,-0.00012369,0.00004481,0.00004076,-0.02637199,-0.00229393,-0.0065553
 0,0.10960069,0.01670775,0.09383482,0.00002143,-0.00004591,-0.00000026,
 -0.00002378,0.00015270,0.00002454,-0.00013289,-0.00003315,-0.00027528,
 0.00034060,0.00164629,0.00048955,0.00150919,-0.00412232,0.00141962,0.0
 0456905,0.00116554,0.00895947,-0.01549670,0.00955044,-0.01449807,-0.17
 829419,0.07494026,-0.12087506,0.00130666,-0.00259560,-0.00763911,0.000
 01350,-0.00000645,-0.00000393,-0.00000051,-0.00001203,0.00000531,0.000
 00521,0.00000170,0.00000363,0.00003549,0.00001043,-0.00001702,-0.00017
 781,-0.00019348,0.00025043,-0.00003096,0.00000886,0.00000911,0.0000797
 6,-0.00007276,-0.00005444,-0.00005614,0.00000237,-0.00014891,0.0018699
 1,-0.00199762,-0.00001360,-0.00106739,0.00380378,0.00037023,0.18691590
 ,-0.00009753,0.00023074,-0.00009275,0.00019066,-0.00058202,0.00024263,
 0.00023083,-0.00059958,0.00023305,-0.00115568,0.00342817,0.00025206,0.
 00274437,-0.00389467,0.00131355,0.01826171,-0.00489864,0.01203043,0.00
 147365,-0.00391702,-0.00018030,0.07808594,-0.08803106,0.06713417,-0.01
 493767,0.00741764,-0.02116585,-0.00003430,-0.00000079,0.00001395,0.000
 09875,0.00003218,-0.00005282,0.00000011,-0.00001381,0.00001193,0.00004
 393,0.00000118,-0.00010475,-0.00027781,0.00041360,0.00002664,-0.000192
 89,-0.00006988,0.00000128,-0.00025361,0.00005196,0.00004912,-0.0001185
 4,-0.00006652,-0.00017780,0.00122661,0.00151349,-0.00045471,-0.0010100
 9,-0.00093041,0.00049593,-0.08129298,0.09161443,0.00011429,-0.00017968
 ,0.00016755,-0.00020040,0.00055103,-0.00047230,0.00000869,0.00015840,0
 .00016967,-0.00058327,-0.00081996,-0.00002948,-0.00014237,0.00226527,-
 0.00023918,-0.00562399,0.00058243,-0.00417510,0.01268308,-0.00397746,0
 .00997010,-0.11865911,0.06191475,-0.14323581,-0.01507747,0.00124649,-0
 .02527160,0.00000168,0.00001428,-0.00001704,-0.00010069,-0.00004715,0.
 00004541,0.00000717,0.00001519,-0.00001425,-0.00003530,-0.00006718,0.0
 0017190,0.00035562,-0.00020905,-0.00000137,0.00007847,0.00004688,-0.00
 003737,0.00000387,-0.00010070,-0.00002280,0.00015057,0.00007463,0.0000
 8512,-0.00056065,0.00184932,0.00066380,0.00143320,-0.00339228,0.000003
 55,0.13068125,-0.05775226,0.16390050,-0.00009477,0.00020819,0.00033418
 ,-0.00010991,-0.00014301,-0.00074759,0.00012050,-0.00031153,-0.0001681
 2,-0.00008415,0.00015773,-0.00001644,-0.00196329,0.00101434,-0.0001291
 8,0.00393553,-0.00024043,-0.00003183,-0.00052185,0.00060448,0.00260994
 ,-0.00431029,0.00632576,-0.01205611,-0.00076189,-0.02123337,0.01525331
 ,-0.00006270,-0.00002347,0.00000089,0.00008515,0.00006934,-0.00006503,
 0.00020988,0.00006288,-0.00000318,-0.00020343,-0.00053036,0.00093579,-
 0.00025913,0.00004166,-0.00040704,-0.00008279,0.00016995,0.00013563,-0
 .00004886,0.00012412,0.00003641,-0.00014585,0.00009860,-0.00008131,-0.
 00061721,0.00067051,0.00020000,-0.00063224,0.00007815,0.00058011,-0.00
 138636,-0.00298546,-0.00453464,0.00693365,-0.00001998,-0.00006100,0.00
 013458,0.00002953,0.00018584,-0.00034399,-0.00001092,-0.00012920,0.000
 35757,-0.00292805,0.00050806,-0.00195796,0.00274118,0.00399846,0.00425
 295,-0.00064672,-0.00148697,-0.00710262,-0.00034168,-0.00110551,-0.003
 16327,0.00005602,0.00962079,-0.03065531,-0.01482008,-0.18906722,0.2423
 7444,0.00011746,-0.00004546,-0.00005656,-0.00000602,0.00000515,0.00000
 208,0.00005878,0.00001325,-0.00001799,-0.00039368,0.00012673,0.0002178
 3,0.00002961,-0.00003776,0.00010935,0.00027840,-0.00000743,-0.00003814
 ,0.00001972,-0.00004370,-0.00007447,0.00043764,0.00004852,0.00072957,0
 .00047350,-0.00114135,0.00004306,-0.00000658,0.00014420,0.00008025,-0.
 00091007,-0.00169897,-0.00217295,0.01584192,0.18017359,-0.00007919,0.0
 0001295,-0.00008057,0.00029496,-0.00003409,0.00027536,-0.00022037,-0.0
 0000095,-0.00009333,-0.00049253,0.00055439,0.00133303,0.00060919,-0.00
 350421,0.00074483,0.00030663,0.00340034,0.00216627,-0.00182963,0.00043
 305,-0.00283412,-0.00256342,0.01127907,-0.03707736,0.00341669,0.191949
 11,-0.35028557,0.00006602,-0.00003091,-0.00000708,0.00004967,0.0000385
 9,-0.00001167,-0.00001158,-0.00000491,-0.00000603,-0.00000016,0.000009
 78,0.00011061,-0.00019367,0.00005555,-0.00014149,0.00004145,-0.0000286
 6,-0.00000937,0.00010202,0.00005010,-0.00004244,0.00036630,0.00064506,
 -0.00023751,0.00065170,-0.00030459,0.00003940,0.00001918,0.00002227,0.
 00036170,0.00131253,-0.00182350,-0.00166130,-0.00184580,-0.20271843,0.
 38745662\\-0.00000018,0.00000136,0.00000061,-0.00000078,0.00000162,0.0
 0000089,0.00000105,-0.00000186,-0.00000053,-0.00000836,0.,0.00000045,0
 .00000358,0.00000542,0.00000174,0.00001014,-0.00001038,0.00000215,-0.0
 0000570,0.00000329,0.00000087,-0.00000253,-0.00000452,-0.00001533,0.00
 000145,0.,0.00000849,-0.00000110,0.00000126,-0.00000030,-0.00000082,0.
 00000110,0.00000025,0.00000020,0.00000062,0.00000028,-0.00000025,-0.00
 000008,-0.00000120,-0.00000056,-0.00000050,-0.00000113,0.00000050,0.00
 000102,-0.00000017,-0.00000155,0.00000133,-0.00000021,0.00000091,0.000
 00098,0.00000057,0.00000191,-0.00000229,-0.00000041,-0.00000028,-0.000
 00058,-0.00000049,0.00000066,0.00000021,-0.00000170,0.00000169,0.00000
 199,0.00000519\\\@


 NO HUMAN INVESTIGATION CAN BECOME REAL SCIENCE
 WITHOUT GOING THROUGH MATHEMATICAL PEOPLE.
 -- LEONARDO DA VINCI, IN "PENSIERI" CA. 1492
 Job cpu time:       0 days  2 hours  5 minutes 47.1 seconds.
 Elapsed time:       0 days  0 hours 31 minutes 27.1 seconds.
 File lengths (MBytes):  RWF=    158 Int=      0 D2E=      0 Chk=      9 Scr=      1
 Normal termination of Gaussian 16 at Thu Aug  4 07:53:44 2022.
### All Done ###
