### Starting Gaussian ###
 Entering Gaussian System, Link 0=g16
 Initial command:
 /cluster/software/gaussian/gaussian-16-A.03/avx2/g16/l1.exe "/local/scratch/ks29c/Gau-7605.inp" -scrdir="/local/scratch/ks29c/"
 Entering Link 1 = /cluster/software/gaussian/gaussian-16-A.03/avx2/g16/l1.exe PID=      7606.
  
 Copyright (c) 1988,1990,1992,1993,1995,1998,2003,2009,2016,
            Gaussian, Inc.  All Rights Reserved.
  
 This is part of the Gaussian(R) 16 program.  It is based on
 the Gaussian(R) 09 system (copyright 2009, Gaussian, Inc.),
 the Gaussian(R) 03 system (copyright 2003, Gaussian, Inc.),
 the Gaussian(R) 98 system (copyright 1998, Gaussian, Inc.),
 the Gaussian(R) 94 system (copyright 1995, Gaussian, Inc.),
 the Gaussian 92(TM) system (copyright 1992, Gaussian, Inc.),
 the Gaussian 90(TM) system (copyright 1990, Gaussian, Inc.),
 the Gaussian 88(TM) system (copyright 1988, Gaussian, Inc.),
 the Gaussian 86(TM) system (copyright 1986, Carnegie Mellon
 University), and the Gaussian 82(TM) system (copyright 1983,
 Carnegie Mellon University). Gaussian is a federally registered
 trademark of Gaussian, Inc.
  
 This software contains proprietary and confidential information,
 including trade secrets, belonging to Gaussian, Inc.
  
 This software is provided under written license and may be
 used, copied, transmitted, or stored only in accord with that
 written license.
  
 The following legend is applicable only to US Government
 contracts under FAR:
  
                    RESTRICTED RIGHTS LEGEND
  
 Use, reproduction and disclosure by the US Government is
 subject to restrictions as set forth in subparagraphs (a)
 and (c) of the Commercial Computer Software - Restricted
 Rights clause in FAR 52.227-19.
  
 Gaussian, Inc.
 340 Quinnipiac St., Bldg. 40, Wallingford CT 06492
  
  
 ---------------------------------------------------------------
 Warning -- This program may not be used in any manner that
 competes with the business of Gaussian, Inc. or will provide
 assistance to any competitor of Gaussian, Inc.  The licensee
 of this program is prohibited from giving any competitor of
 Gaussian, Inc. access to this program.  By using this program,
 the user acknowledges that Gaussian, Inc. is engaged in the
 business of creating and licensing software in the field of
 computational chemistry and represents and warrants to the
 licensee that it is not a competitor of Gaussian, Inc. and that
 it will not use this program in any manner prohibited above.
 ---------------------------------------------------------------
  

 Cite this work as:
 Gaussian 16, Revision A.03,
 M. J. Frisch, G. W. Trucks, H. B. Schlegel, G. E. Scuseria, 
 M. A. Robb, J. R. Cheeseman, G. Scalmani, V. Barone, 
 G. A. Petersson, H. Nakatsuji, X. Li, M. Caricato, A. V. Marenich, 
 J. Bloino, B. G. Janesko, R. Gomperts, B. Mennucci, H. P. Hratchian, 
 J. V. Ortiz, A. F. Izmaylov, J. L. Sonnenberg, D. Williams-Young, 
 F. Ding, F. Lipparini, F. Egidi, J. Goings, B. Peng, A. Petrone, 
 T. Henderson, D. Ranasinghe, V. G. Zakrzewski, J. Gao, N. Rega, 
 G. Zheng, W. Liang, M. Hada, M. Ehara, K. Toyota, R. Fukuda, 
 J. Hasegawa, M. Ishida, T. Nakajima, Y. Honda, O. Kitao, H. Nakai, 
 T. Vreven, K. Throssell, J. A. Montgomery, Jr., J. E. Peralta, 
 F. Ogliaro, M. J. Bearpark, J. J. Heyd, E. N. Brothers, K. N. Kudin, 
 V. N. Staroverov, T. A. Keith, R. Kobayashi, J. Normand, 
 K. Raghavachari, A. P. Rendell, J. C. Burant, S. S. Iyengar, 
 J. Tomasi, M. Cossi, J. M. Millam, M. Klene, C. Adamo, R. Cammi, 
 J. W. Ochterski, R. L. Martin, K. Morokuma, O. Farkas, 
 J. B. Foresman, and D. J. Fox, Gaussian, Inc., Wallingford CT, 2016.
 
 ******************************************
 Gaussian 16:  ES64L-G16RevA.03 25-Dec-2016
                 3-Jul-2022 
 ******************************************
 %chk=CCCNdCC1NC1dO.chk
 %NProcShared=20
 Will use up to   20 processors via shared memory.
 -----------------------------
 # opt freq b3lyp/6-31g(2df,p)
 -----------------------------
 1/18=20,19=15,26=3,38=1/1,3;
 2/9=110,12=2,17=6,18=5,40=1/2;
 3/5=1,6=6,7=104,11=2,25=1,30=1,71=1,74=-5/1,2,3;
 4//1;
 5/5=2,38=5/2;
 6/7=2,8=2,9=2,10=2,28=1/1;
 7//1,2,3,16;
 1/18=20,19=15,26=3/3(2);
 2/9=110/2;
 99//99;
 2/9=110/2;
 3/5=1,6=6,7=104,11=2,25=1,30=1,71=1,74=-5/1,2,3;
 4/5=5,16=3,69=1/1;
 5/5=2,38=5/2;
 7//1,2,3,16;
 1/18=20,19=15,26=3/3(-5);
 2/9=110/2;
 6/7=2,8=2,9=2,10=2,19=2,28=1/1;
 99/9=1/99;
 -------------------
 Title Card Required
 -------------------
 Symbolic Z-matrix:
 Charge =  0 Multiplicity = 1
 C                     1.05896  -0.08213  -0.00291 
 C                     2.57716  -0.07738   0.00673 
 C                     3.13121   0.49331   1.30938 
 N                     4.60144   0.4594    1.21928 
 C                     5.19054   0.95993   2.24688 
 C                     6.66123   0.97946   2.35261 
 N                     7.61547   0.49576   1.36641 
 C                     7.5147    1.79579   1.55656 
 O                     7.69316   2.94895   1.3011 
 H                     0.68644  -0.49334  -0.94632 
 H                     0.66567   0.93348   0.10576 
 H                     0.66584  -0.69382   0.81516 
 H                     2.94578   0.51381  -0.83995 
 H                     2.94657  -1.1001   -0.13511 
 H                     2.77477  -0.11133   2.15466 
 H                     2.7647    1.51975   1.44515 
 H                     4.63662   1.35718   3.12044 
 H                     7.01495   0.71857   3.33728 
 H                     7.5365    0.02325   0.47588 
 

 GradGradGradGradGradGradGradGradGradGradGradGradGradGradGradGradGradGrad
 Berny optimization.
 Initialization pass.
                           ----------------------------
                           !    Initial Parameters    !
                           ! (Angstroms and Degrees)  !
 --------------------------                            --------------------------
 ! Name  Definition              Value          Derivative Info.                !
 --------------------------------------------------------------------------------
 ! R1    R(1,2)                  1.5182         estimate D2E/DX2                !
 ! R2    R(1,10)                 1.0945         estimate D2E/DX2                !
 ! R3    R(1,11)                 1.0945         estimate D2E/DX2                !
 ! R4    R(1,12)                 1.0945         estimate D2E/DX2                !
 ! R5    R(2,3)                  1.5263         estimate D2E/DX2                !
 ! R6    R(2,13)                 1.0965         estimate D2E/DX2                !
 ! R7    R(2,14)                 1.0966         estimate D2E/DX2                !
 ! R8    R(3,4)                  1.4734         estimate D2E/DX2                !
 ! R9    R(3,15)                 1.0987         estimate D2E/DX2                !
 ! R10   R(3,16)                 1.0983         estimate D2E/DX2                !
 ! R11   R(4,5)                  1.2859         estimate D2E/DX2                !
 ! R12   R(5,6)                  1.4746         estimate D2E/DX2                !
 ! R13   R(5,17)                 1.108          estimate D2E/DX2                !
 ! R14   R(6,7)                  1.455          estimate D2E/DX2                !
 ! R15   R(6,8)                  1.4243         estimate D2E/DX2                !
 ! R16   R(6,18)                 1.0783         estimate D2E/DX2                !
 ! R17   R(7,8)                  1.3177         estimate D2E/DX2                !
 ! R18   R(7,19)                 1.0112         estimate D2E/DX2                !
 ! R19   R(8,9)                  1.1945         estimate D2E/DX2                !
 ! A1    A(2,1,10)             110.3041         estimate D2E/DX2                !
 ! A2    A(2,1,11)             110.8417         estimate D2E/DX2                !
 ! A3    A(2,1,12)             110.8651         estimate D2E/DX2                !
 ! A4    A(10,1,11)            108.1743         estimate D2E/DX2                !
 ! A5    A(10,1,12)            108.1822         estimate D2E/DX2                !
 ! A6    A(11,1,12)            108.3797         estimate D2E/DX2                !
 ! A7    A(1,2,3)              111.69           estimate D2E/DX2                !
 ! A8    A(1,2,13)             109.4487         estimate D2E/DX2                !
 ! A9    A(1,2,14)             109.4583         estimate D2E/DX2                !
 ! A10   A(3,2,13)             109.597          estimate D2E/DX2                !
 ! A11   A(3,2,14)             109.6835         estimate D2E/DX2                !
 ! A12   A(13,2,14)            106.8411         estimate D2E/DX2                !
 ! A13   A(2,3,4)              107.5436         estimate D2E/DX2                !
 ! A14   A(2,3,15)             109.456          estimate D2E/DX2                !
 ! A15   A(2,3,16)             109.4996         estimate D2E/DX2                !
 ! A16   A(4,3,15)             110.9841         estimate D2E/DX2                !
 ! A17   A(4,3,16)             111.2262         estimate D2E/DX2                !
 ! A18   A(15,3,16)            108.1159         estimate D2E/DX2                !
 ! A19   A(3,4,5)              113.5355         estimate D2E/DX2                !
 ! A20   A(4,5,6)              121.2892         estimate D2E/DX2                !
 ! A21   A(4,5,17)             122.7214         estimate D2E/DX2                !
 ! A22   A(6,5,17)             115.9321         estimate D2E/DX2                !
 ! A23   A(5,6,7)              126.9468         estimate D2E/DX2                !
 ! A24   A(5,6,8)              124.4135         estimate D2E/DX2                !
 ! A25   A(5,6,18)             112.9189         estimate D2E/DX2                !
 ! A26   A(7,6,18)             108.8666         estimate D2E/DX2                !
 ! A27   A(8,6,18)             116.9035         estimate D2E/DX2                !
 ! A28   A(6,7,19)             134.5086         estimate D2E/DX2                !
 ! A29   A(8,7,19)             125.5989         estimate D2E/DX2                !
 ! A30   A(6,8,9)              139.6738         estimate D2E/DX2                !
 ! A31   A(7,8,9)              155.5228         estimate D2E/DX2                !
 ! D1    D(10,1,2,3)           179.8933         estimate D2E/DX2                !
 ! D2    D(10,1,2,13)           58.3427         estimate D2E/DX2                !
 ! D3    D(10,1,2,14)          -58.4405         estimate D2E/DX2                !
 ! D4    D(11,1,2,3)            60.1105         estimate D2E/DX2                !
 ! D5    D(11,1,2,13)          -61.4401         estimate D2E/DX2                !
 ! D6    D(11,1,2,14)         -178.2233         estimate D2E/DX2                !
 ! D7    D(12,1,2,3)           -60.299          estimate D2E/DX2                !
 ! D8    D(12,1,2,13)          178.1504         estimate D2E/DX2                !
 ! D9    D(12,1,2,14)           61.3672         estimate D2E/DX2                !
 ! D10   D(1,2,3,4)           -179.8118         estimate D2E/DX2                !
 ! D11   D(1,2,3,15)            59.5244         estimate D2E/DX2                !
 ! D12   D(1,2,3,16)           -58.8302         estimate D2E/DX2                !
 ! D13   D(13,2,3,4)           -58.347          estimate D2E/DX2                !
 ! D14   D(13,2,3,15)         -179.0108         estimate D2E/DX2                !
 ! D15   D(13,2,3,16)           62.6346         estimate D2E/DX2                !
 ! D16   D(14,2,3,4)            58.6521         estimate D2E/DX2                !
 ! D17   D(14,2,3,15)          -62.0116         estimate D2E/DX2                !
 ! D18   D(14,2,3,16)          179.6337         estimate D2E/DX2                !
 ! D19   D(2,3,4,5)            177.7823         estimate D2E/DX2                !
 ! D20   D(15,3,4,5)           -62.5218         estimate D2E/DX2                !
 ! D21   D(16,3,4,5)            57.8914         estimate D2E/DX2                !
 ! D22   D(3,4,5,6)            178.3126         estimate D2E/DX2                !
 ! D23   D(3,4,5,17)             1.1807         estimate D2E/DX2                !
 ! D24   D(4,5,6,7)              1.3711         estimate D2E/DX2                !
 ! D25   D(4,5,6,8)             69.8767         estimate D2E/DX2                !
 ! D26   D(4,5,6,18)          -137.8543         estimate D2E/DX2                !
 ! D27   D(17,5,6,7)           178.6882         estimate D2E/DX2                !
 ! D28   D(17,5,6,8)          -112.8062         estimate D2E/DX2                !
 ! D29   D(17,5,6,18)           39.4628         estimate D2E/DX2                !
 ! D30   D(5,6,7,19)            -3.961          estimate D2E/DX2                !
 ! D31   D(18,6,7,19)          136.5685         estimate D2E/DX2                !
 ! D32   D(5,6,8,9)             57.8101         estimate D2E/DX2                !
 ! D33   D(18,6,8,9)           -93.4651         estimate D2E/DX2                !
 ! D34   D(19,7,8,9)           -40.7115         estimate D2E/DX2                !
 --------------------------------------------------------------------------------
 Trust Radius=3.00D-01 FncErr=1.00D-07 GrdErr=1.00D-06 EigMax=2.50D+02 EigMin=1.00D-04
 Number of steps in this run=     94 maximum allowed number of steps=    114.
 GradGradGradGradGradGradGradGradGradGradGradGradGradGradGradGradGradGrad

                          Input orientation:                          
 ---------------------------------------------------------------------
 Center     Atomic      Atomic             Coordinates (Angstroms)
 Number     Number       Type             X           Y           Z
 ---------------------------------------------------------------------
      1          6           0        1.058960   -0.082130   -0.002910
      2          6           0        2.577160   -0.077380    0.006730
      3          6           0        3.131210    0.493310    1.309380
      4          7           0        4.601440    0.459400    1.219280
      5          6           0        5.190540    0.959930    2.246880
      6          6           0        6.661230    0.979460    2.352610
      7          7           0        7.615470    0.495760    1.366410
      8          6           0        7.514700    1.795790    1.556560
      9          8           0        7.693160    2.948950    1.301100
     10          1           0        0.686440   -0.493340   -0.946320
     11          1           0        0.665670    0.933480    0.105760
     12          1           0        0.665840   -0.693820    0.815160
     13          1           0        2.945780    0.513810   -0.839950
     14          1           0        2.946570   -1.100100   -0.135110
     15          1           0        2.774770   -0.111330    2.154660
     16          1           0        2.764700    1.519750    1.445150
     17          1           0        4.636620    1.357180    3.120440
     18          1           0        7.014950    0.718570    3.337280
     19          1           0        7.536500    0.023250    0.475880
 ---------------------------------------------------------------------
                    Distance matrix (angstroms):
                    1          2          3          4          5
     1  C    0.000000
     2  C    1.518238   0.000000
     3  C    2.519416   1.526288   0.000000
     4  N    3.786313   2.419942   1.473378   0.000000
     5  C    4.818443   3.595002   2.310299   1.285897   0.000000
     6  C    6.169350   4.826975   3.712912   2.407828   1.474615
     7  N    6.722858   5.249932   4.484623   3.017838   2.621253
     8  C    6.901819   5.503639   4.579578   3.222853   2.564551
     9  O    7.409487   6.083381   5.180890   3.970301   3.333738
    10  H    1.094480   2.157811   3.469663   4.574359   5.709241
    11  H    1.094509   2.164587   2.778730   4.117641   5.005951
    12  H    1.094507   2.164879   2.780572   4.120944   5.025696
    13  H    2.148458   1.096473   2.157411   2.642839   3.842719
    14  H    2.148677   1.096603   2.158610   2.646697   3.866911
    15  H    2.756803   2.157268   1.098698   2.130115   2.644248
    16  H    2.751808   2.157556   1.098336   2.132832   2.615506
    17  H    4.962517   3.999316   2.508479   2.102773   1.108035
    18  H    6.875450   5.605362   4.387090   3.221510   2.139088
    19  H    6.496066   4.982498   4.508022   3.058995   3.085018
                    6          7          8          9         10
     6  C    0.000000
     7  N    1.455036   0.000000
     8  C    1.424255   1.317721   0.000000
     9  O    2.459562   2.455289   1.194523   0.000000
    10  H    6.982134   7.371465   7.624281   8.123693   0.000000
    11  H    6.402905   7.076762   7.053908   7.407872   1.772884
    12  H    6.411577   7.072223   7.324938   7.930267   1.772972
    13  H    4.920756   5.164722   5.316179   5.749054   2.475941
    14  H    4.930722   5.157515   5.667075   6.402158   2.476774
    15  H    4.041482   4.941890   5.144100   5.855291   3.758075
    16  H    4.037121   4.958299   4.759318   5.133525   3.753775
    17  H    2.198018   3.562613   3.304761   3.896943   5.963798
    18  H    1.078312   2.072341   2.140354   3.095253   7.737441
    19  H    2.280910   1.011210   2.076112   3.043887   7.015186
                   11         12         13         14         15
    11  H    0.000000
    12  H    1.775205   0.000000
    13  H    2.503875   3.065271   0.000000
    14  H    3.065285   2.503958   1.761109   0.000000
    15  H    3.120564   2.565373   3.063941   2.500046   0.000000
    16  H    2.558047   3.114802   2.503275   3.064949   1.778743
    17  H    5.003625   5.028719   4.388041   4.415099   2.560418
    18  H    7.127571   6.976183   5.835180   5.649493   4.479559
    19  H    6.940736   6.916305   4.800705   4.764733   5.050791
                   16         17         18         19
    16  H    0.000000
    17  H    2.517362   0.000000
    18  H    4.720876   2.472104   0.000000
    19  H    5.094023   4.145162   2.990501   0.000000
 Stoichiometry    C6H10N2O
 Framework group  C1[X(C6H10N2O)]
 Deg. of freedom    51
 Full point group                 C1      NOp   1
 Largest Abelian subgroup         C1      NOp   1
 Largest concise Abelian subgroup C1      NOp   1
                         Standard orientation:                         
 ---------------------------------------------------------------------
 Center     Atomic      Atomic             Coordinates (Angstroms)
 Number     Number       Type             X           Y           Z
 ---------------------------------------------------------------------
      1          6           0        4.164993    0.358871   -0.043768
      2          6           0        2.745802    0.395268    0.494395
      3          6           0        1.771904   -0.325609   -0.433728
      4          7           0        0.431045   -0.231269    0.169631
      5          6           0       -0.493076   -0.766797   -0.546428
      6          6           0       -1.894049   -0.801718   -0.087578
      7          7           0       -2.423196   -0.248106    1.149616
      8          6           0       -2.736565    0.342121    0.013912
      9          8           0       -3.167416    1.219606   -0.672581
     10          1           0        4.842931    0.882940    0.637141
     11          1           0        4.222611    0.843951   -1.023221
     12          1           0        4.515939   -0.672564   -0.148295
     13          1           0        2.429974    1.437612    0.620984
     14          1           0        2.720017   -0.067451    1.488259
     15          1           0        2.080459   -1.374218   -0.544855
     16          1           0        1.795330    0.144292   -1.426193
     17          1           0       -0.287285   -1.267169   -1.513392
     18          1           0       -2.375747   -1.746925   -0.280729
     19          1           0       -2.013900    0.205493    1.955389
 ---------------------------------------------------------------------
 Rotational constants (GHZ):           4.8332575           0.5915049           0.5833324
 Standard basis: 6-31G(2df,p) (6D, 7F)
 There are   329 symmetry adapted cartesian basis functions of A   symmetry.
 There are   302 symmetry adapted basis functions of A   symmetry.
   302 basis functions,   466 primitive gaussians,   329 cartesian basis functions
    34 alpha electrons       34 beta electrons
       nuclear repulsion energy       416.8954560720 Hartrees.
 NAtoms=   19 NActive=   19 NUniq=   19 SFac= 1.00D+00 NAtFMM=   60 NAOKFM=F Big=F
 Integral buffers will be    131072 words long.
 Raffenetti 2 integral format.
 Two-electron integral symmetry is turned on.
 One-electron integrals computed using PRISM.
 PrsmSu:  requested number of processors reduced to:  13 ShMem   1 Linda.
 NBasis=   302 RedAO= T EigKep=  2.51D-04  NBF=   302
 NBsUse=   302 1.00D-06 EigRej= -1.00D+00 NBFU=   302
 ExpMin= 1.61D-01 ExpMax= 5.48D+03 ExpMxC= 8.25D+02 IAcc=3 IRadAn=         5 AccDes= 0.00D+00
 Harris functional with IExCor=  402 and IRadAn=       5 diagonalized for initial guess.
 HarFok:  IExCor=  402 AccDes= 0.00D+00 IRadAn=         5 IDoV= 1 UseB2=F ITyADJ=14
 ICtDFT=  3500011 ScaDFX=  1.000000  1.000000  1.000000  1.000000
 FoFCou: FMM=F IPFlag=           0 FMFlag=      100000 FMFlg1=           0
         NFxFlg=           0 DoJE=T BraDBF=F KetDBF=T FulRan=T
         wScrn=  0.000000 ICntrl=       500 IOpCl=  0 I1Cent=   200000004 NGrid=           0
         NMat0=    1 NMatS0=      1 NMatT0=    0 NMatD0=    1 NMtDS0=    0 NMtDT0=    0
 Petite list used in FoFCou.
 Requested convergence on RMS density matrix=1.00D-08 within 128 cycles.
 Requested convergence on MAX density matrix=1.00D-06.
 Requested convergence on             energy=1.00D-06.
 No special actions if energy rises.
 Integral accuracy reduced to 1.0D-05 until final iterations.
 Initial convergence to 1.0D-05 achieved.  Increase integral accuracy.
 SCF Done:  E(RB3LYP) =  -419.326788967     A.U. after   14 cycles
            NFock= 14  Conv=0.54D-08     -V/T= 2.0069

 **********************************************************************

            Population analysis using the SCF density.

 **********************************************************************

 Orbital symmetries:
       Occupied  (A) (A) (A) (A) (A) (A) (A) (A) (A) (A) (A) (A)
                 (A) (A) (A) (A) (A) (A) (A) (A) (A) (A) (A) (A)
                 (A) (A) (A) (A) (A) (A) (A) (A) (A) (A)
       Virtual   (A) (A) (A) (A) (A) (A) (A) (A) (A) (A) (A) (A)
                 (A) (A) (A) (A) (A) (A) (A) (A) (A) (A) (A) (A)
                 (A) (A) (A) (A) (A) (A) (A) (A) (A) (A) (A) (A)
                 (A) (A) (A) (A) (A) (A) (A) (A) (A) (A) (A) (A)
                 (A) (A) (A) (A) (A) (A) (A) (A) (A) (A) (A) (A)
                 (A) (A) (A) (A) (A) (A) (A) (A) (A) (A) (A) (A)
                 (A) (A) (A) (A) (A) (A) (A) (A) (A) (A) (A) (A)
                 (A) (A) (A) (A) (A) (A) (A) (A) (A) (A) (A) (A)
                 (A) (A) (A) (A) (A) (A) (A) (A) (A) (A) (A) (A)
                 (A) (A) (A) (A) (A) (A) (A) (A) (A) (A) (A) (A)
                 (A) (A) (A) (A) (A) (A) (A) (A) (A) (A) (A) (A)
                 (A) (A) (A) (A) (A) (A) (A) (A) (A) (A) (A) (A)
                 (A) (A) (A) (A) (A) (A) (A) (A) (A) (A) (A) (A)
                 (A) (A) (A) (A) (A) (A) (A) (A) (A) (A) (A) (A)
                 (A) (A) (A) (A) (A) (A) (A) (A) (A) (A) (A) (A)
                 (A) (A) (A) (A) (A) (A) (A) (A) (A) (A) (A) (A)
                 (A) (A) (A) (A) (A) (A) (A) (A) (A) (A) (A) (A)
                 (A) (A) (A) (A) (A) (A) (A) (A) (A) (A) (A) (A)
                 (A) (A) (A) (A) (A) (A) (A) (A) (A) (A) (A) (A)
                 (A) (A) (A) (A) (A) (A) (A) (A) (A) (A) (A) (A)
                 (A) (A) (A) (A) (A) (A) (A) (A) (A) (A) (A) (A)
                 (A) (A) (A) (A) (A) (A) (A) (A) (A) (A) (A) (A)
                 (A) (A) (A) (A)
 The electronic state is 1-A.
 Alpha  occ. eigenvalues --  -19.13690 -14.37622 -14.33241 -10.29964 -10.23930
 Alpha  occ. eigenvalues --  -10.23554 -10.20932 -10.17663 -10.17314  -1.07027
 Alpha  occ. eigenvalues --   -1.01026  -0.92096  -0.78562  -0.73107  -0.68266
 Alpha  occ. eigenvalues --   -0.63350  -0.58513  -0.54925  -0.51784  -0.48567
 Alpha  occ. eigenvalues --   -0.47465  -0.46577  -0.45008  -0.41712  -0.40726
 Alpha  occ. eigenvalues --   -0.39618  -0.38304  -0.35166  -0.33750  -0.33444
 Alpha  occ. eigenvalues --   -0.30737  -0.30089  -0.26918  -0.24147
 Alpha virt. eigenvalues --   -0.02822   0.01453   0.07442   0.09135   0.10566
 Alpha virt. eigenvalues --    0.13359   0.13853   0.14881   0.15459   0.16076
 Alpha virt. eigenvalues --    0.17476   0.18536   0.19029   0.20659   0.21626
 Alpha virt. eigenvalues --    0.23953   0.24527   0.28868   0.31705   0.32890
 Alpha virt. eigenvalues --    0.34821   0.43319   0.44158   0.47039   0.47260
 Alpha virt. eigenvalues --    0.48803   0.50227   0.51327   0.51597   0.52850
 Alpha virt. eigenvalues --    0.54184   0.55599   0.56636   0.58272   0.59452
 Alpha virt. eigenvalues --    0.60033   0.61931   0.63634   0.64753   0.67889
 Alpha virt. eigenvalues --    0.70136   0.70689   0.71756   0.72649   0.73534
 Alpha virt. eigenvalues --    0.74859   0.75204   0.75703   0.75851   0.77067
 Alpha virt. eigenvalues --    0.78461   0.80007   0.81459   0.84299   0.84491
 Alpha virt. eigenvalues --    0.86208   0.87229   0.88698   0.89115   0.91029
 Alpha virt. eigenvalues --    0.93908   0.96055   0.97229   0.99352   1.01431
 Alpha virt. eigenvalues --    1.02734   1.04339   1.07993   1.11881   1.14898
 Alpha virt. eigenvalues --    1.17544   1.20021   1.21859   1.23149   1.24524
 Alpha virt. eigenvalues --    1.26064   1.27213   1.30706   1.34750   1.35292
 Alpha virt. eigenvalues --    1.38791   1.40326   1.41200   1.45151   1.46660
 Alpha virt. eigenvalues --    1.47636   1.50319   1.51498   1.54079   1.55502
 Alpha virt. eigenvalues --    1.57514   1.59126   1.60106   1.63170   1.65012
 Alpha virt. eigenvalues --    1.67991   1.73389   1.74101   1.75080   1.77879
 Alpha virt. eigenvalues --    1.81939   1.83024   1.87533   1.88556   1.88872
 Alpha virt. eigenvalues --    1.93321   1.96329   1.98827   2.03533   2.06745
 Alpha virt. eigenvalues --    2.08447   2.15359   2.18880   2.22728   2.24865
 Alpha virt. eigenvalues --    2.25935   2.30907   2.32578   2.38709   2.42791
 Alpha virt. eigenvalues --    2.43824   2.46331   2.49687   2.52683   2.59720
 Alpha virt. eigenvalues --    2.63945   2.65886   2.69502   2.69904   2.73732
 Alpha virt. eigenvalues --    2.74414   2.76428   2.76921   2.79314   2.83587
 Alpha virt. eigenvalues --    2.84021   2.85381   2.85679   2.89921   2.91507
 Alpha virt. eigenvalues --    2.91930   2.93639   2.93876   2.97693   2.99357
 Alpha virt. eigenvalues --    3.00765   3.05790   3.08764   3.11523   3.13805
 Alpha virt. eigenvalues --    3.15378   3.17656   3.20491   3.23623   3.25315
 Alpha virt. eigenvalues --    3.28740   3.29615   3.32435   3.33160   3.35660
 Alpha virt. eigenvalues --    3.39246   3.40361   3.41889   3.46784   3.47747
 Alpha virt. eigenvalues --    3.49782   3.52841   3.55614   3.60282   3.61212
 Alpha virt. eigenvalues --    3.61795   3.64435   3.69316   3.70350   3.73241
 Alpha virt. eigenvalues --    3.75458   3.79807   3.80317   3.84701   3.87426
 Alpha virt. eigenvalues --    3.88207   3.91681   3.93662   3.95810   3.97217
 Alpha virt. eigenvalues --    3.99600   4.03420   4.07745   4.09091   4.14820
 Alpha virt. eigenvalues --    4.18812   4.21802   4.27226   4.29688   4.31989
 Alpha virt. eigenvalues --    4.33690   4.36184   4.37945   4.40691   4.41651
 Alpha virt. eigenvalues --    4.42396   4.43824   4.46325   4.49809   4.50842
 Alpha virt. eigenvalues --    4.52620   4.53769   4.57020   4.58498   4.59390
 Alpha virt. eigenvalues --    4.60211   4.63043   4.64378   4.65068   4.66334
 Alpha virt. eigenvalues --    4.67104   4.67517   4.69182   4.73281   4.75329
 Alpha virt. eigenvalues --    4.76196   4.79919   4.80848   4.82729   4.85127
 Alpha virt. eigenvalues --    4.88368   4.89539   4.92730   4.93842   4.94975
 Alpha virt. eigenvalues --    5.00501   5.04125   5.06000   5.08779   5.09162
 Alpha virt. eigenvalues --    5.10824   5.11061   5.16357   5.23248   5.27728
 Alpha virt. eigenvalues --    5.33019   5.38974   5.40472   5.43214   5.48879
 Alpha virt. eigenvalues --    5.50620   5.58791   5.64318   5.69398   5.72076
 Alpha virt. eigenvalues --    5.72469   5.79152   5.85865   6.09540   6.32327
 Alpha virt. eigenvalues --    6.60820   6.97343  10.08048  10.72899  11.14942
 Alpha virt. eigenvalues --   11.21286  11.36674  11.62466  11.68336  11.95548
 Alpha virt. eigenvalues --   12.90164  13.14562  16.22211
          Condensed to atoms (all electrons):
               1          2          3          4          5          6
     1  C    4.978707   0.376371  -0.038782   0.003103  -0.000182   0.000001
     2  C    0.376371   4.793963   0.452582  -0.044989   0.000739  -0.000150
     3  C   -0.038782   0.452582   4.804718   0.376706  -0.104596   0.008816
     4  N    0.003103  -0.044989   0.376706   6.330363   0.696359  -0.034714
     5  C   -0.000182   0.000739  -0.104596   0.696359   4.753061   0.320237
     6  C    0.000001  -0.000150   0.008816  -0.034714   0.320237   5.423714
     7  N    0.000000  -0.000005  -0.000078   0.001371  -0.020283   0.106835
     8  C    0.000000  -0.000009  -0.000115   0.002496   0.011333   0.158113
     9  O   -0.000000   0.000000  -0.000002  -0.000086  -0.002267  -0.071114
    10  H    0.375323  -0.020744   0.003151  -0.000083   0.000000  -0.000000
    11  H    0.378846  -0.029097  -0.004623   0.000080   0.000014  -0.000000
    12  H    0.378448  -0.029277  -0.004575   0.000081   0.000014  -0.000000
    13  H   -0.035073   0.370242  -0.033055   0.003213   0.000957  -0.000040
    14  H   -0.035420   0.369243  -0.033269   0.003654   0.000948  -0.000025
    15  H    0.000539  -0.040110   0.355873  -0.028120  -0.003418  -0.000579
    16  H    0.000406  -0.039816   0.354330  -0.027254  -0.001894  -0.000390
    17  H    0.000061  -0.000285  -0.014962  -0.072540   0.367960  -0.073011
    18  H   -0.000000   0.000002  -0.000218  -0.000027  -0.041296   0.353642
    19  H    0.000000  -0.000000  -0.000180   0.004503   0.001816  -0.031810
               7          8          9         10         11         12
     1  C    0.000000   0.000000  -0.000000   0.375323   0.378846   0.378448
     2  C   -0.000005  -0.000009   0.000000  -0.020744  -0.029097  -0.029277
     3  C   -0.000078  -0.000115  -0.000002   0.003151  -0.004623  -0.004575
     4  N    0.001371   0.002496  -0.000086  -0.000083   0.000080   0.000081
     5  C   -0.020283   0.011333  -0.002267   0.000000   0.000014   0.000014
     6  C    0.106835   0.158113  -0.071114  -0.000000  -0.000000  -0.000000
     7  N    6.590733   0.405843  -0.023876   0.000000   0.000000   0.000000
     8  C    0.405843   4.195969   0.799483  -0.000000   0.000000   0.000000
     9  O   -0.023876   0.799483   7.632636   0.000000   0.000000  -0.000000
    10  H    0.000000  -0.000000   0.000000   0.598222  -0.031523  -0.031690
    11  H    0.000000   0.000000   0.000000  -0.031523   0.601475  -0.033875
    12  H    0.000000   0.000000  -0.000000  -0.031690  -0.033875   0.603947
    13  H    0.000003   0.000006  -0.000000  -0.002628  -0.004466   0.005681
    14  H    0.000001   0.000002  -0.000000  -0.002598   0.005694  -0.004516
    15  H    0.000031   0.000023   0.000000  -0.000135  -0.000514   0.005140
    16  H    0.000002   0.000059  -0.000001  -0.000130   0.005162  -0.000518
    17  H    0.004445   0.004956  -0.000035   0.000000   0.000001   0.000001
    18  H   -0.022014  -0.016424   0.000808   0.000000  -0.000000   0.000000
    19  H    0.324215  -0.025061  -0.000605   0.000000   0.000000   0.000000
              13         14         15         16         17         18
     1  C   -0.035073  -0.035420   0.000539   0.000406   0.000061  -0.000000
     2  C    0.370242   0.369243  -0.040110  -0.039816  -0.000285   0.000002
     3  C   -0.033055  -0.033269   0.355873   0.354330  -0.014962  -0.000218
     4  N    0.003213   0.003654  -0.028120  -0.027254  -0.072540  -0.000027
     5  C    0.000957   0.000948  -0.003418  -0.001894   0.367960  -0.041296
     6  C   -0.000040  -0.000025  -0.000579  -0.000390  -0.073011   0.353642
     7  N    0.000003   0.000001   0.000031   0.000002   0.004445  -0.022014
     8  C    0.000006   0.000002   0.000023   0.000059   0.004956  -0.016424
     9  O   -0.000000  -0.000000   0.000000  -0.000001  -0.000035   0.000808
    10  H   -0.002628  -0.002598  -0.000135  -0.000130   0.000000   0.000000
    11  H   -0.004466   0.005694  -0.000514   0.005162   0.000001  -0.000000
    12  H    0.005681  -0.004516   0.005140  -0.000518   0.000001   0.000000
    13  H    0.629378  -0.038780   0.006361  -0.005341   0.000063   0.000000
    14  H   -0.038780   0.633726  -0.005551   0.006342   0.000058  -0.000001
    15  H    0.006361  -0.005551   0.637906  -0.040510   0.007271   0.000048
    16  H   -0.005341   0.006342  -0.040510   0.632849   0.007853  -0.000025
    17  H    0.000063   0.000058   0.007271   0.007853   0.672963   0.000290
    18  H    0.000000  -0.000001   0.000048  -0.000025   0.000290   0.602404
    19  H    0.000003   0.000012   0.000001   0.000012   0.000225   0.002060
              19
     1  C    0.000000
     2  C   -0.000000
     3  C   -0.000180
     4  N    0.004503
     5  C    0.001816
     6  C   -0.031810
     7  N    0.324215
     8  C   -0.025061
     9  O   -0.000605
    10  H    0.000000
    11  H    0.000000
    12  H    0.000000
    13  H    0.000003
    14  H    0.000012
    15  H    0.000001
    16  H    0.000012
    17  H    0.000225
    18  H    0.002060
    19  H    0.440904
 Mulliken charges:
               1
     1  C   -0.382349
     2  C   -0.158658
     3  C   -0.121722
     4  N   -0.214115
     5  C    0.020498
     6  C   -0.159524
     7  N   -0.367224
     8  C    0.463327
     9  O   -0.334941
    10  H    0.112834
    11  H    0.112826
    12  H    0.111139
    13  H    0.103475
    14  H    0.100480
    15  H    0.105745
    16  H    0.108865
    17  H    0.094686
    18  H    0.120752
    19  H    0.283906
 Sum of Mulliken charges =  -0.00000
 Mulliken charges with hydrogens summed into heavy atoms:
               1
     1  C   -0.045550
     2  C    0.045297
     3  C    0.092888
     4  N   -0.214115
     5  C    0.115184
     6  C   -0.038772
     7  N   -0.083318
     8  C    0.463327
     9  O   -0.334941
 Electronic spatial extent (au):  <R**2>=           1962.0371
 Charge=             -0.0000 electrons
 Dipole moment (field-independent basis, Debye):
    X=              1.8384    Y=             -2.0919    Z=              0.6066  Tot=              2.8502
 Quadrupole moment (field-independent basis, Debye-Ang):
   XX=            -60.2319   YY=            -54.2503   ZZ=            -51.2051
   XY=              5.3669   XZ=             -4.5152   YZ=              3.7916
 Traceless Quadrupole moment (field-independent basis, Debye-Ang):
   XX=             -5.0028   YY=              0.9788   ZZ=              4.0240
   XY=              5.3669   XZ=             -4.5152   YZ=              3.7916
 Octapole moment (field-independent basis, Debye-Ang**2):
  XXX=             14.2049  YYY=             -1.7501  ZZZ=              6.9757  XYY=              2.6011
  XXY=            -16.8784  XXZ=             12.6513  XZZ=             -5.8944  YZZ=              2.4619
  YYZ=              0.4268  XYZ=             -9.1487
 Hexadecapole moment (field-independent basis, Debye-Ang**3):
 XXXX=          -2322.7906 YYYY=           -201.3458 ZZZZ=           -164.3062 XXXY=             45.7842
 XXXZ=            -12.3253 YYYX=              0.7536 YYYZ=              1.9623 ZZZX=            -13.1584
 ZZZY=              2.8082 XXYY=           -414.0835 XXZZ=           -396.6739 YYZZ=            -64.4968
 XXYZ=             25.7359 YYXZ=             -3.0950 ZZXY=             -5.7780
 N-N= 4.168954560720D+02 E-N=-1.810127590937D+03  KE= 4.164378228376D+02
 PrsmSu:  requested number of processors reduced to:  13 ShMem   1 Linda.
 Calling FoFJK, ICntrl=      2127 FMM=F ISym2X=0 I1Cent= 0 IOpClX= 0 NMat=1 NMatS=1 NMatT=0.
 ***** Axes restored to original set *****
 -------------------------------------------------------------------
 Center     Atomic                   Forces (Hartrees/Bohr)
 Number     Number              X              Y              Z
 -------------------------------------------------------------------
      1        6          -0.003500422   -0.001542051   -0.003649477
      2        6          -0.005188335    0.000289107    0.000519794
      3        6           0.004307050   -0.007160914   -0.017283465
      4        7           0.005511190    0.015584072    0.031218903
      5        6          -0.007578151   -0.012719739   -0.024393326
      6        6          -0.030983255   -0.027508563    0.048161257
      7        7           0.029849438   -0.017113696   -0.034067255
      8        6          -0.006826635    0.052755998    0.002243670
      9        8           0.019485089    0.001868700   -0.017386676
     10        1          -0.002426945    0.000390589    0.000930237
     11        1          -0.002042642    0.000066615    0.000274213
     12        1          -0.002054347    0.000124991    0.000292743
     13        1           0.002318438   -0.000139269    0.001399793
     14        1           0.002383356    0.001189919    0.000907362
     15        1           0.001293208    0.000962866    0.000997407
     16        1           0.001022061    0.000195859    0.001590206
     17        1           0.005505540   -0.000677191   -0.003888616
     18        1          -0.001748767   -0.001384106    0.011555645
     19        1          -0.009325872   -0.005183188    0.000577587
 -------------------------------------------------------------------
 Cartesian Forces:  Max     0.052755998 RMS     0.014940429

 GradGradGradGradGradGradGradGradGradGradGradGradGradGradGradGradGradGrad
 Berny optimization.
 FormGI is forming the generalized inverse of G from B-inverse, IUseBI=4.
 Internal  Forces:  Max     0.045979709 RMS     0.009220531
 Search for a local minimum.
 Step number   1 out of a maximum of   94
 All quantities printed in internal units (Hartrees-Bohrs-Radians)
 Mixed Optimization -- RFO/linear search
 Second derivative matrix not updated -- first step.
 ITU=  0
     Eigenvalues ---    0.00418   0.00525   0.00721   0.01102   0.01686
     Eigenvalues ---    0.02371   0.02843   0.03201   0.03427   0.03711
     Eigenvalues ---    0.04937   0.05311   0.05653   0.05725   0.05985
     Eigenvalues ---    0.08226   0.08473   0.10770   0.12110   0.13387
     Eigenvalues ---    0.13499   0.15992   0.16000   0.16000   0.16000
     Eigenvalues ---    0.16070   0.18199   0.21896   0.21977   0.22003
     Eigenvalues ---    0.24493   0.25000   0.29769   0.30537   0.32809
     Eigenvalues ---    0.33827   0.33867   0.34061   0.34075   0.34262
     Eigenvalues ---    0.34297   0.34297   0.34300   0.35194   0.35339
     Eigenvalues ---    0.36199   0.38545   0.45771   0.54245   0.71267
     Eigenvalues ---    1.07624
 RFO step:  Lambda=-2.25612728D-02 EMin= 4.18205767D-03
 Linear search not attempted -- first point.
 Iteration  1 RMS(Cart)=  0.07455348 RMS(Int)=  0.00468483
 Iteration  2 RMS(Cart)=  0.00595610 RMS(Int)=  0.00114131
 Iteration  3 RMS(Cart)=  0.00004885 RMS(Int)=  0.00114059
 Iteration  4 RMS(Cart)=  0.00000079 RMS(Int)=  0.00114059
 Variable       Old X    -DE/DX   Delta X   Delta X   Delta X     New X
                                 (Linear)    (Quad)   (Total)
    R1        2.86905   0.01004   0.00000   0.03062   0.03062   2.89967
    R2        2.06827  -0.00012   0.00000  -0.00034  -0.00034   2.06793
    R3        2.06832   0.00082   0.00000   0.00225   0.00225   2.07057
    R4        2.06832   0.00089   0.00000   0.00243   0.00243   2.07075
    R5        2.88427   0.00310   0.00000   0.00967   0.00967   2.89394
    R6        2.07203  -0.00038   0.00000  -0.00104  -0.00104   2.07100
    R7        2.07228  -0.00042   0.00000  -0.00117  -0.00117   2.07111
    R8        2.78428   0.00289   0.00000   0.00770   0.00770   2.79198
    R9        2.07624  -0.00018   0.00000  -0.00050  -0.00050   2.07573
   R10        2.07555   0.00004   0.00000   0.00011   0.00011   2.07566
   R11        2.42999  -0.01836   0.00000  -0.02498  -0.02498   2.40502
   R12        2.78662   0.00129   0.00000   0.00344   0.00344   2.79006
   R13        2.09388  -0.00606   0.00000  -0.01728  -0.01728   2.07660
   R14        2.74962   0.02178   0.00000   0.05671   0.05565   2.80527
   R15        2.69145   0.04598   0.00000   0.11296   0.11540   2.80685
   R16        2.03771   0.01031   0.00000   0.02682   0.02682   2.06453
   R17        2.49013   0.02556   0.00000   0.03169   0.03016   2.52029
   R18        1.91091   0.00264   0.00000   0.00550   0.00550   1.91641
   R19        2.25732   0.00843   0.00000   0.00767   0.00767   2.26500
    A1        1.92517   0.00309   0.00000   0.01802   0.01792   1.94309
    A2        1.93455   0.00162   0.00000   0.00831   0.00826   1.94281
    A3        1.93496   0.00159   0.00000   0.00815   0.00810   1.94306
    A4        1.88800  -0.00225   0.00000  -0.01123  -0.01133   1.87667
    A5        1.88814  -0.00225   0.00000  -0.01128  -0.01137   1.87677
    A6        1.89158  -0.00207   0.00000  -0.01341  -0.01342   1.87816
    A7        1.94936   0.00526   0.00000   0.02435   0.02438   1.97374
    A8        1.91024   0.00005   0.00000   0.01011   0.01026   1.92050
    A9        1.91041   0.00009   0.00000   0.01020   0.01036   1.92077
   A10        1.91283  -0.00299   0.00000  -0.01926  -0.01955   1.89328
   A11        1.91434  -0.00310   0.00000  -0.02022  -0.02051   1.89383
   A12        1.86473   0.00047   0.00000  -0.00651  -0.00692   1.85781
   A13        1.87699   0.01436   0.00000   0.06358   0.06336   1.94035
   A14        1.91037  -0.00181   0.00000  -0.00076  -0.00067   1.90970
   A15        1.91113  -0.00192   0.00000  -0.00070  -0.00068   1.91045
   A16        1.93704  -0.00562   0.00000  -0.02524  -0.02578   1.91126
   A17        1.94126  -0.00539   0.00000  -0.02266  -0.02325   1.91801
   A18        1.88698   0.00035   0.00000  -0.01380  -0.01417   1.87281
   A19        1.98157   0.02044   0.00000   0.07500   0.07500   2.05657
   A20        2.11690   0.00082   0.00000   0.00372   0.00349   2.12038
   A21        2.14189   0.00260   0.00000   0.01534   0.01511   2.15700
   A22        2.02340  -0.00336   0.00000  -0.01739  -0.01763   2.00577
   A23        2.21564  -0.01680   0.00000  -0.07749  -0.07980   2.13584
   A24        2.17142   0.00016   0.00000  -0.01754  -0.01891   2.15251
   A25        1.97081   0.00150   0.00000   0.01348   0.01395   1.98475
   A26        1.90008   0.01428   0.00000   0.06403   0.06626   1.96634
   A27        2.04035   0.00049   0.00000   0.01818   0.01846   2.05882
   A28        2.34762  -0.01468   0.00000  -0.08181  -0.07685   2.27076
   A29        2.19211   0.00017   0.00000   0.01926   0.02325   2.21537
   A30        2.43777   0.03018   0.00000   0.10202   0.10034   2.53811
   A31        2.71439  -0.02508   0.00000  -0.10086  -0.09904   2.61535
    D1        3.13973   0.00004   0.00000   0.00060   0.00060   3.14033
    D2        1.01827   0.00032   0.00000   0.00195   0.00188   1.02015
    D3       -1.01998  -0.00033   0.00000  -0.00186  -0.00179  -1.02177
    D4        1.04913  -0.00020   0.00000  -0.00244  -0.00247   1.04666
    D5       -1.07233   0.00008   0.00000  -0.00109  -0.00119  -1.07352
    D6       -3.11058  -0.00057   0.00000  -0.00490  -0.00485  -3.11544
    D7       -1.05242   0.00027   0.00000   0.00350   0.00353  -1.04889
    D8        3.10931   0.00055   0.00000   0.00485   0.00480   3.11412
    D9        1.07106  -0.00010   0.00000   0.00104   0.00114   1.07220
   D10       -3.13831  -0.00011   0.00000  -0.00183  -0.00185  -3.14015
   D11        1.03890  -0.00086   0.00000  -0.00896  -0.00911   1.02979
   D12       -1.02678   0.00092   0.00000   0.00868   0.00884  -1.01794
   D13       -1.01835   0.00138   0.00000   0.01385   0.01364  -1.00470
   D14       -3.12433   0.00063   0.00000   0.00673   0.00638  -3.11795
   D15        1.09318   0.00241   0.00000   0.02436   0.02433   1.11751
   D16        1.02367  -0.00159   0.00000  -0.01702  -0.01683   1.00684
   D17       -1.08231  -0.00235   0.00000  -0.02415  -0.02410  -1.10641
   D18        3.13520  -0.00056   0.00000  -0.00651  -0.00615   3.12905
   D19        3.10289  -0.00013   0.00000  -0.00450  -0.00447   3.09842
   D20       -1.09121   0.00332   0.00000   0.01940   0.01878  -1.07243
   D21        1.01040  -0.00366   0.00000  -0.03036  -0.02978   0.98062
   D22        3.11214   0.00137   0.00000   0.03177   0.03205  -3.13899
   D23        0.02061  -0.00016   0.00000  -0.00958  -0.00985   0.01076
   D24        0.02393   0.00400   0.00000   0.00622   0.00622   0.03015
   D25        1.21958  -0.00604   0.00000  -0.06195  -0.06157   1.15801
   D26       -2.40601  -0.00104   0.00000  -0.02421  -0.02428  -2.43030
   D27        3.11870   0.00559   0.00000   0.04576   0.04556  -3.11893
   D28       -1.96884  -0.00445   0.00000  -0.02241  -0.02224  -1.99108
   D29        0.68875   0.00055   0.00000   0.01532   0.01505   0.70381
   D30       -0.06913  -0.00356   0.00000  -0.06099  -0.05844  -0.12758
   D31        2.38357  -0.00225   0.00000  -0.04525  -0.04434   2.33923
   D32        1.00898   0.00293   0.00000   0.02804   0.02542   1.03440
   D33       -1.63127  -0.00250   0.00000  -0.00937  -0.01164  -1.64291
   D34       -0.71055  -0.00256   0.00000  -0.05297  -0.05727  -0.76782
         Item               Value     Threshold  Converged?
 Maximum Force            0.045980     0.000450     NO 
 RMS     Force            0.009221     0.000300     NO 
 Maximum Displacement     0.412338     0.001800     NO 
 RMS     Displacement     0.077599     0.001200     NO 
 Predicted change in Energy=-1.227071D-02
 GradGradGradGradGradGradGradGradGradGradGradGradGradGradGradGradGradGrad

                          Input orientation:                          
 ---------------------------------------------------------------------
 Center     Atomic      Atomic             Coordinates (Angstroms)
 Number     Number       Type             X           Y           Z
 ---------------------------------------------------------------------
      1          6           0        1.050706   -0.090157   -0.048540
      2          6           0        2.584327   -0.076442   -0.000303
      3          6           0        3.138807    0.475562    1.316151
      4          7           0        4.616252    0.471452    1.316378
      5          6           0        5.211639    0.950425    2.334126
      6          6           0        6.685169    0.989495    2.418088
      7          7           0        7.557091    0.511963    1.315633
      8          6           0        7.531230    1.827929    1.530742
      9          8           0        7.774828    2.942930    1.164629
     10          1           0        0.685940   -0.488059   -1.000442
     11          1           0        0.639573    0.918950    0.066493
     12          1           0        0.632335   -0.711742    0.751057
     13          1           0        2.980534    0.527554   -0.824475
     14          1           0        2.973897   -1.090753   -0.143798
     15          1           0        2.770190   -0.134410    2.151977
     16          1           0        2.767867    1.498008    1.469361
     17          1           0        4.686986    1.355076    3.210797
     18          1           0        7.076038    0.732475    3.405371
     19          1           0        7.318300    0.030284    0.455747
 ---------------------------------------------------------------------
                    Distance matrix (angstroms):
                    1          2          3          4          5
     1  C    0.000000
     2  C    1.534441   0.000000
     3  C    2.557847   1.531407   0.000000
     4  N    3.858954   2.482450   1.477451   0.000000
     5  C    4.906452   3.661528   2.357627   1.272679   0.000000
     6  C    6.244764   4.878703   3.749010   2.400531   1.476437
     7  N    6.675070   5.177479   4.418434   2.941117   2.594363
     8  C    6.940489   5.517480   4.600906   3.222278   2.606903
     9  O    7.475641   6.116778   5.253909   4.013456   3.450759
    10  H    1.094303   2.184853   3.508807   4.662153   5.802632
    11  H    1.095700   2.185712   2.829207   4.192427   5.103621
    12  H    1.095791   2.185960   2.830446   4.194179   5.122396
    13  H    2.169764   1.095925   2.147098   2.694804   3.890169
    14  H    2.170008   1.095985   2.147554   2.696281   3.913312
    15  H    2.793002   2.161068   1.098431   2.115004   2.677820
    16  H    2.788357   2.161595   1.098393   2.119846   2.649469
    17  H    5.092593   4.096533   2.600017   2.091559   1.098889
    18  H    6.993629   5.694596   4.464598   3.237680   2.161261
    19  H    6.289002   4.757086   4.290307   2.869909   2.968668
                    6          7          8          9         10
     6  C    0.000000
     7  N    1.484484   0.000000
     8  C    1.485320   1.333682   0.000000
     9  O    2.564064   2.445365   1.198585   0.000000
    10  H    7.061180   7.319629   7.656938   8.167714   0.000000
    11  H    6.487234   7.041168   7.103887   7.497617   1.766402
    12  H    6.504614   7.054676   7.392740   8.033859   1.766538
    13  H    4.944888   5.052245   5.286479   5.725018   2.515472
    14  H    4.966309   5.069941   5.664987   6.405585   2.516313
    15  H    4.081793   4.902213   5.186927   5.957456   3.795645
    16  H    4.062501   4.892093   4.775169   5.220183   3.791941
    17  H    2.180544   3.541185   3.337050   4.030242   6.094264
    18  H    1.092504   2.155699   2.218434   3.224180   7.857115
    19  H    2.274143   1.014121   2.105346   3.032233   6.810093
                   11         12         13         14         15
    11  H    0.000000
    12  H    1.768570   0.000000
    13  H    2.535176   3.087426   0.000000
    14  H    3.087426   2.535218   1.755643   0.000000
    15  H    3.162016   2.620366   3.056421   2.495331   0.000000
    16  H    2.613998   3.155861   2.499738   3.057191   1.769396
    17  H    5.143774   5.173225   4.458721   4.491110   2.648353
    18  H    7.253342   7.117054   5.891243   5.722615   4.567583
    19  H    6.748825   6.733494   4.549995   4.526590   4.856916
                   16         17         18         19
    16  H    0.000000
    17  H    2.595389   0.000000
    18  H    4.784821   2.476502   0.000000
    19  H    4.887542   4.033509   3.041717   0.000000
 Stoichiometry    C6H10N2O
 Framework group  C1[X(C6H10N2O)]
 Deg. of freedom    51
 Full point group                 C1      NOp   1
 Largest Abelian subgroup         C1      NOp   1
 Largest concise Abelian subgroup C1      NOp   1
                         Standard orientation:                         
 ---------------------------------------------------------------------
 Center     Atomic      Atomic             Coordinates (Angstroms)
 Number     Number       Type             X           Y           Z
 ---------------------------------------------------------------------
      1          6           0        4.191830    0.396415   -0.105705
      2          6           0        2.747593    0.500712    0.402047
      3          6           0        1.778242   -0.413663   -0.352593
      4          7           0        0.402216   -0.278406    0.168097
      5          6           0       -0.517426   -0.948316   -0.402160
      6          6           0       -1.920878   -0.871533    0.049827
      7          7           0       -2.350315    0.011966    1.162798
      8          6           0       -2.748411    0.356778   -0.062491
      9          8           0       -3.210030    1.170644   -0.811580
     10          1           0        4.858684    1.061451    0.451548
     11          1           0        4.262512    0.669743   -1.164410
     12          1           0        4.578807   -0.623309   -0.000016
     13          1           0        2.391793    1.533407    0.312618
     14          1           0        2.704882    0.249038    1.467889
     15          1           0        2.107406   -1.456823   -0.252500
     16          1           0        1.799095   -0.165712   -1.422431
     17          1           0       -0.340262   -1.624947   -1.249710
     18          1           0       -2.433936   -1.836052    0.056058
     19          1           0       -1.797749    0.570774    1.803770
 ---------------------------------------------------------------------
 Rotational constants (GHZ):           4.5763773           0.5887625           0.5755602
 Standard basis: 6-31G(2df,p) (6D, 7F)
 There are   329 symmetry adapted cartesian basis functions of A   symmetry.
 There are   302 symmetry adapted basis functions of A   symmetry.
   302 basis functions,   466 primitive gaussians,   329 cartesian basis functions
    34 alpha electrons       34 beta electrons
       nuclear repulsion energy       413.7644292668 Hartrees.
 NAtoms=   19 NActive=   19 NUniq=   19 SFac= 1.00D+00 NAtFMM=   60 NAOKFM=F Big=F
 Integral buffers will be    131072 words long.
 Raffenetti 2 integral format.
 Two-electron integral symmetry is turned on.
 One-electron integrals computed using PRISM.
 PrsmSu:  requested number of processors reduced to:  13 ShMem   1 Linda.
 NBasis=   302 RedAO= T EigKep=  2.60D-04  NBF=   302
 NBsUse=   302 1.00D-06 EigRej= -1.00D+00 NBFU=   302
 Initial guess from the checkpoint file:  "CCCNdCC1NC1dO.chk"
 B after Tr=     0.000000   -0.000000   -0.000000
         Rot=    0.996011    0.089190   -0.002613    0.000091 Ang=  10.24 deg.
 ExpMin= 1.61D-01 ExpMax= 5.48D+03 ExpMxC= 8.25D+02 IAcc=2 IRadAn=         4 AccDes= 0.00D+00
 Harris functional with IExCor=  402 and IRadAn=       4 diagonalized for initial guess.
 HarFok:  IExCor=  402 AccDes= 0.00D+00 IRadAn=         4 IDoV= 1 UseB2=F ITyADJ=14
 ICtDFT=  3500011 ScaDFX=  1.000000  1.000000  1.000000  1.000000
 FoFCou: FMM=F IPFlag=           0 FMFlag=      100000 FMFlg1=           0
         NFxFlg=           0 DoJE=T BraDBF=F KetDBF=T FulRan=T
         wScrn=  0.000000 ICntrl=       500 IOpCl=  0 I1Cent=   200000004 NGrid=           0
         NMat0=    1 NMatS0=      1 NMatT0=    0 NMatD0=    1 NMtDS0=    0 NMtDT0=    0
 Petite list used in FoFCou.
 Requested convergence on RMS density matrix=1.00D-08 within 128 cycles.
 Requested convergence on MAX density matrix=1.00D-06.
 Requested convergence on             energy=1.00D-06.
 No special actions if energy rises.
 Integral accuracy reduced to 1.0D-05 until final iterations.
 Initial convergence to 1.0D-05 achieved.  Increase integral accuracy.
 SCF Done:  E(RB3LYP) =  -419.340494127     A.U. after   13 cycles
            NFock= 13  Conv=0.88D-08     -V/T= 2.0077
 PrsmSu:  requested number of processors reduced to:  13 ShMem   1 Linda.
 Calling FoFJK, ICntrl=      2127 FMM=F ISym2X=0 I1Cent= 0 IOpClX= 0 NMat=1 NMatS=1 NMatT=0.
 ***** Axes restored to original set *****
 -------------------------------------------------------------------
 Center     Atomic                   Forces (Hartrees/Bohr)
 Number     Number              X              Y              Z
 -------------------------------------------------------------------
      1        6           0.002025406    0.000325846    0.000824329
      2        6          -0.000137735    0.000227627    0.000387965
      3        6           0.004592018   -0.001345711   -0.002211154
      4        7          -0.001375495    0.003588125    0.005237534
      5        6          -0.005991688   -0.001771643   -0.012895624
      6        6          -0.001199195   -0.009149485    0.019228861
      7        7           0.016245331   -0.003341579   -0.008696103
      8        6          -0.015385164    0.022994649   -0.004668796
      9        8           0.008384927   -0.009871512   -0.002203372
     10        1           0.000660747    0.000053641    0.000139905
     11        1          -0.000083066    0.000060131    0.000203832
     12        1          -0.000080533    0.000113737    0.000192518
     13        1           0.000238783   -0.000182254   -0.000292119
     14        1           0.000282590   -0.000065881   -0.000328117
     15        1          -0.000228844    0.000318123    0.000970542
     16        1          -0.000001972    0.000474754    0.001069392
     17        1          -0.000062287    0.000239731    0.001073999
     18        1          -0.001148094   -0.001981104   -0.000733479
     19        1          -0.006735727   -0.000687194    0.002699886
 -------------------------------------------------------------------
 Cartesian Forces:  Max     0.022994649 RMS     0.006083369

 GradGradGradGradGradGradGradGradGradGradGradGradGradGradGradGradGradGrad
 Berny optimization.
 Using GEDIIS/GDIIS optimizer.
 FormGI is forming the generalized inverse of G from B-inverse, IUseBI=4.
 Internal  Forces:  Max     0.010833795 RMS     0.003075665
 Search for a local minimum.
 Step number   2 out of a maximum of   94
 All quantities printed in internal units (Hartrees-Bohrs-Radians)
 Mixed Optimization -- RFO/linear search
 Update second derivatives using D2CorX and points    1    2
 DE= -1.37D-02 DEPred=-1.23D-02 R= 1.12D+00
 TightC=F SS=  1.41D+00  RLast= 3.05D-01 DXNew= 5.0454D-01 9.1634D-01
 Trust test= 1.12D+00 RLast= 3.05D-01 DXMaxT set to 5.05D-01
 ITU=  1  0
 Use linear search instead of GDIIS.
     Eigenvalues ---    0.00418   0.00525   0.00721   0.01101   0.01709
     Eigenvalues ---    0.02267   0.02813   0.03206   0.03551   0.03575
     Eigenvalues ---    0.04884   0.04903   0.05570   0.05573   0.05906
     Eigenvalues ---    0.07809   0.08510   0.11235   0.12284   0.13329
     Eigenvalues ---    0.13800   0.14869   0.16000   0.16000   0.16012
     Eigenvalues ---    0.16069   0.19031   0.21706   0.21941   0.22242
     Eigenvalues ---    0.23358   0.25982   0.29843   0.31041   0.32926
     Eigenvalues ---    0.33827   0.33866   0.34061   0.34076   0.34294
     Eigenvalues ---    0.34297   0.34300   0.34673   0.35168   0.35294
     Eigenvalues ---    0.36446   0.39404   0.45806   0.53088   0.70514
     Eigenvalues ---    1.08783
 RFO step:  Lambda=-4.75217680D-03 EMin= 4.18206432D-03
 Quartic linear search produced a step of  0.34088.
 Iteration  1 RMS(Cart)=  0.08130384 RMS(Int)=  0.00356658
 Iteration  2 RMS(Cart)=  0.00495768 RMS(Int)=  0.00075737
 Iteration  3 RMS(Cart)=  0.00002490 RMS(Int)=  0.00075716
 Iteration  4 RMS(Cart)=  0.00000005 RMS(Int)=  0.00075716
 Variable       Old X    -DE/DX   Delta X   Delta X   Delta X     New X
                                 (Linear)    (Quad)   (Total)
    R1        2.89967  -0.00257   0.01044  -0.01589  -0.00545   2.89422
    R2        2.06793  -0.00036  -0.00011  -0.00133  -0.00145   2.06649
    R3        2.07057   0.00011   0.00077   0.00006   0.00083   2.07140
    R4        2.07075   0.00011   0.00083   0.00003   0.00085   2.07160
    R5        2.89394  -0.00221   0.00330  -0.01129  -0.00799   2.88594
    R6        2.07100   0.00021  -0.00035   0.00096   0.00060   2.07160
    R7        2.07111   0.00020  -0.00040   0.00097   0.00058   2.07169
    R8        2.79198  -0.00727   0.00262  -0.02828  -0.02566   2.76632
    R9        2.07573   0.00064  -0.00017   0.00256   0.00239   2.07812
   R10        2.07566   0.00059   0.00004   0.00228   0.00232   2.07798
   R11        2.40502  -0.00905  -0.00851  -0.01293  -0.02144   2.38357
   R12        2.79006   0.00043   0.00117   0.00106   0.00223   2.79229
   R13        2.07660   0.00097  -0.00589   0.00663   0.00074   2.07734
   R14        2.80527   0.00342   0.01897   0.00914   0.02871   2.83398
   R15        2.80685   0.00975   0.03934   0.01629   0.05622   2.86307
   R16        2.06453  -0.00061   0.00914  -0.00643   0.00271   2.06724
   R17        2.52029   0.00634   0.01028   0.00189   0.01083   2.53113
   R18        1.91641  -0.00038   0.00187  -0.00195  -0.00008   1.91633
   R19        2.26500  -0.00681   0.00262  -0.00959  -0.00698   2.25802
    A1        1.94309  -0.00082   0.00611  -0.00959  -0.00351   1.93957
    A2        1.94281   0.00017   0.00281   0.00010   0.00290   1.94571
    A3        1.94306   0.00017   0.00276   0.00012   0.00286   1.94592
    A4        1.87667   0.00034  -0.00386   0.00451   0.00062   1.87729
    A5        1.87677   0.00034  -0.00388   0.00457   0.00066   1.87743
    A6        1.87816  -0.00017  -0.00457   0.00091  -0.00367   1.87449
    A7        1.97374  -0.00215   0.00831  -0.01671  -0.00838   1.96536
    A8        1.92050   0.00067   0.00350   0.00253   0.00607   1.92657
    A9        1.92077   0.00070   0.00353   0.00265   0.00623   1.92700
   A10        1.89328   0.00072  -0.00667   0.00718   0.00043   1.89371
   A11        1.89383   0.00068  -0.00699   0.00685  -0.00022   1.89361
   A12        1.85781  -0.00053  -0.00236  -0.00153  -0.00405   1.85376
   A13        1.94035  -0.00208   0.02160  -0.02194  -0.00041   1.93994
   A14        1.90970   0.00109  -0.00023   0.00982   0.00961   1.91930
   A15        1.91045   0.00124  -0.00023   0.01037   0.01014   1.92059
   A16        1.91126   0.00045  -0.00879   0.00539  -0.00359   1.90766
   A17        1.91801   0.00025  -0.00793   0.00205  -0.00609   1.91192
   A18        1.87281  -0.00089  -0.00483  -0.00500  -0.01002   1.86280
   A19        2.05657  -0.00018   0.02557  -0.01285   0.01272   2.06929
   A20        2.12038  -0.00257   0.00119  -0.01578  -0.01469   2.10570
   A21        2.15700   0.00176   0.00515   0.00915   0.01420   2.17120
   A22        2.00577   0.00081  -0.00601   0.00662   0.00051   2.00628
   A23        2.13584  -0.00572  -0.02720  -0.01977  -0.04655   2.08930
   A24        2.15251  -0.00661  -0.00645  -0.05471  -0.06344   2.08908
   A25        1.98475   0.00321   0.00475   0.02476   0.02978   2.01454
   A26        1.96634   0.00262   0.02258  -0.02066   0.00053   1.96687
   A27        2.05882   0.00422   0.00629   0.05050   0.05708   2.11589
   A28        2.27076  -0.00405  -0.02620  -0.05212  -0.08141   2.18936
   A29        2.21537  -0.00358   0.00793  -0.00723   0.00085   2.21622
   A30        2.53811   0.01083   0.03421   0.05040   0.08376   2.62187
   A31        2.61535  -0.00842  -0.03376  -0.03019  -0.06610   2.54925
    D1        3.14033   0.00001   0.00020   0.00045   0.00066   3.14099
    D2        1.02015   0.00008   0.00064   0.00089   0.00151   1.02167
    D3       -1.02177  -0.00009  -0.00061  -0.00033  -0.00093  -1.02270
    D4        1.04666   0.00002  -0.00084   0.00114   0.00030   1.04696
    D5       -1.07352   0.00009  -0.00040   0.00158   0.00115  -1.07237
    D6       -3.11544  -0.00008  -0.00165   0.00036  -0.00129  -3.11673
    D7       -1.04889   0.00001   0.00120  -0.00016   0.00105  -1.04784
    D8        3.11412   0.00008   0.00164   0.00028   0.00191   3.11602
    D9        1.07220  -0.00009   0.00039  -0.00094  -0.00054   1.07166
   D10       -3.14015   0.00004  -0.00063   0.00002  -0.00061  -3.14077
   D11        1.02979   0.00010  -0.00311   0.00090  -0.00225   1.02753
   D12       -1.01794  -0.00017   0.00301  -0.00477  -0.00171  -1.01965
   D13       -1.00470  -0.00002   0.00465  -0.00273   0.00186  -1.00285
   D14       -3.11795   0.00004   0.00217  -0.00185   0.00022  -3.11773
   D15        1.11751  -0.00023   0.00829  -0.00752   0.00076   1.11827
   D16        1.00684   0.00010  -0.00574   0.00286  -0.00281   1.00403
   D17       -1.10641   0.00016  -0.00822   0.00374  -0.00445  -1.11086
   D18        3.12905  -0.00011  -0.00210  -0.00192  -0.00391   3.12514
   D19        3.09842  -0.00013  -0.00152  -0.01573  -0.01724   3.08118
   D20       -1.07243   0.00018   0.00640  -0.01403  -0.00787  -1.08031
   D21        0.98062  -0.00049  -0.01015  -0.01570  -0.02562   0.95500
   D22       -3.13899  -0.00039   0.01093  -0.01931  -0.00825   3.13594
   D23        0.01076  -0.00047  -0.00336  -0.01589  -0.01938  -0.00862
   D24        0.03015   0.00170   0.00212  -0.02562  -0.02531   0.00484
   D25        1.15801  -0.00311  -0.02099  -0.06018  -0.07939   1.07861
   D26       -2.43030   0.00023  -0.00828   0.00445  -0.00365  -2.43394
   D27       -3.11893   0.00177   0.01553  -0.02874  -0.01512  -3.13405
   D28       -1.99108  -0.00303  -0.00758  -0.06330  -0.06920  -2.06028
   D29        0.70381   0.00030   0.00513   0.00133   0.00655   0.71035
   D30       -0.12758  -0.00270  -0.01992  -0.06259  -0.08211  -0.20968
   D31        2.33923  -0.00099  -0.01512  -0.07667  -0.09241   2.24681
   D32        1.03440   0.00057   0.00867   0.06714   0.07658   1.11097
   D33       -1.64291  -0.00250  -0.00397   0.00755   0.00522  -1.63769
   D34       -0.76782  -0.00753  -0.01952  -0.17413  -0.19118  -0.95900
         Item               Value     Threshold  Converged?
 Maximum Force            0.010834     0.000450     NO 
 RMS     Force            0.003076     0.000300     NO 
 Maximum Displacement     0.358530     0.001800     NO 
 RMS     Displacement     0.082737     0.001200     NO 
 Predicted change in Energy=-3.092552D-03
 GradGradGradGradGradGradGradGradGradGradGradGradGradGradGradGradGradGrad

                          Input orientation:                          
 ---------------------------------------------------------------------
 Center     Atomic      Atomic             Coordinates (Angstroms)
 Number     Number       Type             X           Y           Z
 ---------------------------------------------------------------------
      1          6           0        1.102279   -0.084730   -0.062678
      2          6           0        2.632082   -0.042271   -0.002967
      3          6           0        3.153276    0.467691    1.338884
      4          7           0        4.616707    0.496289    1.360734
      5          6           0        5.195668    0.958274    2.381682
      6          6           0        6.670766    1.002417    2.455775
      7          7           0        7.488178    0.498895    1.303676
      8          6           0        7.448247    1.829441    1.452285
      9          8           0        7.726005    2.889028    0.974904
     10          1           0        0.755690   -0.452263   -1.032534
     11          1           0        0.666904    0.909744    0.088941
     12          1           0        0.688388   -0.744845    0.708484
     13          1           0        3.027490    0.601649   -0.797178
     14          1           0        3.049489   -1.040110   -0.181683
     15          1           0        2.790135   -0.177055    2.152372
     16          1           0        2.762634    1.476482    1.536122
     17          1           0        4.674924    1.353553    3.265423
     18          1           0        7.100430    0.736749    3.426089
     19          1           0        7.132420   -0.038397    0.520660
 ---------------------------------------------------------------------
                    Distance matrix (angstroms):
                    1          2          3          4          5
     1  C    0.000000
     2  C    1.531558   0.000000
     3  C    2.544825   1.527176   0.000000
     4  N    3.836000   2.467481   1.463873   0.000000
     5  C    4.880429   3.641374   2.345093   1.261332   0.000000
     6  C    6.207459   4.842287   3.729090   2.382108   1.477617
     7  N    6.556466   5.057849   4.335157   2.872039   2.574631
     8  C    6.799300   5.368100   4.507106   3.131021   2.587822
     9  O    7.334410   5.957918   5.187023   3.942309   3.479863
    10  H    1.093537   2.179209   3.495476   4.640574   5.775801
    11  H    1.096138   2.185568   2.817768   4.170053   5.076290
    12  H    1.096243   2.185800   2.818389   4.171035   5.100566
    13  H    2.171876   1.096244   2.143952   2.682032   3.864367
    14  H    2.172221   1.096290   2.143912   2.682488   3.894927
    15  H    2.786365   2.165325   1.099696   2.101535   2.669858
    16  H    2.783941   2.166206   1.099619   2.104548   2.627387
    17  H    5.090060   4.099256   2.609926   2.089529   1.099281
    18  H    6.987428   5.686073   4.473124   3.239196   2.183570
    19  H    6.058468   4.530700   4.093801   2.705629   2.864920
                    6          7          8          9         10
     6  C    0.000000
     7  N    1.499676   0.000000
     8  C    1.515070   1.339415   0.000000
     9  O    2.620269   2.424332   1.194892   0.000000
    10  H    7.019438   7.189504   7.494719   7.986196   0.000000
    11  H    6.454211   6.940760   6.977905   7.384673   1.766537
    12  H    6.472618   6.938175   7.271580   7.924901   1.766713
    13  H    4.900590   4.931722   5.109858   5.518009   2.515392
    14  H    4.923590   4.927147   5.500295   6.216560   2.516153
    15  H    4.067248   4.821701   5.119976   5.928753   3.789238
    16  H    4.042770   4.831197   4.699635   5.190886   3.787595
    17  H    2.182249   3.534585   3.347426   4.112573   6.090468
    18  H    1.093938   2.170613   2.282729   3.321439   7.845304
    19  H    2.245236   1.014080   2.111040   3.021340   6.576198
                   11         12         13         14         15
    11  H    0.000000
    12  H    1.766907   0.000000
    13  H    2.540176   3.090544   0.000000
    14  H    3.090612   2.540547   1.753479   0.000000
    15  H    3.153885   2.612381   3.059831   2.501987   0.000000
    16  H    2.609140   3.149885   2.505947   3.060453   1.764853
    17  H    5.133345   5.180123   4.447935   4.500467   2.670969
    18  H    7.249603   7.120026   5.868823   5.708184   4.586506
    19  H    6.548912   6.485360   4.358533   4.262281   4.640814
                   16         17         18         19
    16  H    0.000000
    17  H    2.581171   0.000000
    18  H    4.789118   2.507856   0.000000
    19  H    4.735087   3.938342   3.007223   0.000000
 Stoichiometry    C6H10N2O
 Framework group  C1[X(C6H10N2O)]
 Deg. of freedom    51
 Full point group                 C1      NOp   1
 Largest Abelian subgroup         C1      NOp   1
 Largest concise Abelian subgroup C1      NOp   1
                         Standard orientation:                         
 ---------------------------------------------------------------------
 Center     Atomic      Atomic             Coordinates (Angstroms)
 Number     Number       Type             X           Y           Z
 ---------------------------------------------------------------------
      1          6           0        4.129388    0.423200   -0.091064
      2          6           0        2.675903    0.536749    0.378143
      3          6           0        1.751472   -0.451129   -0.330231
      4          7           0        0.372163   -0.314649    0.140730
      5          6           0       -0.522494   -1.019973   -0.400625
      6          6           0       -1.928519   -0.924453    0.043585
      7          7           0       -2.297240    0.024671    1.144600
      8          6           0       -2.669831    0.390208   -0.088928
      9          8           0       -3.125443    1.259862   -0.770020
     10          1           0        4.769124    1.140611    0.430360
     11          1           0        4.220698    0.618756   -1.165745
     12          1           0        4.534620   -0.578159    0.095527
     13          1           0        2.297558    1.551299    0.206988
     14          1           0        2.608244    0.363037    1.458466
     15          1           0        2.095713   -1.480505   -0.153554
     16          1           0        1.786987   -0.287616   -1.417045
     17          1           0       -0.341448   -1.733999   -1.216595
     18          1           0       -2.466316   -1.874890    0.107953
     19          1           0       -1.641608    0.504804    1.751212
 ---------------------------------------------------------------------
 Rotational constants (GHZ):           4.3348193           0.6132569           0.5915034
 Standard basis: 6-31G(2df,p) (6D, 7F)
 There are   329 symmetry adapted cartesian basis functions of A   symmetry.
 There are   302 symmetry adapted basis functions of A   symmetry.
   302 basis functions,   466 primitive gaussians,   329 cartesian basis functions
    34 alpha electrons       34 beta electrons
       nuclear repulsion energy       415.7845582130 Hartrees.
 NAtoms=   19 NActive=   19 NUniq=   19 SFac= 1.00D+00 NAtFMM=   60 NAOKFM=F Big=F
 Integral buffers will be    131072 words long.
 Raffenetti 2 integral format.
 Two-electron integral symmetry is turned on.
 One-electron integrals computed using PRISM.
 PrsmSu:  requested number of processors reduced to:  13 ShMem   1 Linda.
 NBasis=   302 RedAO= T EigKep=  2.60D-04  NBF=   302
 NBsUse=   302 1.00D-06 EigRej= -1.00D+00 NBFU=   302
 Initial guess from the checkpoint file:  "CCCNdCC1NC1dO.chk"
 B after Tr=    -0.000000   -0.000000    0.000000
         Rot=    0.999992    0.003601    0.000219    0.001490 Ang=   0.45 deg.
 ExpMin= 1.61D-01 ExpMax= 5.48D+03 ExpMxC= 8.25D+02 IAcc=2 IRadAn=         4 AccDes= 0.00D+00
 Harris functional with IExCor=  402 and IRadAn=       4 diagonalized for initial guess.
 HarFok:  IExCor=  402 AccDes= 0.00D+00 IRadAn=         4 IDoV= 1 UseB2=F ITyADJ=14
 ICtDFT=  3500011 ScaDFX=  1.000000  1.000000  1.000000  1.000000
 FoFCou: FMM=F IPFlag=           0 FMFlag=      100000 FMFlg1=           0
         NFxFlg=           0 DoJE=T BraDBF=F KetDBF=T FulRan=T
         wScrn=  0.000000 ICntrl=       500 IOpCl=  0 I1Cent=   200000004 NGrid=           0
         NMat0=    1 NMatS0=      1 NMatT0=    0 NMatD0=    1 NMtDS0=    0 NMtDT0=    0
 Petite list used in FoFCou.
 Requested convergence on RMS density matrix=1.00D-08 within 128 cycles.
 Requested convergence on MAX density matrix=1.00D-06.
 Requested convergence on             energy=1.00D-06.
 No special actions if energy rises.
 Integral accuracy reduced to 1.0D-05 until final iterations.
 Initial convergence to 1.0D-05 achieved.  Increase integral accuracy.
 SCF Done:  E(RB3LYP) =  -419.344092432     A.U. after   13 cycles
            NFock= 13  Conv=0.48D-08     -V/T= 2.0076
 PrsmSu:  requested number of processors reduced to:  13 ShMem   1 Linda.
 Calling FoFJK, ICntrl=      2127 FMM=F ISym2X=0 I1Cent= 0 IOpClX= 0 NMat=1 NMatS=1 NMatT=0.
 ***** Axes restored to original set *****
 -------------------------------------------------------------------
 Center     Atomic                   Forces (Hartrees/Bohr)
 Number     Number              X              Y              Z
 -------------------------------------------------------------------
      1        6           0.000515665   -0.000056036   -0.000136418
      2        6          -0.000647168    0.000297474    0.000572384
      3        6           0.001174089    0.000972196    0.000449349
      4        7          -0.003358139   -0.003135731   -0.004665827
      5        6           0.002804676    0.002609309    0.000848359
      6        6           0.008219312   -0.001484158    0.003069703
      7        7           0.006261769   -0.001683239    0.000682320
      8        6          -0.006436509    0.002864337   -0.002545298
      9        8           0.000776438   -0.003750463    0.003473400
     10        1          -0.000092317   -0.000073431   -0.000179671
     11        1           0.000354229   -0.000049475   -0.000022497
     12        1           0.000347536    0.000033491   -0.000042706
     13        1          -0.000278391    0.000003724   -0.000159784
     14        1          -0.000239971   -0.000127167   -0.000124516
     15        1          -0.000624902   -0.000173446   -0.000314933
     16        1          -0.001079783   -0.000058235   -0.000021117
     17        1          -0.001263429   -0.000289222    0.000723439
     18        1          -0.001533437    0.002859256   -0.002077382
     19        1          -0.004899669    0.001240817    0.000471194
 -------------------------------------------------------------------
 Cartesian Forces:  Max     0.008219312 RMS     0.002337539

 GradGradGradGradGradGradGradGradGradGradGradGradGradGradGradGradGradGrad
 Berny optimization.
 Using GEDIIS/GDIIS optimizer.
 FormGI is forming the generalized inverse of G from B-inverse, IUseBI=4.
 Internal  Forces:  Max     0.006430562 RMS     0.001541226
 Search for a local minimum.
 Step number   3 out of a maximum of   94
 All quantities printed in internal units (Hartrees-Bohrs-Radians)
 Mixed Optimization -- RFO/linear search
 Update second derivatives using D2CorX and points    1    2    3
 DE= -3.60D-03 DEPred=-3.09D-03 R= 1.16D+00
 TightC=F SS=  1.41D+00  RLast= 3.26D-01 DXNew= 8.4853D-01 9.7735D-01
 Trust test= 1.16D+00 RLast= 3.26D-01 DXMaxT set to 8.49D-01
 ITU=  1  1  0
 Use linear search instead of GDIIS.
     Eigenvalues ---    0.00418   0.00525   0.00718   0.01090   0.01708
     Eigenvalues ---    0.01909   0.03001   0.03228   0.03607   0.03636
     Eigenvalues ---    0.04852   0.04900   0.05547   0.05579   0.05788
     Eigenvalues ---    0.06541   0.08448   0.11412   0.12234   0.12879
     Eigenvalues ---    0.13816   0.14252   0.16000   0.16000   0.16038
     Eigenvalues ---    0.16096   0.19332   0.21917   0.22049   0.22904
     Eigenvalues ---    0.24330   0.25962   0.29870   0.31050   0.32933
     Eigenvalues ---    0.33829   0.33865   0.34061   0.34076   0.34297
     Eigenvalues ---    0.34298   0.34302   0.34925   0.35152   0.36302
     Eigenvalues ---    0.36551   0.41977   0.45810   0.53457   0.73651
     Eigenvalues ---    1.08897
 RFO step:  Lambda=-1.16192662D-03 EMin= 4.18193437D-03
 Quartic linear search produced a step of  0.14689.
 Iteration  1 RMS(Cart)=  0.04484562 RMS(Int)=  0.00130904
 Iteration  2 RMS(Cart)=  0.00138455 RMS(Int)=  0.00035282
 Iteration  3 RMS(Cart)=  0.00000227 RMS(Int)=  0.00035282
 Iteration  4 RMS(Cart)=  0.00000000 RMS(Int)=  0.00035282
 Variable       Old X    -DE/DX   Delta X   Delta X   Delta X     New X
                                 (Linear)    (Quad)   (Total)
    R1        2.89422  -0.00110  -0.00080  -0.00229  -0.00309   2.89113
    R2        2.06649   0.00021  -0.00021   0.00064   0.00043   2.06692
    R3        2.07140  -0.00019   0.00012  -0.00046  -0.00034   2.07106
    R4        2.07160  -0.00018   0.00013  -0.00043  -0.00030   2.07130
    R5        2.88594   0.00009  -0.00117   0.00075  -0.00043   2.88552
    R6        2.07160   0.00002   0.00009   0.00001   0.00010   2.07170
    R7        2.07169   0.00004   0.00008   0.00009   0.00017   2.07186
    R8        2.76632   0.00056  -0.00377   0.00167  -0.00210   2.76422
    R9        2.07812   0.00008   0.00035   0.00027   0.00062   2.07874
   R10        2.07798   0.00033   0.00034   0.00113   0.00148   2.07945
   R11        2.38357   0.00643  -0.00315   0.00812   0.00497   2.38854
   R12        2.79229   0.00254   0.00033   0.00833   0.00866   2.80095
   R13        2.07734   0.00108   0.00011   0.00263   0.00274   2.08008
   R14        2.83398  -0.00140   0.00422   0.00230   0.00697   2.84095
   R15        2.86307  -0.00399   0.00826  -0.00432   0.00373   2.86680
   R16        2.06724  -0.00314   0.00040  -0.00801  -0.00761   2.05963
   R17        2.53113   0.00156   0.00159   0.00457   0.00588   2.53701
   R18        1.91633   0.00070  -0.00001   0.00204   0.00203   1.91836
   R19        2.25802  -0.00453  -0.00103  -0.00442  -0.00545   2.25257
    A1        1.93957   0.00019  -0.00052   0.00274   0.00223   1.94180
    A2        1.94571  -0.00038   0.00043  -0.00224  -0.00182   1.94389
    A3        1.94592  -0.00037   0.00042  -0.00222  -0.00180   1.94412
    A4        1.87729   0.00013   0.00009   0.00053   0.00062   1.87791
    A5        1.87743   0.00013   0.00010   0.00052   0.00062   1.87805
    A6        1.87449   0.00034  -0.00054   0.00079   0.00024   1.87474
[...]
 46,0.48856529,-0.00051365,-0.00005364,0.00014602,0.00106419,0.00018578
 ,-0.00206485,-0.02860189,-0.07644188,0.00437026,0.19447854,0.45358378,
 -0.00094926,0.00140085,-0.00733999,-0.03975978,-0.00584085,-0.00106366
 ,-0.01457317,0.00391626,-0.07728477,0.14448784,0.27678008,0.31868027,0
 .00008012,0.00008123,-0.00126884,-0.00260905,-0.00154301,0.00264298,-0
 .03903377,-0.03912476,-0.02918448,-0.18356768,-0.11750087,-0.08958536,
 0.61879207,0.00028759,0.00058968,0.00053227,0.00196422,0.00001062,0.00
 182183,-0.00585860,-0.01554476,-0.01457745,-0.16820739,-0.35623128,-0.
 23547546,0.08100819,0.58561727,-0.00000034,0.00010216,0.00029719,-0.00
 036296,-0.00052523,0.00039562,-0.00310526,-0.01281789,-0.00780747,-0.1
 2891476,-0.23762745,-0.23678073,0.04762519,0.34054366,0.43900931,0.000
 05435,0.00008650,-0.00081699,-0.00158458,-0.00028945,0.00083760,0.0060
 3396,0.00231088,-0.00150420,-0.03764126,-0.03034863,-0.02202456,-0.203
 22507,-0.01312003,0.00445346,0.48018189,0.00011777,0.00012947,-0.00109
 930,-0.00259203,-0.00056433,0.00105170,0.00196746,0.00337467,-0.009120
 93,-0.03476056,-0.01294976,-0.00513074,0.00044506,-0.07216376,-0.01008
 041,0.04146667,0.26342828,-0.00016946,-0.00011789,0.00095054,0.0025854
 8,0.00062076,-0.00086848,-0.00244969,-0.01092906,0.01049304,-0.0208626
 2,0.00273194,0.00063262,-0.02612992,-0.01396134,-0.08616472,0.03078487
 ,0.11846792,0.57354756,0.00006923,0.00004445,0.00001195,0.00040067,0.0
 0001337,0.00015828,0.00042354,0.00046097,0.00277449,0.00029973,0.00034
 991,0.00006555,-0.02107059,0.03922629,0.01188031,-0.07743416,0.0119823
 9,0.02624426,0.24285585,-0.00011781,0.00000553,0.00041861,0.00095402,-
 0.00023513,-0.00073613,-0.00097267,0.00274577,0.00268814,-0.00403206,0
 .00241797,0.00301646,-0.01171125,0.00579315,-0.00219488,0.07053132,-0.
 10296068,-0.10075768,0.13217305,0.63114873,-0.00001853,-0.00004167,0.0
 0009056,0.00001932,0.00014831,-0.00019910,-0.00048299,0.00073468,0.000
 10152,-0.00373310,-0.00048509,0.00094789,0.00936939,-0.00595975,-0.007
 76298,0.05191067,-0.04357593,-0.04542511,0.02515793,0.07967253,0.26804
 884,-0.00009956,-0.00002137,0.00022548,0.00014056,-0.00018498,-0.00048
 735,-0.00202940,0.00260367,-0.00190169,0.00098250,0.00417734,0.0072421
 3,-0.03220299,-0.02017957,0.01682327,-0.07864712,-0.02324408,0.0471332
 0,-0.02899589,-0.00463180,-0.02170421,0.26335752,0.00004696,-0.0001487
 0,-0.00018879,-0.00080402,0.00056823,0.00024471,-0.00013857,-0.0008459
 0,-0.00299850,-0.00093527,-0.00149114,-0.00067101,0.01216306,-0.011499
 39,-0.00327726,-0.03920646,-0.01680282,0.05970153,-0.01954412,-0.28362
 191,0.06413277,0.13246455,0.68231986,0.00029198,0.00032352,-0.00149762
 ,-0.00225409,-0.00063984,0.00240459,0.00464306,0.00150033,-0.00261192,
 -0.01228538,-0.01163215,-0.01011199,0.03448005,-0.00078977,0.01280662,
 0.03369336,0.02470479,-0.15612672,0.00234766,0.11329458,-0.11073507,-0
 .20810612,-0.46179699,0.78331970,0.00007546,0.00000927,-0.00014792,-0.
 00020574,0.00006236,0.00027102,0.00076876,-0.00042219,-0.00009216,-0.0
 0072089,-0.00086694,-0.00160197,0.00639453,0.00177489,0.00021882,0.005
 59589,-0.00260651,0.01970335,0.01569482,-0.00286221,0.00254607,-0.1165
 1217,-0.10852303,0.15180082,0.08865818,0.00004880,0.00009522,-0.000197
 38,-0.00013869,-0.00028347,0.00036471,0.00082987,0.00026060,0.00030821
 ,-0.00152709,-0.00045708,-0.00092702,0.00124547,0.00251945,0.00228429,
 -0.00688646,0.00327719,0.00859761,-0.00273118,-0.02929445,0.04192284,-
 0.10193479,-0.33843395,0.33627078,0.11631919,0.35693052,-0.00017305,-0
 .00018153,0.00084816,0.00121318,0.00037083,-0.00148203,-0.00224115,-0.
 00068738,0.00142848,0.00514456,0.00411278,0.00363812,-0.01350475,0.000
 46539,-0.00421249,0.02719085,0.00860021,-0.02343575,-0.00820440,0.0384
 1810,-0.00192583,0.15491762,0.34290618,-0.51944096,-0.17113370,-0.3934
 5823,0.55092552,-0.06500498,0.00800298,-0.06822590,-0.00938583,0.00413
 001,-0.03326130,-0.00618104,-0.00099603,0.00231314,-0.00044637,-0.0000
 6379,-0.00252817,-0.00029781,0.00023774,0.00014085,-0.00034623,-0.0004
 2009,0.00040398,-0.00004110,0.00019259,0.00006374,0.00017764,-0.000035
 83,-0.00072967,-0.00010112,-0.00011487,0.00041884,0.07285462,0.0082556
 8,-0.04991436,0.02821371,-0.00141302,-0.00072843,-0.00522969,-0.001029
 03,-0.00010474,0.00008636,-0.00014727,0.00056184,-0.00024136,0.0000810
 6,0.00005786,-0.00000030,-0.00005616,-0.00006291,0.00011074,0.00000015
 ,0.00000359,0.00000490,0.00000421,0.00001011,-0.00011843,-0.00000648,-
 0.00002613,0.00007217,-0.00810158,0.04977595,-0.06961506,0.02804772,-0
 .28928878,0.00043157,0.00010779,-0.00117141,-0.00041035,-0.00026298,0.
 00144350,-0.00009180,-0.00015506,-0.00026905,0.00010543,0.00027545,0.0
 0012295,-0.00013086,-0.00008154,0.00007111,-0.00006169,0.00002327,0.00
 002971,0.00011587,0.00005007,-0.00029356,-0.00005732,-0.00006707,0.000
 16925,0.07648686,-0.03077849,0.31270709,-0.11260583,0.08632903,0.07194
 441,-0.01812278,0.02316600,0.01877429,0.00095314,0.00095134,0.00199294
 ,0.00040212,-0.00034428,-0.00050086,0.00000198,-0.00008463,0.00002220,
 0.00001034,0.00000824,-0.00001218,0.00001760,0.00000320,-0.00000935,0.
 00001545,0.00002249,0.00004028,-0.00001737,-0.00001895,-0.00002800,0.0
 0430716,-0.00667001,-0.00450908,0.12598922,0.08702874,-0.16193651,-0.0
 9478408,-0.00290535,0.00390900,0.00370288,0.00006897,-0.00010698,-0.00
 014625,-0.00022082,0.00012882,0.00026338,0.00010798,-0.00001380,0.0000
 0707,0.00000366,0.00002686,-0.00002482,-0.00001863,-0.00001751,0.00000
 756,0.00000633,0.00002862,-0.00002003,0.00000438,-0.00000748,0.0000144
 5,-0.00288533,0.00241034,0.00268232,-0.09550354,0.17271654,0.07231595,
 -0.09469742,-0.12636451,-0.00153399,0.00301318,0.00137619,-0.00051583,
 0.00079606,0.00093201,-0.00002818,0.00007090,0.00002735,0.00003185,-0.
 00007764,-0.00006045,0.00005639,0.00004662,-0.00004909,0.00001568,-0.0
 0001457,-0.00001010,-0.00003835,-0.00002317,0.00011869,0.00002374,0.00
 003659,-0.00006810,0.01596726,-0.02146851,-0.01644106,-0.07987385,0.10
 514830,0.13389092,-0.06290042,-0.05886751,0.01910801,-0.00959356,-0.03
 254491,0.01007288,0.00124878,-0.00105110,0.00143084,0.00024370,0.00054
 909,-0.00001423,0.00019673,0.00010617,0.00002742,0.00001441,0.00001213
 ,0.00007180,-0.00002535,0.00007730,-0.00002750,0.00003455,-0.00009750,
 0.00005976,-0.00003041,0.00003285,-0.00004324,0.00154985,0.00856078,-0
 .00181661,0.00390316,0.01503592,-0.00602770,0.07053719,-0.05974870,-0.
 26762651,0.07062515,-0.00135045,-0.00384703,0.00110998,0.00041791,0.00
 001895,0.00026710,0.00000210,0.00046302,-0.00028728,0.00013300,-0.0000
 3345,0.00000978,-0.00001178,-0.00003085,0.00009495,-0.00002224,0.00005
 993,-0.00001984,0.00001613,-0.00006646,0.00000980,-0.00002113,0.000021
 80,-0.00001867,-0.00014555,-0.00275605,0.00037479,-0.00524145,-0.01927
 937,0.00707501,0.06754791,0.29034875,0.01935943,0.07062774,-0.07043371
 ,-0.00060570,-0.00314357,-0.00002425,-0.00001357,-0.00126929,0.0007314
 3,0.00002170,0.00006799,0.00004817,-0.00002725,-0.00001802,-0.00010770
 ,0.00006295,0.00004190,-0.00002721,0.00002474,-0.00004261,-0.00000563,
 -0.00004929,0.00001601,0.00010095,0.00002451,0.00001274,-0.00005295,0.
 00811379,0.02935392,-0.00840393,-0.00533557,-0.01742659,0.00551935,-0.
 02107420,-0.07847718,0.07170970,-0.01002086,-0.03163417,0.01028756,-0.
 06172039,-0.05542185,0.02055084,0.00092536,0.00935152,-0.00416716,0.00
 133847,0.00097175,0.00065685,0.00009918,-0.00040820,-0.00007193,-0.000
 02416,0.00000156,0.00001596,0.00000913,-0.00010145,0.00003705,-0.00005
 387,0.00012442,-0.00009209,0.00004771,-0.00003311,0.00005701,0.0014107
 6,0.00036219,-0.00030228,0.00146110,0.00049930,0.00041852,-0.00668893,
 -0.00077792,-0.00071271,0.06962417,-0.00098963,-0.00333257,0.00079375,
 -0.05545109,-0.26366047,0.07285591,-0.00067941,-0.00376892,0.00118782,
 0.00004696,0.00096400,-0.00046733,0.00042929,0.00018402,0.00024415,0.0
 0013513,0.00007966,-0.00001216,-0.00001400,0.00008216,-0.00010234,-0.0
 0000614,-0.00021792,0.00049443,-0.00002543,0.00013031,-0.00031858,-0.0
 0032221,0.00019175,-0.00041788,-0.00035637,0.00079184,0.00004056,-0.00
 063355,0.00166209,-0.00031946,0.06273414,0.28448325,-0.00101903,-0.003
 97516,0.00102953,0.02017588,0.07163731,-0.07296445,0.00567659,0.031577
 17,-0.01399811,0.00253744,-0.00014441,0.00193223,-0.00045399,-0.000631
 45,0.00007991,-0.00008211,0.00001897,-0.00021058,-0.00000062,-0.000061
 16,0.00001879,-0.00000435,0.00010551,-0.00011713,0.00001271,-0.0000633
 6,0.00007179,0.00036597,-0.00037277,0.00033592,0.00013752,0.00042961,-
 0.00001707,-0.00118796,-0.00007554,0.00077519,-0.01955184,-0.08171275,
 0.08151218,-0.01822718,0.02204021,0.01845306,-0.10900861,0.08408964,0.
 07269678,0.00402179,-0.00684010,-0.00615769,0.00125306,-0.00036206,0.0
 0031035,0.00000441,-0.00027895,-0.00028495,0.00004177,0.00009102,-0.00
 004149,0.00000170,-0.00000988,0.00001212,-0.00003758,-0.00000611,0.000
 12481,0.00002504,0.00002797,-0.00007097,0.00133031,0.00017100,-0.00041
 424,-0.00627331,-0.00155802,-0.00095189,0.00150213,-0.00036959,0.00024
 616,0.00366524,-0.00512572,-0.00466096,0.12217563,-0.00341960,0.003880
 12,0.00375759,0.08414787,-0.16261890,-0.09564219,-0.00193020,0.0020650
 7,0.00235217,-0.00005434,-0.00006450,0.00037628,-0.00015783,0.00007421
 ,0.00007523,-0.00008230,-0.00012945,0.00010475,0.00000030,0.00007922,0
 .00005646,0.00004213,-0.00007419,-0.00028009,-0.00000548,0.00001056,0.
 00017318,0.00060102,0.00006064,0.00018377,-0.00166675,0.00123600,0.000
 28213,0.00047091,0.00081904,0.00033109,0.01460072,-0.02010248,-0.01705
 065,-0.09225653,0.17217235,-0.00253776,0.00328534,0.00249204,0.0716538
 3,-0.09427332,-0.12853671,0.01587887,-0.02266313,-0.02273027,0.0011039
 1,0.00017485,0.00259498,-0.00035327,0.00015068,0.00005607,-0.00002592,
 -0.00000805,0.00006587,-0.00009068,0.00006221,0.00001987,0.00000058,-0
 .00006104,-0.00006896,0.00000508,0.00001719,0.00004356,0.00039862,0.00
 038198,0.00055686,-0.00135594,-0.00009266,0.00083723,0.00036779,-0.000
 06501,-0.00005828,-0.00527524,0.00680525,0.00599589,-0.07776449,0.1046
 6121,0.14294090,0.00098996,0.00108698,-0.00000797,0.00237834,0.0090344
 9,-0.00326684,-0.05754975,-0.04576809,0.01938571,-0.01846623,-0.035747
 04,0.00884648,-0.00327632,0.00026524,0.00192789,-0.00093203,0.00011398
 ,-0.00222750,-0.00026487,0.00094784,0.00013910,0.00126502,-0.00035004,
 -0.00125377,-0.00033861,-0.00014454,0.00068477,0.00003492,-0.00006668,
 0.00013692,-0.00002393,0.00005550,-0.00000314,0.00000669,-0.00042395,-
 0.00000953,-0.00026396,-0.00000506,-0.00249089,0.00016958,-0.00052327,
 0.00045694,0.07310142,-0.00013927,0.00028666,-0.00054592,-0.00070964,-
 0.00436612,0.00191387,-0.04866063,-0.26189372,0.07136399,-0.00691494,-
 0.00196836,-0.00248783,-0.00008250,0.00168424,0.00193126,-0.00039130,0
 .00010421,-0.00019718,-0.00023008,0.00007938,-0.00001348,0.00025630,0.
 00000575,-0.00024034,-0.00006499,-0.00001494,0.00008743,0.00015497,0.0
 0036345,-0.00006730,-0.00003175,-0.00004453,0.00002419,0.00071607,0.00
 029114,0.00025373,0.00012209,0.00161500,0.00074468,0.00006649,0.000967
 90,0.00019827,0.05963030,0.28226677,0.00153497,0.00032777,0.00156344,0
 .00550705,0.03157802,-0.01478556,0.02210072,0.07092197,-0.06955261,-0.
 00303868,-0.00408987,0.00220606,-0.00105387,-0.00019802,-0.00007701,-0
 .00001449,0.00058273,-0.00067649,-0.00017044,-0.00016808,0.00002111,0.
 00007066,0.00019741,0.00015952,0.00003156,-0.00001932,-0.00007255,0.00
 034004,-0.00041169,0.00015490,-0.00016783,-0.00011130,-0.00002546,-0.0
 0084819,-0.00066676,0.00020695,-0.00227878,0.00043768,-0.00592485,0.00
 055980,-0.00025435,0.00146717,-0.01865389,-0.08018868,0.07891860,0.001
 24689,-0.00049522,-0.00013261,0.00439628,-0.00652910,-0.00520542,-0.09
 313335,0.06636847,0.05881837,-0.03445262,0.01820767,0.01610331,0.00307
 137,0.00730102,0.00569528,-0.00046753,-0.00051878,0.00005564,-0.000407
 23,-0.00078071,-0.00019074,0.00008850,0.00066977,-0.00117488,-0.000083
 33,-0.00034815,0.00065886,0.00010269,0.00001981,0.00007780,0.00001458,
 0.00026556,0.00015382,-0.00000084,-0.00002368,-0.00001483,0.00013313,0
 .00022488,0.00051028,-0.00043835,0.00018739,-0.00247045,0.00427510,-0.
 00381628,-0.00393901,0.11387943,-0.00006888,-0.00006347,-0.00009739,-0
 .00098143,0.00230330,0.00319454,0.06859789,-0.16070398,-0.09195268,0.0
 0177795,0.00407838,-0.00052091,-0.00405585,0.00248967,0.00275199,0.000
 54872,0.00035999,-0.00000928,-0.00018768,0.00003777,0.00001179,-0.0001
 8714,-0.00004018,0.00042646,0.00008455,0.00009072,-0.00023893,-0.00029
 546,0.00012180,0.00009334,-0.00046905,0.00017332,-0.00023162,0.0001231
 0,-0.00002189,-0.00002173,-0.00050174,0.00098515,-0.00040166,0.0002152
 1,0.00144133,0.00106066,0.01260413,-0.01909170,-0.01775565,-0.07845753
 ,0.16752836,0.00154921,-0.00022474,0.00078409,0.01316950,-0.02249849,-
 0.01984463,0.06012629,-0.09117077,-0.12913207,0.00167934,-0.00121661,0
 .00323955,-0.00317275,0.00226714,0.00129950,0.00036273,0.00036370,-0.0
 0000782,-0.00024784,-0.00011477,-0.00002325,-0.00013102,-0.00002918,0.
 00021394,0.00006364,0.00007732,-0.00007175,-0.00011707,0.00043765,0.00
 030743,-0.00114367,0.00035439,0.00032192,-0.00014370,0.00002952,0.0000
 0544,0.00052184,0.00041521,0.00160713,-0.00215594,0.00095747,-0.005683
 80,-0.00430442,0.00658569,0.00583156,-0.06717701,0.10299667,0.14107515
 ,-0.00000500,-0.00001746,0.00005225,-0.00013050,0.00005447,-0.00020800
 ,0.00525895,-0.00390874,-0.00374166,0.00886053,-0.00837963,-0.00582238
 ,-0.14114907,0.08572958,0.07111418,-0.01113322,0.01813304,0.01534032,-
 0.00526092,-0.00213612,0.00151587,-0.00101404,0.00340815,-0.00124093,-
 0.00004657,-0.00110491,0.00076677,0.00000348,0.00001422,0.00002250,-0.
 00002920,0.00000551,-0.00000654,-0.00001326,-0.00000751,-0.00000264,0.
 00001788,0.00002061,0.00006729,-0.00018065,0.00007562,0.00004212,-0.00
 013726,0.00004846,0.00008795,0.00093897,0.00150766,0.00123836,0.142889
 75,-0.00002202,0.00008527,0.00016246,0.00026934,0.00037894,0.00000568,
 0.00497572,-0.00210222,0.00608176,0.00932966,-0.01437799,-0.03427714,0
 .08411303,-0.14401309,-0.07751575,-0.00194511,0.00608985,-0.00094018,-
 0.00192857,0.00075181,-0.00020270,0.00126236,0.00020228,0.00091039,-0.
 00006768,0.00003148,-0.00030815,0.00003115,0.00002400,-0.00001319,-0.0
 0009761,-0.00000564,-0.00001329,-0.00000833,-0.00000218,0.00000785,0.0
 0007502,-0.00000723,-0.00004649,0.00010075,0.00013811,0.00041698,-0.00
 067963,-0.00022012,-0.00014265,-0.00207782,0.00043351,0.00081928,-0.09
 251529,0.15297305,-0.00002144,0.00006547,-0.00035967,-0.00074097,-0.00
 032937,0.00024786,0.00335773,0.00626034,-0.00438722,0.00897923,-0.0331
 5677,0.00075075,0.06889366,-0.07809328,-0.11533457,-0.00007254,-0.0019
 9944,0.00403222,-0.00074000,-0.00017197,0.00197495,-0.00144764,0.00023
 246,0.00082469,0.00017858,0.00008682,-0.00044668,-0.00010345,-0.000037
 84,-0.00001194,0.00000223,0.00000017,0.00000974,0.00004064,0.00000566,
 0.00000491,-0.00009260,0.00004903,-0.00010943,0.00011180,-0.00001363,0
 .00006527,0.00072789,0.00063730,0.00055697,-0.00163260,0.00075938,0.00
 006585,-0.07784030,0.10560260,0.11190672,0.00002311,0.00000503,-0.0000
 4467,0.00015274,0.00003876,0.00016414,0.00002730,-0.00231519,0.0012333
 2,-0.00559605,0.00141973,-0.00075567,-0.00577140,-0.00997124,-0.028002
 11,-0.08928969,-0.03001957,-0.10006673,0.00178907,0.00803987,0.0153345
 4,0.00370232,0.00776205,0.00859870,-0.00079963,-0.00197543,0.00084504,
 -0.00003071,0.00000928,-0.00003009,-0.00000398,-0.00000094,0.00001052,
 0.00000721,0.00000852,0.00001141,0.00001905,0.00002225,-0.00003913,0.0
 0000743,-0.00000343,-0.00001467,-0.00076143,-0.00007259,-0.00010878,-0
 .00012591,0.00005175,0.00002243,0.00050547,0.00026118,0.00109331,0.097
 83121,-0.00001445,0.00001041,0.00005342,0.00009615,-0.00002622,-0.0000
 6987,-0.00059021,0.00002676,0.00007281,0.00016943,0.00198696,-0.000123
 55,-0.00379325,-0.00129310,-0.00194052,-0.02542923,-0.05598850,-0.0603
 6052,-0.01308915,-0.00715545,-0.02224738,0.01606433,0.00168132,0.00796
 936,-0.00367813,0.00030713,0.00168194,0.00002617,0.00000374,0.00000955
 ,0.00000061,-0.00000117,-0.00000610,0.00000270,-0.00000179,-0.00000629
 ,-0.00000238,-0.00000215,0.00000737,0.00000061,0.00001312,0.00000693,0
 .00019238,0.00000171,-0.00004703,0.00001527,-0.00003388,-0.00001548,-0
 .00043993,-0.00015666,0.00034561,0.02796583,0.06129167,0.00001435,0.00
 000273,-0.00002793,-0.00005104,0.00000240,0.00004140,0.00037404,-0.000
 01937,0.00000616,-0.00018749,0.00017459,-0.00015613,0.00359464,0.00205
 480,0.00207437,-0.10473001,-0.07147797,-0.26518076,0.00957672,-0.00362
 585,-0.00390002,-0.00859490,-0.01193206,-0.01114775,0.00171149,0.00216
 292,-0.00153035,-0.00001773,-0.00000338,-0.00000751,-0.00000905,0.0000
 0281,0.00000641,-0.00000423,-0.00000260,0.00000415,0.00000901,-0.00000
 003,-0.00000516,0.00000467,0.00000875,0.00000932,-0.00006893,0.0000043
 3,-0.00000269,-0.00005031,0.00002875,0.00003095,-0.00090113,-0.0000553
 4,0.00017843,0.09948340,0.07994184,0.27982640,-0.00005489,-0.00006462,
 0.00005396,-0.00010298,0.00010834,-0.00008633,-0.00095382,-0.00254281,
 -0.00119252,0.00159176,0.00151055,0.00040289,0.00356334,0.00020769,0.0
 0081345,0.00879243,0.01982229,0.00962073,-0.12806124,-0.18556324,-0.07
 993937,-0.01017145,0.01297950,-0.00894355,0.00159545,-0.00154598,0.003
 50175,0.00006377,0.00001187,0.00006243,0.00000056,0.00001078,-0.000014
 26,0.00000838,0.00001840,-0.00001940,0.00002101,-0.00000466,0.00000721
 ,-0.00003239,-0.00002624,-0.00001930,-0.00020664,0.00011928,0.00004121
 ,0.00096224,-0.00030620,-0.00013992,0.00062466,-0.00107615,-0.00069351
 ,-0.00168613,0.00250325,-0.00015351,0.12404594,0.00001783,-0.00000449,
 0.00004686,0.00013844,0.00006456,0.00000588,-0.00006853,-0.00009498,0.
 00090336,-0.00054356,-0.00033492,0.00069716,-0.00183806,0.00177245,-0.
 00196988,0.00268402,-0.01521714,-0.00312010,-0.14648523,-0.21991987,-0
 .11404365,-0.00650749,-0.03157358,-0.01038679,0.00089556,0.00484254,-0
 .00169118,0.00000410,0.00000756,-0.00000457,0.00000348,-0.00000832,-0.
 00000122,-0.00003204,-0.00001913,0.00001174,0.00003813,-0.00007750,0.0
 0001477,0.00000406,0.00003184,-0.00005834,-0.00022254,-0.00006672,0.00
 000781,-0.00021257,-0.00008820,-0.00003398,-0.00048771,-0.00022315,-0.
 00024254,-0.00122586,-0.00066392,0.00273269,0.15383796,0.26157298,-0.0
 0000311,-0.00002933,-0.00007279,-0.00003826,0.00007185,0.00018204,0.00
 011719,0.00014983,0.00013853,-0.00010977,0.00194285,-0.00169166,-0.002
 00871,0.00167094,0.00216658,-0.01995120,-0.01130422,-0.01162023,-0.068
 74190,-0.12970618,-0.10126615,0.01593613,0.01339135,0.01220299,-0.0035
 5833,0.00259034,-0.00438545,-0.00002979,0.00000103,-0.00001150,0.00003
 152,-0.00000721,-0.00000397,0.00000842,0.00001114,0.00000743,-0.000010
 00,0.00002674,-0.00001178,-0.00001693,-0.00007916,-0.00006701,-0.00001
 882,-0.00000402,0.00003096,-0.00008549,-0.00009373,-0.00001920,-0.0004
 8403,-0.00049213,0.00003116,0.00226504,-0.00527210,-0.00021927,0.07669
 806,0.12713200,0.10460933\\0.00000367,-0.00000164,0.00000224,-0.000003
 84,-0.00000037,-0.00000148,0.00000467,-0.00002096,0.00001672,-0.000013
 04,0.00000607,-0.00002791,0.00003020,0.00002601,0.00000712,-0.00003461
 ,-0.00002662,0.00004002,0.00000171,-0.00000440,0.00000794,0.00001678,0
 .00002814,-0.00001460,-0.00000554,-0.00001483,0.00000026,0.00000077,-0
 .00000069,-0.00000113,0.00000026,-0.00000064,-0.00000089,0.00000059,0.
 00000022,0.00000014,0.00000043,0.00000004,-0.00000117,0.00000134,-0.00
 000090,0.00000247,-0.00001506,-0.00000204,-0.00000128,0.00000097,0.000
 00175,-0.00000695,-0.00000783,0.00000014,-0.00000377,0.00001710,0.0000
 0629,-0.00001470,0.00000144,0.00000443,-0.00000301\\\@


 EDUCATION WITHOUT COMMON SENSE IS A LOAD OF BOOKS ON THE BACK OF AN ASS.
 Job cpu time:       0 days  1 hours 42 minutes 59.3 seconds.
 Elapsed time:       0 days  0 hours 25 minutes 45.2 seconds.
 File lengths (MBytes):  RWF=    137 Int=      0 D2E=      0 Chk=      9 Scr=      1
 Normal termination of Gaussian 16 at Mon Jul  4 00:54:46 2022.
### All Done ###
