### Starting Gaussian ###
 Entering Gaussian System, Link 0=g16
 Initial command:
 /cluster/software/gaussian/gaussian-16-A.03/avx2/g16/l1.exe "/local/scratch/yxie/Gau-13801.inp" -scrdir="/local/scratch/yxie/"
 Entering Link 1 = /cluster/software/gaussian/gaussian-16-A.03/avx2/g16/l1.exe PID=     13809.
  
 Copyright (c) 1988,1990,1992,1993,1995,1998,2003,2009,2016,
            Gaussian, Inc.  All Rights Reserved.
  
 This is part of the Gaussian(R) 16 program.  It is based on
 the Gaussian(R) 09 system (copyright 2009, Gaussian, Inc.),
 the Gaussian(R) 03 system (copyright 2003, Gaussian, Inc.),
 the Gaussian(R) 98 system (copyright 1998, Gaussian, Inc.),
 the Gaussian(R) 94 system (copyright 1995, Gaussian, Inc.),
 the Gaussian 92(TM) system (copyright 1992, Gaussian, Inc.),
 the Gaussian 90(TM) system (copyright 1990, Gaussian, Inc.),
 the Gaussian 88(TM) system (copyright 1988, Gaussian, Inc.),
 the Gaussian 86(TM) system (copyright 1986, Carnegie Mellon
 University), and the Gaussian 82(TM) system (copyright 1983,
 Carnegie Mellon University). Gaussian is a federally registered
 trademark of Gaussian, Inc.
  
 This software contains proprietary and confidential information,
 including trade secrets, belonging to Gaussian, Inc.
  
 This software is provided under written license and may be
 used, copied, transmitted, or stored only in accord with that
 written license.
  
 The following legend is applicable only to US Government
 contracts under FAR:
  
                    RESTRICTED RIGHTS LEGEND
  
 Use, reproduction and disclosure by the US Government is
 subject to restrictions as set forth in subparagraphs (a)
 and (c) of the Commercial Computer Software - Restricted
 Rights clause in FAR 52.227-19.
  
 Gaussian, Inc.
 340 Quinnipiac St., Bldg. 40, Wallingford CT 06492
  
  
 ---------------------------------------------------------------
 Warning -- This program may not be used in any manner that
 competes with the business of Gaussian, Inc. or will provide
 assistance to any competitor of Gaussian, Inc.  The licensee
 of this program is prohibited from giving any competitor of
 Gaussian, Inc. access to this program.  By using this program,
 the user acknowledges that Gaussian, Inc. is engaged in the
 business of creating and licensing software in the field of
 computational chemistry and represents and warrants to the
 licensee that it is not a competitor of Gaussian, Inc. and that
 it will not use this program in any manner prohibited above.
 ---------------------------------------------------------------
  

 Cite this work as:
 Gaussian 16, Revision A.03,
 M. J. Frisch, G. W. Trucks, H. B. Schlegel, G. E. Scuseria, 
 M. A. Robb, J. R. Cheeseman, G. Scalmani, V. Barone, 
 G. A. Petersson, H. Nakatsuji, X. Li, M. Caricato, A. V. Marenich, 
 J. Bloino, B. G. Janesko, R. Gomperts, B. Mennucci, H. P. Hratchian, 
 J. V. Ortiz, A. F. Izmaylov, J. L. Sonnenberg, D. Williams-Young, 
 F. Ding, F. Lipparini, F. Egidi, J. Goings, B. Peng, A. Petrone, 
 T. Henderson, D. Ranasinghe, V. G. Zakrzewski, J. Gao, N. Rega, 
 G. Zheng, W. Liang, M. Hada, M. Ehara, K. Toyota, R. Fukuda, 
 J. Hasegawa, M. Ishida, T. Nakajima, Y. Honda, O. Kitao, H. Nakai, 
 T. Vreven, K. Throssell, J. A. Montgomery, Jr., J. E. Peralta, 
 F. Ogliaro, M. J. Bearpark, J. J. Heyd, E. N. Brothers, K. N. Kudin, 
 V. N. Staroverov, T. A. Keith, R. Kobayashi, J. Normand, 
 K. Raghavachari, A. P. Rendell, J. C. Burant, S. S. Iyengar, 
 J. Tomasi, M. Cossi, J. M. Millam, M. Klene, C. Adamo, R. Cammi, 
 J. W. Ochterski, R. L. Martin, K. Morokuma, O. Farkas, 
 J. B. Foresman, and D. J. Fox, Gaussian, Inc., Wallingford CT, 2016.
 
 ******************************************
 Gaussian 16:  ES64L-G16RevA.03 25-Dec-2016
                 3-Aug-2022 
 ******************************************
 %chk=CCCNpCpCpOpCdO.chk
 %NProcShared=20
 Will use up to   20 processors via shared memory.
 -----------------------------
 # opt freq b3lyp/6-31g(2df,p)
 -----------------------------
 1/18=20,19=15,26=3,38=1/1,3;
 2/9=110,12=2,17=6,18=5,40=1/2;
 3/5=1,6=6,7=104,11=2,25=1,30=1,71=1,74=-5/1,2,3;
 4//1;
 5/5=2,38=5/2;
 6/7=2,8=2,9=2,10=2,28=1/1;
 7//1,2,3,16;
 1/18=20,19=15,26=3/3(2);
 2/9=110/2;
 99//99;
 2/9=110/2;
 3/5=1,6=6,7=104,11=2,25=1,30=1,71=1,74=-5/1,2,3;
 4/5=5,16=3,69=1/1;
 5/5=2,38=5/2;
 7//1,2,3,16;
 1/18=20,19=15,26=3/3(-5);
 2/9=110/2;
 6/7=2,8=2,9=2,10=2,19=2,28=1/1;
 99/9=1/99;
 -------------------
 Title Card Required
 -------------------
 Symbolic Z-matrix:
 Charge =  0 Multiplicity = 1
 C                     0.91624  -0.10252  -0.01068 
 C                     2.43264  -0.0905   -0.01251 
 C                     3.00704  -1.31796   0.70771 
 N                     4.49234  -1.32961   0.7247 
 C                     4.97592  -0.14064   1.44884 
 C                     4.95914  -2.56167   1.39614 
 O                     4.46552  -3.70654   0.72177 
 C                     6.49457  -2.64191   1.41552 
 O                     7.13945  -3.54684   1.94831 
 H                     0.53908   0.79503  -0.51024 
 H                     0.53495  -0.10454   1.01569 
 H                     0.52829  -0.98163  -0.53127 
 H                     2.73555   0.83725   0.48107 
 H                     2.80666  -0.05418  -1.04228 
 H                     2.63137  -2.20697   0.18408 
 H                     2.61209  -1.36257   1.73202 
 H                     4.6916    0.78412   0.9395 
 H                     6.06673  -0.09115   1.47916 
 H                     4.59837  -0.10916   2.47645 
 H                     4.60896  -2.59792   2.43426 
 H                     4.77556  -3.62384  -0.19467 
 H                     7.03148  -1.8451    0.87739 
 

 GradGradGradGradGradGradGradGradGradGradGradGradGradGradGradGradGradGrad
 Berny optimization.
 Initialization pass.
                           ----------------------------
                           !    Initial Parameters    !
                           ! (Angstroms and Degrees)  !
 --------------------------                            --------------------------
 ! Name  Definition              Value          Derivative Info.                !
 --------------------------------------------------------------------------------
 ! R1    R(1,2)                  1.5164         estimate D2E/DX2                !
 ! R2    R(1,10)                 1.0943         estimate D2E/DX2                !
 ! R3    R(1,11)                 1.0949         estimate D2E/DX2                !
 ! R4    R(1,12)                 1.0929         estimate D2E/DX2                !
 ! R5    R(2,3)                  1.5347         estimate D2E/DX2                !
 ! R6    R(2,13)                 1.0937         estimate D2E/DX2                !
 ! R7    R(2,14)                 1.0962         estimate D2E/DX2                !
 ! R8    R(3,4)                  1.4854         estimate D2E/DX2                !
 ! R9    R(3,15)                 1.098          estimate D2E/DX2                !
 ! R10   R(3,16)                 1.0987         estimate D2E/DX2                !
 ! R11   R(4,5)                  1.4737         estimate D2E/DX2                !
 ! R12   R(4,6)                  1.4788         estimate D2E/DX2                !
 ! R13   R(5,17)                 1.0934         estimate D2E/DX2                !
 ! R14   R(5,18)                 1.0924         estimate D2E/DX2                !
 ! R15   R(5,19)                 1.0952         estimate D2E/DX2                !
 ! R16   R(6,7)                  1.4174         estimate D2E/DX2                !
 ! R17   R(6,8)                  1.5376         estimate D2E/DX2                !
 ! R18   R(6,20)                 1.0962         estimate D2E/DX2                !
 ! R19   R(7,21)                 0.971          estimate D2E/DX2                !
 ! R20   R(8,9)                  1.2323         estimate D2E/DX2                !
 ! R21   R(8,22)                 1.1013         estimate D2E/DX2                !
 ! A1    A(2,1,10)             109.7312         estimate D2E/DX2                !
 ! A2    A(2,1,11)             110.449          estimate D2E/DX2                !
 ! A3    A(2,1,12)             111.1478         estimate D2E/DX2                !
 ! A4    A(10,1,11)            108.0252         estimate D2E/DX2                !
 ! A5    A(10,1,12)            108.6619         estimate D2E/DX2                !
 ! A6    A(11,1,12)            108.7495         estimate D2E/DX2                !
 ! A7    A(1,2,3)              111.5527         estimate D2E/DX2                !
 ! A8    A(1,2,13)             106.4476         estimate D2E/DX2                !
 ! A9    A(1,2,14)             110.0344         estimate D2E/DX2                !
 ! A10   A(3,2,13)             111.2854         estimate D2E/DX2                !
 ! A11   A(3,2,14)             109.8556         estimate D2E/DX2                !
 ! A12   A(13,2,14)            107.539          estimate D2E/DX2                !
 ! A13   A(2,3,4)              112.6983         estimate D2E/DX2                !
 ! A14   A(2,3,15)             107.2001         estimate D2E/DX2                !
 ! A15   A(2,3,16)             109.5995         estimate D2E/DX2                !
 ! A16   A(4,3,15)             109.9503         estimate D2E/DX2                !
 ! A17   A(4,3,16)             110.3924         estimate D2E/DX2                !
 ! A18   A(15,3,16)            106.7819         estimate D2E/DX2                !
 ! A19   A(3,4,5)              109.1107         estimate D2E/DX2                !
 ! A20   A(3,4,6)              109.1092         estimate D2E/DX2                !
 ! A21   A(5,4,6)              110.212          estimate D2E/DX2                !
 ! A22   A(4,5,17)             111.6007         estimate D2E/DX2                !
 ! A23   A(4,5,18)             112.2012         estimate D2E/DX2                !
 ! A24   A(4,5,19)             111.7837         estimate D2E/DX2                !
 ! A25   A(17,5,18)            103.5495         estimate D2E/DX2                !
 ! A26   A(17,5,19)            108.8526         estimate D2E/DX2                !
 ! A27   A(18,5,19)            108.475          estimate D2E/DX2                !
 ! A28   A(4,6,7)              110.3038         estimate D2E/DX2                !
 ! A29   A(4,6,8)              111.3717         estimate D2E/DX2                !
 ! A30   A(4,6,20)             110.8986         estimate D2E/DX2                !
 ! A31   A(7,6,8)              108.1551         estimate D2E/DX2                !
 ! A32   A(7,6,20)             108.2161         estimate D2E/DX2                !
 ! A33   A(8,6,20)             107.778          estimate D2E/DX2                !
 ! A34   A(6,7,21)             105.6075         estimate D2E/DX2                !
 ! A35   A(6,8,9)              124.4937         estimate D2E/DX2                !
 ! A36   A(6,8,22)             116.2906         estimate D2E/DX2                !
 ! A37   A(9,8,22)             119.1732         estimate D2E/DX2                !
 ! D1    D(10,1,2,3)           178.7067         estimate D2E/DX2                !
 ! D2    D(10,1,2,13)           57.1353         estimate D2E/DX2                !
 ! D3    D(10,1,2,14)          -59.1029         estimate D2E/DX2                !
 ! D4    D(11,1,2,3)            59.7216         estimate D2E/DX2                !
 ! D5    D(11,1,2,13)          -61.8498         estimate D2E/DX2                !
 ! D6    D(11,1,2,14)         -178.088          estimate D2E/DX2                !
 ! D7    D(12,1,2,3)           -61.0794         estimate D2E/DX2                !
 ! D8    D(12,1,2,13)          177.3492         estimate D2E/DX2                !
 ! D9    D(12,1,2,14)           61.111          estimate D2E/DX2                !
 ! D10   D(1,2,3,4)           -179.8168         estimate D2E/DX2                !
 ! D11   D(1,2,3,15)            59.0759         estimate D2E/DX2                !
 ! D12   D(1,2,3,16)           -56.459          estimate D2E/DX2                !
 ! D13   D(13,2,3,4)           -61.0929         estimate D2E/DX2                !
 ! D14   D(13,2,3,15)          177.7998         estimate D2E/DX2                !
 ! D15   D(13,2,3,16)           62.2649         estimate D2E/DX2                !
 ! D16   D(14,2,3,4)            57.8899         estimate D2E/DX2                !
 ! D17   D(14,2,3,15)          -63.2174         estimate D2E/DX2                !
 ! D18   D(14,2,3,16)         -178.7522         estimate D2E/DX2                !
 ! D19   D(2,3,4,5)             61.3316         estimate D2E/DX2                !
 ! D20   D(2,3,4,6)           -178.2032         estimate D2E/DX2                !
 ! D21   D(15,3,4,5)          -179.1419         estimate D2E/DX2                !
 ! D22   D(15,3,4,6)           -58.6767         estimate D2E/DX2                !
 ! D23   D(16,3,4,5)           -61.5843         estimate D2E/DX2                !
 ! D24   D(16,3,4,6)            58.8809         estimate D2E/DX2                !
 ! D25   D(3,4,5,17)           -63.4631         estimate D2E/DX2                !
 ! D26   D(3,4,5,18)          -179.1689         estimate D2E/DX2                !
 ! D27   D(3,4,5,19)            58.7116         estimate D2E/DX2                !
 ! D28   D(6,4,5,17)           176.7507         estimate D2E/DX2                !
 ! D29   D(6,4,5,18)            61.0449         estimate D2E/DX2                !
 ! D30   D(6,4,5,19)           -61.0746         estimate D2E/DX2                !
 ! D31   D(3,4,6,7)             58.6603         estimate D2E/DX2                !
 ! D32   D(3,4,6,8)            178.7631         estimate D2E/DX2                !
 ! D33   D(3,4,6,20)           -61.2113         estimate D2E/DX2                !
 ! D34   D(5,4,6,7)            178.4474         estimate D2E/DX2                !
 ! D35   D(5,4,6,8)            -61.4498         estimate D2E/DX2                !
 ! D36   D(5,4,6,20)            58.5758         estimate D2E/DX2                !
 ! D37   D(4,6,7,21)            56.9916         estimate D2E/DX2                !
 ! D38   D(8,6,7,21)           -65.0302         estimate D2E/DX2                !
 ! D39   D(20,6,7,21)          178.47           estimate D2E/DX2                !
 ! D40   D(4,6,8,9)            177.8005         estimate D2E/DX2                !
 ! D41   D(4,6,8,22)            -4.5948         estimate D2E/DX2                !
 ! D42   D(7,6,8,9)            -60.836          estimate D2E/DX2                !
 ! D43   D(7,6,8,22)           116.7687         estimate D2E/DX2                !
 ! D44   D(20,6,8,9)            55.9475         estimate D2E/DX2                !
 ! D45   D(20,6,8,22)         -126.4478         estimate D2E/DX2                !
 --------------------------------------------------------------------------------
 Trust Radius=3.00D-01 FncErr=1.00D-07 GrdErr=1.00D-06 EigMax=2.50D+02 EigMin=1.00D-04
 Number of steps in this run=    113 maximum allowed number of steps=    132.
 GradGradGradGradGradGradGradGradGradGradGradGradGradGradGradGradGradGrad

                          Input orientation:                          
 ---------------------------------------------------------------------
 Center     Atomic      Atomic             Coordinates (Angstroms)
 Number     Number       Type             X           Y           Z
 ---------------------------------------------------------------------
      1          6           0        0.916240   -0.102520   -0.010680
      2          6           0        2.432640   -0.090500   -0.012510
      3          6           0        3.007040   -1.317960    0.707710
      4          7           0        4.492340   -1.329610    0.724700
      5          6           0        4.975920   -0.140640    1.448840
      6          6           0        4.959140   -2.561670    1.396140
      7          8           0        4.465520   -3.706540    0.721770
      8          6           0        6.494570   -2.641910    1.415520
      9          8           0        7.139450   -3.546840    1.948310
     10          1           0        0.539080    0.795030   -0.510240
     11          1           0        0.534950   -0.104540    1.015690
     12          1           0        0.528290   -0.981630   -0.531270
     13          1           0        2.735550    0.837250    0.481070
     14          1           0        2.806660   -0.054180   -1.042280
     15          1           0        2.631370   -2.206970    0.184080
     16          1           0        2.612090   -1.362570    1.732020
     17          1           0        4.691600    0.784120    0.939500
     18          1           0        6.066730   -0.091150    1.479160
     19          1           0        4.598370   -0.109160    2.476450
     20          1           0        4.608960   -2.597920    2.434260
     21          1           0        4.775560   -3.623840   -0.194670
     22          1           0        7.031480   -1.845100    0.877390
 ---------------------------------------------------------------------
                    Distance matrix (angstroms):
                    1          2          3          4          5
     1  C    0.000000
     2  C    1.516449   0.000000
     3  C    2.522860   1.534702   0.000000
     4  N    3.851626   2.514207   1.485443   0.000000
     5  C    4.314238   2.933655   2.410777   1.473729   0.000000
     6  C    4.936760   3.804494   2.414838   1.478751   2.421662
     7  O    5.111050   4.212780   2.798692   2.377083   3.674885
     8  C    6.292878   5.004821   3.796934   2.491644   2.926390
     9  O    7.377623   6.159964   4.856316   3.663403   4.066021
    10  H    1.094260   2.148829   3.469720   4.654829   4.939537
    11  H    1.094907   2.158384   2.771005   4.152879   4.462190
    12  H    1.092865   2.165588   2.791485   4.172798   4.940598
    13  H    2.105914   1.093662   2.184034   2.800169   2.629088
    14  H    2.154118   1.096192   2.167892   2.755078   3.304367
    15  H    2.721821   2.134850   1.098023   2.127261   3.371387
    16  H    2.738729   2.166506   1.098720   2.133335   2.676004
    17  H    3.992783   2.602726   2.703740   2.133940   1.093365
    18  H    5.361651   3.928319   3.385543   2.140490   1.092353
    19  H    4.443415   3.299342   2.668702   2.137608   1.095225
    20  H    5.083398   4.124343   2.680563   2.131855   2.672814
    21  H    5.227609   4.243459   3.042866   2.487759   3.856676
    22  H    6.420390   5.001987   4.062362   2.595434   2.730763
                    6          7          8          9         10
     6  C    0.000000
     7  O    1.417449   0.000000
     8  C    1.537647   2.394112   0.000000
     9  O    2.455444   2.946151   1.232329   0.000000
    10  H    5.868445   6.099091   7.140656   8.274128   0.000000
    11  H    5.075006   5.339492   6.489621   7.505906   1.771357
    12  H    5.083686   4.949447   6.491765   7.512393   1.776817
    13  H    4.163456   4.867932   5.206533   6.384933   2.410178
    14  H    4.106893   4.382171   5.132037   6.317861   2.479142
    15  H    2.648285   2.429388   4.077981   5.023002   3.724481
    16  H    2.656934   3.154363   4.100065   5.031382   3.739029
    17  H    3.387390   4.501616   3.900638   5.076109   4.398328
    18  H    2.708711   4.025985   2.587175   3.648647   5.941207
    19  H    2.704077   4.004709   3.337060   4.307396   5.120128
    20  H    1.096190   2.045051   2.143663   2.745902   6.061857
    21  H    1.921610   0.970992   2.551841   3.191593   6.129744
    22  H    2.253257   3.173851   1.101255   2.013566   7.144723
                   11         12         13         14         15
    11  H    0.000000
    12  H    1.778318   0.000000
    13  H    2.452637   3.034000   0.000000
    14  H    3.065688   2.512422   1.766437   0.000000
    15  H    3.083304   2.536953   3.060446   2.483785   0.000000
    16  H    2.531853   3.099971   2.533639   3.073513   1.763378
    17  H    4.251266   4.755438   2.009754   2.860629   3.709694
    18  H    5.551178   5.958951   3.599287   4.121539   4.237408
    19  H    4.318011   5.135478   2.889175   3.949014   3.677616
    20  H    4.982654   5.297040   4.373215   4.669607   3.021095
    21  H    5.642093   5.013370   4.951726   4.163830   2.597792
    22  H    6.727078   6.709798   5.080067   4.974096   4.469071
                   16         17         18         19         20
    16  H    0.000000
    17  H    3.092043   0.000000
    18  H    3.689849   1.717065   0.000000
    19  H    2.463843   1.780128   1.775104   0.000000
    20  H    2.450861   3.698558   3.053065   2.489140   0.000000
    21  H    3.675062   4.552307   4.116883   4.418060   2.826931
    22  H    4.527056   3.520184   2.090266   3.389765   2.976438
                   21         22
    21  H    0.000000
    22  H    3.066334   0.000000
 Stoichiometry    C6H13NO2
 Framework group  C1[X(C6H13NO2)]
 Deg. of freedom    60
 Full point group                 C1      NOp   1
 Largest Abelian subgroup         C1      NOp   1
 Largest concise Abelian subgroup C1      NOp   1
                         Standard orientation:                         
 ---------------------------------------------------------------------
 Center     Atomic      Atomic             Coordinates (Angstroms)
 Number     Number       Type             X           Y           Z
 ---------------------------------------------------------------------
      1          6           0       -3.748994   -0.458046    0.147353
      2          6           0       -2.518969    0.261311   -0.371474
      3          6           0       -1.229551   -0.339746    0.204235
      4          7           0       -0.007814    0.349474   -0.284513
      5          6           0       -0.049402    1.761312    0.136038
      6          6           0        1.183918   -0.317611    0.282476
      7          8           0        1.206936   -1.684646   -0.091486
      8          6           0        2.482850    0.337328   -0.215710
      9          8           0        3.614495   -0.001750    0.135061
     10          1           0       -4.650054    0.008050   -0.262831
     11          1           0       -3.799596   -0.390582    1.239007
     12          1           0       -3.739288   -1.512588   -0.139355
     13          1           0       -2.630177    1.310897   -0.084948
     14          1           0       -2.493011    0.218787   -1.466533
     15          1           0       -1.205444   -1.397692   -0.088724
     16          1           0       -1.269643   -0.315381    1.301953
     17          1           0       -0.891380    2.291625   -0.317048
     18          1           0        0.822137    2.321133   -0.210740
     19          1           0       -0.114080    1.859307    1.224951
     20          1           0        1.179477   -0.261857    1.377239
     21          1           0        1.185203   -1.690337   -1.062218
     22          1           0        2.369984    1.136197   -0.965265
 ---------------------------------------------------------------------
 Rotational constants (GHZ):           3.7960824           0.7454464           0.6501387
 Standard basis: 6-31G(2df,p) (6D, 7F)
 There are   344 symmetry adapted cartesian basis functions of A   symmetry.
 There are   317 symmetry adapted basis functions of A   symmetry.
   317 basis functions,   487 primitive gaussians,   344 cartesian basis functions
    36 alpha electrons       36 beta electrons
       nuclear repulsion energy       475.2507760969 Hartrees.
 NAtoms=   22 NActive=   22 NUniq=   22 SFac= 1.00D+00 NAtFMM=   60 NAOKFM=F Big=F
 Integral buffers will be    131072 words long.
 Raffenetti 2 integral format.
 Two-electron integral symmetry is turned on.
 One-electron integrals computed using PRISM.
 PrsmSu:  requested number of processors reduced to:  13 ShMem   1 Linda.
 NBasis=   317 RedAO= T EigKep=  3.29D-04  NBF=   317
 NBsUse=   317 1.00D-06 EigRej= -1.00D+00 NBFU=   317
 ExpMin= 1.61D-01 ExpMax= 5.48D+03 ExpMxC= 8.25D+02 IAcc=3 IRadAn=         5 AccDes= 0.00D+00
 Harris functional with IExCor=  402 and IRadAn=       5 diagonalized for initial guess.
 HarFok:  IExCor=  402 AccDes= 0.00D+00 IRadAn=         5 IDoV= 1 UseB2=F ITyADJ=14
 ICtDFT=  3500011 ScaDFX=  1.000000  1.000000  1.000000  1.000000
 FoFCou: FMM=F IPFlag=           0 FMFlag=      100000 FMFlg1=           0
         NFxFlg=           0 DoJE=T BraDBF=F KetDBF=T FulRan=T
         wScrn=  0.000000 ICntrl=       500 IOpCl=  0 I1Cent=   200000004 NGrid=           0
         NMat0=    1 NMatS0=      1 NMatT0=    0 NMatD0=    1 NMtDS0=    0 NMtDT0=    0
 Petite list used in FoFCou.
 Requested convergence on RMS density matrix=1.00D-08 within 128 cycles.
 Requested convergence on MAX density matrix=1.00D-06.
 Requested convergence on             energy=1.00D-06.
 No special actions if energy rises.
 Integral accuracy reduced to 1.0D-05 until final iterations.
 Initial convergence to 1.0D-05 achieved.  Increase integral accuracy.
 SCF Done:  E(RB3LYP) =  -441.654238744     A.U. after   13 cycles
            NFock= 13  Conv=0.84D-08     -V/T= 2.0077

 **********************************************************************

            Population analysis using the SCF density.

 **********************************************************************

 Orbital symmetries:
       Occupied  (A) (A) (A) (A) (A) (A) (A) (A) (A) (A) (A) (A)
                 (A) (A) (A) (A) (A) (A) (A) (A) (A) (A) (A) (A)
                 (A) (A) (A) (A) (A) (A) (A) (A) (A) (A) (A) (A)
       Virtual   (A) (A) (A) (A) (A) (A) (A) (A) (A) (A) (A) (A)
                 (A) (A) (A) (A) (A) (A) (A) (A) (A) (A) (A) (A)
                 (A) (A) (A) (A) (A) (A) (A) (A) (A) (A) (A) (A)
                 (A) (A) (A) (A) (A) (A) (A) (A) (A) (A) (A) (A)
                 (A) (A) (A) (A) (A) (A) (A) (A) (A) (A) (A) (A)
                 (A) (A) (A) (A) (A) (A) (A) (A) (A) (A) (A) (A)
                 (A) (A) (A) (A) (A) (A) (A) (A) (A) (A) (A) (A)
                 (A) (A) (A) (A) (A) (A) (A) (A) (A) (A) (A) (A)
                 (A) (A) (A) (A) (A) (A) (A) (A) (A) (A) (A) (A)
                 (A) (A) (A) (A) (A) (A) (A) (A) (A) (A) (A) (A)
                 (A) (A) (A) (A) (A) (A) (A) (A) (A) (A) (A) (A)
                 (A) (A) (A) (A) (A) (A) (A) (A) (A) (A) (A) (A)
                 (A) (A) (A) (A) (A) (A) (A) (A) (A) (A) (A) (A)
                 (A) (A) (A) (A) (A) (A) (A) (A) (A) (A) (A) (A)
                 (A) (A) (A) (A) (A) (A) (A) (A) (A) (A) (A) (A)
                 (A) (A) (A) (A) (A) (A) (A) (A) (A) (A) (A) (A)
                 (A) (A) (A) (A) (A) (A) (A) (A) (A) (A) (A) (A)
                 (A) (A) (A) (A) (A) (A) (A) (A) (A) (A) (A) (A)
                 (A) (A) (A) (A) (A) (A) (A) (A) (A) (A) (A) (A)
                 (A) (A) (A) (A) (A) (A) (A) (A) (A) (A) (A) (A)
                 (A) (A) (A) (A) (A) (A) (A) (A) (A) (A) (A) (A)
                 (A) (A) (A) (A) (A) (A) (A) (A) (A) (A) (A) (A)
                 (A) (A) (A) (A) (A) (A) (A) (A) (A) (A) (A) (A)
                 (A) (A) (A) (A) (A)
 The electronic state is 1-A.
 Alpha  occ. eigenvalues --  -19.15774 -19.14828 -14.33933 -10.27626 -10.27185
 Alpha  occ. eigenvalues --  -10.21292 -10.20934 -10.18497 -10.17809  -1.05210
 Alpha  occ. eigenvalues --   -1.02894  -0.92079  -0.78690  -0.71914  -0.70421
 Alpha  occ. eigenvalues --   -0.63926  -0.59841  -0.58192  -0.50653  -0.50092
 Alpha  occ. eigenvalues --   -0.48721  -0.46634  -0.45758  -0.42969  -0.42817
 Alpha  occ. eigenvalues --   -0.41168  -0.39667  -0.37618  -0.37331  -0.36255
 Alpha  occ. eigenvalues --   -0.35736  -0.34105  -0.33007  -0.30648  -0.25170
 Alpha  occ. eigenvalues --   -0.24000
 Alpha virt. eigenvalues --   -0.04581   0.08175   0.08425   0.10023   0.10717
 Alpha virt. eigenvalues --    0.12047   0.14038   0.15256   0.15866   0.16517
 Alpha virt. eigenvalues --    0.17066   0.18335   0.18546   0.19030   0.20638
 Alpha virt. eigenvalues --    0.20973   0.22780   0.23986   0.26049   0.26774
 Alpha virt. eigenvalues --    0.28825   0.30200   0.42480   0.44902   0.45581
 Alpha virt. eigenvalues --    0.46341   0.48228   0.49853   0.51468   0.52006
 Alpha virt. eigenvalues --    0.54375   0.55037   0.55602   0.56963   0.59011
 Alpha virt. eigenvalues --    0.59745   0.63252   0.64136   0.65342   0.67118
 Alpha virt. eigenvalues --    0.67965   0.70529   0.71651   0.72140   0.72594
 Alpha virt. eigenvalues --    0.73018   0.74093   0.75482   0.76033   0.76289
 Alpha virt. eigenvalues --    0.77277   0.77548   0.78989   0.80252   0.80522
 Alpha virt. eigenvalues --    0.82412   0.83747   0.86488   0.87283   0.88735
 Alpha virt. eigenvalues --    0.90407   0.92900   0.93454   0.94705   0.96122
 Alpha virt. eigenvalues --    0.98252   0.99983   1.01662   1.03678   1.06298
 Alpha virt. eigenvalues --    1.08863   1.10974   1.14283   1.16976   1.19041
 Alpha virt. eigenvalues --    1.20086   1.22993   1.23964   1.28598   1.29678
 Alpha virt. eigenvalues --    1.31029   1.33259   1.34887   1.37533   1.37826
 Alpha virt. eigenvalues --    1.39877   1.41947   1.44471   1.47868   1.49123
 Alpha virt. eigenvalues --    1.51626   1.53457   1.56035   1.57229   1.58546
 Alpha virt. eigenvalues --    1.59272   1.62579   1.63255   1.65086   1.68785
 Alpha virt. eigenvalues --    1.69465   1.71949   1.75106   1.78022   1.79954
 Alpha virt. eigenvalues --    1.83502   1.85597   1.88807   1.91754   1.92557
 Alpha virt. eigenvalues --    1.94760   1.95373   1.97757   2.00282   2.04757
 Alpha virt. eigenvalues --    2.11256   2.13232   2.15516   2.19954   2.22091
 Alpha virt. eigenvalues --    2.24859   2.28462   2.29615   2.31399   2.34457
 Alpha virt. eigenvalues --    2.37271   2.40831   2.41806   2.43970   2.49949
 Alpha virt. eigenvalues --    2.51273   2.56119   2.61489   2.63935   2.64572
 Alpha virt. eigenvalues --    2.70956   2.73247   2.74249   2.75401   2.77336
 Alpha virt. eigenvalues --    2.78790   2.80669   2.82427   2.84786   2.85687
 Alpha virt. eigenvalues --    2.88311   2.89460   2.90538   2.92330   2.93050
 Alpha virt. eigenvalues --    2.94199   2.95420   2.96463   2.97769   2.99244
 Alpha virt. eigenvalues --    3.03165   3.03228   3.07007   3.09823   3.12497
 Alpha virt. eigenvalues --    3.15358   3.17762   3.22631   3.24050   3.26728
 Alpha virt. eigenvalues --    3.28435   3.32727   3.35576   3.37674   3.38160
 Alpha virt. eigenvalues --    3.40220   3.40705   3.45691   3.47670   3.50297
 Alpha virt. eigenvalues --    3.53522   3.55815   3.58684   3.58762   3.60326
 Alpha virt. eigenvalues --    3.63019   3.63854   3.64260   3.70860   3.71300
 Alpha virt. eigenvalues --    3.74784   3.79877   3.81071   3.82095   3.85778
 Alpha virt. eigenvalues --    3.86981   3.94519   3.95865   4.02827   4.08133
 Alpha virt. eigenvalues --    4.11425   4.13485   4.14721   4.17121   4.21552
 Alpha virt. eigenvalues --    4.25433   4.27698   4.29843   4.32250   4.38484
 Alpha virt. eigenvalues --    4.38981   4.40763   4.42592   4.43865   4.45113
 Alpha virt. eigenvalues --    4.46720   4.47572   4.50389   4.50766   4.54731
 Alpha virt. eigenvalues --    4.55753   4.57247   4.57955   4.58610   4.61306
 Alpha virt. eigenvalues --    4.63106   4.65309   4.66807   4.68113   4.69094
 Alpha virt. eigenvalues --    4.71745   4.72150   4.72949   4.74552   4.76969
 Alpha virt. eigenvalues --    4.78237   4.79961   4.83391   4.84809   4.85399
 Alpha virt. eigenvalues --    4.90291   4.92870   4.94132   4.95657   4.98662
 Alpha virt. eigenvalues --    4.99924   5.02528   5.06642   5.07508   5.09607
 Alpha virt. eigenvalues --    5.13112   5.20380   5.22940   5.27235   5.31808
 Alpha virt. eigenvalues --    5.32854   5.38977   5.39418   5.43268   5.44486
 Alpha virt. eigenvalues --    5.47304   5.49880   5.50881   5.52398   5.61300
 Alpha virt. eigenvalues --    5.66471   5.78293   5.88917   5.93117   5.99682
 Alpha virt. eigenvalues --    6.09626   6.12011   6.23550   6.42629   6.77750
 Alpha virt. eigenvalues --    7.07738  10.80340  11.10176  11.34410  11.56571
 Alpha virt. eigenvalues --   11.89690  12.00663  12.22386  12.92555  13.30488
 Alpha virt. eigenvalues --   15.90563
          Condensed to atoms (all electrons):
               1          2          3          4          5          6
     1  C    4.951371   0.395138  -0.037917   0.001896   0.000111  -0.000112
     2  C    0.395138   4.835261   0.424496  -0.033647  -0.004557   0.000927
     3  C   -0.037917   0.424496   4.826973   0.374389  -0.069276  -0.044083
     4  N    0.001896  -0.033647   0.374389   6.369579   0.370735   0.286427
     5  C    0.000111  -0.004557  -0.069276   0.370735   4.990173  -0.058172
     6  C   -0.000112   0.000927  -0.044083   0.286427  -0.058172   5.059714
     7  O    0.000006   0.000435  -0.003205  -0.051508   0.002418   0.345815
     8  C    0.000001  -0.000030   0.002842  -0.004535   0.000173   0.240486
     9  O   -0.000000   0.000000  -0.000044   0.000840  -0.000098  -0.043848
    10  H    0.376412  -0.022147   0.003016  -0.000080   0.000013   0.000000
    11  H    0.380195  -0.029732  -0.004638   0.000073   0.000005   0.000008
    12  H    0.379306  -0.030381  -0.003194   0.000092   0.000003   0.000002
    13  H   -0.034288   0.369602  -0.032078  -0.002302  -0.000807  -0.000021
    14  H   -0.033594   0.365187  -0.028491   0.003327  -0.000147   0.000411
    15  H   -0.002226  -0.030885   0.359151  -0.018678   0.005446  -0.003695
    16  H    0.000688  -0.047561   0.347765  -0.046637  -0.007257  -0.001021
    17  H   -0.000209   0.000059  -0.004556  -0.020113   0.384105   0.002814
    18  H   -0.000012   0.000332   0.004809  -0.025059   0.375180  -0.004005
    19  H    0.000071  -0.001101  -0.004456  -0.041960   0.360630  -0.007580
    20  H    0.000026  -0.000254  -0.007496  -0.049362  -0.005359   0.324555
    21  H    0.000008  -0.000215   0.000843   0.006235  -0.000227  -0.069748
    22  H    0.000000  -0.000001  -0.000494   0.012699  -0.001605  -0.116438
               7          8          9         10         11         12
     1  C    0.000006   0.000001  -0.000000   0.376412   0.380195   0.379306
     2  C    0.000435  -0.000030   0.000000  -0.022147  -0.029732  -0.030381
     3  C   -0.003205   0.002842  -0.000044   0.003016  -0.004638  -0.003194
     4  N   -0.051508  -0.004535   0.000840  -0.000080   0.000073   0.000092
     5  C    0.002418   0.000173  -0.000098   0.000013   0.000005   0.000003
     6  C    0.345815   0.240486  -0.043848   0.000000   0.000008   0.000002
     7  O    7.834212  -0.006708  -0.003982  -0.000000  -0.000000  -0.000007
     8  C   -0.006708   4.590608   0.727251  -0.000000   0.000000   0.000000
     9  O   -0.003982   0.727251   7.635250   0.000000  -0.000000  -0.000000
    10  H   -0.000000  -0.000000   0.000000   0.597157  -0.031503  -0.031115
    11  H   -0.000000   0.000000  -0.000000  -0.031503   0.595842  -0.032593
    12  H   -0.000007   0.000000  -0.000000  -0.031115  -0.032593   0.596498
    13  H   -0.000011   0.000000  -0.000000  -0.003125  -0.004946   0.005847
    14  H   -0.000014   0.000001   0.000000  -0.002445   0.005613  -0.004415
    15  H    0.014433   0.000397  -0.000001  -0.000147  -0.000399   0.004581
    16  H   -0.000918   0.000010   0.000002  -0.000117   0.005355  -0.000403
    17  H   -0.000056   0.000056  -0.000001   0.000006   0.000022   0.000004
    18  H    0.000123   0.002688  -0.000115  -0.000000  -0.000001   0.000000
    19  H   -0.000153  -0.001530   0.000030   0.000001   0.000021   0.000001
    20  H   -0.021976  -0.036021   0.000464   0.000000   0.000000   0.000001
    21  H    0.303138  -0.000706   0.000767  -0.000000  -0.000000   0.000001
    22  H    0.001785   0.348358  -0.053536   0.000000  -0.000000   0.000000
              13         14         15         16         17         18
     1  C   -0.034288  -0.033594  -0.002226   0.000688  -0.000209  -0.000012
     2  C    0.369602   0.365187  -0.030885  -0.047561   0.000059   0.000332
     3  C   -0.032078  -0.028491   0.359151   0.347765  -0.004556   0.004809
     4  N   -0.002302   0.003327  -0.018678  -0.046637  -0.020113  -0.025059
     5  C   -0.000807  -0.000147   0.005446  -0.007257   0.384105   0.375180
     6  C   -0.000021   0.000411  -0.003695  -0.001021   0.002814  -0.004005
     7  O   -0.000011  -0.000014   0.014433  -0.000918  -0.000056   0.000123
     8  C    0.000000   0.000001   0.000397   0.000010   0.000056   0.002688
     9  O   -0.000000   0.000000  -0.000001   0.000002  -0.000001  -0.000115
    10  H   -0.003125  -0.002445  -0.000147  -0.000117   0.000006  -0.000000
    11  H   -0.004946   0.005613  -0.000399   0.005355   0.000022  -0.000001
    12  H    0.005847  -0.004415   0.004581  -0.000403   0.000004   0.000000
    13  H    0.640691  -0.042414   0.005617  -0.005435   0.003372  -0.000145
    14  H   -0.042414   0.631184  -0.005604   0.006752   0.000712  -0.000079
    15  H    0.005617  -0.005604   0.602943  -0.044392   0.000044  -0.000204
    16  H   -0.005435   0.006752  -0.044392   0.684734  -0.000847  -0.000332
    17  H    0.003372   0.000712   0.000044  -0.000847   0.566170  -0.028796
    18  H   -0.000145  -0.000079  -0.000204  -0.000332  -0.028796   0.591826
    19  H    0.000707   0.000265  -0.000182   0.013974  -0.040585  -0.041053
    20  H   -0.000002   0.000037  -0.001173   0.013927  -0.000399  -0.000919
    21  H    0.000002   0.000031  -0.000759   0.000425  -0.000013  -0.000017
    22  H    0.000002   0.000003  -0.000045   0.000053   0.000086   0.002344
              19         20         21         22
     1  C    0.000071   0.000026   0.000008   0.000000
     2  C   -0.001101  -0.000254  -0.000215  -0.000001
     3  C   -0.004456  -0.007496   0.000843  -0.000494
     4  N   -0.041960  -0.049362   0.006235   0.012699
     5  C    0.360630  -0.005359  -0.000227  -0.001605
     6  C   -0.007580   0.324555  -0.069748  -0.116438
     7  O   -0.000153  -0.021976   0.303138   0.001785
     8  C   -0.001530  -0.036021  -0.000706   0.348358
     9  O    0.000030   0.000464   0.000767  -0.053536
    10  H    0.000001   0.000000  -0.000000   0.000000
    11  H    0.000021   0.000000  -0.000000  -0.000000
    12  H    0.000001   0.000001   0.000001   0.000000
    13  H    0.000707  -0.000002   0.000002   0.000002
    14  H    0.000265   0.000037   0.000031   0.000003
    15  H   -0.000182  -0.001173  -0.000759  -0.000045
    16  H    0.013974   0.013927   0.000425   0.000053
    17  H   -0.040585  -0.000399  -0.000013   0.000086
    18  H   -0.041053  -0.000919  -0.000017   0.002344
    19  H    0.642751   0.013770   0.000087   0.000920
    20  H    0.013770   0.653205   0.008767   0.007530
    21  H    0.000087   0.008767   0.462316   0.001736
    22  H    0.000920   0.007530   0.001736   0.699869
 Mulliken charges:
               1
     1  C   -0.376871
     2  C   -0.190928
     3  C   -0.104355
     4  N   -0.132410
     5  C   -0.341487
     6  C    0.087565
     7  O   -0.413825
     8  C    0.136659
     9  O   -0.262979
    10  H    0.114073
    11  H    0.116677
    12  H    0.115771
    13  H    0.099735
    14  H    0.103680
    15  H    0.115780
    16  H    0.081235
    17  H    0.138126
    18  H    0.123435
    19  H    0.105372
    20  H    0.100681
    21  H    0.287331
    22  H    0.096734
 Sum of Mulliken charges =  -0.00000
 Mulliken charges with hydrogens summed into heavy atoms:
               1
     1  C   -0.030350
     2  C    0.012487
     3  C    0.092661
     4  N   -0.132410
     5  C    0.025446
     6  C    0.188247
     7  O   -0.126495
     8  C    0.233393
     9  O   -0.262979
 Electronic spatial extent (au):  <R**2>=           1751.0442
 Charge=             -0.0000 electrons
 Dipole moment (field-independent basis, Debye):
    X=             -3.0114    Y=              1.5166    Z=             -0.8525  Tot=              3.4779
 Quadrupole moment (field-independent basis, Debye-Ang):
   XX=            -67.8594   YY=            -55.2781   ZZ=            -53.6848
   XY=              2.1709   XZ=             -2.6469   YZ=              2.6207
 Traceless Quadrupole moment (field-independent basis, Debye-Ang):
   XX=             -8.9187   YY=              3.6627   ZZ=              5.2560
   XY=              2.1709   XZ=             -2.6469   YZ=              2.6207
 Octapole moment (field-independent basis, Debye-Ang**2):
  XXX=            -42.2941  YYY=              0.3814  ZZZ=             -1.4920  XYY=              4.2066
  XXY=              4.8730  XXZ=             -9.1246  XZZ=              9.7881  YZZ=             -6.1009
  YYZ=             -6.8023  XYZ=              2.4775
 Hexadecapole moment (field-independent basis, Debye-Ang**3):
 XXXX=          -2009.7150 YYYY=           -367.3141 ZZZZ=           -111.0812 XXXY=            -10.2995
 XXXZ=             -9.2938 YYYX=             -1.7044 YYYZ=              8.6643 ZZZX=             -2.1729
 ZZZY=              6.2455 XXYY=           -353.1694 XXZZ=           -304.8059 YYZZ=            -75.3191
 XXYZ=              5.3110 YYXZ=             -4.9962 ZZXY=             -7.0193
 N-N= 4.752507760969D+02 E-N=-1.980262838473D+03  KE= 4.382984568328D+02
 PrsmSu:  requested number of processors reduced to:  13 ShMem   1 Linda.
 Calling FoFJK, ICntrl=      2127 FMM=F ISym2X=0 I1Cent= 0 IOpClX= 0 NMat=1 NMatS=1 NMatT=0.
 ***** Axes restored to original set *****
 -------------------------------------------------------------------
 Center     Atomic                   Forces (Hartrees/Bohr)
 Number     Number              X              Y              Z
 -------------------------------------------------------------------
      1        6          -0.004303146    0.000729651   -0.001542147
      2        6           0.002329682    0.000151723    0.003346507
      3        6           0.003025248    0.004825920   -0.011947838
      4        7          -0.001632927   -0.002477531    0.007916655
      5        6           0.005690138    0.000207978   -0.006298365
      6        6           0.001884464    0.003587929   -0.011190866
      7        8           0.002633367    0.005634409    0.001292613
      8        6           0.028141257   -0.029379718    0.018223196
      9        8          -0.029716474    0.031303296   -0.017033383
     10        1          -0.002564878   -0.001256134   -0.000055514
     11        1          -0.002103022   -0.000776494   -0.000531926
     12        1          -0.002921203   -0.000668606   -0.000025418
     13        1           0.003265703   -0.000215604   -0.000929253
     14        1           0.002073946   -0.000273873    0.000901471
     15        1           0.005869096    0.000394494    0.003513994
     16        1          -0.001606789    0.000399652    0.004595125
     17        1          -0.003417656   -0.003811904    0.000105747
     18        1           0.000941983   -0.005187233    0.001765795
     19        1          -0.001564841    0.002012893    0.005450036
     20        1          -0.004199224   -0.006475729    0.003256185
     21        1          -0.002321819   -0.001515959    0.004178925
     22        1           0.000497094    0.002790838   -0.004991539
 -------------------------------------------------------------------
 Cartesian Forces:  Max     0.031303296 RMS     0.008713250

 GradGradGradGradGradGradGradGradGradGradGradGradGradGradGradGradGradGrad
 Berny optimization.
 FormGI is forming the generalized inverse of G from B-inverse, IUseBI=4.
 Internal  Forces:  Max     0.045901717 RMS     0.005620691
 Search for a local minimum.
 Step number   1 out of a maximum of  113
 All quantities printed in internal units (Hartrees-Bohrs-Radians)
 Mixed Optimization -- RFO/linear search
 Second derivative matrix not updated -- first step.
 ITU=  0
     Eigenvalues ---    0.00268   0.00273   0.00307   0.00548   0.00562
     Eigenvalues ---    0.00650   0.00716   0.01461   0.03077   0.03710
     Eigenvalues ---    0.04038   0.04900   0.05452   0.05661   0.05801
     Eigenvalues ---    0.05829   0.06270   0.06891   0.07171   0.08173
     Eigenvalues ---    0.08282   0.09284   0.12058   0.12834   0.16000
     Eigenvalues ---    0.16000   0.16000   0.16000   0.16000   0.16000
     Eigenvalues ---    0.16000   0.16000   0.16091   0.16376   0.18325
     Eigenvalues ---    0.19971   0.21912   0.21951   0.22002   0.28728
     Eigenvalues ---    0.28993   0.30711   0.33544   0.33824   0.33902
     Eigenvalues ---    0.33954   0.34107   0.34107   0.34216   0.34252
     Eigenvalues ---    0.34325   0.34393   0.34427   0.34484   0.34542
     Eigenvalues ---    0.34713   0.35298   0.42847   0.53175   0.90123
 RFO step:  Lambda=-1.03700898D-02 EMin= 2.67945458D-03
 Linear search not attempted -- first point.
 Iteration  1 RMS(Cart)=  0.12342026 RMS(Int)=  0.00368401
 Iteration  2 RMS(Cart)=  0.00702583 RMS(Int)=  0.00028747
 Iteration  3 RMS(Cart)=  0.00001607 RMS(Int)=  0.00028723
 Iteration  4 RMS(Cart)=  0.00000000 RMS(Int)=  0.00028723
 Variable       Old X    -DE/DX   Delta X   Delta X   Delta X     New X
                                 (Linear)    (Quad)   (Total)
    R1        2.86567   0.01190   0.00000   0.03750   0.03750   2.90317
    R2        2.06785  -0.00012   0.00000  -0.00034  -0.00034   2.06751
    R3        2.06907   0.00024   0.00000   0.00067   0.00067   2.06974
    R4        2.06522   0.00159   0.00000   0.00447   0.00447   2.06968
    R5        2.90017  -0.00081   0.00000  -0.00270  -0.00270   2.89746
    R6        2.06672   0.00030   0.00000   0.00085   0.00085   2.06757
    R7        2.07150  -0.00015   0.00000  -0.00042  -0.00042   2.07108
    R8        2.80708  -0.00301   0.00000  -0.00860  -0.00860   2.79848
    R9        2.07496  -0.00400   0.00000  -0.01146  -0.01146   2.06351
   R10        2.07628   0.00485   0.00000   0.01390   0.01390   2.09018
   R11        2.78494  -0.00442   0.00000  -0.01218  -0.01218   2.77277
   R12        2.79444  -0.00877   0.00000  -0.02453  -0.02453   2.76990
   R13        2.06616  -0.00239   0.00000  -0.00673  -0.00673   2.05943
   R14        2.06425   0.00075   0.00000   0.00212   0.00212   2.06637
   R15        2.06967   0.00571   0.00000   0.01620   0.01620   2.08588
   R16        2.67859  -0.00604   0.00000  -0.01376  -0.01376   2.66483
   R17        2.90573  -0.00137   0.00000  -0.00461  -0.00461   2.90113
   R18        2.07150   0.00464   0.00000   0.01320   0.01320   2.08470
   R19        1.83491  -0.00481   0.00000  -0.00888  -0.00888   1.82603
   R20        2.32876  -0.04590   0.00000  -0.05035  -0.05035   2.27841
   R21        2.08107   0.00470   0.00000   0.01359   0.01359   2.09466
    A1        1.91517   0.00317   0.00000   0.02032   0.02016   1.93533
    A2        1.92770   0.00196   0.00000   0.01144   0.01134   1.93903
    A3        1.93989   0.00231   0.00000   0.01192   0.01185   1.95175
    A4        1.88540  -0.00212   0.00000  -0.00916  -0.00934   1.87605
    A5        1.89651  -0.00285   0.00000  -0.01667  -0.01679   1.87972
    A6        1.89804  -0.00273   0.00000  -0.01921  -0.01923   1.87881
    A7        1.94696  -0.00051   0.00000   0.00092   0.00079   1.94776
    A8        1.85786   0.00286   0.00000   0.03616   0.03608   1.89394
    A9        1.92046   0.00059   0.00000   0.00063   0.00055   1.92102
   A10        1.94230  -0.00084   0.00000  -0.00196  -0.00231   1.93999
   A11        1.91734  -0.00117   0.00000  -0.02191  -0.02198   1.89536
   A12        1.87691  -0.00083   0.00000  -0.01266  -0.01288   1.86403
   A13        1.96696   0.01030   0.00000   0.04820   0.04791   2.01486
   A14        1.87099   0.00031   0.00000   0.00584   0.00668   1.87767
   A15        1.91287  -0.00269   0.00000   0.00620   0.00547   1.91834
   A16        1.91899  -0.00767   0.00000  -0.06294  -0.06290   1.85609
   A17        1.92671  -0.00195   0.00000   0.00449   0.00336   1.93008
   A18        1.86370   0.00128   0.00000  -0.00479  -0.00515   1.85854
   A19        1.90434   0.00602   0.00000   0.04651   0.04648   1.95082
   A20        1.90431  -0.00084   0.00000   0.00703   0.00673   1.91105
   A21        1.92356  -0.00333   0.00000  -0.00782  -0.00846   1.91510
   A22        1.94780  -0.00432   0.00000  -0.02331  -0.02331   1.92449
   A23        1.95828  -0.00445   0.00000  -0.02436  -0.02436   1.93392
   A24        1.95099   0.00348   0.00000   0.01660   0.01666   1.96766
   A25        1.80728   0.00595   0.00000   0.04237   0.04230   1.84958
   A26        1.89984  -0.00021   0.00000  -0.00442  -0.00436   1.89548
   A27        1.89325  -0.00022   0.00000  -0.00494  -0.00488   1.88837
   A28        1.92517   0.00254   0.00000   0.01109   0.01113   1.93630
   A29        1.94380  -0.00421   0.00000  -0.01163  -0.01169   1.93211
   A30        1.93555   0.00229   0.00000   0.02128   0.02123   1.95677
   A31        1.88766   0.00166   0.00000   0.00645   0.00650   1.89416
   A32        1.88873  -0.00491   0.00000  -0.05092  -0.05083   1.83790
   A33        1.88108   0.00257   0.00000   0.02233   0.02226   1.90334
   A34        1.84320   0.00255   0.00000   0.01498   0.01498   1.85818
   A35        2.17283  -0.00904   0.00000  -0.03989  -0.04090   2.13192
   A36        2.02965   0.00241   0.00000   0.00626   0.00524   2.03490
   A37        2.07997   0.00658   0.00000   0.03073   0.02971   2.10967
    D1        3.11902   0.00088   0.00000   0.02153   0.02165   3.14067
    D2        0.99720   0.00036   0.00000   0.00007   0.00001   0.99721
    D3       -1.03154  -0.00054   0.00000  -0.00528  -0.00529  -1.03683
    D4        1.04234   0.00030   0.00000   0.01307   0.01312   1.05546
    D5       -1.07948  -0.00022   0.00000  -0.00839  -0.00851  -1.08800
    D6       -3.10822  -0.00112   0.00000  -0.01374  -0.01381  -3.12203
    D7       -1.06604   0.00088   0.00000   0.02168   0.02181  -1.04423
    D8        3.09533   0.00036   0.00000   0.00022   0.00017   3.09550
    D9        1.06659  -0.00054   0.00000  -0.00512  -0.00512   1.06147
   D10       -3.13840  -0.00348   0.00000  -0.08805  -0.08810   3.05669
   D11        1.03107  -0.00045   0.00000  -0.04317  -0.04322   0.98785
   D12       -0.98539  -0.00075   0.00000  -0.04387  -0.04362  -1.02901
   D13       -1.06627  -0.00077   0.00000  -0.04311  -0.04329  -1.10957
   D14        3.10319   0.00226   0.00000   0.00177   0.00159   3.10478
   D15        1.08673   0.00197   0.00000   0.00106   0.00119   1.08791
   D16        1.01037  -0.00308   0.00000  -0.07423  -0.07431   0.93606
   D17       -1.10335  -0.00005   0.00000  -0.02935  -0.02942  -1.13277
   D18       -3.11981  -0.00034   0.00000  -0.03006  -0.02983   3.13355
   D19        1.07044   0.00216   0.00000   0.09975   0.10002   1.17046
   D20       -3.11023   0.00124   0.00000   0.12264   0.12336  -2.98688
   D21       -3.12662   0.00402   0.00000   0.09546   0.09467  -3.03195
   D22       -1.02410   0.00310   0.00000   0.11836   0.11800  -0.90610
   D23       -1.07485  -0.00026   0.00000   0.05399   0.05385  -1.02100
   D24        1.02767  -0.00119   0.00000   0.07688   0.07718   1.10485
   D25       -1.10764   0.00064   0.00000  -0.00761  -0.00754  -1.11518
   D26       -3.12709  -0.00122   0.00000  -0.03022  -0.03025   3.12584
   D27        1.02471  -0.00024   0.00000  -0.01822  -0.01820   1.00651
   D28        3.08488  -0.00005   0.00000  -0.04042  -0.04039   3.04449
   D29        1.06543  -0.00190   0.00000  -0.06303  -0.06310   1.00233
   D30       -1.06595  -0.00093   0.00000  -0.05103  -0.05105  -1.11700
   D31        1.02382  -0.00457   0.00000  -0.09345  -0.09333   0.93048
   D32        3.12000  -0.00355   0.00000  -0.08555  -0.08547   3.03454
   D33       -1.06834  -0.00158   0.00000  -0.05076  -0.05061  -1.11895
   D34        3.11450   0.00027   0.00000  -0.03673  -0.03685   3.07764
   D35       -1.07250   0.00129   0.00000  -0.02884  -0.02899  -1.10149
   D36        1.02234   0.00327   0.00000   0.00595   0.00587   1.02821
   D37        0.99469  -0.00138   0.00000  -0.00577  -0.00573   0.98896
   D38       -1.13499   0.00118   0.00000  -0.00243  -0.00244  -1.13743
   D39        3.11489  -0.00013   0.00000  -0.00517  -0.00519   3.10970
   D40        3.10320  -0.00051   0.00000  -0.04033  -0.04034   3.06287
   D41       -0.08019  -0.00161   0.00000  -0.12173  -0.12167  -0.20186
   D42       -1.06179   0.00111   0.00000  -0.02956  -0.02958  -1.09137
   D43        2.03800   0.00002   0.00000  -0.11097  -0.11091   1.92709
   D44        0.97647  -0.00243   0.00000  -0.07424  -0.07432   0.90215
   D45       -2.20693  -0.00353   0.00000  -0.15564  -0.15565  -2.36258
         Item               Value     Threshold  Converged?
 Maximum Force            0.045902     0.000450     NO 
 RMS     Force            0.005621     0.000300     NO 
 Maximum Displacement     0.396804     0.001800     NO 
 RMS     Displacement     0.122352     0.001200     NO 
 Predicted change in Energy=-6.204762D-03
 GradGradGradGradGradGradGradGradGradGradGradGradGradGradGradGradGradGrad

                          Input orientation:                          
 ---------------------------------------------------------------------
 Center     Atomic      Atomic             Coordinates (Angstroms)
 Number     Number       Type             X           Y           Z
 ---------------------------------------------------------------------
      1          6           0        0.884825   -0.186721   -0.096867
      2          6           0        2.414452   -0.068054   -0.017185
      3          6           0        3.030244   -1.229163    0.772467
      4          7           0        4.510395   -1.260790    0.807040
      5          6           0        5.061451   -0.130178    1.562672
      6          6           0        4.958887   -2.521427    1.405475
      7          8           0        4.376778   -3.625841    0.749735
      8          6           0        6.486065   -2.651046    1.317165
      9          8           0        7.081810   -3.572013    1.817743
     10          1           0        0.457775    0.647442   -0.661500
     11          1           0        0.435694   -0.172292    0.901966
     12          1           0        0.573423   -1.115033   -0.587571
     13          1           0        2.665001    0.895203    0.437176
     14          1           0        2.844336   -0.064161   -1.025318
     15          1           0        2.714103   -2.158156    0.293505
     16          1           0        2.616786   -1.248329    1.798180
     17          1           0        4.815191    0.809668    1.068989
     18          1           0        6.153507   -0.177743    1.591635
     19          1           0        4.690529   -0.089991    2.601504
     20          1           0        4.650076   -2.613324    2.460552
     21          1           0        4.613003   -3.545779   -0.183813
     22          1           0        7.009219   -1.921124    0.667410
 ---------------------------------------------------------------------
                    Distance matrix (angstroms):
                    1          2          3          4          5
     1  C    0.000000
     2  C    1.536291   0.000000
     3  C    2.538749   1.533272   0.000000
     4  N    3.887857   2.548517   1.480893   0.000000
     5  C    4.494605   3.083247   2.440901   1.467286   0.000000
     6  C    4.930098   3.810138   2.406307   1.465768   2.398605
     7  O    4.973733   4.134820   2.749134   2.369515   3.653670
     8  C    6.280627   5.003036   3.776393   2.469071   2.905955
     9  O    7.316321   6.117918   4.795492   3.602145   3.999143
    10  H    1.094080   2.180748   3.492206   4.713988   5.171602
    11  H    1.095260   2.184305   2.804539   4.218653   4.672894
    12  H    1.095229   2.193375   2.810463   4.179227   5.073055
    13  H    2.150532   1.094114   2.181457   2.861920   2.839212
    14  H    2.171802   1.095968   2.150307   2.750492   3.408468
    15  H    2.717573   2.134207   1.091960   2.072595   3.351645
    16  H    2.778111   2.174750   1.106075   2.137351   2.698539
    17  H    4.218979   2.777358   2.725948   2.109102   1.089806
    18  H    5.532642   4.071961   3.395776   2.118584   1.093475
    19  H    4.666256   3.469660   2.720227   2.150191   1.103798
    20  H    5.158091   4.197093   2.718343   2.140785   2.672346
    21  H    5.018978   4.117761   2.964171   2.492688   3.862337
    22  H    6.410965   5.001441   4.040060   2.588369   2.793346
                    6          7          8          9         10
     6  C    0.000000
     7  O    1.410169   0.000000
     8  C    1.535210   2.391922   0.000000
     9  O    2.404266   2.908734   1.205683   0.000000
    10  H    5.879977   5.967505   7.150903   8.235793   0.000000
    11  H    5.121644   5.242359   6.551611   7.521145   1.765468
    12  H    5.018215   4.749532   6.398960   7.360801   1.767812
    13  H    4.227633   4.844349   5.286851   6.431967   2.477967
    14  H    4.051943   4.264359   5.043946   6.192270   2.516826
    15  H    2.531304   2.264229   3.939355   4.837268   3.724839
    16  H    2.694520   3.138371   4.143707   5.033521   3.782235
    17  H    3.351129   4.468541   3.850967   4.989722   4.691266
    18  H    2.637163   3.969249   2.510609   3.526180   6.180527
    19  H    2.722937   4.003714   3.381196   4.296160   5.395109
    20  H    1.103175   2.006683   2.163241   2.691769   6.160778
    21  H    1.922178   0.966293   2.561609   3.178352   5.922601
    22  H    2.260301   3.137288   1.108448   2.013447   7.161351
                   11         12         13         14         15
    11  H    0.000000
    12  H    1.768177   0.000000
    13  H    2.515032   3.076663   0.000000
    14  H    3.086693   2.540276   1.758246   0.000000
    15  H    3.083023   2.539077   3.057131   2.478118   0.000000
    16  H    2.591953   3.144028   2.539564   3.070207   1.761052
    17  H    4.491340   4.943810   2.242726   3.005656   3.718053
    18  H    5.759259   6.063398   3.828011   4.220422   4.175725
    19  H    4.582447   5.307681   3.123729   4.069759   3.675653
    20  H    5.113594   5.306131   4.510469   4.680835   2.941303
    21  H    5.478069   4.731781   4.889035   3.994744   2.399823
    22  H    6.806222   6.606378   5.182368   4.864143   4.317871
                   16         17         18         19         20
    16  H    0.000000
    17  H    3.098395   0.000000
    18  H    3.700975   1.743339   0.000000
    19  H    2.507486   1.781441   1.779844   0.000000
    20  H    2.536970   3.698727   2.991217   2.527590   0.000000
    21  H    3.632004   4.536552   4.107193   4.439197   2.804196
    22  H    4.585276   3.525939   2.150769   3.531302   3.043033
                   21         22
    21  H    0.000000
    22  H    3.017604   0.000000
 Stoichiometry    C6H13NO2
 Framework group  C1[X(C6H13NO2)]
 Deg. of freedom    60
 Full point group                 C1      NOp   1
 Largest Abelian subgroup         C1      NOp   1
 Largest concise Abelian subgroup C1      NOp   1
                         Standard orientation:                         
 ---------------------------------------------------------------------
 Center     Atomic      Atomic             Coordinates (Angstroms)
 Number     Number       Type             X           Y           Z
 ---------------------------------------------------------------------
      1          6           0       -3.743027   -0.527073    0.073612
      2          6           0       -2.524740    0.287285   -0.387676
      3          6           0       -1.228057   -0.227619    0.248257
      4          7           0        0.014822    0.424432   -0.224103
      5          6           0        0.081400    1.831400    0.186919
      6          6           0        1.176620   -0.299573    0.299841
      7          8           0        1.096179   -1.673012   -0.009629
      8          6           0        2.477344    0.258992   -0.294291
      9          8           0        3.562626   -0.132527    0.055775
     10          1           0       -4.661291   -0.149533   -0.386024
     11          1           0       -3.869552   -0.466284    1.159840
     12          1           0       -3.649086   -1.585696   -0.190998
     13          1           0       -2.695688    1.339065   -0.139446
     14          1           0       -2.425728    0.231101   -1.477716
     15          1           0       -1.134724   -1.286009   -0.003690
     16          1           0       -1.301358   -0.172623    1.350529
     17          1           0       -0.724170    2.399087   -0.278340
     18          1           0        1.011615    2.292633   -0.156083
     19          1           0        0.016135    1.959724    1.281288
     20          1           0        1.233879   -0.251973    1.400501
     21          1           0        1.015690   -1.732963   -0.970696
     22          1           0        2.372847    0.956286   -1.149580
 ---------------------------------------------------------------------
 Rotational constants (GHZ):           3.6806037           0.7568941           0.6563360
 Standard basis: 6-31G(2df,p) (6D, 7F)
 There are   344 symmetry adapted cartesian basis functions of A   symmetry.
 There are   317 symmetry adapted basis functions of A   symmetry.
   317 basis functions,   487 primitive gaussians,   344 cartesian basis functions
    36 alpha electrons       36 beta electrons
       nuclear repulsion energy       476.4132511800 Hartrees.
 NAtoms=   22 NActive=   22 NUniq=   22 SFac= 1.00D+00 NAtFMM=   60 NAOKFM=F Big=F
 Integral buffers will be    131072 words long.
 Raffenetti 2 integral format.
 Two-electron integral symmetry is turned on.
 One-electron integrals computed using PRISM.
 PrsmSu:  requested number of processors reduced to:  13 ShMem   1 Linda.
 NBasis=   317 RedAO= T EigKep=  3.27D-04  NBF=   317
 NBsUse=   317 1.00D-06 EigRej= -1.00D+00 NBFU=   317
 Initial guess from the checkpoint file:  "CCCNpCpCpOpCdO.chk"
 B after Tr=     0.000000    0.000000   -0.000000
         Rot=    0.999939    0.005982   -0.000525    0.009258 Ang=   1.26 deg.
 ExpMin= 1.61D-01 ExpMax= 5.48D+03 ExpMxC= 8.25D+02 IAcc=2 IRadAn=         4 AccDes= 0.00D+00
 Harris functional with IExCor=  402 and IRadAn=       4 diagonalized for initial guess.
 HarFok:  IExCor=  402 AccDes= 0.00D+00 IRadAn=         4 IDoV= 1 UseB2=F ITyADJ=14
 ICtDFT=  3500011 ScaDFX=  1.000000  1.000000  1.000000  1.000000
 FoFCou: FMM=F IPFlag=           0 FMFlag=      100000 FMFlg1=           0
         NFxFlg=           0 DoJE=T BraDBF=F KetDBF=T FulRan=T
         wScrn=  0.000000 ICntrl=       500 IOpCl=  0 I1Cent=   200000004 NGrid=           0
         NMat0=    1 NMatS0=      1 NMatT0=    0 NMatD0=    1 NMtDS0=    0 NMtDT0=    0
 Petite list used in FoFCou.
 Requested convergence on RMS density matrix=1.00D-08 within 128 cycles.
 Requested convergence on MAX density matrix=1.00D-06.
 Requested convergence on             energy=1.00D-06.
 No special actions if energy rises.
 Integral accuracy reduced to 1.0D-05 until final iterations.
 Initial convergence to 1.0D-05 achieved.  Increase integral accuracy.
 SCF Done:  E(RB3LYP) =  -441.659465597     A.U. after   13 cycles
            NFock= 13  Conv=0.36D-08     -V/T= 2.0075
 PrsmSu:  requested number of processors reduced to:  13 ShMem   1 Linda.
 Calling FoFJK, ICntrl=      2127 FMM=F ISym2X=0 I1Cent= 0 IOpClX= 0 NMat=1 NMatS=1 NMatT=0.
 ***** Axes restored to original set *****
 -------------------------------------------------------------------
 Center     Atomic                   Forces (Hartrees/Bohr)
 Number     Number              X              Y              Z
 -------------------------------------------------------------------
      1        6           0.001637483    0.000585483    0.000281410
      2        6           0.000957696   -0.001138474    0.000703224
      3        6           0.000518132    0.000165956   -0.003960891
      4        7          -0.003589862    0.000507385    0.005132618
      5        6          -0.000018000   -0.000840030   -0.003026492
      6        6          -0.004203790    0.005424686   -0.002019547
      7        8           0.003339505   -0.000430375   -0.000702464
      8        6           0.005517630   -0.011710794   -0.000581782
      9        8          -0.002562438    0.006477266    0.000855857
     10        1           0.000141606   -0.000078871   -0.000101924
     11        1          -0.000092288   -0.000308175    0.000141933
     12        1           0.000626743   -0.000266335    0.000081408
     13        1           0.000978857    0.000954207    0.000480594
     14        1           0.000358565    0.000450404   -0.000244790
     15        1          -0.000602551   -0.000100023    0.002137406
     16        1           0.000063146    0.001187952    0.000890285
     17        1          -0.002058440    0.000872740   -0.000414186
     18        1          -0.000029211   -0.001262647    0.001102143
     19        1          -0.000329386    0.000149398    0.000528434
     20        1           0.000350729   -0.001895347    0.000770826
     21        1          -0.000205389   -0.001258446   -0.000426215
     22        1          -0.000798738    0.002514040   -0.001627847
 -------------------------------------------------------------------
 Cartesian Forces:  Max     0.011710794 RMS     0.002417499

 GradGradGradGradGradGradGradGradGradGradGradGradGradGradGradGradGradGrad
 Berny optimization.
 Using GEDIIS/GDIIS optimizer.
 FormGI is forming the generalized inverse of G from B-inverse, IUseBI=4.
 Internal  Forces:  Max     0.007449497 RMS     0.001906018
 Search for a local minimum.
 Step number   2 out of a maximum of  113
 All quantities printed in internal units (Hartrees-Bohrs-Radians)
 Mixed Optimization -- RFO/linear search
 Update second derivatives using D2CorX and points    1    2
 DE= -5.23D-03 DEPred=-6.20D-03 R= 8.42D-01
 TightC=F SS=  1.41D+00  RLast= 4.44D-01 DXNew= 5.0454D-01 1.3309D+00
 Trust test= 8.42D-01 RLast= 4.44D-01 DXMaxT set to 5.05D-01
 ITU=  1  0
 Use linear search instead of GDIIS.
     Eigenvalues ---    0.00253   0.00306   0.00341   0.00548   0.00586
     Eigenvalues ---    0.00689   0.00746   0.01462   0.02740   0.03662
     Eigenvalues ---    0.03959   0.04895   0.05373   0.05541   0.05637
     Eigenvalues ---    0.05717   0.06278   0.06946   0.07229   0.08101
     Eigenvalues ---    0.08406   0.09712   0.12056   0.12975   0.14751
     Eigenvalues ---    0.16000   0.16000   0.16000   0.16000   0.16000
     Eigenvalues ---    0.16000   0.16040   0.16666   0.17574   0.18233
     Eigenvalues ---    0.19872   0.21795   0.21918   0.25646   0.28823
     Eigenvalues ---    0.28931   0.31635   0.32804   0.33654   0.33863
     Eigenvalues ---    0.33971   0.34105   0.34138   0.34251   0.34266
     Eigenvalues ---    0.34325   0.34391   0.34470   0.34521   0.34547
     Eigenvalues ---    0.35049   0.35610   0.42955   0.53186   0.82126
 RFO step:  Lambda=-4.41970257D-03 EMin= 2.53328412D-03
 Quartic linear search produced a step of  0.01991.
 Iteration  1 RMS(Cart)=  0.06444462 RMS(Int)=  0.02260328
 Iteration  2 RMS(Cart)=  0.02307641 RMS(Int)=  0.00269827
 Iteration  3 RMS(Cart)=  0.00135064 RMS(Int)=  0.00233610
 Iteration  4 RMS(Cart)=  0.00000270 RMS(Int)=  0.00233610
 Iteration  5 RMS(Cart)=  0.00000002 RMS(Int)=  0.00233610
 Variable       Old X    -DE/DX   Delta X   Delta X   Delta X     New X
                                 (Linear)    (Quad)   (Total)
    R1        2.90317  -0.00232   0.00075   0.00606   0.00680   2.90997
    R2        2.06751  -0.00006  -0.00001  -0.00030  -0.00030   2.06721
    R3        2.06974   0.00016   0.00001   0.00069   0.00071   2.07045
    R4        2.06968   0.00001   0.00009   0.00162   0.00171   2.07139
    R5        2.89746  -0.00239  -0.00005  -0.00887  -0.00892   2.88854
    R6        2.06757   0.00126   0.00002   0.00383   0.00385   2.07142
    R7        2.07108   0.00037  -0.00001   0.00088   0.00088   2.07196
    R8        2.79848  -0.00456  -0.00017  -0.01595  -0.01612   2.78236
    R9        2.06351  -0.00068  -0.00023  -0.00599  -0.00621   2.05729
   R10        2.09018   0.00078   0.00028   0.00715   0.00743   2.09761
   R11        2.77277  -0.00268  -0.00024  -0.01161  -0.01186   2.76091
   R12        2.76990  -0.00033  -0.00049  -0.00962  -0.01011   2.75980
   R13        2.05943   0.00141  -0.00013   0.00153   0.00140   2.06083
   R14        2.06637   0.00005   0.00004   0.00091   0.00095   2.06732
   R15        2.08588   0.00061   0.00032   0.00747   0.00779   2.09367
   R16        2.66483   0.00055  -0.00027  -0.00365  -0.00392   2.66091
   R17        2.90113   0.00245  -0.00009   0.00655   0.00646   2.90758
   R18        2.08470   0.00080   0.00026   0.00693   0.00719   2.09189
   R19        1.82603   0.00026  -0.00018  -0.00270  -0.00287   1.82316
   R20        2.27841  -0.00586  -0.00100  -0.02428  -0.02528   2.25313
   R21        2.09466   0.00223   0.00027   0.01121   0.01148   2.10615
    A1        1.93533   0.00006   0.00040   0.00826   0.00863   1.94396
    A2        1.93903   0.00028   0.00023   0.00594   0.00613   1.94516
    A3        1.95175  -0.00104   0.00024  -0.00323  -0.00298   1.94876
    A4        1.87605   0.00013  -0.00019  -0.00023  -0.00048   1.87558
    A5        1.87972   0.00043  -0.00033  -0.00406  -0.00439   1.87533
    A6        1.87881   0.00019  -0.00038  -0.00728  -0.00766   1.87115
    A7        1.94776  -0.00102   0.00002  -0.00380  -0.00379   1.94396
    A8        1.89394   0.00090   0.00072   0.01894   0.01965   1.91359
    A9        1.92102   0.00022   0.00001   0.00150   0.00148   1.92250
   A10        1.93999  -0.00015  -0.00005  -0.00359  -0.00367   1.93631
   A11        1.89536   0.00047  -0.00044  -0.00572  -0.00617   1.88919
   A12        1.86403  -0.00038  -0.00026  -0.00753  -0.00786   1.85617
   A13        2.01486  -0.00745   0.00095  -0.01782  -0.01692   1.99795
   A14        1.87767   0.00279   0.00013   0.02575   0.02593   1.90360
   A15        1.91834   0.00162   0.00011  -0.00319  -0.00326   1.91508
   A16        1.85609   0.00260  -0.00125   0.00007  -0.00105   1.85504
   A17        1.93008   0.00212   0.00007  -0.00260  -0.00270   1.92737
   A18        1.85854  -0.00121  -0.00010   0.00029   0.00014   1.85868
   A19        1.95082  -0.00516   0.00093  -0.00525  -0.00500   1.94582
   A20        1.91105   0.00619   0.00013   0.04570   0.04575   1.95679
   A21        1.91510  -0.00004  -0.00017   0.00571   0.00511   1.92021
   A22        1.92449  -0.00095  -0.00046  -0.01274  -0.01322   1.91127
   A23        1.93392  -0.00021  -0.00048  -0.00780  -0.00828   1.92564
   A24        1.96766  -0.00013   0.00033   0.00196   0.00226   1.96992
   A25        1.84958   0.00178   0.00084   0.03164   0.03250   1.88208
   A26        1.89548  -0.00014  -0.00009  -0.00609  -0.00622   1.88926
   A27        1.88837  -0.00022  -0.00010  -0.00501  -0.00513   1.88324
   A28        1.93630   0.00424   0.00022   0.02748   0.02760   1.96390
   A29        1.93211  -0.00170  -0.00023  -0.01425  -0.01436   1.91776
   A30        1.95677   0.00014   0.00042   0.01388   0.01428   1.97106
   A31        1.89416  -0.00296   0.00013  -0.01541  -0.01520   1.87896
   A32        1.83790  -0.00035  -0.00101  -0.01519  -0.01644   1.82146
   A33        1.90334   0.00057   0.00044   0.00256   0.00295   1.90629
   A34        1.85818   0.00228   0.00030   0.01872   0.01902   1.87721
   A35        2.13192   0.00153  -0.00081   0.00037  -0.01398   2.11794
   A36        2.03490  -0.00288   0.00010  -0.00127  -0.01473   2.02017
   A37        2.10967   0.00161   0.00059   0.03399   0.02079   2.13046
    D1        3.14067   0.00007   0.00043   0.00956   0.01003  -3.13249
    D2        0.99721   0.00031   0.00000   0.00355   0.00357   1.00078
    D3       -1.03683   0.00013  -0.00011   0.00086   0.00076  -1.03606
    D4        1.05546  -0.00031   0.00026   0.00050   0.00076   1.05622
    D5       -1.08800  -0.00008  -0.00017  -0.00551  -0.00570  -1.09369
    D6       -3.12203  -0.00025  -0.00027  -0.00820  -0.00850  -3.13053
    D7       -1.04423  -0.00004   0.00043   0.00789   0.00834  -1.03589
    D8        3.09550   0.00020   0.00000   0.00188   0.00188   3.09738
    D9        1.06147   0.00002  -0.00010  -0.00081  -0.00093   1.06054
   D10        3.05669   0.00055  -0.00175  -0.01722  -0.01903   3.03767
   D11        0.98785  -0.00013  -0.00086  -0.02466  -0.02545   0.96240
   D12       -1.02901  -0.00108  -0.00087  -0.03758  -0.03842  -1.06743
   D13       -1.10957   0.00089  -0.00086   0.00187   0.00093  -1.10864
   D14        3.10478   0.00020   0.00003  -0.00556  -0.00550   3.09928
   D15        1.08791  -0.00075   0.00002  -0.01848  -0.01846   1.06945
   D16        0.93606   0.00062  -0.00148  -0.01284  -0.01438   0.92169
   D17       -1.13277  -0.00006  -0.00059  -0.02028  -0.02081  -1.15358
   D18        3.13355  -0.00102  -0.00059  -0.03320  -0.03377   3.09978
   D19        1.17046  -0.00094   0.00199   0.02870   0.03066   1.20112
   D20       -2.98688  -0.00015   0.00246   0.06396   0.06651  -2.92037
   D21       -3.03195  -0.00006   0.00188   0.05049   0.05230  -2.97964
   D22       -0.90610   0.00073   0.00235   0.08574   0.08816  -0.81794
   D23       -1.02100   0.00101   0.00107   0.04957   0.05054  -0.97046
   D24        1.10485   0.00180   0.00154   0.08482   0.08639   1.19124
   D25       -1.11518   0.00292  -0.00015   0.02851   0.02820  -1.08698
   D26        3.12584   0.00144  -0.00060   0.00215   0.00143   3.12727
   D27        1.00651   0.00197  -0.00036   0.01288   0.01240   1.01891
   D28        3.04449  -0.00144  -0.00080  -0.02984  -0.03053   3.01396
   D29        1.00233  -0.00293  -0.00126  -0.05620  -0.05731   0.94502
   D30       -1.11700  -0.00239  -0.00102  -0.04546  -0.04634  -1.16334
   D31        0.93048   0.00307  -0.00186   0.01482   0.01291   0.94339
   D32        3.03454   0.00103  -0.00170   0.00415   0.00222   3.03676
   D33       -1.11895   0.00064  -0.00101   0.00695   0.00561  -1.11334
   D34        3.07764   0.00067  -0.00073   0.04207   0.04170   3.11934
   D35       -1.10149  -0.00137  -0.00058   0.03140   0.03101  -1.07048
   D36        1.02821  -0.00176   0.00012   0.03420   0.03439   1.06261
   D37        0.98896  -0.00097  -0.00011   0.00056   0.00047   0.98943
   D38       -1.13743   0.00040  -0.00005   0.01106   0.01119  -1.12625
   D39        3.10970   0.00133  -0.00010   0.02320   0.02290   3.13259
   D40        3.06287  -0.00337  -0.00080  -0.33130  -0.33140   2.73147
   D41       -0.20186  -0.00086  -0.00242  -0.02582  -0.02902  -0.23089
   D42       -1.09137  -0.00111  -0.00059  -0.31628  -0.31607  -1.40744
   D43        1.92709   0.00140  -0.00221  -0.01079  -0.01369   1.91340
   D44        0.90215  -0.00280  -0.00148  -0.34102  -0.34178   0.56037
   D45       -2.36258  -0.00029  -0.00310  -0.03554  -0.03940  -2.40198
         Item               Value     Threshold  Converged?
 Maximum Force            0.007449     0.000450     NO 
 RMS     Force            0.001906     0.000300     NO 
 Maximum Displacement     0.442883     0.001800     NO 
 RMS     Displacement     0.078014     0.001200     NO 
 Predicted change in Energy=-3.077743D-03
 GradGradGradGradGradGradGradGradGradGradGradGradGradGradGradGradGradGrad

                          Input orientation:                          
 ---------------------------------------------------------------------
 Center     Atomic      Atomic             Coordinates (Angstroms)
 Number     Number       Type             X           Y           Z
 ---------------------------------------------------------------------
      1          6           0        0.896398   -0.154051   -0.110996
      2          6           0        2.431022   -0.071348   -0.014276
      3          6           0        3.000363   -1.225178    0.810950
      4          7           0        4.471054   -1.291673    0.833147
      5          6           0        5.046028   -0.175309    1.579935
      6          6           0        4.956063   -2.558200    1.374908
      7          8           0        4.410788   -3.673319    0.710147
      8          6           0        6.486529   -2.634677    1.236347
      9          8           0        7.139124   -3.337650    1.944544
     10          1           0        0.489710    0.666539   -0.709237
     11          1           0        0.429207   -0.102370    0.878689
     12          1           0        0.570297   -1.092074   -0.574973
     13          1           0        2.721747    0.895865    0.411778
     14          1           0        2.875426   -0.113606   -1.015716
     15          1           0        2.658481   -2.167995    0.387371
     16          1           0        2.598885   -1.180168    1.844827
     17          1           0        4.783968    0.763483    1.090766
     18          1           0        6.137243   -0.251156    1.596775
     19          1           0        4.691515   -0.130789    2.628662
     20          1           0        4.678232   -2.708121    2.435917
     21          1           0        4.620565   -3.584493   -0.227345
     22          1           0        6.950905   -1.872558    0.568742
 ---------------------------------------------------------------------
                    Distance matrix (angstroms):
                    1          2          3          4          5
     1  C    0.000000
     2  C    1.539890   0.000000
     3  C    2.534554   1.528552   0.000000
     4  N    3.868301   2.523698   1.472361   0.000000
     5  C    4.480974   3.064405   2.424522   1.461012   0.000000
     6  C    4.946586   3.806586   2.433055   1.460421   2.393386
     7  O    5.040878   4.173542   2.827164   2.385581   3.660073
     8  C    6.262459   4.958009   3.784310   2.455274   2.870816
     9  O    7.302887   6.055735   4.782982   3.541161   3.809775
    10  H    1.093919   2.190009   3.491839   4.697302   5.168081
    11  H    1.095634   2.192170   2.806444   4.213436   4.670343
    12  H    1.096132   2.195122   2.800665   4.151934   5.051362
    13  H    2.169681   1.096150   2.176186   2.832481   2.813234
    14  H    2.176397   1.096432   2.141940   2.711487   3.384187
    15  H    2.721997   2.146854   1.088672   2.062057   3.330674
    16  H    2.788659   2.171157   1.110005   2.130950   2.658650
    17  H    4.171247   2.730278   2.685948   2.094743   1.090547
    18  H    5.512927   4.045231   3.377314   2.107602   1.093977
    19  H    4.680724   3.478288   2.713256   2.149449   1.107922
    20  H    5.226117   4.243344   2.766746   2.148982   2.698725
    21  H    5.064670   4.145079   3.044582   2.530616   3.881985
    22  H    6.330273   4.900368   4.010554   2.560663   2.744397
                    6          7          8          9         10
     6  C    0.000000
     7  O    1.408092   0.000000
     8  C    1.538627   2.379992   0.000000
     9  O    2.387003   3.013341   1.192306   0.000000
    10  H    5.889899   6.018627   7.116542   8.203096   0.000000
    11  H    5.173950   5.350988   6.575078   7.525029   1.765330
    12  H    5.018616   4.802472   6.376701   7.385125   1.765572
    13  H    4.224967   4.880504   5.226684   6.307554   2.508238
    14  H    4.002520   4.243523   4.946478   6.110377   2.528675
    15  H    2.531082   2.332545   3.948735   4.885596   3.733724
    16  H    2.770574   3.284249   4.195190   5.027767   3.792386
    17  H    3.338252   4.468707   3.803603   4.805724   4.657260
    18  H    2.601319   3.934203   2.435792   3.263610   6.168832
    19  H    2.744851   4.038443   3.380839   4.091792   5.425170
    20  H    1.106981   1.995349   2.171244   2.587227   6.230895
    21  H    1.932110   0.964773   2.554675   3.334842   5.947055
    22  H    2.258185   3.116878   1.114526   2.018601   7.058844
                   11         12         13         14         15
    11  H    0.000000
    12  H    1.764243   0.000000
    13  H    2.543663   3.091006   0.000000
    14  H    3.094007   2.542691   1.755103   0.000000
    15  H    3.078613   2.538547   3.064610   2.497244   0.000000
    16  H    2.608174   3.158855   2.525597   3.065409   1.761684
[...]
 -0.00002647,-0.00743864,-0.01919074,-0.00681935,-0.00182523,-0.0062247
 6,-0.00109868,0.09170363,0.27714150,-0.02462313,-0.06192254,-0.0662446
 4,0.00026228,0.00070515,-0.00057250,-0.00004581,-0.00094424,-0.0000615
 5,0.00001487,0.00026345,-0.00000523,0.00005173,-0.00004523,-0.00007078
 ,-0.00005926,-0.00003006,-0.00001343,0.00008011,-0.00000487,0.00000099
 ,-0.00003356,-0.00000428,0.00000689,0.00002165,-0.00000095,0.00000307,
 0.00842041,0.01958259,0.00609313,-0.01095693,-0.02712194,-0.00739450,0
 .02713017,0.06842585,0.06667776,-0.01429391,-0.03168873,-0.00915084,-0
 .07290176,-0.07569550,-0.01911257,0.00369455,0.01167415,0.00307686,0.0
 0076571,-0.00080028,0.00054002,-0.00069778,0.00038009,-0.00085047,0.00
 019634,0.00017508,0.00023843,-0.00027031,-0.00003890,-0.00007882,-0.00
 002026,0.00000251,0.00006229,0.00001898,-0.00000491,-0.00000363,0.0014
 3697,0.00038863,-0.00028928,0.00158922,0.00016900,0.00049263,-0.006902
 80,0.00041236,0.00017482,0.08540945,0.00042866,0.00099014,0.00022179,-
 0.07581253,-0.25773214,-0.05698439,-0.00759945,-0.02287474,-0.00554128
 ,-0.00033287,0.00118261,-0.00021065,-0.00048131,-0.00135314,-0.0001664
 3,-0.00003384,-0.00026964,-0.00028360,0.00071958,0.00013543,0.00020640
 ,-0.00024355,-0.00013563,-0.00014892,0.00018221,0.00001605,0.00014906,
 -0.00050376,0.00068068,-0.00014700,-0.00038081,0.00030194,0.00031876,0
 .00056639,0.00149183,0.00020374,0.08385478,0.28252477,-0.00001850,-0.0
 0031884,-0.00042115,-0.01995662,-0.05775439,-0.06543693,0.00795923,0.0
 2200484,0.00535895,0.00055511,-0.00130229,0.00052764,-0.00040217,0.000
 21447,-0.00018699,0.00030086,0.00019128,0.00013612,-0.00041597,0.00007
 515,-0.00003787,0.00001566,-0.00000837,0.00008492,-0.00001157,0.000005
 18,-0.00003020,-0.00011357,-0.00024487,-0.00010475,-0.00015675,0.00062
 556,0.00047279,-0.00014091,0.00054646,0.00108129,0.02494116,0.06062223
 ,0.06758110,-0.01349269,0.00780695,0.03116933,-0.07595425,0.01768453,0
 .08066277,0.00261049,-0.00170166,-0.01167026,0.00180119,-0.00062246,-0
 .00000457,-0.00026647,-0.00048960,-0.00016099,0.00015501,0.00041054,-0
 .00001692,-0.00013158,-0.00008100,-0.00009566,-0.00004451,-0.00004702,
 0.00001486,0.00003681,0.00001151,0.00002760,0.00136608,0.00027654,-0.0
 0038259,-0.00673700,-0.00017062,-0.00043101,0.00154659,-0.00046802,-0.
 00017468,0.00362200,-0.00227891,-0.01015119,0.08597993,-0.00001318,-0.
 00048541,-0.00001419,0.01867758,-0.06195524,-0.05282270,-0.00742711,0.
 00354279,0.02392052,-0.00123835,0.00084166,-0.00109379,-0.00012598,-0.
 00024902,0.00002373,-0.00013452,-0.00004626,0.00012672,-0.00016096,-0.
 00000431,-0.00015854,0.00009909,0.00001224,-0.00005793,-0.00004466,0.0
 0000559,-0.00001069,0.00010551,-0.00007895,-0.00025218,0.00009314,0.00
 102205,0.00057322,0.00019070,0.00041278,0.00064011,0.01031151,-0.00672
 686,-0.02730509,-0.02198606,0.06470595,-0.00084291,0.00049125,0.002084
 94,0.07996312,-0.05150347,-0.25975802,0.00778167,-0.00379969,-0.023463
 17,0.00055748,-0.00091577,0.00253045,-0.00024069,-0.00020127,-0.000167
 42,-0.00022268,0.00000383,0.00006866,0.00000457,0.00011441,0.00014385,
 0.00003851,0.00009875,-0.00010287,-0.00001552,-0.00001650,0.00007190,0
 .00059431,-0.00014929,0.00059990,-0.00083746,0.00021216,0.00143262,0.0
 0043100,0.00030159,0.00033115,0.00251787,-0.00209776,-0.00767651,-0.08
 811331,0.05361126,0.28437864,0.00120917,0.00099644,0.00045639,0.003173
 90,0.01010323,0.00276616,-0.07437015,-0.06984562,-0.01981739,-0.019230
 48,-0.03227130,-0.01142656,-0.00659599,0.00223071,0.00184645,-0.001002
 24,-0.00375296,-0.00259715,0.00162506,0.00103473,0.00107161,-0.0005321
 9,-0.00027245,-0.00040529,0.00040492,-0.00005059,0.00037605,0.00006228
 ,-0.00015482,0.00006076,-0.00002445,0.00003410,0.00001401,-0.00004610,
 -0.00035429,-0.00024915,-0.00050337,0.00179119,-0.00184889,0.00021220,
 -0.00062593,0.00017802,0.09280768,-0.00097665,0.00068626,-0.00080333,-
 0.00587256,-0.02291862,-0.00493900,-0.08190520,-0.26183556,-0.06618443
 ,-0.00100339,0.00270262,-0.00016160,0.00034659,0.00038780,0.00091768,0
 .00112994,-0.00104465,0.00057628,0.00379186,-0.00181206,0.00055062,-0.
 00004487,-0.00014281,-0.00052597,-0.00018690,0.00005014,0.00001274,-0.
 00001597,0.00056667,0.00017603,0.00007313,-0.00001097,0.00004113,0.001
 11757,0.00037463,0.00028097,0.00168711,-0.00157211,0.00335717,-0.00031
 465,0.00127442,-0.00007406,0.08283075,0.28672498,0.00107220,-0.0002572
 6,0.00062827,0.00639871,0.02254241,0.00514897,-0.02264752,-0.06612183,
 -0.07023565,-0.00138259,0.00166978,-0.00055104,-0.00120613,-0.00014888
 ,0.00019362,-0.00136923,-0.00165644,0.00091673,0.00093334,-0.00007851,
 -0.00042070,0.00003520,-0.00003902,-0.00037543,-0.00008995,0.00006337,
 0.00001089,0.00029262,-0.00012238,-0.00006822,-0.00015249,-0.00010170,
 -0.00005212,-0.00022144,-0.00042802,0.00014524,-0.00191883,0.00382050,
 -0.00223252,0.00066914,-0.00045058,0.00116368,0.02791736,0.06842731,0.
 07376404,0.00124151,-0.00041267,-0.00055544,0.00359367,-0.00210273,-0.
 00950036,-0.06804401,0.01231393,0.06313467,-0.03328283,0.00887827,0.03
 072890,0.00263197,0.00389066,0.00398799,0.00036071,-0.00589915,0.00350
 672,0.00092709,0.00084751,0.00003377,0.00027064,0.00063182,-0.00051605
 ,-0.00046242,-0.00009666,-0.00030164,0.00012013,-0.00005271,0.00010913
 ,-0.00004804,0.00017951,0.00026525,-0.00000459,-0.00003694,-0.00003847
 ,0.00012284,0.00007200,0.00054531,-0.00062049,0.00199271,-0.00178947,0
 .00422926,-0.00101114,-0.00909128,0.08759179,-0.00116187,0.00055340,-0
 .00016979,-0.00572024,0.00399377,0.02338452,0.01356656,-0.06138142,-0.
 04356673,0.00223588,0.00116727,-0.00159793,-0.00115197,-0.00020452,0.0
 0198996,-0.00036084,0.00137138,-0.00241592,0.00118716,-0.00084156,0.00
 045431,-0.00023204,-0.00011764,0.00004716,0.00014937,-0.00002719,0.000
 12272,-0.00019150,-0.00006923,-0.00020048,0.00030743,0.00013332,-0.000
 42570,0.00016973,-0.00001311,-0.00007620,-0.00076635,0.00111746,-0.000
 69433,0.00177057,-0.00245697,0.00376607,0.00910322,-0.00393622,-0.0269
 8319,-0.01883330,0.06023213,0.00115781,-0.00060074,0.00019076,0.006213
 61,-0.00501489,-0.02222769,0.06228513,-0.04250388,-0.24525169,0.006490
 59,-0.00049311,0.00182960,-0.00159105,-0.00052578,0.00288308,-0.000420
 87,0.00057131,0.00037671,0.00043184,-0.00038145,0.00012260,-0.00039556
 ,-0.00006283,0.00009131,0.00027667,-0.00008654,0.00018873,-0.00023793,
 0.00016986,0.00055546,-0.00115886,0.00032552,0.00049156,-0.00007840,0.
 00000341,-0.00000239,0.00029359,0.00015360,0.00121969,-0.00156492,0.00
 369814,-0.00181667,0.00239044,-0.00122338,-0.00813658,-0.07627572,0.04
 503622,0.26900466,-0.00006280,0.00016561,0.00018168,-0.00045618,-0.000
 64943,-0.00083723,0.00051947,-0.00052019,0.00105238,0.00509421,-0.0158
 4579,0.00427838,-0.07590800,0.07902304,-0.03279313,-0.00190335,-0.0010
 2387,-0.00109544,0.00050334,-0.00101529,-0.00045296,-0.00042404,-0.000
 37933,-0.00075032,0.00033910,0.00034196,0.00048699,0.00005320,-0.00001
 959,0.00001738,-0.00002067,-0.00001014,-0.00002089,0.00010085,0.000006
 05,0.00000891,-0.00138656,0.00031536,-0.00111227,0.00002517,0.00014906
 ,0.00012652,0.00016118,0.00018953,0.00003603,-0.00017670,-0.00018967,0
 .00002546,0.07925056,-0.00010373,0.00057449,0.00002652,0.00013236,-0.0
 0057462,0.00009337,0.00184909,-0.00033837,0.00058773,0.00756778,-0.028
 57636,0.00395278,0.07265034,-0.24511307,0.08576392,-0.00384212,0.00011
 450,-0.00231924,0.00020554,-0.00192997,-0.00039704,-0.00102933,-0.0000
 6253,-0.00011669,0.00036227,0.00009447,0.00018321,-0.00005165,-0.00001
 453,-0.00000072,0.00002332,-0.00003824,-0.00002541,0.00026230,0.000011
 54,0.00001896,0.00015057,0.00124587,0.00007637,0.00010606,0.00010904,0
 .00009592,0.00006283,0.00010401,0.00004035,-0.00042706,0.00008542,0.00
 023751,-0.08002018,0.27497194,-0.00003794,0.00007980,0.00000673,-0.000
 26385,-0.00015014,-0.00033505,-0.00000067,0.00055803,0.00091069,0.0083
 1534,-0.02135166,0.00707829,-0.03410552,0.09271832,-0.08741233,-0.0024
 4520,-0.00170936,-0.00136785,0.00004242,-0.00159250,-0.00010339,-0.000
 52671,0.00033248,-0.00050571,0.00022569,-0.00004607,0.00044631,0.00000
 367,-0.00000665,0.00000744,0.00006873,0.00001072,-0.00003153,0.0000357
 6,-0.00001615,-0.00000605,-0.00109817,-0.00003966,-0.00020212,-0.00005
 946,-0.00012259,-0.00013771,0.00021722,0.00000179,-0.00011325,-0.00017
 154,0.00011586,-0.00038411,0.03874926,-0.09095214,0.09231034,0.0000147
 9,0.00001547,-0.00008516,0.00020511,-0.00024619,0.00034388,0.00094691,
 -0.00336391,-0.00089243,-0.01361244,-0.00219841,-0.00246620,-0.3057446
 6,0.00896868,0.02408529,-0.00114472,0.00174287,-0.00008723,0.00093495,
 -0.00031830,0.00006334,-0.00063828,-0.00166031,-0.00070409,0.00003993,
 0.00176179,0.00029507,-0.00006228,0.00003913,-0.00001847,0.00001271,-0
 .00000474,0.00001151,-0.00001015,0.00000788,0.00001215,0.00006487,-0.0
 0001314,0.00007241,-0.00002495,-0.00001739,-0.00009776,-0.00103610,0.0
 0026007,-0.00023595,0.00037293,0.00014422,-0.00002872,-0.00888810,0.00
 059827,0.00169931,0.33603013,0.00000978,0.00029261,-0.00005652,0.00002
 924,-0.00039734,0.00006069,-0.00051861,-0.00481719,-0.00177985,-0.0294
 2386,0.00008331,-0.00002900,0.01510790,-0.04909136,-0.00259448,-0.0017
 2703,0.00104263,0.00036054,0.00041581,0.00045932,0.00023961,-0.0003664
 2,-0.00155718,-0.00033484,0.00093424,-0.00081662,0.00048694,-0.0000525
 4,0.00002837,-0.00000059,-0.00000252,-0.00001993,0.00000116,0.00014212
 ,-0.00000024,0.00002893,-0.00009042,0.00052646,-0.00016408,0.00003248,
 0.00012924,0.00004927,-0.00160122,-0.00000642,-0.00028112,0.00008275,-
 0.00010777,0.00009668,0.02772907,0.00027370,-0.00375541,-0.00807470,0.
 05427651,0.00000012,0.00001099,-0.00011513,-0.00003307,-0.00014436,0.0
 0028611,0.00009314,-0.00330468,-0.00127053,-0.02252611,0.00095930,-0.0
 0079801,0.02838874,-0.00293422,-0.05044538,0.00020365,0.00074986,0.000
 37906,0.00008566,0.00024062,-0.00005025,0.00024345,-0.00010656,0.00216
 239,-0.00016621,-0.00029641,-0.00098644,-0.00004687,0.00003360,-0.0000
 0247,-0.00002207,0.00000304,0.00002016,-0.00000999,0.00003004,0.000021
 24,0.00009606,-0.00003403,0.00001826,-0.00000194,-0.00008261,-0.000025
 84,-0.00118976,-0.00008104,0.00026799,-0.00053427,0.00002648,0.0004296
 8,-0.01251026,0.00051568,0.00090965,-0.02320426,0.00669415,0.05204034,
 -0.00001041,0.00001547,-0.00004170,-0.00040791,0.00044052,0.00021065,0
 .00458763,-0.00042588,-0.00362697,0.00264478,-0.00241083,-0.01651777,-
 0.06695044,-0.00445826,0.05783645,-0.00027935,0.00126737,-0.00013322,0
 .00011023,-0.00035179,0.00011635,-0.00025145,-0.00130159,0.00106920,0.
 00005967,0.00014114,-0.00071474,-0.00001431,-0.00000018,0.00001127,-0.
 00002857,0.00001020,0.00000329,-0.00001159,-0.00000497,-0.00000634,-0.
 00002354,-0.00006187,-0.00000270,-0.00004456,-0.00007017,0.00013280,0.
 00009296,0.00002856,0.00020945,0.00051552,0.00059050,0.00171192,0.0029
 5378,0.00123934,-0.01069776,-0.00763793,-0.00293441,0.03084317,0.06473
 149,-0.00008971,0.00029108,0.00002538,-0.00024304,-0.00051417,0.000146
 75,0.00413126,0.00011160,-0.00038107,0.00118264,-0.00702432,-0.0333738
 6,-0.00480435,-0.05208850,0.01986378,-0.00025958,0.00498115,-0.0044533
 0,-0.00007604,-0.00152246,0.00059113,-0.00031168,-0.00007077,-0.000290
 40,0.00027132,0.00005364,0.00043805,-0.00005961,0.00000458,-0.00001709
 ,0.00001010,-0.00000877,-0.00001757,0.00008494,0.00001650,-0.00000722,
 -0.00002239,0.00031643,0.00008228,0.00004931,-0.00006467,0.00011022,0.
 00016300,0.00004437,0.00017283,-0.00038937,0.00050618,0.00125782,-0.00
 839763,-0.00088132,0.02654461,0.00166497,0.00024587,-0.00188488,0.0077
 3795,0.05504071,0.00002781,0.00010639,-0.00009694,-0.00035173,0.000050
 06,0.00013832,0.00356803,0.00018804,0.00077452,-0.00284052,-0.01432856
 ,-0.02304500,0.05859821,0.02063867,-0.26282160,-0.00163231,0.00324029,
 -0.00005913,0.00002460,-0.00127862,0.00062219,-0.00071203,-0.00001726,
 -0.00052073,0.00061564,-0.00009473,0.00073905,-0.00007988,0.00002424,-
 0.00000464,-0.00008614,0.00000350,0.00003055,-0.00001849,-0.00000637,0
 .00001315,0.00003309,0.00002533,-0.00012924,0.00013838,-0.00012939,0.0
 0022704,-0.00015382,0.00002143,0.00049741,-0.00203232,0.00022948,0.000
 53121,0.00453858,0.00173108,-0.01151567,0.00099738,0.00154729,-0.00233
 700,-0.06066322,-0.01071771,0.29648660,-0.00003575,0.00000364,0.000021
 63,-0.00018084,-0.00006163,-0.00003116,0.00267027,-0.00048096,-0.00189
 283,0.00632905,0.00719666,-0.01081331,-0.00050929,-0.00055123,-0.00088
 032,-0.08669254,-0.02411192,0.07994661,0.00552693,0.00086525,-0.014656
 72,-0.01399786,-0.01112759,0.03188095,0.00503174,0.00106255,-0.0032203
 4,0.00000441,0.00000044,0.00000832,-0.00002776,0.00001312,0.00000589,-
 0.00000425,0.00000414,-0.00000701,0.00002585,-0.00007757,0.00002558,-0
 .00007263,0.00000219,0.00010862,0.00000688,0.00005403,-0.00010434,0.00
 067076,-0.00017179,0.00075523,0.00008978,0.00014655,0.00007480,0.00005
 453,0.00019170,0.00015218,-0.00004104,-0.00035944,0.00023345,0.0866957
 7,0.00001042,-0.00015695,-0.00000430,0.00050519,0.00004905,-0.00008422
 ,-0.00481390,0.00108001,-0.00062796,-0.00473413,-0.02410789,0.03156498
 ,0.00153808,0.00388338,0.00404129,-0.02786425,-0.06832918,0.06932335,0
 .00489728,0.00432466,-0.02874670,0.00000424,0.00189510,0.00225801,0.00
 044418,-0.00048463,-0.00111519,0.00006122,-0.00001997,0.00001468,0.000
 05410,-0.00000034,-0.00000022,0.00003226,0.00002286,0.00000646,-0.0000
 9567,0.00012260,-0.00005503,-0.00008564,0.00008899,-0.00024308,0.00057
 027,0.00020875,0.00007689,0.00097998,-0.00008850,-0.00110923,0.0001441
 3,-0.00023831,-0.00072014,-0.00019016,-0.00023978,-0.00016156,0.000109
 88,0.00009748,-0.00214065,0.02868541,0.08473037,0.00000013,0.00008078,
 -0.00003102,-0.00024913,-0.00012683,0.00006690,0.00104604,-0.00005107,
 0.00186432,-0.00028831,0.00983855,-0.00525357,-0.00055620,0.00000817,0
 .00028066,0.07662180,0.05961399,-0.22780337,0.00448812,-0.00103591,-0.
 02978099,-0.00122088,0.00206413,-0.00157688,0.00048058,-0.00130084,0.0
 0239852,-0.00003554,0.00000272,-0.00000802,-0.00002345,0.00001361,0.00
 000666,-0.00000619,-0.00001122,-0.00001795,0.00004208,-0.00006070,0.00
 006535,0.00011221,-0.00012099,0.00013983,-0.00009392,-0.00020923,-0.00
 041168,-0.00122228,0.00066131,-0.00006029,0.00009637,0.00034308,0.0002
 3926,0.00013249,0.00001336,0.00000732,0.00034111,0.00133962,0.00030521
 ,-0.07951252,-0.06770830,0.26201926,-0.00003923,0.00003505,-0.00000117
 ,-0.00016179,0.00015051,0.00013395,-0.00016260,0.00106132,0.00098713,-
 0.00036062,-0.00059455,0.00054799,0.00035593,0.00036810,-0.00013660,0.
 00125137,0.00260433,-0.01292676,-0.02783724,-0.04850478,0.08294675,0.0
 0231556,0.00132217,-0.00587228,-0.00086097,-0.00045990,0.00203598,0.00
 003894,-0.00004369,0.00001332,0.00004377,-0.00003447,-0.00004694,-0.00
 008565,-0.00002010,0.00000753,0.00006189,-0.00017063,-0.00006816,0.000
 04389,0.00021070,-0.00021466,-0.00074263,-0.00021741,0.00077913,-0.000
 28596,-0.00034964,-0.00018650,-0.00005536,-0.00002799,-0.00002047,-0.0
 0027259,-0.00012656,-0.00009216,-0.00013089,-0.00017146,-0.00011665,0.
 00031003,-0.00046305,0.00035271,0.02777042,0.00008145,0.00013202,-0.00
 000360,0.00002386,-0.00013789,-0.00010071,0.00218286,-0.00057725,-0.00
 031664,0.00040312,0.00372593,0.00139401,-0.00115107,-0.00149044,-0.000
 19790,0.00365554,0.00837167,-0.03680546,-0.04901045,-0.11252673,0.1888
 4667,0.00038202,-0.00021580,-0.00059495,-0.00028462,0.00021832,0.00026
 000,-0.00008584,0.00003205,-0.00003261,-0.00004760,-0.00001674,0.00002
 254,-0.00003709,-0.00004080,0.00000028,-0.00000841,0.00000497,0.000042
 96,0.00008875,-0.00008187,0.00017191,0.00002643,0.00008531,-0.00015921
 ,-0.00047773,0.00009635,0.00033575,0.00001167,0.00014494,0.00010509,0.
 00020116,0.00009580,0.00000570,0.00014774,0.00045838,0.00089363,-0.001
 67869,-0.00317995,-0.00341100,0.04587474,0.10473924,0.00003628,0.00008
 013,-0.00009728,-0.00009533,-0.00001303,0.00033486,0.00071601,-0.00019
 365,-0.00009194,0.00078930,0.00255866,0.00423837,-0.00082465,0.0006777
 1,0.00051935,0.00673682,0.01031442,-0.03894026,0.06588689,0.14105056,-
 0.40136272,-0.00139306,0.00133179,0.00012080,0.00085830,-0.00092055,0.
 00081894,-0.00006549,0.00003101,-0.00001800,0.00002461,-0.00001738,-0.
 00001333,-0.00001533,-0.00002810,0.00002673,-0.00000522,0.00003071,-0.
 00008485,0.00002749,0.00002107,-0.00007035,0.00060760,-0.00022612,-0.0
 0015768,-0.00021479,0.00028085,0.00002102,0.00000939,0.00025740,0.0001
 8873,-0.00004890,-0.00012863,-0.00003026,0.00007870,0.00052180,0.00016
 693,-0.00277235,-0.00455024,-0.00243079,-0.06933959,-0.15085679,0.4369
 1113,0.00000559,0.00007653,-0.00007792,-0.00019221,-0.00006960,0.00010
 507,-0.00009079,0.00055178,-0.00088635,0.00134850,-0.00107624,-0.00091
 888,-0.00061659,-0.00044027,0.00004486,-0.01163023,-0.00444368,0.03142
 443,0.00429042,0.00078703,-0.00143013,-0.11244400,-0.02047210,0.081320
 92,0.02058270,0.00693579,-0.02460206,-0.00004999,0.00000958,-0.0000071
 5,0.00000892,-0.00000705,0.00000376,0.00000707,-0.00000584,0.00000971,
 -0.00000837,0.00006008,-0.00001606,-0.00001023,0.00001211,-0.00006004,
 0.00009821,0.00003958,0.00007658,0.00027623,-0.00009544,-0.00009375,0.
 00019111,0.00014544,-0.00000489,0.00039535,0.00024319,0.00023080,0.000
 13594,-0.00011120,-0.00008806,-0.00585403,0.00021013,-0.00050520,-0.00
 119629,-0.00029784,-0.00099666,0.10475269,0.00001081,0.00009441,-0.000
 09584,-0.00025151,-0.00011869,0.00019099,0.00011812,0.00089186,-0.0001
 5833,-0.00356426,0.00029280,-0.00018544,-0.00084282,-0.00042388,-0.000
 75969,-0.00262773,0.01467503,0.00110881,0.00454207,0.00187254,0.003353
 78,-0.01752814,-0.06577875,0.03049384,0.00145596,0.01314888,0.02042164
 ,-0.00005119,0.00000073,-0.00000792,0.00000708,-0.00000431,0.00000206,
 -0.00000524,-0.00000944,0.00000104,0.00000578,0.00000701,0.00000333,0.
 00000843,0.00000480,-0.00002575,-0.00001772,0.00006947,0.00001469,-0.0
 0012971,-0.00001253,0.00011601,-0.00000438,0.00003740,-0.00000424,0.00
 068274,-0.00040000,-0.00023910,0.00029127,0.00000702,0.00001388,0.0003
 9514,0.00034223,0.00005677,-0.00044271,0.00016249,-0.00022161,0.017948
 01,0.03514092,-0.00000167,-0.00005974,0.00006808,0.00014614,0.00009185
 ,-0.00013360,-0.00007305,-0.00040508,-0.00005167,0.00045449,-0.0009321
 6,0.00119946,0.00032319,-0.00010187,0.00017918,-0.00530891,0.00298845,
 -0.00541764,0.00182031,0.00281781,0.00495716,0.09133519,0.03134148,-0.
 18975387,-0.00685806,0.01842819,-0.04570644,0.00004123,-0.00001364,0.0
 0001321,-0.00001445,0.00000879,0.00000367,-0.00000850,0.00000212,-0.00
 001163,-0.00000107,-0.00003769,-0.00000296,0.00000572,0.00000650,0.000
 04587,-0.00012014,0.00006499,0.00001805,-0.00006812,0.00001532,-0.0000
 5666,-0.00003480,-0.00011262,0.00001734,0.00015632,-0.00045411,-0.0004
 8089,-0.00015992,0.00004883,-0.00000225,0.00067763,-0.00001883,-0.0000
 1872,0.00121745,0.00040032,-0.00004940,-0.08352897,-0.05407890,0.23518
 372\\-0.00000509,-0.00000076,-0.00000028,0.00001035,0.,0.00000316,-0.0
 0000578,0.00000557,0.00000115,0.00000216,0.00000726,-0.00000781,-0.000
 00305,-0.00000044,-0.00000653,-0.00000614,-0.00001996,-0.00001182,0.00
 000330,0.00000370,0.00000508,0.00000853,0.00000491,-0.00000295,0.00000
 287,-0.00000164,0.00000676,0.00000047,0.00000003,0.00000089,0.00000064
 ,-0.00000110,0.00000008,0.00000040,-0.00000026,-0.00000085,-0.00000267
 ,-0.00000012,-0.00000176,-0.00000006,0.00000032,-0.00000108,0.00000191
 ,-0.00000064,0.00000131,0.00000015,-0.00000211,0.00000094,0.00000089,0
 .00000180,0.00000198,-0.00000097,-0.00000192,0.00000104,0.00000099,-0.
 00000041,0.00000336,-0.00000136,0.00000204,-0.00000040,-0.00000175,0.0
 0000263,0.00000527,-0.00000578,0.00000111,0.00000245\\\@


 GROWING OLD ISN'T SO BAD -- WHEN YOU CONSIDER THE ALTERNATIVE.

                     -- MAURICE CHEVALIER
 Job cpu time:       0 days  2 hours 15 minutes 25.7 seconds.
 Elapsed time:       0 days  0 hours 33 minutes 52.1 seconds.
 File lengths (MBytes):  RWF=    171 Int=      0 D2E=      0 Chk=      9 Scr=      1
 Normal termination of Gaussian 16 at Thu Aug  4 00:45:45 2022.
### All Done ###
