### Starting Gaussian ###
 Entering Gaussian System, Link 0=g16
 Initial command:
 /cluster/software/gaussian/gaussian-16-A.03/avx2/g16/l1.exe "/local/scratch/linjian/Gau-7440.inp" -scrdir="/local/scratch/linjian/"
 Entering Link 1 = /cluster/software/gaussian/gaussian-16-A.03/avx2/g16/l1.exe PID=      7441.
  
 Copyright (c) 1988,1990,1992,1993,1995,1998,2003,2009,2016,
            Gaussian, Inc.  All Rights Reserved.
  
 This is part of the Gaussian(R) 16 program.  It is based on
 the Gaussian(R) 09 system (copyright 2009, Gaussian, Inc.),
 the Gaussian(R) 03 system (copyright 2003, Gaussian, Inc.),
 the Gaussian(R) 98 system (copyright 1998, Gaussian, Inc.),
 the Gaussian(R) 94 system (copyright 1995, Gaussian, Inc.),
 the Gaussian 92(TM) system (copyright 1992, Gaussian, Inc.),
 the Gaussian 90(TM) system (copyright 1990, Gaussian, Inc.),
 the Gaussian 88(TM) system (copyright 1988, Gaussian, Inc.),
 the Gaussian 86(TM) system (copyright 1986, Carnegie Mellon
 University), and the Gaussian 82(TM) system (copyright 1983,
 Carnegie Mellon University). Gaussian is a federally registered
 trademark of Gaussian, Inc.
  
 This software contains proprietary and confidential information,
 including trade secrets, belonging to Gaussian, Inc.
  
 This software is provided under written license and may be
 used, copied, transmitted, or stored only in accord with that
 written license.
  
 The following legend is applicable only to US Government
 contracts under FAR:
  
                    RESTRICTED RIGHTS LEGEND
  
 Use, reproduction and disclosure by the US Government is
 subject to restrictions as set forth in subparagraphs (a)
 and (c) of the Commercial Computer Software - Restricted
 Rights clause in FAR 52.227-19.
  
 Gaussian, Inc.
 340 Quinnipiac St., Bldg. 40, Wallingford CT 06492
  
  
 ---------------------------------------------------------------
 Warning -- This program may not be used in any manner that
 competes with the business of Gaussian, Inc. or will provide
 assistance to any competitor of Gaussian, Inc.  The licensee
 of this program is prohibited from giving any competitor of
 Gaussian, Inc. access to this program.  By using this program,
 the user acknowledges that Gaussian, Inc. is engaged in the
 business of creating and licensing software in the field of
 computational chemistry and represents and warrants to the
 licensee that it is not a competitor of Gaussian, Inc. and that
 it will not use this program in any manner prohibited above.
 ---------------------------------------------------------------
  

 Cite this work as:
 Gaussian 16, Revision A.03,
 M. J. Frisch, G. W. Trucks, H. B. Schlegel, G. E. Scuseria, 
 M. A. Robb, J. R. Cheeseman, G. Scalmani, V. Barone, 
 G. A. Petersson, H. Nakatsuji, X. Li, M. Caricato, A. V. Marenich, 
 J. Bloino, B. G. Janesko, R. Gomperts, B. Mennucci, H. P. Hratchian, 
 J. V. Ortiz, A. F. Izmaylov, J. L. Sonnenberg, D. Williams-Young, 
 F. Ding, F. Lipparini, F. Egidi, J. Goings, B. Peng, A. Petrone, 
 T. Henderson, D. Ranasinghe, V. G. Zakrzewski, J. Gao, N. Rega, 
 G. Zheng, W. Liang, M. Hada, M. Ehara, K. Toyota, R. Fukuda, 
 J. Hasegawa, M. Ishida, T. Nakajima, Y. Honda, O. Kitao, H. Nakai, 
 T. Vreven, K. Throssell, J. A. Montgomery, Jr., J. E. Peralta, 
 F. Ogliaro, M. J. Bearpark, J. J. Heyd, E. N. Brothers, K. N. Kudin, 
 V. N. Staroverov, T. A. Keith, R. Kobayashi, J. Normand, 
 K. Raghavachari, A. P. Rendell, J. C. Burant, S. S. Iyengar, 
 J. Tomasi, M. Cossi, J. M. Millam, M. Klene, C. Adamo, R. Cammi, 
 J. W. Ochterski, R. L. Martin, K. Morokuma, O. Farkas, 
 J. B. Foresman, and D. J. Fox, Gaussian, Inc., Wallingford CT, 2016.
 
 ******************************************
 Gaussian 16:  ES64L-G16RevA.03 25-Dec-2016
                 2-Aug-2022 
 ******************************************
 %chk=CCCpNpCCtCCpCpN.chk
 %NProcShared=20
 Will use up to   20 processors via shared memory.
 -----------------------------
 # opt freq b3lyp/6-31g(2df,p)
 -----------------------------
 1/18=20,19=15,26=3,38=1/1,3;
 2/9=110,12=2,17=6,18=5,40=1/2;
 3/5=1,6=6,7=104,11=2,25=1,30=1,71=1,74=-5/1,2,3;
 4//1;
 5/5=2,38=5/2;
 6/7=2,8=2,9=2,10=2,28=1/1;
 7//1,2,3,16;
 1/18=20,19=15,26=3/3(2);
 2/9=110/2;
 99//99;
 2/9=110/2;
 3/5=1,6=6,7=104,11=2,25=1,30=1,71=1,74=-5/1,2,3;
 4/5=5,16=3,69=1/1;
 5/5=2,38=5/2;
 7//1,2,3,16;
 1/18=20,19=15,26=3/3(-5);
 2/9=110/2;
 6/7=2,8=2,9=2,10=2,19=2,28=1/1;
 99/9=1/99;
 -------------------
 Title Card Required
 -------------------
 Symbolic Z-matrix:
 Charge =  0 Multiplicity = 1
 C                     0.93441   0.14677   0.06353 
 C                     2.45526   0.07516   0.04651 
 C                     2.98741  -1.3171    0.41466 
 N                     2.50805  -2.33472  -0.53455 
 C                     4.52901  -1.30269   0.45493 
 C                     5.03567  -2.6811    0.84696 
 C                     5.47029  -3.86349   1.18325 
 C                     5.97695  -5.2419    1.57528 
 C                     5.39488  -6.29249   0.63491 
 N                     7.43454  -5.24574   1.51447 
 H                     0.59981   1.15984  -0.17519 
 H                     0.54605  -0.12265   1.0508 
 H                     0.49032  -0.52609  -0.67601 
 H                     2.8463    0.81214   0.75945 
 H                     2.82195   0.37026  -0.94439 
 H                     2.61708  -1.58869   1.41188 
 H                     2.80138  -2.0979   -1.47821 
 H                     1.49102  -2.37708  -0.5325 
 H                     4.89215  -0.56836   1.18262 
 H                     4.94298  -1.03854  -0.52562 
 H                     5.66048  -5.45204   2.60273 
 H                     5.67631  -6.10206  -0.40785 
 H                     4.29992  -6.29131   0.6823 
 H                     5.74116  -7.29676   0.9019 
 H                     7.72009  -5.04513   0.55724 
 H                     7.7755   -6.18139   1.72261 
 

 GradGradGradGradGradGradGradGradGradGradGradGradGradGradGradGradGradGrad
 Berny optimization.
 Initialization pass.
                           ----------------------------
                           !    Initial Parameters    !
                           ! (Angstroms and Degrees)  !
 --------------------------                            --------------------------
 ! Name  Definition              Value          Derivative Info.                !
 --------------------------------------------------------------------------------
 ! R1    R(1,2)                  1.5226         estimate D2E/DX2                !
 ! R2    R(1,11)                 1.0933         estimate D2E/DX2                !
 ! R3    R(1,12)                 1.0946         estimate D2E/DX2                !
 ! R4    R(1,13)                 1.094          estimate D2E/DX2                !
 ! R5    R(2,3)                  1.5353         estimate D2E/DX2                !
 ! R6    R(2,14)                 1.0974         estimate D2E/DX2                !
 ! R7    R(2,15)                 1.097          estimate D2E/DX2                !
 ! R8    R(3,4)                  1.4718         estimate D2E/DX2                !
 ! R9    R(3,5)                  1.5422         estimate D2E/DX2                !
 ! R10   R(3,16)                 1.0979         estimate D2E/DX2                !
 ! R11   R(4,17)                 1.0162         estimate D2E/DX2                !
 ! R12   R(4,18)                 1.0179         estimate D2E/DX2                !
 ! R13   R(5,6)                  1.52           estimate D2E/DX2                !
 ! R14   R(5,19)                 1.0957         estimate D2E/DX2                !
 ! R15   R(5,20)                 1.0966         estimate D2E/DX2                !
 ! R16   R(6,7)                  1.3039         estimate D2E/DX2                !
 ! R17   R(7,8)                  1.52           estimate D2E/DX2                !
 ! R18   R(8,9)                  1.5254         estimate D2E/DX2                !
 ! R19   R(8,10)                 1.4589         estimate D2E/DX2                !
 ! R20   R(8,21)                 1.0954         estimate D2E/DX2                !
 ! R21   R(9,22)                 1.0967         estimate D2E/DX2                !
 ! R22   R(9,23)                 1.096          estimate D2E/DX2                !
 ! R23   R(9,24)                 1.0953         estimate D2E/DX2                !
 ! R24   R(10,25)                1.0189         estimate D2E/DX2                !
 ! R25   R(10,26)                1.0174         estimate D2E/DX2                !
 ! A1    A(2,1,11)             110.2938         estimate D2E/DX2                !
 ! A2    A(2,1,12)             110.6644         estimate D2E/DX2                !
 ! A3    A(2,1,13)             111.6521         estimate D2E/DX2                !
 ! A4    A(11,1,12)            108.4477         estimate D2E/DX2                !
 ! A5    A(11,1,13)            107.3421         estimate D2E/DX2                !
 ! A6    A(12,1,13)            108.3188         estimate D2E/DX2                !
 ! A7    A(1,2,3)              112.7168         estimate D2E/DX2                !
 ! A8    A(1,2,14)             108.4855         estimate D2E/DX2                !
 ! A9    A(1,2,15)             109.3488         estimate D2E/DX2                !
 ! A10   A(3,2,14)             109.2509         estimate D2E/DX2                !
 ! A11   A(3,2,15)             110.1624         estimate D2E/DX2                !
 ! A12   A(14,2,15)            106.6817         estimate D2E/DX2                !
 ! A13   A(2,3,4)              111.0663         estimate D2E/DX2                !
 ! A14   A(2,3,5)              110.1371         estimate D2E/DX2                !
 ! A15   A(2,3,16)             108.9788         estimate D2E/DX2                !
 ! A16   A(4,3,5)              110.4177         estimate D2E/DX2                !
 ! A17   A(4,3,16)             107.7514         estimate D2E/DX2                !
 ! A18   A(5,3,16)             108.4076         estimate D2E/DX2                !
 ! A19   A(3,4,17)             110.1053         estimate D2E/DX2                !
 ! A20   A(3,4,18)             110.6633         estimate D2E/DX2                !
 ! A21   A(17,4,18)            107.4563         estimate D2E/DX2                !
 ! A22   A(3,5,6)              109.3575         estimate D2E/DX2                !
 ! A23   A(3,5,19)             110.7865         estimate D2E/DX2                !
 ! A24   A(3,5,20)             110.8698         estimate D2E/DX2                !
 ! A25   A(6,5,19)             109.0255         estimate D2E/DX2                !
 ! A26   A(6,5,20)             108.8576         estimate D2E/DX2                !
 ! A27   A(19,5,20)            107.8952         estimate D2E/DX2                !
 ! A28   A(7,8,9)              109.7784         estimate D2E/DX2                !
 ! A29   A(7,8,10)             108.9458         estimate D2E/DX2                !
 ! A30   A(7,8,21)             108.6371         estimate D2E/DX2                !
 ! A31   A(9,8,10)             110.7164         estimate D2E/DX2                !
 ! A32   A(9,8,21)             109.6246         estimate D2E/DX2                !
 ! A33   A(10,8,21)            109.1013         estimate D2E/DX2                !
 ! A34   A(8,9,22)             111.6313         estimate D2E/DX2                !
 ! A35   A(8,9,23)             110.7218         estimate D2E/DX2                !
 ! A36   A(8,9,24)             111.1352         estimate D2E/DX2                !
 ! A37   A(22,9,23)            107.2951         estimate D2E/DX2                !
 ! A38   A(22,9,24)            108.0491         estimate D2E/DX2                !
 ! A39   A(23,9,24)            107.836          estimate D2E/DX2                !
 ! A40   A(8,10,25)            108.5821         estimate D2E/DX2                !
 ! A41   A(8,10,26)            109.1925         estimate D2E/DX2                !
 ! A42   A(25,10,26)           106.2225         estimate D2E/DX2                !
 ! A43   L(5,6,7,18,-1)        180.0005         estimate D2E/DX2                !
 ! A44   L(6,7,8,22,-1)        179.9995         estimate D2E/DX2                !
 ! A45   L(5,6,7,18,-2)        180.0003         estimate D2E/DX2                !
 ! A46   L(6,7,8,22,-2)        180.0004         estimate D2E/DX2                !
 ! D1    D(11,1,2,3)           178.3603         estimate D2E/DX2                !
 ! D2    D(11,1,2,14)           57.2397         estimate D2E/DX2                !
 ! D3    D(11,1,2,15)          -58.7483         estimate D2E/DX2                !
 ! D4    D(12,1,2,3)            58.3571         estimate D2E/DX2                !
 ! D5    D(12,1,2,14)          -62.7635         estimate D2E/DX2                !
 ! D6    D(12,1,2,15)         -178.7515         estimate D2E/DX2                !
 ! D7    D(13,1,2,3)           -62.3827         estimate D2E/DX2                !
 ! D8    D(13,1,2,14)          176.4967         estimate D2E/DX2                !
 ! D9    D(13,1,2,15)           60.5087         estimate D2E/DX2                !
 ! D10   D(1,2,3,4)             60.4599         estimate D2E/DX2                !
 ! D11   D(1,2,3,5)           -176.8952         estimate D2E/DX2                !
 ! D12   D(1,2,3,16)           -58.0937         estimate D2E/DX2                !
 ! D13   D(14,2,3,4)          -178.8567         estimate D2E/DX2                !
 ! D14   D(14,2,3,5)           -56.2118         estimate D2E/DX2                !
 ! D15   D(14,2,3,16)           62.5898         estimate D2E/DX2                !
 ! D16   D(15,2,3,4)           -61.9758         estimate D2E/DX2                !
 ! D17   D(15,2,3,5)            60.6691         estimate D2E/DX2                !
 ! D18   D(15,2,3,16)          179.4707         estimate D2E/DX2                !
 ! D19   D(2,3,4,17)            58.5262         estimate D2E/DX2                !
 ! D20   D(2,3,4,18)           -60.1238         estimate D2E/DX2                !
 ! D21   D(5,3,4,17)           -63.9564         estimate D2E/DX2                !
 ! D22   D(5,3,4,18)           177.3936         estimate D2E/DX2                !
 ! D23   D(16,3,4,17)          177.8172         estimate D2E/DX2                !
 ! D24   D(16,3,4,18)           59.1672         estimate D2E/DX2                !
 ! D25   D(2,3,5,6)            178.9114         estimate D2E/DX2                !
 ! D26   D(2,3,5,19)            58.7168         estimate D2E/DX2                !
 ! D27   D(2,3,5,20)           -61.05           estimate D2E/DX2                !
 ! D28   D(4,3,5,6)            -58.063          estimate D2E/DX2                !
 ! D29   D(4,3,5,19)          -178.2576         estimate D2E/DX2                !
 ! D30   D(4,3,5,20)            61.9756         estimate D2E/DX2                !
 ! D31   D(16,3,5,6)            59.7609         estimate D2E/DX2                !
 ! D32   D(16,3,5,19)          -60.4337         estimate D2E/DX2                !
 ! D33   D(16,3,5,20)          179.7994         estimate D2E/DX2                !
 ! D34   D(3,5,8,9)             54.4542         estimate D2E/DX2                !
 ! D35   D(3,5,8,10)           175.8461         estimate D2E/DX2                !
 ! D36   D(3,5,8,21)           -65.4095         estimate D2E/DX2                !
 ! D37   D(19,5,8,9)           175.7215         estimate D2E/DX2                !
 ! D38   D(19,5,8,10)          -62.8866         estimate D2E/DX2                !
 ! D39   D(19,5,8,21)           55.8577         estimate D2E/DX2                !
 ! D40   D(20,5,8,9)           -66.8113         estimate D2E/DX2                !
 ! D41   D(20,5,8,10)           54.5806         estimate D2E/DX2                !
 ! D42   D(20,5,8,21)          173.325          estimate D2E/DX2                !
 ! D43   D(7,8,9,22)            59.6577         estimate D2E/DX2                !
 ! D44   D(7,8,9,23)           -59.8116         estimate D2E/DX2                !
 ! D45   D(7,8,9,24)          -179.6356         estimate D2E/DX2                !
 ! D46   D(10,8,9,22)          -60.6655         estimate D2E/DX2                !
 ! D47   D(10,8,9,23)          179.8653         estimate D2E/DX2                !
 ! D48   D(10,8,9,24)           60.0412         estimate D2E/DX2                !
 ! D49   D(21,8,9,22)          178.9176         estimate D2E/DX2                !
 ! D50   D(21,8,9,23)           59.4483         estimate D2E/DX2                !
 ! D51   D(21,8,9,24)          -60.3757         estimate D2E/DX2                !
 ! D52   D(7,8,10,25)          -61.2722         estimate D2E/DX2                !
 ! D53   D(7,8,10,26)         -176.6829         estimate D2E/DX2                !
 ! D54   D(9,8,10,25)           59.5463         estimate D2E/DX2                !
 ! D55   D(9,8,10,26)          -55.8644         estimate D2E/DX2                !
 ! D56   D(21,8,10,25)        -179.7255         estimate D2E/DX2                !
 ! D57   D(21,8,10,26)          64.8639         estimate D2E/DX2                !
 --------------------------------------------------------------------------------
 Trust Radius=3.00D-01 FncErr=1.00D-07 GrdErr=1.00D-06 EigMax=2.50D+02 EigMin=1.00D-04
 Number of steps in this run=    138 maximum allowed number of steps=    156.
 GradGradGradGradGradGradGradGradGradGradGradGradGradGradGradGradGradGrad

                          Input orientation:                          
 ---------------------------------------------------------------------
 Center     Atomic      Atomic             Coordinates (Angstroms)
 Number     Number       Type             X           Y           Z
 ---------------------------------------------------------------------
      1          6           0        0.934410    0.146770    0.063530
      2          6           0        2.455260    0.075160    0.046510
      3          6           0        2.987410   -1.317100    0.414660
      4          7           0        2.508050   -2.334720   -0.534550
      5          6           0        4.529010   -1.302690    0.454930
      6          6           0        5.035670   -2.681100    0.846960
      7          6           0        5.470290   -3.863490    1.183250
      8          6           0        5.976950   -5.241900    1.575280
      9          6           0        5.394880   -6.292490    0.634910
     10          7           0        7.434540   -5.245740    1.514470
     11          1           0        0.599810    1.159840   -0.175190
     12          1           0        0.546050   -0.122650    1.050800
     13          1           0        0.490320   -0.526090   -0.676010
     14          1           0        2.846300    0.812140    0.759450
     15          1           0        2.821950    0.370260   -0.944390
     16          1           0        2.617080   -1.588690    1.411880
     17          1           0        2.801380   -2.097900   -1.478210
     18          1           0        1.491020   -2.377080   -0.532500
     19          1           0        4.892150   -0.568360    1.182620
     20          1           0        4.942980   -1.038540   -0.525620
     21          1           0        5.660480   -5.452040    2.602730
     22          1           0        5.676310   -6.102060   -0.407850
     23          1           0        4.299920   -6.291310    0.682300
     24          1           0        5.741160   -7.296760    0.901900
     25          1           0        7.720090   -5.045130    0.557240
     26          1           0        7.775500   -6.181390    1.722610
 ---------------------------------------------------------------------
                    Distance matrix (angstroms):
                    1          2          3          4          5
     1  C    0.000000
     2  C    1.522630   0.000000
     3  C    2.545784   1.535287   0.000000
     4  N    2.998639   2.479504   1.471848   0.000000
     5  C    3.895546   2.523037   1.542193   2.475568   0.000000
     6  C    5.042910   3.859560   2.498549   2.901278   1.520002
     7  C    6.157123   5.088767   3.638616   3.750045   2.823855
     8  C    7.533284   6.558244   5.068377   4.993630   4.343857
     9  C    7.854065   7.038078   5.531630   5.036404   5.067566
    10  N    8.569485   7.433715   6.034961   6.078061   5.011225
    11  H    1.093277   2.160643   3.490528   3.997808   4.679713
    12  H    1.094583   2.166289   2.791348   3.355001   4.196609
    13  H    1.094018   2.178193   2.837378   2.713372   4.265343
    14  H    2.140641   1.097422   2.161586   3.419295   2.719697
    15  H    2.151432   1.097009   2.172919   2.753801   2.769641
    16  H    2.767896   2.158429   1.097886   2.087352   2.157087
    17  H    3.301679   2.677080   2.056019   1.016179   2.711843
    18  H    2.652336   2.697868   2.063941   1.017914   3.370269
    19  H    4.174623   2.764651   2.185957   3.428211   1.095739
    20  H    4.221456   2.785033   2.187687   2.758450   1.096642
    21  H    7.754350   6.881688   5.388013   5.431208   4.807325
    22  H    7.858479   6.981379   5.550004   4.924101   5.009455
    23  H    7.290981   6.658749   5.151415   4.510668   4.999051
    24  H    8.900216   8.116282   6.601278   6.094114   6.131718
    25  H    8.558331   7.361837   6.026342   5.975256   4.919280
    26  H    9.465657   8.382045   6.949666   6.902005   5.995700
                    6          7          8          9         10
     6  C    0.000000
     7  C    1.303853   0.000000
     8  C    2.823855   1.520002   0.000000
     9  C    3.635400   2.491266   1.525398   0.000000
    10  N    3.574566   2.424582   1.458863   2.455509   0.000000
    11  H    5.956044   7.127467   8.541666   8.898662   9.518400
    12  H    5.171451   6.185432   7.481743   7.858183   8.597228
    13  H    5.255827   6.276559   7.576957   7.682746   8.677297
    14  H    4.123557   5.378331   6.864251   7.548943   7.636747
    15  H    4.173762   5.428185   6.913689   7.314807   7.672121
    16  H    2.713314   3.656199   4.966021   5.517752   6.049170
    17  H    3.276979   4.162182   5.412281   5.365268   6.350685
    18  H    3.815741   4.581245   5.724814   5.650965   6.909756
    19  H    2.144047   3.345464   4.813829   5.772208   5.334019
    20  H    2.142562   3.343447   4.811560   5.399540   5.298148
    21  H    3.339345   2.138828   1.095429   2.156204   2.091449
    22  H    3.699721   2.754131   2.182445   1.096729   2.742257
    23  H    3.688097   2.741355   2.170508   1.095986   3.407575
    24  H    4.669588   3.455412   2.175198   1.095332   2.729370
    25  H    3.588689   2.617205   2.028216   2.639799   1.018858
    26  H    4.530503   3.313241   2.034485   2.619692   1.017358
                   11         12         13         14         15
    11  H    0.000000
    12  H    1.775027   0.000000
    13  H    1.762149   1.774188   0.000000
    14  H    2.457878   2.499973   3.066276   0.000000
    15  H    2.480526   3.066507   2.512363   1.760375   0.000000
    16  H    3.760663   2.562970   3.164097   2.498438   3.071069
    17  H    4.142178   3.922246   2.907767   3.671168   2.525312
    18  H    3.664932   2.912432   2.109066   3.698249   3.080407
    19  H    4.822293   4.370883   4.778326   2.504068   3.113022
    20  H    4.880451   4.759932   4.484574   3.077741   2.580476
    21  H    8.777481   7.547733   7.857842   7.110362   7.385018
    22  H    8.863418   8.012526   7.619570   7.561594   7.094094
    23  H    8.363357   7.230470   7.042430   7.251066   7.014772
    24  H    9.955284   8.858848   8.712238   8.611316   8.409148
    25  H    9.472935   8.714428   8.614650   7.622488   7.454738
    26  H   10.439628   9.456458   9.529409   8.610119   8.635662
                   16         17         18         19         20
    16  H    0.000000
    17  H    2.940388   0.000000
    18  H    2.381215   1.639924   0.000000
    19  H    2.503912   3.713600   4.216727   0.000000
    20  H    3.076749   2.572182   3.702400   1.772495   0.000000
    21  H    5.060225   6.006561   6.055530   5.143673   5.457139
    22  H    5.748114   5.044223   5.604254   5.810881   5.117702
    23  H    5.047660   4.949557   4.968587   5.775224   5.428093
    24  H    6.527022   6.429259   6.657661   6.787561   6.468402
    25  H    6.222387   6.084647   6.863479   5.331962   4.993765
    26  H    6.913664   7.187629   7.684594   6.333356   6.287019
                   21         22         23         24         25
    21  H    0.000000
    22  H    3.079995   0.000000
    23  H    2.498709   1.765982   0.000000
    24  H    2.510443   1.773967   1.770968   0.000000
    25  H    2.931143   2.495102   3.642275   3.017415   0.000000
    26  H    2.404136   2.991948   3.629598   2.460926   1.628571
                   26
    26  H    0.000000
 Stoichiometry    C8H16N2
 Framework group  C1[X(C8H16N2)]
 Deg. of freedom    72
 Full point group                 C1      NOp   1
 Largest Abelian subgroup         C1      NOp   1
 Largest concise Abelian subgroup C1      NOp   1
                         Standard orientation:                         
 ---------------------------------------------------------------------
 Center     Atomic      Atomic             Coordinates (Angstroms)
 Number     Number       Type             X           Y           Z
 ---------------------------------------------------------------------
      1          6           0       -4.376586    0.463425   -0.437680
      2          6           0       -3.356001   -0.533621    0.094021
      3          6           0       -1.907774   -0.095368   -0.166135
      4          7           0       -1.618750    1.191139    0.487852
      5          6           0       -0.928293   -1.180609    0.325015
      6          6           0        0.497524   -0.741080    0.034725
      7          6           0        1.720587   -0.364066   -0.214288
      8          6           0        3.146404    0.075462   -0.504578
      9          6           0        3.396205    1.451870    0.103650
     10          7           0        4.068089   -0.909348    0.051234
     11          1           0       -5.391660    0.099444   -0.257686
     12          1           0       -4.247475    0.611216   -1.514528
     13          1           0       -4.286376    1.435512    0.056066
     14          1           0       -3.532818   -1.503293   -0.388480
     15          1           0       -3.518824   -0.682269    1.168647
     16          1           0       -1.763776    0.038413   -1.246284
     17          1           0       -1.776306    1.117230    1.489019
     18          1           0       -2.235243    1.920098    0.134717
     19          1           0       -1.118305   -2.133731   -0.181045
     20          1           0       -1.035930   -1.344626    1.403967
     21          1           0        3.284040    0.122530   -1.590306
     22          1           0        3.248285    1.446564    1.190345
     23          1           0        2.705403    2.192278   -0.315603
     24          1           0        4.417137    1.793483   -0.098217
     25          1           0        3.930312   -0.949968    1.059916
     26          1           0        5.023769   -0.591495   -0.092513
 ---------------------------------------------------------------------
 Rotational constants (GHZ):           3.5635025           0.4199874           0.3908583
 Standard basis: 6-31G(2df,p) (6D, 7F)
 There are   390 symmetry adapted cartesian basis functions of A   symmetry.
 There are   360 symmetry adapted basis functions of A   symmetry.
   360 basis functions,   552 primitive gaussians,   390 cartesian basis functions
    39 alpha electrons       39 beta electrons
       nuclear repulsion energy       500.9277217891 Hartrees.
 NAtoms=   26 NActive=   26 NUniq=   26 SFac= 1.00D+00 NAtFMM=   60 NAOKFM=F Big=F
 Integral buffers will be    131072 words long.
 Raffenetti 2 integral format.
 Two-electron integral symmetry is turned on.
 One-electron integrals computed using PRISM.
 PrsmSu:  requested number of processors reduced to:  13 ShMem   1 Linda.
 NBasis=   360 RedAO= T EigKep=  9.77D-05  NBF=   360
 NBsUse=   360 1.00D-06 EigRej= -1.00D+00 NBFU=   360
 ExpMin= 1.61D-01 ExpMax= 4.17D+03 ExpMxC= 6.27D+02 IAcc=3 IRadAn=         5 AccDes= 0.00D+00
 Harris functional with IExCor=  402 and IRadAn=       5 diagonalized for initial guess.
 HarFok:  IExCor=  402 AccDes= 0.00D+00 IRadAn=         5 IDoV= 1 UseB2=F ITyADJ=14
 ICtDFT=  3500011 ScaDFX=  1.000000  1.000000  1.000000  1.000000
 FoFCou: FMM=F IPFlag=           0 FMFlag=      100000 FMFlg1=           0
         NFxFlg=           0 DoJE=T BraDBF=F KetDBF=T FulRan=T
         wScrn=  0.000000 ICntrl=       500 IOpCl=  0 I1Cent=   200000004 NGrid=           0
         NMat0=    1 NMatS0=      1 NMatT0=    0 NMatD0=    1 NMtDS0=    0 NMtDT0=    0
 Petite list used in FoFCou.
 Requested convergence on RMS density matrix=1.00D-08 within 128 cycles.
 Requested convergence on MAX density matrix=1.00D-06.
 Requested convergence on             energy=1.00D-06.
 No special actions if energy rises.
 Integral accuracy reduced to 1.0D-05 until final iterations.
 Initial convergence to 1.0D-05 achieved.  Increase integral accuracy.
 SCF Done:  E(RB3LYP) =  -423.932011604     A.U. after   13 cycles
            NFock= 13  Conv=0.67D-08     -V/T= 2.0096

 **********************************************************************

            Population analysis using the SCF density.

 **********************************************************************

 Orbital symmetries:
       Occupied  (A) (A) (A) (A) (A) (A) (A) (A) (A) (A) (A) (A)
                 (A) (A) (A) (A) (A) (A) (A) (A) (A) (A) (A) (A)
                 (A) (A) (A) (A) (A) (A) (A) (A) (A) (A) (A) (A)
                 (A) (A) (A)
       Virtual   (A) (A) (A) (A) (A) (A) (A) (A) (A) (A) (A) (A)
                 (A) (A) (A) (A) (A) (A) (A) (A) (A) (A) (A) (A)
                 (A) (A) (A) (A) (A) (A) (A) (A) (A) (A) (A) (A)
                 (A) (A) (A) (A) (A) (A) (A) (A) (A) (A) (A) (A)
                 (A) (A) (A) (A) (A) (A) (A) (A) (A) (A) (A) (A)
                 (A) (A) (A) (A) (A) (A) (A) (A) (A) (A) (A) (A)
                 (A) (A) (A) (A) (A) (A) (A) (A) (A) (A) (A) (A)
                 (A) (A) (A) (A) (A) (A) (A) (A) (A) (A) (A) (A)
                 (A) (A) (A) (A) (A) (A) (A) (A) (A) (A) (A) (A)
                 (A) (A) (A) (A) (A) (A) (A) (A) (A) (A) (A) (A)
                 (A) (A) (A) (A) (A) (A) (A) (A) (A) (A) (A) (A)
                 (A) (A) (A) (A) (A) (A) (A) (A) (A) (A) (A) (A)
                 (A) (A) (A) (A) (A) (A) (A) (A) (A) (A) (A) (A)
                 (A) (A) (A) (A) (A) (A) (A) (A) (A) (A) (A) (A)
                 (A) (A) (A) (A) (A) (A) (A) (A) (A) (A) (A) (A)
                 (A) (A) (A) (A) (A) (A) (A) (A) (A) (A) (A) (A)
                 (A) (A) (A) (A) (A) (A) (A) (A) (A) (A) (A) (A)
                 (A) (A) (A) (A) (A) (A) (A) (A) (A) (A) (A) (A)
                 (A) (A) (A) (A) (A) (A) (A) (A) (A) (A) (A) (A)
                 (A) (A) (A) (A) (A) (A) (A) (A) (A) (A) (A) (A)
                 (A) (A) (A) (A) (A) (A) (A) (A) (A) (A) (A) (A)
                 (A) (A) (A) (A) (A) (A) (A) (A) (A) (A) (A) (A)
                 (A) (A) (A) (A) (A) (A) (A) (A) (A) (A) (A) (A)
                 (A) (A) (A) (A) (A) (A) (A) (A) (A) (A) (A) (A)
                 (A) (A) (A) (A) (A) (A) (A) (A) (A) (A) (A) (A)
                 (A) (A) (A) (A) (A) (A) (A) (A) (A) (A) (A) (A)
                 (A) (A) (A) (A) (A) (A) (A) (A) (A)
 The electronic state is 1-A.
 Alpha  occ. eigenvalues --  -14.30297 -14.30162 -10.23052 -10.21352 -10.20751
 Alpha  occ. eigenvalues --  -10.18331 -10.17900 -10.17703 -10.17658 -10.16956
 Alpha  occ. eigenvalues --   -0.88518  -0.88429  -0.77189  -0.75271  -0.73353
 Alpha  occ. eigenvalues --   -0.67997  -0.63862  -0.60309  -0.57773  -0.50860
 Alpha  occ. eigenvalues --   -0.49409  -0.46239  -0.45708  -0.44277  -0.42915
 Alpha  occ. eigenvalues --   -0.42407  -0.41224  -0.40646  -0.39101  -0.37083
 Alpha  occ. eigenvalues --   -0.36926  -0.35475  -0.34784  -0.34169  -0.33706
 Alpha  occ. eigenvalues --   -0.23625  -0.23069  -0.22550  -0.21842
 Alpha virt. eigenvalues --    0.04108   0.05152   0.07765   0.09781   0.11160
 Alpha virt. eigenvalues --    0.11512   0.13134   0.13522   0.14480   0.15633
 Alpha virt. eigenvalues --    0.16078   0.16196   0.16822   0.17847   0.18306
 Alpha virt. eigenvalues --    0.19065   0.19882   0.20329   0.21415   0.23574
 Alpha virt. eigenvalues --    0.24358   0.24618   0.25825   0.26942   0.27700
 Alpha virt. eigenvalues --    0.29490   0.40360   0.42049   0.45708   0.47814
 Alpha virt. eigenvalues --    0.48811   0.50421   0.51514   0.51837   0.52327
 Alpha virt. eigenvalues --    0.52849   0.53316   0.55288   0.56301   0.57065
 Alpha virt. eigenvalues --    0.59711   0.60175   0.61088   0.63008   0.63982
 Alpha virt. eigenvalues --    0.64406   0.66308   0.68498   0.70345   0.70947
 Alpha virt. eigenvalues --    0.71714   0.72131   0.73373   0.73690   0.74217
 Alpha virt. eigenvalues --    0.74280   0.74979   0.75538   0.76023   0.76835
 Alpha virt. eigenvalues --    0.77855   0.78986   0.79846   0.80017   0.80472
 Alpha virt. eigenvalues --    0.81199   0.82227   0.83451   0.84709   0.85795
 Alpha virt. eigenvalues --    0.86430   0.87388   0.87826   0.88521   0.90405
 Alpha virt. eigenvalues --    0.91855   0.92600   0.93603   0.99902   1.03594
 Alpha virt. eigenvalues --    1.04589   1.05373   1.06533   1.09725   1.13109
 Alpha virt. eigenvalues --    1.14106   1.14394   1.17189   1.19419   1.20703
 Alpha virt. eigenvalues --    1.23810   1.27134   1.28742   1.30497   1.31361
 Alpha virt. eigenvalues --    1.35117   1.37316   1.40476   1.42541   1.46169
 Alpha virt. eigenvalues --    1.46500   1.48044   1.51197   1.51653   1.52605
 Alpha virt. eigenvalues --    1.52962   1.53863   1.55920   1.58626   1.59356
 Alpha virt. eigenvalues --    1.61724   1.63173   1.63579   1.66243   1.69141
 Alpha virt. eigenvalues --    1.70349   1.75256   1.77513   1.77910   1.79921
 Alpha virt. eigenvalues --    1.82248   1.83666   1.86525   1.89072   1.91593
 Alpha virt. eigenvalues --    1.92102   1.94083   1.95761   1.96315   1.97647
 Alpha virt. eigenvalues --    1.98466   2.05001   2.09804   2.16455   2.16867
 Alpha virt. eigenvalues --    2.21203   2.22238   2.23050   2.24158   2.26390
 Alpha virt. eigenvalues --    2.27328   2.28508   2.33009   2.37875   2.38545
 Alpha virt. eigenvalues --    2.39856   2.42125   2.43053   2.43426   2.46553
 Alpha virt. eigenvalues --    2.47928   2.50678   2.54181   2.57428   2.61820
 Alpha virt. eigenvalues --    2.67569   2.68163   2.69287   2.70641   2.72686
 Alpha virt. eigenvalues --    2.73271   2.74371   2.76371   2.77261   2.78776
 Alpha virt. eigenvalues --    2.80078   2.80667   2.81760   2.82151   2.83410
 Alpha virt. eigenvalues --    2.84307   2.85308   2.86761   2.87513   2.88824
 Alpha virt. eigenvalues --    2.90311   2.92141   2.92596   2.95086   2.95339
 Alpha virt. eigenvalues --    2.97444   2.98136   3.01655   3.02877   3.04319
 Alpha virt. eigenvalues --    3.05335   3.07528   3.08377   3.09180   3.11584
 Alpha virt. eigenvalues --    3.14274   3.15386   3.17624   3.22483   3.23945
 Alpha virt. eigenvalues --    3.25692   3.27369   3.30264   3.33115   3.34287
 Alpha virt. eigenvalues --    3.34781   3.37308   3.39996   3.42278   3.44143
 Alpha virt. eigenvalues --    3.45892   3.49171   3.53120   3.55090   3.56129
 Alpha virt. eigenvalues --    3.58509   3.58946   3.61630   3.61813   3.64537
 Alpha virt. eigenvalues --    3.65171   3.67154   3.69626   3.73140   3.75495
 Alpha virt. eigenvalues --    3.76761   3.78084   3.80934   3.82788   3.85007
 Alpha virt. eigenvalues --    3.88006   3.89086   3.92455   3.93243   3.97109
 Alpha virt. eigenvalues --    4.01556   4.02079   4.05065   4.06452   4.07501
 Alpha virt. eigenvalues --    4.11152   4.15979   4.21484   4.22830   4.23716
 Alpha virt. eigenvalues --    4.25781   4.26616   4.29079   4.31219   4.32737
 Alpha virt. eigenvalues --    4.35828   4.36026   4.37136   4.38689   4.39840
 Alpha virt. eigenvalues --    4.42416   4.44908   4.45714   4.46915   4.48786
 Alpha virt. eigenvalues --    4.51018   4.51798   4.53612   4.53713   4.55834
 Alpha virt. eigenvalues --    4.58537   4.59911   4.60986   4.61510   4.63385
 Alpha virt. eigenvalues --    4.66194   4.67971   4.69645   4.70770   4.71091
 Alpha virt. eigenvalues --    4.73490   4.73707   4.74842   4.76845   4.78823
 Alpha virt. eigenvalues --    4.79294   4.81063   4.81471   4.82161   4.83974
 Alpha virt. eigenvalues --    4.84966   4.86694   4.88242   4.89025   4.90824
 Alpha virt. eigenvalues --    4.92559   4.94663   4.96229   4.97925   4.99681
 Alpha virt. eigenvalues --    5.04466   5.11716   5.13724   5.17950   5.22304
 Alpha virt. eigenvalues --    5.28037   5.32476   5.34844   5.37579   5.37932
 Alpha virt. eigenvalues --    5.40709   5.43691   5.51316   5.53848   5.57262
 Alpha virt. eigenvalues --    5.72350   5.96301   6.09836   6.83909   9.37788
 Alpha virt. eigenvalues --    9.79709  10.31828  11.30319  11.38562  11.46952
 Alpha virt. eigenvalues --   11.60185  11.76736  12.16248  12.42595  12.71589
 Alpha virt. eigenvalues --   12.94955
          Condensed to atoms (all electrons):
               1          2          3          4          5          6
     1  C    4.978499   0.404525  -0.026393  -0.007682   0.002541  -0.000277
     2  C    0.404525   4.920000   0.404559  -0.066404  -0.045330   0.003332
     3  C   -0.026393   0.404559   4.654395   0.401340   0.395511  -0.043059
     4  N   -0.007682  -0.066404   0.401340   6.533186  -0.030641   0.000522
     5  C    0.002541  -0.045330   0.395511  -0.030641   4.983907   0.419754
     6  C   -0.000277   0.003332  -0.043059   0.000522   0.419754   4.870459
     7  C   -0.000007  -0.000009  -0.001239   0.001791  -0.033420   0.830955
     8  C   -0.000000   0.000000   0.000046   0.000002  -0.000668  -0.044327
     9  C    0.000000  -0.000000   0.000004   0.000001   0.000021  -0.002648
    10  N   -0.000000   0.000000  -0.000001  -0.000000  -0.000019  -0.003971
    11  H    0.372520  -0.021482   0.002670   0.000419  -0.000125   0.000002
    12  H    0.377363  -0.030616  -0.003250  -0.000191   0.000167   0.000016
    13  H    0.368353  -0.033388  -0.007147   0.008257   0.000186   0.000010
    14  H   -0.034148   0.340107  -0.024102   0.005876  -0.000570   0.000501
    15  H   -0.040094   0.355145  -0.023544  -0.004458  -0.004258   0.000520
    16  H   -0.003967  -0.053519   0.362092  -0.031862  -0.042211   0.002529
    17  H   -0.000317  -0.004803  -0.055127   0.338880  -0.002967  -0.000339
    18  H    0.002368  -0.005115  -0.049787   0.350962   0.005414   0.000213
    19  H   -0.000043  -0.000802  -0.026788   0.003041   0.360633  -0.020573
    20  H   -0.000023  -0.005772  -0.022433  -0.006037   0.349373  -0.022973
    21  H    0.000000  -0.000000  -0.000001  -0.000001  -0.000004  -0.001667
    22  H    0.000000  -0.000000  -0.000001   0.000001  -0.000007   0.000290
    23  H   -0.000000   0.000000   0.000000   0.000062  -0.000002   0.001045
    24  H   -0.000000   0.000000  -0.000000   0.000000  -0.000000  -0.000022
    25  H    0.000000  -0.000000   0.000000  -0.000000   0.000011   0.001132
    26  H    0.000000  -0.000000   0.000000   0.000000   0.000001   0.000087
               7          8          9         10         11         12
     1  C   -0.000007  -0.000000   0.000000  -0.000000   0.372520   0.377363
     2  C   -0.000009   0.000000  -0.000000   0.000000  -0.021482  -0.030616
     3  C   -0.001239   0.000046   0.000004  -0.000001   0.002670  -0.003250
     4  N    0.001791   0.000002   0.000001  -0.000000   0.000419  -0.000191
     5  C   -0.033420  -0.000668   0.000021  -0.000019  -0.000125   0.000167
     6  C    0.830955  -0.044327  -0.002648  -0.003971   0.000002   0.000016
     7  C    4.785494   0.427654  -0.047921  -0.040894   0.000000   0.000001
     8  C    0.427654   4.733028   0.402445   0.398655   0.000000   0.000000
     9  C   -0.047921   0.402445   5.071076  -0.066515  -0.000000  -0.000000
    10  N   -0.040894   0.398655  -0.066515   6.557081   0.000000  -0.000000
    11  H    0.000000   0.000000  -0.000000   0.000000   0.597350  -0.030326
    12  H    0.000001   0.000000  -0.000000  -0.000000  -0.030326   0.596454
    13  H    0.000000   0.000000   0.000000   0.000000  -0.030417  -0.034005
    14  H    0.000015   0.000000  -0.000000   0.000000  -0.002588  -0.003663
    15  H    0.000021   0.000000  -0.000000   0.000000  -0.001939   0.005767
    16  H    0.002357   0.000024   0.000000   0.000000  -0.000020   0.005319
    17  H    0.000000  -0.000001  -0.000000   0.000000  -0.000011   0.000096
    18  H   -0.000046  -0.000000  -0.000000  -0.000000  -0.000204   0.000647
    19  H   -0.001011  -0.000048  -0.000002   0.000001  -0.000002  -0.000003
    20  H   -0.000618   0.000038   0.000005   0.000003   0.000003   0.000010
    21  H   -0.032046   0.368850  -0.056624  -0.030243  -0.000000   0.000000
    22  H   -0.004196  -0.020556   0.367134  -0.002276  -0.000000   0.000000
    23  H    0.000824  -0.018399   0.346595   0.005863   0.000000  -0.000000
    24  H    0.004190  -0.024149   0.356090  -0.000798   0.000000   0.000000
    25  H   -0.001814  -0.051755  -0.005199   0.336678  -0.000000   0.000000
    26  H    0.006581  -0.052453  -0.002437   0.334104  -0.000000   0.000000
              13         14         15         16         17         18
     1  C    0.368353  -0.034148  -0.040094  -0.003967  -0.000317   0.002368
     2  C   -0.033388   0.340107   0.355145  -0.053519  -0.004803  -0.005115
     3  C   -0.007147  -0.024102  -0.023544   0.362092  -0.055127  -0.049787
     4  N    0.008257   0.005876  -0.004458  -0.031862   0.338880   0.350962
     5  C    0.000186  -0.000570  -0.004258  -0.042211  -0.002967   0.005414
     6  C    0.000010   0.000501   0.000520   0.002529  -0.000339   0.000213
     7  C    0.000000   0.000015   0.000021   0.002357   0.000000  -0.000046
     8  C    0.000000   0.000000   0.000000   0.000024  -0.000001  -0.000000
     9  C    0.000000  -0.000000  -0.000000   0.000000  -0.000000  -0.000000
    10  N    0.000000   0.000000   0.000000   0.000000   0.000000  -0.000000
    11  H   -0.030417  -0.002588  -0.001939  -0.000020  -0.000011  -0.000204
    12  H   -0.034005  -0.003663   0.005767   0.005319   0.000096   0.000647
    13  H    0.610712   0.006499  -0.003770   0.000147   0.001470   0.006708
    14  H    0.006499   0.659484  -0.037215  -0.001786   0.000026   0.000046
    15  H   -0.003770  -0.037215   0.650703   0.006441   0.005460   0.000045
    16  H    0.000147  -0.001786   0.006441   0.656919   0.006947  -0.003859
    17  H    0.001470   0.000026   0.005460   0.006947   0.521058  -0.032943
    18  H    0.006708   0.000046   0.000045  -0.003859  -0.032943   0.497276
    19  H   -0.000001   0.003321  -0.000296  -0.003603  -0.000149  -0.000189
    20  H    0.000004  -0.000186   0.005026   0.006130   0.004348  -0.000136
    21  H    0.000000   0.000000   0.000000  -0.000004   0.000000   0.000000
    22  H   -0.000000   0.000000  -0.000000  -0.000000   0.000000   0.000000
    23  H   -0.000000  -0.000000  -0.000000   0.000001  -0.000001  -0.000001
    24  H   -0.000000   0.000000  -0.000000  -0.000000   0.000000  -0.000000
    25  H    0.000000   0.000000  -0.000000  -0.000000  -0.000000   0.000000
    26  H   -0.000000  -0.000000  -0.000000  -0.000000  -0.000000   0.000000
              19         20         21         22         23         24
     1  C   -0.000043  -0.000023   0.000000   0.000000  -0.000000  -0.000000
     2  C   -0.000802  -0.005772  -0.000000  -0.000000   0.000000   0.000000
     3  C   -0.026788  -0.022433  -0.000001  -0.000001   0.000000  -0.000000
     4  N    0.003041  -0.006037  -0.000001   0.000001   0.000062   0.000000
     5  C    0.360633   0.349373  -0.000004  -0.000007  -0.000002  -0.000000
     6  C   -0.020573  -0.022973  -0.001667   0.000290   0.001045  -0.000022
     7  C   -0.001011  -0.000618  -0.032046  -0.004196   0.000824   0.004190
     8  C   -0.000048   0.000038   0.368850  -0.020556  -0.018399  -0.024149
     9  C   -0.000002   0.000005  -0.056624   0.367134   0.346595   0.356090
    10  N    0.000001   0.000003  -0.030243  -0.002276   0.005863  -0.000798
    11  H   -0.000002   0.000003  -0.000000  -0.000000   0.000000   0.000000
    12  H   -0.000003   0.000010   0.000000   0.000000  -0.000000   0.000000
    13  H   -0.000001   0.000004   0.000000  -0.000000  -0.000000  -0.000000
    14  H    0.003321  -0.000186   0.000000   0.000000  -0.000000   0.000000
    15  H   -0.000296   0.005026   0.000000  -0.000000  -0.000000  -0.000000
    16  H   -0.003603   0.006130  -0.000004  -0.000000   0.000001  -0.000000
    17  H   -0.000149   0.004348   0.000000   0.000000  -0.000001   0.000000
    18  H   -0.000189  -0.000136   0.000000   0.000000  -0.000001  -0.000000
    19  H    0.591566  -0.038508   0.000007   0.000000   0.000000   0.000000
    20  H   -0.038508   0.608167  -0.000003  -0.000003   0.000000  -0.000000
    21  H    0.000007  -0.000003   0.633420   0.005595  -0.000418  -0.001996
    22  H    0.000000  -0.000003   0.005595   0.590189  -0.027071  -0.032227
    23  H    0.000000   0.000000  -0.000418  -0.027071   0.597331  -0.028203
    24  H    0.000000  -0.000000  -0.001996  -0.032227  -0.028203   0.622630
    25  H    0.000001  -0.000007   0.007134   0.005881  -0.000036   0.000084
    26  H   -0.000000  -0.000000  -0.002293   0.000175  -0.000024   0.004555
              25         26
     1  C    0.000000   0.000000
     2  C   -0.000000  -0.000000
     3  C    0.000000   0.000000
     4  N   -0.000000   0.000000
     5  C    0.000011   0.000001
     6  C    0.001132   0.000087
     7  C   -0.001814   0.006581
     8  C   -0.051755  -0.052453
     9  C   -0.005199  -0.002437
    10  N    0.336678   0.334104
    11  H   -0.000000  -0.000000
    12  H    0.000000   0.000000
    13  H    0.000000  -0.000000
    14  H    0.000000  -0.000000
    15  H   -0.000000  -0.000000
    16  H   -0.000000  -0.000000
    17  H   -0.000000  -0.000000
    18  H    0.000000   0.000000
    19  H    0.000001  -0.000000
    20  H   -0.000007  -0.000000
    21  H    0.007134  -0.002293
    22  H    0.005881   0.000175
    23  H   -0.000036  -0.000024
    24  H    0.000084   0.004555
    25  H    0.511842  -0.029297
    26  H   -0.029297   0.521494
 Mulliken charges:
               1
     1  C   -0.393217
     2  C   -0.160429
     3  C    0.062254
     4  N   -0.497065
     5  C   -0.357298
     6  C    0.008490
     7  C    0.103338
     8  C   -0.118385
     9  C   -0.362024
    10  N   -0.487667
    11  H    0.114150
    12  H    0.116214
    13  H    0.106381
    14  H    0.088382
    15  H    0.086447
    16  H    0.091924
    17  H    0.218369
    18  H    0.228602
    19  H    0.133446
    20  H    0.123592
    21  H    0.110294
    22  H    0.117072
    23  H    0.122434
    24  H    0.099846
    25  H    0.225344
    26  H    0.219507
 Sum of Mulliken charges =  -0.00000
 Mulliken charges with hydrogens summed into heavy atoms:
               1
     1  C   -0.056472
     2  C    0.014400
     3  C    0.154178
     4  N   -0.050094
     5  C   -0.100260
     6  C    0.008490
     7  C    0.103338
     8  C   -0.008092
     9  C   -0.022672
    10  N   -0.042816
 Electronic spatial extent (au):  <R**2>=           2904.8408
 Charge=             -0.0000 electrons
 Dipole moment (field-independent basis, Debye):
    X=             -1.3521    Y=              1.0018    Z=              0.8458  Tot=              1.8833
 Quadrupole moment (field-independent basis, Debye-Ang):
   XX=            -52.0345   YY=            -65.5185   ZZ=            -59.8024
   XY=              4.6237   XZ=              0.4655   YZ=             -1.2164
 Traceless Quadrupole moment (field-independent basis, Debye-Ang):
   XX=              7.0839   YY=             -6.4000   ZZ=             -0.6839
   XY=              4.6237   XZ=              0.4655   YZ=             -1.2164
 Octapole moment (field-independent basis, Debye-Ang**2):
  XXX=             42.5915  YYY=              8.2545  ZZZ=              5.8952  XYY=            -17.3439
  XXY=             21.8341  XXZ=              8.4885  XZZ=              2.5376  YZZ=              1.3561
  YYZ=              2.0229  XYZ=             -6.5856
 Hexadecapole moment (field-independent basis, Debye-Ang**3):
 XXXX=          -3070.9741 YYYY=           -405.9599 ZZZZ=           -140.9474 XXXY=             46.1571
 XXXZ=             10.9797 YYYX=              0.2593 YYYZ=              0.1444 ZZZX=             -3.1930
 ZZZY=              0.9468 XXYY=           -663.0931 XXZZ=           -555.5664 YYZZ=            -91.2723
 XXYZ=            -14.5394 YYXZ=              4.1069 ZZXY=             -8.9901
 N-N= 5.009277217891D+02 E-N=-1.984636182285D+03  KE= 4.199171515069D+02
 PrsmSu:  requested number of processors reduced to:  13 ShMem   1 Linda.
 Calling FoFJK, ICntrl=      2127 FMM=F ISym2X=0 I1Cent= 0 IOpClX= 0 NMat=1 NMatS=1 NMatT=0.
 ***** Axes restored to original set *****
 -------------------------------------------------------------------
 Center     Atomic                   Forces (Hartrees/Bohr)
 Number     Number              X              Y              Z
 -------------------------------------------------------------------
      1        6          -0.002296031    0.003301319   -0.000957662
      2        6           0.000387291    0.004988920    0.007751861
      3        6          -0.004445175    0.005820507   -0.014428591
      4        7           0.003240775   -0.006514097    0.006316178
      5        6           0.005752230   -0.039476974    0.010766699
      6        6           0.047952089   -0.113367345    0.032086327
      7        6          -0.043225646    0.118257840   -0.028878776
      8        6          -0.006204361    0.022626280   -0.018738706
      9        6          -0.015828202   -0.005306483   -0.003470606
     10        7           0.011837141    0.005099226    0.005608054
     11        1          -0.002032150    0.000243909    0.000807124
     12        1          -0.001763506    0.000304678    0.000228608
     13        1          -0.000897379    0.000300348    0.000187724
     14        1           0.001145822    0.001598264   -0.000224750
     15        1           0.002317204   -0.001368399   -0.000604538
     16        1           0.000684515   -0.000865204   -0.001124103
     17        1          -0.000931349    0.000797220   -0.000078972
     18        1           0.004551807    0.000594400   -0.000233036
     19        1          -0.001258570    0.000517805   -0.001003984
     20        1          -0.000889369    0.000917659   -0.000397082
     21        1           0.001135797    0.000885052    0.001131628
     22        1           0.001020292    0.001650100    0.002382041
     23        1          -0.000305360   -0.001347975   -0.001153768
     24        1           0.001202397    0.000209770    0.001556747
     25        1          -0.000480254    0.000085178    0.002339122
     26        1          -0.000670008    0.000048000    0.000132459
 -------------------------------------------------------------------
 Cartesian Forces:  Max     0.118257840 RMS     0.021631853

 GradGradGradGradGradGradGradGradGradGradGradGradGradGradGradGradGradGrad
 Berny optimization.
 FormGI is forming the generalized inverse of G from B-inverse, IUseBI=4.
 Internal  Forces:  Max     0.156215534 RMS     0.014620136
 Search for a local minimum.
 Step number   1 out of a maximum of  138
 All quantities printed in internal units (Hartrees-Bohrs-Radians)
 Mixed Optimization -- RFO/linear search
 Second derivative matrix not updated -- first step.
 ITU=  0
     Eigenvalues ---    0.00230   0.00230   0.00299   0.00430   0.00438
     Eigenvalues ---    0.00458   0.00467   0.00741   0.00913   0.02553
     Eigenvalues ---    0.02618   0.03540   0.04023   0.04152   0.04197
     Eigenvalues ---    0.04664   0.04690   0.04718   0.04848   0.04939
     Eigenvalues ---    0.05329   0.05484   0.05549   0.05588   0.05678
     Eigenvalues ---    0.05741   0.06104   0.08355   0.08563   0.12139
     Eigenvalues ---    0.12216   0.16000   0.16000   0.16000   0.16000
     Eigenvalues ---    0.16000   0.16000   0.16000   0.16000   0.16000
     Eigenvalues ---    0.16000   0.16498   0.16838   0.17825   0.17994
     Eigenvalues ---    0.21895   0.21914   0.28326   0.28941   0.29852
     Eigenvalues ---    0.30115   0.30366   0.30366   0.33917   0.33969
     Eigenvalues ---    0.34015   0.34046   0.34056   0.34130   0.34158
     Eigenvalues ---    0.34193   0.34204   0.34288   0.34352   0.34437
     Eigenvalues ---    0.35520   0.37107   0.44521   0.44673   0.44762
     Eigenvalues ---    0.44953   0.66134
 RFO step:  Lambda=-4.56458957D-02 EMin= 2.30000000D-03
 Linear search not attempted -- first point.
 Iteration  1 RMS(Cart)=  0.08948465 RMS(Int)=  0.00236235
 Iteration  2 RMS(Cart)=  0.00700724 RMS(Int)=  0.00017753
 Iteration  3 RMS(Cart)=  0.00000772 RMS(Int)=  0.00017749
 Iteration  4 RMS(Cart)=  0.00000000 RMS(Int)=  0.00017749
 Variable       Old X    -DE/DX   Delta X   Delta X   Delta X     New X
                                 (Linear)    (Quad)   (Total)
    R1        2.87735   0.00718   0.00000   0.02070   0.02070   2.89806
    R2        2.06599   0.00067   0.00000   0.00172   0.00172   2.06772
    R3        2.06846   0.00076   0.00000   0.00195   0.00195   2.07041
    R4        2.06739   0.00005   0.00000   0.00014   0.00014   2.06753
    R5        2.90127   0.00786   0.00000   0.02346   0.02346   2.92473
    R6        2.07383   0.00134   0.00000   0.00347   0.00347   2.07729
    R7        2.07305   0.00095   0.00000   0.00247   0.00247   2.07552
    R8        2.78139  -0.00256   0.00000  -0.00640  -0.00640   2.77499
    R9        2.91432   0.00002   0.00000   0.00005   0.00005   2.91437
   R10        2.07470  -0.00104   0.00000  -0.00270  -0.00270   2.07201
   R11        1.92030  -0.00001   0.00000  -0.00002  -0.00002   1.92028
   R12        1.92358  -0.00457   0.00000  -0.00929  -0.00929   1.91429
   R13        2.87239  -0.02915   0.00000  -0.08345  -0.08345   2.78894
   R14        2.07065  -0.00074   0.00000  -0.00190  -0.00190   2.06874
   R15        2.07235   0.00024   0.00000   0.00062   0.00062   2.07298
   R16        2.46392  -0.15622   0.00000  -0.22096  -0.22096   2.24297
   R17        2.87239  -0.02712   0.00000  -0.07763  -0.07763   2.79475
   R18        2.88259   0.00903   0.00000   0.02624   0.02624   2.90883
   R19        2.75685   0.01033   0.00000   0.02478   0.02478   2.78164
   R20        2.07006   0.00056   0.00000   0.00145   0.00145   2.07152
   R21        2.07252  -0.00172   0.00000  -0.00445  -0.00445   2.06807
   R22        2.07111   0.00025   0.00000   0.00066   0.00066   2.07177
   R23        2.06988   0.00057   0.00000   0.00146   0.00146   2.07134
   R24        1.92536  -0.00232   0.00000  -0.00472  -0.00472   1.92065
   R25        1.92253  -0.00024   0.00000  -0.00049  -0.00049   1.92204
    A1        1.92499   0.00221   0.00000   0.01083   0.01080   1.93579
    A2        1.93146   0.00157   0.00000   0.00721   0.00719   1.93864
    A3        1.94870   0.00066   0.00000   0.00357   0.00355   1.95224
    A4        1.89277  -0.00213   0.00000  -0.01106  -0.01109   1.88168
    A5        1.87347  -0.00130   0.00000  -0.00548  -0.00551   1.86796
    A6        1.89052  -0.00124   0.00000  -0.00616  -0.00617   1.88435
    A7        1.96728   0.00739   0.00000   0.03007   0.03006   1.99734
    A8        1.89343  -0.00249   0.00000  -0.00692  -0.00695   1.88647
    A9        1.90850  -0.00028   0.00000   0.00509   0.00526   1.91376
   A10        1.90679  -0.00144   0.00000  -0.00378  -0.00389   1.90290
   A11        1.92270  -0.00430   0.00000  -0.02191  -0.02207   1.90063
   A12        1.86195   0.00080   0.00000  -0.00419  -0.00432   1.85763
   A13        1.93847   0.01103   0.00000   0.06113   0.06125   1.99972
   A14        1.92225  -0.00275   0.00000  -0.00764  -0.00753   1.91472
   A15        1.90204  -0.00240   0.00000  -0.01140  -0.01150   1.89054
   A16        1.92715  -0.00590   0.00000  -0.02402  -0.02431   1.90284
   A17        1.88062  -0.00198   0.00000  -0.01256  -0.01290   1.86772
   A18        1.89207   0.00186   0.00000  -0.00707  -0.00744   1.88463
   A19        1.92170  -0.00052   0.00000  -0.00407  -0.00408   1.91762
   A20        1.93144  -0.00039   0.00000  -0.00342  -0.00343   1.92801
   A21        1.87547  -0.00024   0.00000  -0.00421  -0.00424   1.87122
   A22        1.90865   0.01392   0.00000   0.05636   0.05639   1.96504
   A23        1.93359  -0.00525   0.00000  -0.02272  -0.02327   1.91032
   A24        1.93504  -0.00404   0.00000  -0.01578  -0.01572   1.91932
   A25        1.90285  -0.00391   0.00000  -0.01243  -0.01216   1.89070
   A26        1.89992  -0.00301   0.00000  -0.00259  -0.00269   1.89723
   A27        1.88313   0.00205   0.00000  -0.00361  -0.00407   1.87906
   A28        1.91599  -0.00291   0.00000  -0.00349  -0.00398   1.91201
   A29        1.90146  -0.00277   0.00000  -0.00455  -0.00525   1.89621
   A30        1.89608   0.00101   0.00000  -0.01242  -0.01273   1.88334
   A31        1.93237   0.01065   0.00000   0.06128   0.06098   1.99334
   A32        1.91331  -0.00186   0.00000  -0.01170  -0.01121   1.90210
   A33        1.90418  -0.00431   0.00000  -0.03057  -0.03054   1.87364
   A34        1.94833  -0.00377   0.00000  -0.01956  -0.01963   1.92871
   A35        1.93246   0.00386   0.00000   0.02096   0.02105   1.95351
   A36        1.93968  -0.00264   0.00000  -0.01383  -0.01393   1.92574
   A37        1.87265   0.00038   0.00000   0.00366   0.00377   1.87642
   A38        1.88581   0.00242   0.00000   0.00770   0.00745   1.89326
   A39        1.88209  -0.00006   0.00000   0.00205   0.00212   1.88421
   A40        1.89512   0.00051   0.00000   0.00277   0.00278   1.89789
   A41        1.90577  -0.00103   0.00000  -0.00472  -0.00472   1.90105
   A42        1.85393   0.00039   0.00000   0.00259   0.00260   1.85653
   A43        3.14160  -0.00029   0.00000   0.00171   0.00183   3.14343
   A44        3.14158  -0.00597   0.00000  -0.06820  -0.06805   3.07354
   A45        3.14160  -0.00071   0.00000   0.00562   0.00588   3.14748
   A46        3.14160  -0.00065   0.00000   0.00710   0.00709   3.14869
    D1        3.11297   0.00033   0.00000   0.00040   0.00034   3.11331
    D2        0.99902  -0.00089   0.00000  -0.00940  -0.00941   0.98961
    D3       -1.02535  -0.00031   0.00000  -0.00334  -0.00326  -1.02861
    D4        1.01852   0.00055   0.00000   0.00253   0.00246   1.02098
    D5       -1.09543  -0.00067   0.00000  -0.00727  -0.00729  -1.10272
    D6       -3.11980  -0.00009   0.00000  -0.00121  -0.00114  -3.12094
    D7       -1.08878   0.00060   0.00000   0.00300   0.00294  -1.08585
    D8        3.08045  -0.00062   0.00000  -0.00680  -0.00681   3.07364
    D9        1.05608  -0.00005   0.00000  -0.00074  -0.00066   1.05542
   D10        1.05522   0.00216   0.00000   0.01005   0.00988   1.06510
   D11       -3.08740   0.00028   0.00000   0.01596   0.01595  -3.07145
   D12       -1.01393  -0.00054   0.00000  -0.00413  -0.00422  -1.01814
   D13       -3.12164   0.00284   0.00000   0.01834   0.01822  -3.10341
   D14       -0.98108   0.00096   0.00000   0.02425   0.02430  -0.95678
   D15        1.09240   0.00014   0.00000   0.00416   0.00413   1.09653
   D16       -1.08168   0.00048   0.00000  -0.00162  -0.00158  -1.08326
   D17        1.05888  -0.00140   0.00000   0.00429   0.00449   1.06337
   D18        3.13235  -0.00222   0.00000  -0.01580  -0.01568   3.11668
   D19        1.02147  -0.00143   0.00000  -0.00877  -0.00886   1.01261
   D20       -1.04936  -0.00056   0.00000   0.00113   0.00102  -1.04834
   D21       -1.11625  -0.00141   0.00000  -0.02436  -0.02416  -1.14041
   D22        3.09610  -0.00054   0.00000  -0.01445  -0.01427   3.08183
   D23        3.10350   0.00084   0.00000   0.00517   0.00509   3.10858
   D24        1.03266   0.00171   0.00000   0.01507   0.01497   1.04764
   D25        3.12259  -0.00491   0.00000  -0.04126  -0.04145   3.08115
   D26        1.02480  -0.00573   0.00000  -0.04787  -0.04750   0.97730
   D27       -1.06552  -0.00221   0.00000  -0.01808  -0.01805  -1.08357
   D28       -1.01339   0.00315   0.00000   0.01455   0.01418  -0.99921
   D29       -3.11118   0.00234   0.00000   0.00793   0.00812  -3.10306
   D30        1.08168   0.00585   0.00000   0.03772   0.03757   1.11925
   D31        1.04302  -0.00151   0.00000  -0.01864  -0.01886   1.02416
   D32       -1.05477  -0.00232   0.00000  -0.02526  -0.02492  -1.07969
   D33        3.13809   0.00119   0.00000   0.00453   0.00453  -3.14056
   D34        0.95041  -0.00382   0.00000  -0.02856  -0.02895   0.92145
   D35        3.06909   0.00360   0.00000   0.02270   0.02243   3.09153
   D36       -1.14161  -0.00044   0.00000   0.00007  -0.00018  -1.14179
   D37        3.06692  -0.00284   0.00000  -0.02101  -0.02092   3.04600
   D38       -1.09758   0.00458   0.00000   0.03025   0.03047  -1.06711
   D39        0.97490   0.00054   0.00000   0.00762   0.00785   0.98275
   D40       -1.16608  -0.00412   0.00000  -0.02984  -0.02981  -1.19589
   D41        0.95261   0.00330   0.00000   0.02141   0.02158   0.97419
   D42        3.02509  -0.00074   0.00000  -0.00122  -0.00104   3.02405
   D43        1.04122   0.00170   0.00000   0.02537   0.02534   1.06656
   D44       -1.04391   0.00112   0.00000   0.01961   0.01968  -1.02422
   D45       -3.13523   0.00038   0.00000   0.01224   0.01239  -3.12284
   D46       -1.05881   0.00024   0.00000  -0.00579  -0.00597  -1.06478
   D47        3.13924  -0.00033   0.00000  -0.01155  -0.01162   3.12763
   D48        1.04792  -0.00108   0.00000  -0.01892  -0.01891   1.02900
   D49        3.12270   0.00003   0.00000   0.00086   0.00078   3.12348
   D50        1.03757  -0.00055   0.00000  -0.00490  -0.00487   1.03270
   D51       -1.05376  -0.00129   0.00000  -0.01227  -0.01217  -1.06592
   D52       -1.06940  -0.00115   0.00000  -0.01857  -0.01854  -1.08794
   D53       -3.08370  -0.00134   0.00000  -0.02063  -0.02060  -3.10429
   D54        1.03928   0.00012   0.00000   0.01250   0.01275   1.05202
   D55       -0.97502  -0.00007   0.00000   0.01044   0.01069  -0.96433
   D56       -3.13680   0.00173   0.00000   0.01671   0.01643  -3.12037
   D57        1.13209   0.00154   0.00000   0.01465   0.01438   1.14647
         Item               Value     Threshold  Converged?
 Maximum Force            0.156216     0.000450     NO 
 RMS     Force            0.014620     0.000300     NO 
 Maximum Displacement     0.274345     0.001800     NO 
 RMS     Displacement     0.093233     0.001200     NO 
 Predicted change in Energy=-2.517693D-02
 GradGradGradGradGradGradGradGradGradGradGradGradGradGradGradGradGradGrad

                          Input orientation:                          
 ---------------------------------------------------------------------
 Center     Atomic      Atomic             Coordinates (Angstroms)
 Number     Number       Type             X           Y           Z
 ---------------------------------------------------------------------
      1          6           0        0.970095    0.195541    0.064026
      2          6           0        2.493535    0.019522    0.058258
      3          6           0        2.974413   -1.408927    0.409923
      4          7           0        2.511715   -2.453519   -0.512639
      5          6           0        4.515134   -1.438633    0.471035
      6          6           0        5.040874   -2.754823    0.882563
      7          6           0        5.463418   -3.811511    1.219703
      8          6           0        5.963552   -5.163773    1.549034
      9          6           0        5.330001   -6.193465    0.596278
     10          7           0        7.435089   -5.140996    1.521132
     11          1           0        0.695603    1.230064   -0.163272
     12          1           0        0.548159   -0.055708    1.043421
     13          1           0        0.484197   -0.436799   -0.685029
     14          1           0        2.921865    0.729660    0.779785
     15          1           0        2.893702    0.297319   -0.926116
     16          1           0        2.591184   -1.666519    1.404409
     17          1           0        2.817926   -2.240012   -1.457757
     18          1           0        1.499495   -2.490699   -0.526680
     19          1           0        4.866139   -0.688547    1.186998
     20          1           0        4.933966   -1.183717   -0.510263
     21          1           0        5.659588   -5.394558    2.576651
     22          1           0        5.602958   -5.974985   -0.440746
     23          1           0        4.235381   -6.188488    0.657328
     24          1           0        5.677550   -7.203675    0.841500
     25          1           0        7.740293   -4.908409    0.579991
     26          1           0        7.783136   -6.077400    1.712179
 ---------------------------------------------------------------------
                    Distance matrix (angstroms):
                    1          2          3          4          5
     1  C    0.000000
     2  C    1.533586   0.000000
     3  C    2.590608   1.547701   0.000000
     4  N    3.118758   2.538146   1.468462   0.000000
     5  C    3.924727   2.526552   1.542219   2.451795   0.000000
     6  C    5.093711   3.855568   2.510994   2.904138   1.475843
     7  C    6.130417   4.984574   3.552929   3.682079   2.662761
     8  C    7.474096   6.413266   4.932687   4.848830   4.139645
     9  C    7.753159   6.851001   5.336228   4.812445   4.825777
    10  N    8.508697   7.293140   5.921212   5.966437   4.830769
    11  H    1.094188   2.178772   3.533525   4.121784   4.702458
    12  H    1.095614   2.181901   2.849426   3.467906   4.239929
    13  H    1.094090   2.190467   2.888793   2.864909   4.311451
    14  H    2.146393   1.099256   2.170971   3.459944   2.708381
    15  H    2.165872   1.098316   2.168591   2.807844   2.755831
    16  H    2.809239   2.159720   1.096458   2.073827   2.150512
    17  H    3.414999   2.740260   2.050224   1.016169   2.691275
    18  H    2.800907   2.762513   2.054954   1.012999   3.346096
    19  H    4.149920   2.721151   2.168276   3.398118   1.094732
    20  H    4.236087   2.779695   2.176537   2.734905   1.096972
    21  H    7.717113   6.758584   5.271635   5.301182   4.625228
    22  H    7.732632   6.771383   5.336832   4.686329   4.753230
    23  H    7.195132   6.475516   4.949289   4.276663   4.761732
    24  H    8.804147   7.932591   6.408769   5.866872   5.892721
    25  H    8.494240   7.217006   5.915143   5.878636   4.738445
    26  H    9.406579   8.239405   6.827469   6.772755   5.808479
                    6          7          8          9         10
     6  C    0.000000
     7  C    1.186927   0.000000
     8  C    2.664312   1.478920   0.000000
     9  C    3.462631   2.465799   1.539284   0.000000
    10  N    3.440037   2.397055   1.471978   2.528724   0.000000
    11  H    5.987861   7.075462   8.459576   8.784267   9.425937
    12  H    5.243623   6.188449   7.461532   7.793459   8.574273
    13  H    5.347325   6.309463   7.573549   7.633005   8.678220
    14  H    4.079508   5.222572   6.676538   7.332289   7.442001
    15  H    4.146955   5.300044   6.736013   7.098135   7.495898
    16  H    2.730881   3.589545   4.860511   5.352330   5.962300
    17  H    3.268581   4.078851   5.242531   5.114623   6.213507
    18  H    3.820614   4.528475   5.601938   5.444656   6.815341
    19  H    2.095880   3.179736   4.622017   5.555920   5.151257
    20  H    2.102324   3.190361   4.597999   5.145761   5.103159
    21  H    3.197021   2.094237   1.096199   2.160730   2.081062
    22  H    3.526546   2.730784   2.178834   1.094376   2.810908
    23  H    3.534064   2.733928   2.198125   1.096332   3.475850
    24  H    4.494366   3.419893   2.177981   1.096106   2.793830
    25  H    3.466460   2.607024   2.039869   2.731509   1.016362
    26  H    4.387229   3.279920   2.042600   2.697513   1.017098
                   11         12         13         14         15
    11  H    0.000000
    12  H    1.769479   0.000000
    13  H    1.759362   1.771118   0.000000
    14  H    2.469009   2.514118   3.073847   0.000000
    15  H    2.506708   3.083063   2.530369   1.760060   0.000000
    16  H    3.800138   2.626590   3.212065   2.498235   3.062601
    17  H    4.268650   4.022303   3.048767   3.719725   2.593537
    18  H    3.823923   3.049498   2.296608   3.755090   3.142675
    19  H    4.785151   4.366469   4.771716   2.440765   3.054127
    20  H    4.889833   4.787655   4.515404   3.061664   2.555207
    21  H    8.719744   7.548564   7.874173   6.944775   7.233047
    22  H    8.721918   7.924114   7.545389   7.323266   6.849631
    23  H    8.260650   7.166287   6.996801   7.042805   6.809779
    24  H    9.846691   8.800276   8.665554   8.398537   8.193851
    25  H    9.373417   8.688513   8.616641   7.419231   7.270310
    26  H   10.351303   9.436784   9.530870   8.416494   8.456016
                   16         17         18         19         20
    16  H    0.000000
    17  H    2.927849   0.000000
    18  H    2.366467   1.633404   0.000000
    19  H    2.485783   3.687404   4.185539   0.000000
    20  H    3.063935   2.547769   3.674787   1.769319   0.000000
    21  H    4.968655   5.856846   5.947220   4.970638   5.271314
    22  H    5.571199   4.768725   5.383868   5.580222   4.838246
    23  H    4.869263   4.698215   4.749799   5.561274   5.186427
    24  H    6.364167   6.172680   6.445169   6.574546   6.214505
    25  H    6.140264   5.958393   6.783627   5.141640   4.789306
    26  H    6.819601   7.030458   7.573708   6.150157   6.083186
                   21         22         23         24         25
    21  H    0.000000
    22  H    3.073237   0.000000
    23  H    2.518430   1.766811   0.000000
    24  H    2.506785   1.777470   1.773239   0.000000
    25  H    2.924436   2.597631   3.732157   3.097021   0.000000
    26  H    2.392288   3.065738   3.702920   2.541666   1.627951
                   26
    26  H    0.000000
 Stoichiometry    C8H16N2
 Framework group  C1[X(C8H16N2)]
 Deg. of freedom    72
 Full point group                 C1      NOp   1
 Largest Abelian subgroup         C1      NOp   1
 Largest concise Abelian subgroup C1      NOp   1
                         Standard orientation:                         
 ---------------------------------------------------------------------
 Center     Atomic      Atomic             Coordinates (Angstroms)
 Number     Number       Type             X           Y           Z
 ---------------------------------------------------------------------
      1          6           0       -4.399680    0.345812   -0.414019
      2          6           0       -3.286001   -0.562319    0.121615
      3          6           0       -1.852368   -0.052169   -0.160912
      4          7           0       -1.539375    1.252102    0.436829
      5          6           0       -0.824292   -1.090747    0.331891
      6          6           0        0.565592   -0.704756    0.019886
      7          6           0        1.682939   -0.397364   -0.236712
      8          6           0        3.068478    0.056469   -0.484750
      9          6           0        3.254692    1.475794    0.081145
     10          7           0        3.997099   -0.941470    0.070677
     11          1           0       -5.385446   -0.082254   -0.208412
     12          1           0       -4.311833    0.479604   -1.497879
     13          1           0       -4.376970    1.335830    0.051151
     14          1           0       -3.408545   -1.556257   -0.331633
     15          1           0       -3.408505   -0.697448    1.204680
     16          1           0       -1.732130    0.054853   -1.245490
     17          1           0       -1.667864    1.210258    1.443973
     18          1           0       -2.168067    1.963600    0.083723
     19          1           0       -1.027431   -2.057281   -0.140320
     20          1           0       -0.917205   -1.224265    1.416736
     21          1           0        3.225890    0.081533   -1.569299
     22          1           0        3.084719    1.482846    1.162217
     23          1           0        2.554803    2.190513   -0.367494
     24          1           0        4.272776    1.832668   -0.112752
     25          1           0        3.854499   -0.996590    1.075475
     26          1           0        4.951088   -0.616368   -0.066080
 ---------------------------------------------------------------------
 Rotational constants (GHZ):           3.5932464           0.4361875           0.4044829
 Standard basis: 6-31G(2df,p) (6D, 7F)
 There are   390 symmetry adapted cartesian basis functions of A   symmetry.
 There are   360 symmetry adapted basis functions of A   symmetry.
   360 basis functions,   552 primitive gaussians,   390 cartesian basis functions
    39 alpha electrons       39 beta electrons
       nuclear repulsion energy       506.0311042496 Hartrees.
 NAtoms=   26 NActive=   26 NUniq=   26 SFac= 1.00D+00 NAtFMM=   60 NAOKFM=F Big=F
 Integral buffers will be    131072 words long.
 Raffenetti 2 integral format.
 Two-electron integral symmetry is turned on.
 One-electron integrals computed using PRISM.
 PrsmSu:  requested number of processors reduced to:  13 ShMem   1 Linda.
 NBasis=   360 RedAO= T EigKep=  4.95D-05  NBF=   360
 NBsUse=   360 1.00D-06 EigRej= -1.00D+00 NBFU=   360
 Initial guess from the checkpoint file:  "CCCpNpCCtCCpCpN.chk"
 B after Tr=     0.000000   -0.000000    0.000000
         Rot=    0.999893    0.014092   -0.001511   -0.003491 Ang=   1.67 deg.
 ExpMin= 1.61D-01 ExpMax= 4.17D+03 ExpMxC= 6.27D+02 IAcc=2 IRadAn=         4 AccDes= 0.00D+00
 Harris functional with IExCor=  402 and IRadAn=       4 diagonalized for initial guess.
 HarFok:  IExCor=  402 AccDes= 0.00D+00 IRadAn=         4 IDoV= 1 UseB2=F ITyADJ=14
 ICtDFT=  3500011 ScaDFX=  1.000000  1.000000  1.000000  1.000000
 FoFCou: FMM=F IPFlag=           0 FMFlag=      100000 FMFlg1=           0
         NFxFlg=           0 DoJE=T BraDBF=F KetDBF=T FulRan=T
         wScrn=  0.000000 ICntrl=       500 IOpCl=  0 I1Cent=   200000004 NGrid=           0
         NMat0=    1 NMatS0=      1 NMatT0=    0 NMatD0=    1 NMtDS0=    0 NMtDT0=    0
 Petite list used in FoFCou.
 Requested convergence on RMS density matrix=1.00D-08 within 128 cycles.
 Requested convergence on MAX density matrix=1.00D-06.
 Requested convergence on             energy=1.00D-06.
 No special actions if energy rises.
 Integral accuracy reduced to 1.0D-05 until final iterations.
 Initial convergence to 1.0D-05 achieved.  Increase integral accuracy.
 SCF Done:  E(RB3LYP) =  -423.954130074     A.U. after   12 cycles
            NFock= 12  Conv=0.63D-08     -V/T= 2.0084
 PrsmSu:  requested number of processors reduced to:  13 ShMem   1 Linda.
 Calling FoFJK, ICntrl=      2127 FMM=F ISym2X=0 I1Cent= 0 IOpClX= 0 NMat=1 NMatS=1 NMatT=0.
 ***** Axes restored to original set *****
 -------------------------------------------------------------------
 Center     Atomic                   Forces (Hartrees/Bohr)
 Number     Number              X              Y              Z
 -------------------------------------------------------------------
      1        6           0.001481087   -0.000504680   -0.000603608
      2        6          -0.001400735    0.000610437    0.003320102
      3        6          -0.001932348    0.004108582   -0.006543722
      4        7           0.002017534    0.000204455    0.003487936
      5        6           0.003460334   -0.015493411    0.007572558
      6        6          -0.014953906    0.040192825   -0.013306424
      7        6           0.014540012   -0.039194738    0.011953655
      8        6          -0.003087748    0.011893102   -0.006084731
      9        6          -0.002987127   -0.003656426    0.000300964
     10        7           0.001191286   -0.001453382    0.002949458
     11        1           0.000026265    0.000078301    0.000417947
     12        1          -0.000340732   -0.000008557    0.000013051
     13        1          -0.000245796   -0.000918318   -0.000217268
     14        1           0.001139315   -0.000747129   -0.000738204
     15        1           0.000460886   -0.000207271   -0.000372834
     16        1          -0.000091949   -0.000880688    0.000506410
     17        1          -0.000816298    0.000485393   -0.000870832
     18        1          -0.001186481    0.000396877   -0.000781701
     19        1          -0.000174936    0.003080115   -0.001649667
     20        1          -0.000710331    0.002423890   -0.000704838
     21        1           0.000889439   -0.001593761    0.001092237
     22        1           0.000747873    0.000378336    0.000154425
     23        1           0.001211021    0.000973678    0.000704922
     24        1           0.000529070   -0.000005792   -0.000004649
     25        1           0.000115386    0.000182915   -0.000250555
     26        1           0.000118879   -0.000344752   -0.000344632
 -------------------------------------------------------------------
 Cartesian Forces:  Max     0.040192825 RMS     0.007655547

 GradGradGradGradGradGradGradGradGradGradGradGradGradGradGradGradGradGrad
 Berny optimization.
 Using GEDIIS/GDIIS optimizer.
 FormGI is forming the generalized inverse of G from B-inverse, IUseBI=4.
 Internal  Forces:  Max     0.036919135 RMS     0.003504581
 Search for a local minimum.
 Step number   2 out of a maximum of  138
 All quantities printed in internal units (Hartrees-Bohrs-Radians)
 Mixed Optimization -- RFO/linear search
 Update second derivatives using D2CorX and points    1    2
 DE= -2.21D-02 DEPred=-2.52D-02 R= 8.79D-01
 TightC=F SS=  1.41D+00  RLast= 3.22D-01 DXNew= 5.0454D-01 9.6452D-01
 Trust test= 8.79D-01 RLast= 3.22D-01 DXMaxT set to 5.05D-01
 ITU=  1  0
 Use linear search instead of GDIIS.
     Eigenvalues ---    0.00230   0.00230   0.00299   0.00430   0.00437
     Eigenvalues ---    0.00457   0.00467   0.00741   0.00913   0.02506
     Eigenvalues ---    0.02601   0.03383   0.03837   0.03954   0.04216
     Eigenvalues ---    0.04452   0.04694   0.04767   0.04816   0.04891
     Eigenvalues ---    0.05303   0.05489   0.05512   0.05589   0.05648
     Eigenvalues ---    0.05792   0.06216   0.08633   0.08913   0.12431
     Eigenvalues ---    0.12531   0.15979   0.15999   0.16000   0.16000
     Eigenvalues ---    0.16000   0.16000   0.16000   0.16000   0.16000
     Eigenvalues ---    0.16026   0.16548   0.16812   0.18389   0.18451
     Eigenvalues ---    0.21746   0.22012   0.28319   0.28972   0.29074
     Eigenvalues ---    0.29877   0.30142   0.30367   0.33919   0.33971
     Eigenvalues ---    0.34014   0.34046   0.34056   0.34131   0.34160
     Eigenvalues ---    0.34191   0.34204   0.34288   0.34352   0.34437
     Eigenvalues ---    0.35506   0.37066   0.44522   0.44684   0.44762
     Eigenvalues ---    0.44953   0.85958
 RFO step:  Lambda=-3.31644419D-03 EMin= 2.29999924D-03
 Quartic linear search produced a step of -0.09710.
 Iteration  1 RMS(Cart)=  0.16072493 RMS(Int)=  0.00682356
 Iteration  2 RMS(Cart)=  0.01375204 RMS(Int)=  0.00064813
 Iteration  3 RMS(Cart)=  0.00004525 RMS(Int)=  0.00064772
 Iteration  4 RMS(Cart)=  0.00000006 RMS(Int)=  0.00064772
 Variable       Old X    -DE/DX   Delta X   Delta X   Delta X     New X
                                 (Linear)    (Quad)   (Total)
    R1        2.89806  -0.00107  -0.00201   0.00078  -0.00124   2.89682
    R2        2.06772  -0.00002  -0.00017   0.00027   0.00010   2.06781
    R3        2.07041   0.00014  -0.00019   0.00073   0.00055   2.07096
    R4        2.06753   0.00079  -0.00001   0.00207   0.00206   2.06959
[...]
 50466,0.00886322,0.00568853,-0.00041113,0.00112879,-0.00111069,-0.0001
 8518,-0.00074171,-0.00000630,-0.00003947,0.00008003,-0.00010487,-0.000
 11701,0.00030273,-0.00021501,0.00006573,0.00001302,0.00001167,-0.00000
 887,-0.00002887,-0.00003277,0.00035200,-0.00012202,0.00000871,-0.00004
 888,0.00141433,0.00040968,0.00001987,0.00015385,0.00001847,0.00107052,
 -0.00007893,0.00048621,0.00012894,0.00013557,0.00009053,-0.00159949,-0
 .00075587,-0.00140501,0.13826213,-0.00016996,0.00030832,0.00021765,0.0
 0145739,-0.00023156,-0.00009394,0.00198706,0.00270874,0.00190983,0.001
 15795,0.00060722,0.00009661,-0.10682807,-0.18031185,-0.07225284,-0.011
 82215,-0.03022242,-0.00690689,0.00011113,0.00087923,-0.00003805,0.0005
 2325,0.00143836,0.00024687,-0.00003133,-0.00001049,0.00019205,0.000229
 54,-0.00067540,0.00047970,-0.00000546,-0.00000011,0.00001645,-0.000027
 05,-0.00000299,-0.00000632,0.00014922,0.00005190,0.00003935,0.00084952
 ,0.00015076,0.00002928,-0.00009075,0.00001125,0.00009842,-0.00031659,-
 0.00000316,0.00014852,0.00000465,-0.00010334,-0.00004571,0.00045584,0.
 00026820,-0.00002093,0.11173891,0.20449041,-0.00001067,0.00032810,-0.0
 0005531,-0.00010627,-0.00009761,0.00017399,0.00478277,0.00558475,0.002
 03325,0.00121256,0.00007113,0.00042846,-0.05494946,-0.07045098,-0.0828
 9588,0.00825076,0.01059249,0.00524554,-0.00088732,0.00108907,-0.000050
 18,-0.00028743,-0.00058600,-0.00017762,0.00005266,-0.00008933,0.000008
 37,-0.00010639,0.00022725,-0.00015753,-0.00007504,0.00002376,0.0000076
 2,0.00006823,-0.00000872,-0.00003658,0.00008042,0.00000831,-0.00001225
 ,0.00002617,0.00014224,0.00042490,-0.00014505,-0.00012160,-0.00013171,
 -0.00047275,0.00036688,0.00027184,0.00075245,-0.00009982,0.00027578,0.
 00032662,0.00001538,0.00059675,0.05997489,0.07644214,0.08711943,-0.000
 11725,-0.00002056,-0.00013474,0.00125077,-0.00160521,0.00054458,-0.007
 35260,-0.00016665,0.03398001,0.00313068,0.00067617,0.00033706,-0.04670
 841,-0.00132259,0.02486115,-0.00010689,0.00176267,-0.01195555,0.000465
 17,0.00074485,0.00002102,0.00011957,-0.00003975,0.00081390,-0.00013427
 ,0.00026095,-0.00030141,-0.00003865,0.00007529,-0.00011171,-0.00001740
 ,0.00004130,-0.00010080,0.00014997,-0.00003506,-0.00018558,-0.00003542
 ,0.00000918,-0.00000808,-0.00003226,0.00008302,-0.00007533,0.00006652,
 0.00047194,-0.00065492,-0.00599050,0.00123386,0.00113137,-0.00064877,0
 .00000915,-0.00091414,0.00056099,0.00006477,-0.00011898,0.00167904,0.0
 0030268,-0.01838563,0.05387317,0.00006663,-0.00008061,0.00015735,-0.00
 026618,0.00031006,-0.00106157,-0.00024221,0.00003426,-0.00530524,-0.00
 018180,-0.00013934,0.00063799,-0.00088972,-0.04486906,0.00692322,-0.00
 080058,-0.00650517,0.03321196,0.00059904,-0.00062667,0.00000813,0.0000
 1067,-0.00025306,-0.00159652,0.00029367,-0.00037685,0.00055295,-0.0000
 3383,0.00003071,0.00003532,0.00001604,-0.00003059,0.00000091,-0.000060
 10,-0.00003630,0.00009589,-0.00001534,0.00002194,0.00000055,0.00010699
 ,0.00002097,-0.00007768,0.00033278,-0.00001964,0.00031234,0.00105929,0
 .00025535,0.00003438,-0.00034998,0.00042480,0.00007084,0.00003986,-0.0
 0018516,-0.00010802,0.00284598,0.00079962,-0.02349555,-0.00260819,0.05
 149236,0.00011970,-0.00015135,0.00045924,-0.00049373,0.00042945,0.0000
 0243,0.00217662,-0.00048050,-0.01085460,-0.00097200,-0.00007470,0.0018
 0801,0.02580731,0.00497314,-0.28816073,-0.00251522,0.00786946,-0.01119
 385,0.00072073,-0.00169813,0.00072360,0.00012251,0.00010972,0.00066141
 ,-0.00014048,0.00017334,-0.00036003,-0.00002700,0.00007035,-0.00006712
 ,0.00008153,-0.00003298,0.00000157,-0.00023760,0.00010686,0.00004740,0
 .00002292,-0.00000862,-0.00000515,0.00008301,0.00009521,0.00009894,0.0
 0021942,-0.00070447,0.00065553,0.00162741,-0.00049149,0.00100598,0.001
 22487,0.00033284,0.00022435,-0.00011707,0.00008560,0.00033247,0.001277
 81,-0.00048853,-0.01300127,-0.02888662,-0.01021388,0.31752796,0.000014
 22,0.00006191,-0.00002338,-0.00015301,-0.00005678,0.00003420,0.0001225
 9,0.00034176,-0.00013122,-0.00002180,-0.00005689,0.00001565,-0.0006649
 5,-0.00039913,0.00045784,-0.00051494,0.00174750,-0.00042482,0.01025232
 ,0.00304020,-0.00684368,-0.15713669,-0.05876484,0.10260038,-0.00277937
 ,-0.00173703,0.00558672,-0.02825795,-0.01722647,0.01025743,-0.00002773
 ,0.00001561,0.00000394,0.00000013,-0.00000375,0.00000345,-0.00000318,-
 0.00000688,-0.00000123,0.00000671,-0.00000163,0.00000485,0.00000091,0.
 00000703,-0.00000997,0.00001626,-0.00000035,0.00000377,0.00000079,0.00
 000911,-0.00000259,-0.00002056,0.00001516,-0.00002158,0.00003129,-0.00
 001615,-0.00001240,0.00001687,0.00004075,-0.00004053,0.18290691,-0.000
 03840,-0.00014048,0.00006951,0.00033971,0.00013829,-0.00009635,-0.0004
 8293,-0.00064852,0.00039219,0.00014117,0.00012018,-0.00006827,0.001564
 45,0.00046196,-0.00090132,0.00033442,-0.00009626,-0.00008117,-0.016608
 05,-0.01898157,0.02133210,-0.06365343,-0.08155873,0.05931018,0.0146835
 4,0.00707870,-0.01623003,-0.00679468,-0.00156818,0.00139256,0.00006357
 ,-0.00003248,-0.00001305,0.00000475,0.00000538,-0.00001763,0.00001170,
 0.00001594,0.00000272,-0.00001350,0.00001600,-0.00000118,-0.00000035,-
 0.00000890,0.00000699,-0.00001889,0.00000649,-0.00004312,-0.00001649,-
 0.00001063,-0.00000750,0.00006287,-0.00006483,0.00007187,-0.00005446,-
 0.00003707,0.00004670,-0.00007088,-0.00002533,0.00000090,0.07037067,0.
 09451904,0.00002091,0.00006496,-0.00002994,-0.00016176,-0.00007345,0.0
 0002271,0.00031964,0.00029441,-0.00011566,-0.00008894,-0.00013048,0.00
 003073,-0.00065111,-0.00014169,0.00031706,0.00044894,-0.00058574,0.000
 76789,0.00441334,0.00949945,-0.00823100,0.10938714,0.06050281,-0.14273
 089,0.01783205,0.00668124,-0.01861415,-0.01738841,-0.01069827,0.010974
 09,-0.00003124,0.00001406,0.00000525,-0.00000194,-0.00000238,0.0000091
 4,-0.00000952,-0.00000691,-0.00000387,0.00000326,-0.00001605,0.0000010
 4,-0.00000057,0.00000801,-0.00000131,0.00002129,-0.00001310,0.00001325
 ,0.00001215,0.00000211,0.00000156,-0.00003696,0.00005755,-0.00003990,0
 .00002664,-0.00001134,-0.00002447,0.00002670,0.00006097,-0.00003969,-0
 .10979652,-0.06168352,0.15890194,-0.00000189,-0.00000046,0.00000184,0.
 00000780,0.00000461,0.00000696,-0.00004099,-0.00002167,-0.00001475,0.0
 0002183,0.00005168,-0.00001337,0.00000844,0.00002054,0.00004583,-0.000
 01069,0.00028663,-0.00037448,0.00027510,-0.00056249,0.00008754,-0.0051
 6702,-0.00212388,0.00248436,-0.17077000,-0.06393918,0.11430768,0.00176
 912,0.00085772,-0.00053783,0.00000107,0.00000109,-0.00000029,0.0000016
 5,-0.00000141,-0.00000412,0.00000208,-0.00000092,0.00000174,0.00000084
 ,0.00000413,0.00000103,-0.00000097,0.00000247,-0.00000838,0.00001045,-
 0.00000560,-0.00001181,-0.00001795,0.00001749,-0.00000168,0.00000968,-
 0.00002876,0.00000671,-0.00000644,0.00001700,-0.00001187,-0.00002973,0
 .00004683,-0.00002403,0.00095437,0.00111549,0.00030259,0.18270227,0.00
 000421,0.00001373,-0.00000840,-0.00003278,-0.00001340,0.00000497,0.000
 06608,0.00004099,-0.00002373,-0.00002345,0.00000191,0.00000712,-0.0000
 4031,-0.00011032,-0.00000146,-0.00015258,-0.00023974,0.00042821,0.0000
 5536,0.00245243,-0.00059633,0.01642658,0.00643945,-0.01554250,-0.06539
 201,-0.08038954,0.06051483,0.00117670,0.00087397,0.00192525,-0.0000073
 4,0.00000645,0.00000136,-0.00000066,-0.00000121,0.00000189,-0.00000066
 ,-0.00000308,0.00000049,0.00000080,-0.00000107,0.00000075,-0.00000038,
 0.00000183,0.00000003,0.00000245,-0.00000285,0.00000367,0.00000788,-0.
 00000364,0.00000222,-0.00000772,0.00000412,-0.00000605,0.00000305,0.00
 000331,0.00000351,-0.00000343,0.00002952,-0.00002796,0.00073599,-0.002
 30054,-0.00390910,0.07022807,0.08474954,-0.00000163,-0.00000569,0.0000
 0037,0.00001060,0.00000480,0.00000170,0.00000235,-0.00001110,-0.000005
 27,0.00000426,-0.00000690,0.00001272,0.00002013,0.00002716,-0.00004734
 ,0.00002226,-0.00055474,0.00047035,-0.00121744,0.00158787,0.00051092,0
 .01909449,0.00838399,-0.01783620,0.11372513,0.05986957,-0.15167341,-0.
 00046152,0.00115542,0.00282761,0.00000309,-0.00000363,0.00000043,-0.00
 000056,0.00000172,0.00000116,-0.00000067,0.00000152,-0.00000046,-0.000
 00063,-0.00000054,-0.00000219,0.00000082,-0.00000216,0.00000390,-0.000
 00436,0.00000438,0.00000739,0.00000010,-0.00000540,0.00000268,-0.00000
 146,0.00000368,-0.00000468,0.00001173,-0.00002356,-0.00000232,0.000018
 52,-0.00001481,0.00001896,0.00048017,-0.00407864,-0.00303251,-0.127139
 86,-0.06289648,0.16562469,-0.00000305,-0.00000493,-0.00000109,0.000012
 63,0.00000700,-0.00000206,-0.00003822,-0.00003799,-0.00001345,0.000002
 89,0.00003588,0.00001604,0.00002691,0.00003017,0.00000237,0.00011768,-
 0.00021179,0.00023125,0.00051154,0.00038876,-0.00000083,0.00388312,0.0
 0100625,0.00326990,-0.24250784,-0.03104511,-0.11251042,0.00150456,0.00
 013415,-0.00025771,0.00000245,-0.00000005,-0.00000003,-0.00000073,0.00
 000028,0.00000211,0.00000409,0.00000072,0.00000106,0.00000139,0.000007
 24,0.00000195,-0.00000072,-0.00000321,0.00000384,-0.00000663,0.0000066
 6,0.00000914,0.00001555,-0.00003255,0.00000339,0.00000057,0.00000126,0
 .00000440,-0.00000889,0.00001830,0.00000288,0.00000508,-0.00005137,0.0
 0002193,0.00045468,-0.00044458,-0.00053670,-0.01771921,-0.00200646,-0.
 01134320,0.26089997,0.00000384,0.00000968,-0.00001067,-0.00000371,0.00
 000209,0.00000757,0.00001532,-0.00006831,-0.00004277,-0.00005376,0.000
 11601,0.00003222,0.00008302,-0.00007819,-0.00003418,0.00021464,-0.0001
 5309,0.00034597,-0.00048634,0.00074218,0.00001183,-0.01900920,-0.00255
 169,-0.00731455,-0.02931254,-0.05160227,-0.01698827,-0.00065179,-0.002
 66676,-0.00564642,-0.00000576,0.00001039,0.00000131,-0.00000174,-0.000
 00241,0.00000474,0.00000543,-0.00000635,0.00000205,0.00000089,0.000011
 01,0.00000279,-0.00000224,-0.00000179,0.00000276,-0.00000474,0.0000028
 9,0.00001183,0.00003673,-0.00005167,0.00000989,-0.00000518,0.00001154,
 0.00000440,-0.00002736,0.00006362,0.00000320,-0.00003572,-0.00000036,-
 0.00002139,0.00034317,0.00064954,0.00047745,-0.00966490,-0.00228204,-0
 .00605867,0.03340218,0.05265234,-0.00000172,0.00000113,-0.00000368,0.0
 0000538,0.00000556,0.00000414,-0.00001974,-0.00005113,-0.00002961,0.00
 000235,0.00008871,-0.00000300,0.00004109,-0.00000146,-0.00001321,0.000
 30441,-0.00030821,0.00036364,-0.00013385,0.00112766,0.00035607,-0.0218
 4206,-0.00039797,-0.00962377,-0.11110482,-0.01798037,-0.11152603,-0.00
 093897,-0.00493144,-0.00540710,-0.00000023,0.00000459,0.00000014,-0.00
 000052,-0.00000205,0.,0.00000492,-0.00000246,0.00000314,0.00000162,0.0
 0000973,0.00000178,-0.00000080,0.00000024,-0.00000116,-0.00000312,-0.0
 0000357,0.00000063,0.00000234,-0.00000036,0.00000310,0.00000623,-0.000
 02643,0.00000814,-0.00001897,0.00003660,-0.00000801,-0.00002505,0.0000
 1662,-0.00001409,0.00030285,0.00083765,0.00046912,0.01825307,0.0027609
 7,0.01122584,0.12361423,0.02110066,0.11975459,0.00000658,0.00001474,-0
 .00001018,-0.00001910,-0.00000770,0.00001152,0.00005821,-0.00004057,-0
 .00005206,-0.00006427,0.00005396,0.00001439,0.00008030,-0.00004445,-0.
 00001112,0.00019909,0.00001619,0.00010616,0.00073047,0.00106255,0.0009
 8158,-0.00310052,0.00387726,-0.00284693,-0.07199636,0.06996329,-0.0285
 7660,0.00024154,-0.00096542,0.00046327,-0.00000877,0.00001025,0.000001
 49,-0.00000170,-0.00000207,0.00000436,0.00000030,-0.00000596,0.0000007
 0,0.00000017,-0.00000009,-0.00000004,-0.00000170,-0.00000083,-0.000000
 43,-0.00000054,0.00000028,0.00000507,0.00001907,-0.00001942,0.00000659
 ,-0.00000915,0.00001287,-0.00000438,-0.00004524,0.00007711,-0.00000697
 ,-0.00006245,0.00003683,-0.00003695,-0.00012794,0.00004088,-0.00017439
 ,0.00744848,-0.02021288,0.00764036,-0.00744567,0.02473118,-0.00920568,
 0.07367430,-0.00001896,-0.00004703,0.00002632,0.00009909,0.00004557,-0
 .00000184,-0.00029317,-0.00005695,0.00001734,0.00013009,0.00002301,0.0
 0000157,-0.00010263,0.00024321,0.00027599,-0.00005077,0.00012671,-0.00
 037047,0.00128164,-0.00300616,-0.00379138,0.00698966,-0.01878830,0.008
 98117,0.06935705,-0.24638374,0.08343554,-0.00020713,0.00216339,0.00114
 099,0.00002803,-0.00002481,-0.00000264,0.00000409,0.00000579,-0.000009
 53,0.00000601,0.00001231,-0.00000008,-0.00000067,0.00001252,-0.0000018
 5,0.00000305,-0.00000702,-0.00000029,-0.00000808,0.00001939,-0.0000024
 0,-0.00002790,-0.00000543,-0.00000394,0.00002900,-0.00003402,0.0000215
 5,0.00006098,-0.00008351,-0.00002228,0.00013244,-0.00022986,0.00012443
 ,-0.00004695,0.00103482,-0.00011709,0.00372566,-0.00921860,0.00321053,
 -0.00167542,0.00491397,-0.00199967,-0.07840731,0.26942302,-0.00000481,
 -0.00001055,0.00000343,0.00003070,0.00001304,0.00000313,-0.00012428,-0
 .00001945,0.00000661,0.00004120,0.00006521,0.00001523,-0.00007763,0.00
 015006,0.00023992,0.00033261,-0.00070918,0.00056683,0.00009066,-0.0031
 1997,-0.00324102,0.00765932,-0.02412558,0.00700696,-0.02969916,0.08463
 925,-0.08201792,0.00159458,0.00096155,0.00226007,0.00000701,-0.0000036
 5,-0.00000064,0.00000106,0.00000054,-0.00000117,0.00000516,0.00000116,
 0.00000062,0.00000150,0.00001223,0.00000148,0.00000049,-0.00000179,0.0
 0000072,-0.00000792,0.00000988,0.00000553,0.00001104,-0.00003681,0.000
 00064,0.00001078,-0.00001218,0.00001257,0.00003531,-0.00003716,-0.0000
 0819,0.00010879,-0.00018443,0.00010480,-0.00028221,0.00093573,0.001371
 98,-0.00771267,0.01697708,-0.00738561,-0.00327930,0.01399613,-0.006056
 20,0.03185596,-0.08978706,0.08746489,-0.00000925,-0.00002349,0.0000178
 0,0.00005541,0.00002903,-0.00001921,-0.00014805,-0.00002198,0.00006647
 ,0.00008933,0.00001477,-0.00001139,-0.00004728,0.00008829,-0.00013515,
 0.00019719,0.00091671,-0.00037133,0.00141290,-0.00093869,0.00118008,-0
 .02710691,-0.01346887,0.02202079,0.00179018,0.00038374,0.00054281,-0.2
 2916185,-0.11905723,0.13340748,0.00001444,-0.00001309,-0.00000377,0.00
 000125,0.00000081,-0.00000563,0.00000408,0.00000513,0.00000028,-0.0000
 0022,0.00000915,0.00000209,0.00000070,-0.00000157,0.00000073,0.0000003
 8,0.00000090,-0.00000818,-0.00001247,0.00000074,-0.00000475,0.00002071
 ,-0.00002410,0.00001995,0.00000329,-0.00005472,0.00001664,0.00001653,-
 0.00001971,0.00002765,-0.00525526,-0.00055014,-0.00478910,0.00045363,-
 0.00057544,-0.00088398,0.00028564,0.00045988,0.00022756,0.00006873,-0.
 00006356,-0.00015096,0.24716780,0.00000885,0.00001948,-0.00000845,-0.0
 0003643,-0.00002097,0.00002359,0.00011075,0.00005679,-0.00003808,-0.00
 006802,-0.00007499,-0.00000528,-0.00007469,-0.00005729,0.00015195,-0.0
 0011788,-0.00062095,0.00006433,0.00070018,0.00173473,-0.00085021,-0.00
 661913,-0.00347379,0.00094782,0.00022978,-0.00051583,0.00146606,-0.090
 69751,-0.10024163,0.09359430,-0.00001049,0.00000739,0.00000163,0.00000
 074,-0.00000058,0.00000267,-0.00000991,-0.00000611,-0.00000321,-0.0000
 0325,-0.00001966,-0.00000645,0.00000007,0.00000161,-0.00000485,0.00000
 424,0.00000094,-0.00000133,-0.00000318,0.00002544,-0.00000186,-0.00001
 912,0.00002522,-0.00001808,0.00004665,-0.00005782,0.00000351,0.0000079
 4,-0.00000957,-0.00000933,0.00095904,0.00125259,-0.00059992,-0.0001327
 0,0.00001408,-0.00069645,0.00054818,0.00045525,-0.00002123,-0.00012720
 ,-0.00019870,-0.00010065,0.12231323,0.11929599,-0.00000866,-0.00003181
 ,0.00001296,0.00006259,0.00003093,-0.00000433,-0.00006874,-0.00005136,
 0.00006321,0.00002465,-0.00004563,-0.00001249,0.00008944,0.00013396,-0
 .00008690,-0.00000707,0.00026404,-0.00029609,0.00063179,-0.00104340,0.
 00114150,-0.02064229,-0.01385733,0.00715711,-0.00167702,-0.00019690,0.
 00200041,0.15696624,0.13200933,-0.16239509,0.00001443,-0.00001106,-0.0
 0000037,0.00000339,0.00000524,-0.00000434,-0.00000452,0.00000499,-0.00
 000274,-0.00000800,-0.00001027,-0.00000420,-0.00000008,-0.00000355,-0.
 00000074,0.00000258,0.00000995,-0.00000781,-0.00001374,0.00001175,0.00
 000003,0.00000744,-0.00000002,0.00000350,0.00001357,-0.00008370,0.0000
 3806,-0.00001259,-0.00002550,0.00000906,-0.00284783,-0.00091102,-0.000
 52742,0.00041639,0.00039116,-0.00038899,0.00031203,0.00015122,-0.00037
 751,0.00005137,0.00002781,-0.00011138,-0.14323240,-0.11567227,0.162939
 79,0.00001172,0.00002882,-0.00002072,-0.00005409,-0.00002924,0.0000201
 6,0.00016482,-0.00004818,-0.00008923,-0.00012586,-0.00000017,0.0000123
 3,0.00047243,0.00013900,0.00031675,-0.00006149,0.00033538,-0.00032163,
 -0.00569451,-0.00055286,-0.00396842,-0.01170748,0.03136063,-0.00756253
 ,0.00139376,0.00059443,0.00061593,-0.10547659,0.11198939,-0.04660023,-
 0.00001705,0.00001506,0.00000311,-0.00000346,-0.00000269,0.00000790,-0
 .00000403,-0.00000737,0.00000103,0.00000123,-0.00001142,-0.00000424,-0
 .00000073,0.00000078,-0.00000002,-0.00000642,-0.00000431,0.00000894,0.
 00001486,0.00000714,0.00000708,-0.00002435,0.00003273,-0.00002154,-0.0
 0014190,0.00028267,-0.00008982,-0.00005973,0.00002368,-0.00004216,0.00
 018535,0.00001357,0.00085251,0.00009807,-0.00025107,0.00002128,0.00000
 221,-0.00003128,0.00052950,0.00035616,-0.00094428,-0.00044721,0.010159
 10,-0.02701012,0.00992704,0.11051798,-0.00001102,-0.00003032,0.0000150
 4,0.00005202,0.00002824,-0.00001657,-0.00011652,-0.00000136,0.00007987
 ,0.00007733,-0.00001514,-0.00000842,-0.00002572,0.00003147,-0.00007322
 ,-0.00014475,0.00123718,-0.00014663,0.00104576,-0.00042761,-0.00006995
 ,-0.00563236,0.00314234,-0.00840623,-0.00162894,0.00168632,-0.00072798
 ,0.11105283,-0.34352678,0.12081450,0.00001600,-0.00001387,-0.00000131,
 0.00000249,0.00000432,-0.00000573,0.00000167,0.00000769,-0.00000089,-0
 .00000338,0.00000442,0.00000055,0.00000146,-0.00000206,0.00000233,-0.0
 0000184,0.00000496,-0.00000409,-0.00001073,-0.00000193,-0.00000118,0.0
 0001667,-0.00001273,0.00001288,0.00002281,-0.00004121,0.00002348,0.000
 03180,-0.00003203,0.00003203,0.00062897,0.00017460,0.00032603,0.000102
 57,-0.00006532,0.00010810,-0.00007358,-0.00017560,-0.00026379,-0.00006
 348,0.00006042,0.00038660,0.01059022,-0.01759161,-0.00109656,-0.115930
 29,0.35555561,-0.00000270,-0.00000297,0.00000747,0.00000567,-0.0000038
 0,0.00000822,-0.00001310,-0.00001629,-0.00001700,0.00000075,-0.0000351
 3,-0.00001272,0.00010766,0.00016254,0.00015400,0.00001879,-0.00019815,
 0.00018847,-0.00384304,-0.00049687,-0.00165167,-0.01247678,0.01954856,
 -0.01113111,0.00137844,0.00184476,0.00072630,-0.02495610,0.06982850,-0
 .04173708,0.00000333,-0.00000439,0.00000033,0.00000222,0.00000162,-0.0
 0000487,-0.00000209,0.00000171,-0.00000118,-0.00000096,-0.00000399,-0.
 00000220,0.00000204,0.00000056,-0.00000637,-0.00000107,-0.00000029,-0.
 00000559,-0.00001723,0.00002946,-0.00000219,0.00000147,0.00000164,0.00
 000029,-0.00002234,0.00005551,-0.00006267,0.00002803,-0.00003624,0.000
 01484,0.00068671,-0.00026630,0.00050506,-0.00006059,-0.00001150,-0.000
 32974,0.00044827,-0.00004911,0.00087304,-0.00021712,-0.00115273,-0.000
 24328,-0.00791443,0.02178178,-0.00914523,0.04684420,-0.11097889,0.0618
 7485\\-0.00000019,-0.00000055,0.00000037,-0.00000122,0.00000064,-0.000
 00190,-0.00000395,-0.00000334,0.00000202,0.00000508,0.00000490,-0.0000
 0036,-0.00000032,-0.00000219,0.00000172,-0.00000127,-0.00000043,-0.000
 00372,-0.00000041,0.00000028,0.00000120,0.00000249,0.00000039,-0.00000
 109,-0.00000104,0.00000010,0.00000056,-0.00000149,0.00000110,-0.000000
 70,-0.00000007,0.00000012,-0.00000020,-0.00000050,-0.00000024,-0.00000
 032,0.00000055,-0.00000052,-0.00000047,-0.00000033,-0.00000199,0.00000
 026,0.00000007,0.00000169,-0.00000086,-0.00000034,0.00000019,0.0000018
 9,-0.00000047,-0.00000096,-0.00000059,0.00000154,0.00000015,-0.0000001
 7,0.,0.00000022,-0.00000005,0.00000080,-0.00000048,0.00000067,-0.00000
 279,-0.00000119,-0.00000057,0.00000036,0.00000056,0.00000060,-0.000000
 15,0.00000048,0.00000004,0.00000038,0.00000090,0.00000008,0.00000265,0
 .00000040,0.00000136,0.00000062,-0.00000024,0.00000021\\\@


 IF MATHEMATICALLY YOU END UP WITH THE INCORRECT ANSWER,
 TRY MULTIPLYING BY THE PAGE NUMBER.
 Job cpu time:       0 days  2 hours 39 minutes 18.7 seconds.
 Elapsed time:       0 days  0 hours 39 minutes 52.6 seconds.
 File lengths (MBytes):  RWF=    246 Int=      0 D2E=      0 Chk=     12 Scr=      1
 Normal termination of Gaussian 16 at Wed Aug  3 04:02:54 2022.
### All Done ###
