### Starting Gaussian ###
 Entering Gaussian System, Link 0=g16
 Initial command:
 /cluster/software/gaussian/gaussian-16-A.03/avx2/g16/l1.exe "/local/scratch/ks29c/Gau-27076.inp" -scrdir="/local/scratch/ks29c/"
 Entering Link 1 = /cluster/software/gaussian/gaussian-16-A.03/avx2/g16/l1.exe PID=     27077.
  
 Copyright (c) 1988,1990,1992,1993,1995,1998,2003,2009,2016,
            Gaussian, Inc.  All Rights Reserved.
  
 This is part of the Gaussian(R) 16 program.  It is based on
 the Gaussian(R) 09 system (copyright 2009, Gaussian, Inc.),
 the Gaussian(R) 03 system (copyright 2003, Gaussian, Inc.),
 the Gaussian(R) 98 system (copyright 1998, Gaussian, Inc.),
 the Gaussian(R) 94 system (copyright 1995, Gaussian, Inc.),
 the Gaussian 92(TM) system (copyright 1992, Gaussian, Inc.),
 the Gaussian 90(TM) system (copyright 1990, Gaussian, Inc.),
 the Gaussian 88(TM) system (copyright 1988, Gaussian, Inc.),
 the Gaussian 86(TM) system (copyright 1986, Carnegie Mellon
 University), and the Gaussian 82(TM) system (copyright 1983,
 Carnegie Mellon University). Gaussian is a federally registered
 trademark of Gaussian, Inc.
  
 This software contains proprietary and confidential information,
 including trade secrets, belonging to Gaussian, Inc.
  
 This software is provided under written license and may be
 used, copied, transmitted, or stored only in accord with that
 written license.
  
 The following legend is applicable only to US Government
 contracts under FAR:
  
                    RESTRICTED RIGHTS LEGEND
  
 Use, reproduction and disclosure by the US Government is
 subject to restrictions as set forth in subparagraphs (a)
 and (c) of the Commercial Computer Software - Restricted
 Rights clause in FAR 52.227-19.
  
 Gaussian, Inc.
 340 Quinnipiac St., Bldg. 40, Wallingford CT 06492
  
  
 ---------------------------------------------------------------
 Warning -- This program may not be used in any manner that
 competes with the business of Gaussian, Inc. or will provide
 assistance to any competitor of Gaussian, Inc.  The licensee
 of this program is prohibited from giving any competitor of
 Gaussian, Inc. access to this program.  By using this program,
 the user acknowledges that Gaussian, Inc. is engaged in the
 business of creating and licensing software in the field of
 computational chemistry and represents and warrants to the
 licensee that it is not a competitor of Gaussian, Inc. and that
 it will not use this program in any manner prohibited above.
 ---------------------------------------------------------------
  

 Cite this work as:
 Gaussian 16, Revision A.03,
 M. J. Frisch, G. W. Trucks, H. B. Schlegel, G. E. Scuseria, 
 M. A. Robb, J. R. Cheeseman, G. Scalmani, V. Barone, 
 G. A. Petersson, H. Nakatsuji, X. Li, M. Caricato, A. V. Marenich, 
 J. Bloino, B. G. Janesko, R. Gomperts, B. Mennucci, H. P. Hratchian, 
 J. V. Ortiz, A. F. Izmaylov, J. L. Sonnenberg, D. Williams-Young, 
 F. Ding, F. Lipparini, F. Egidi, J. Goings, B. Peng, A. Petrone, 
 T. Henderson, D. Ranasinghe, V. G. Zakrzewski, J. Gao, N. Rega, 
 G. Zheng, W. Liang, M. Hada, M. Ehara, K. Toyota, R. Fukuda, 
 J. Hasegawa, M. Ishida, T. Nakajima, Y. Honda, O. Kitao, H. Nakai, 
 T. Vreven, K. Throssell, J. A. Montgomery, Jr., J. E. Peralta, 
 F. Ogliaro, M. J. Bearpark, J. J. Heyd, E. N. Brothers, K. N. Kudin, 
 V. N. Staroverov, T. A. Keith, R. Kobayashi, J. Normand, 
 K. Raghavachari, A. P. Rendell, J. C. Burant, S. S. Iyengar, 
 J. Tomasi, M. Cossi, J. M. Millam, M. Klene, C. Adamo, R. Cammi, 
 J. W. Ochterski, R. L. Martin, K. Morokuma, O. Farkas, 
 J. B. Foresman, and D. J. Fox, Gaussian, Inc., Wallingford CT, 2016.
 
 ******************************************
 Gaussian 16:  ES64L-G16RevA.03 25-Dec-2016
                 5-Aug-2022 
 ******************************************
 %chk=CCN1CdNCdNNdC1.chk
 %NProcShared=20
 Will use up to   20 processors via shared memory.
 -----------------------------
 # opt freq b3lyp/6-31g(2df,p)
 -----------------------------
 1/18=20,19=15,26=3,38=1/1,3;
 2/9=110,12=2,17=6,18=5,40=1/2;
 3/5=1,6=6,7=104,11=2,25=1,30=1,71=1,74=-5/1,2,3;
 4//1;
 5/5=2,38=5/2;
 6/7=2,8=2,9=2,10=2,28=1/1;
 7//1,2,3,16;
 1/18=20,19=15,26=3/3(2);
 2/9=110/2;
 99//99;
 2/9=110/2;
 3/5=1,6=6,7=104,11=2,25=1,30=1,71=1,74=-5/1,2,3;
 4/5=5,16=3,69=1/1;
 5/5=2,38=5/2;
 7//1,2,3,16;
 1/18=20,19=15,26=3/3(-5);
 2/9=110/2;
 6/7=2,8=2,9=2,10=2,19=2,28=1/1;
 99/9=1/99;
 -------------------
 Title Card Required
 -------------------
 Symbolic Z-matrix:
 Charge =  0 Multiplicity = 1
 C                     0.99027   0.14823   0.00127 
 C                     2.51528   0.06536  -0.0208 
 N                     2.96228  -1.17193  -0.68844 
 C                     3.78984  -1.07748  -1.77335 
 N                     4.2798   -1.9634   -2.5636 
 C                     3.99739  -3.29065  -2.46223 
 N                     3.30928  -4.00342  -1.62678 
 N                     2.6496   -3.59039  -0.49116 
 C                     2.53698  -2.35881  -0.14599 
 H                     0.65803   1.06861   0.48897 
 H                     0.54177  -0.68359   0.55441 
 H                     0.58628   0.11898  -1.01533 
 H                     2.90565   0.09069   1.00427 
 H                     2.90309   0.96111  -0.5225 
 H                     4.09087  -0.038    -1.99052 
 H                     4.45832  -3.88623  -3.26957 
 H                     1.98318  -2.2051    0.79367 
 

 GradGradGradGradGradGradGradGradGradGradGradGradGradGradGradGradGradGrad
 Berny optimization.
 Initialization pass.
                           ----------------------------
                           !    Initial Parameters    !
                           ! (Angstroms and Degrees)  !
 --------------------------                            --------------------------
 ! Name  Definition              Value          Derivative Info.                !
 --------------------------------------------------------------------------------
 ! R1    R(1,2)                  1.5274         estimate D2E/DX2                !
 ! R2    R(1,10)                 1.0933         estimate D2E/DX2                !
 ! R3    R(1,11)                 1.095          estimate D2E/DX2                !
 ! R4    R(1,12)                 1.0943         estimate D2E/DX2                !
 ! R5    R(2,3)                  1.4753         estimate D2E/DX2                !
 ! R6    R(2,13)                 1.0972         estimate D2E/DX2                !
 ! R7    R(2,14)                 1.0975         estimate D2E/DX2                !
 ! R8    R(3,4)                  1.3678         estimate D2E/DX2                !
 ! R9    R(3,9)                  1.3725         estimate D2E/DX2                !
 ! R10   R(4,5)                  1.2843         estimate D2E/DX2                !
 ! R11   R(4,15)                 1.1038         estimate D2E/DX2                !
 ! R12   R(5,6)                  1.3607         estimate D2E/DX2                !
 ! R13   R(6,7)                  1.296          estimate D2E/DX2                !
 ! R14   R(6,16)                 1.1041         estimate D2E/DX2                !
 ! R15   R(7,8)                  1.3767         estimate D2E/DX2                !
 ! R16   R(8,9)                  1.284          estimate D2E/DX2                !
 ! R17   R(9,17)                 1.1015         estimate D2E/DX2                !
 ! A1    A(2,1,10)             110.8255         estimate D2E/DX2                !
 ! A2    A(2,1,11)             112.0258         estimate D2E/DX2                !
 ! A3    A(2,1,12)             110.7146         estimate D2E/DX2                !
 ! A4    A(10,1,11)            106.8395         estimate D2E/DX2                !
 ! A5    A(10,1,12)            108.948          estimate D2E/DX2                !
 ! A6    A(11,1,12)            107.3231         estimate D2E/DX2                !
 ! A7    A(1,2,3)              110.7664         estimate D2E/DX2                !
 ! A8    A(1,2,13)             109.9062         estimate D2E/DX2                !
 ! A9    A(1,2,14)             108.3686         estimate D2E/DX2                !
 ! A10   A(3,2,13)             109.5342         estimate D2E/DX2                !
 ! A11   A(3,2,14)             111.7512         estimate D2E/DX2                !
 ! A12   A(13,2,14)            106.411          estimate D2E/DX2                !
 ! A13   A(2,3,4)              118.9713         estimate D2E/DX2                !
 ! A14   A(2,3,9)              116.9042         estimate D2E/DX2                !
 ! A15   A(4,3,9)              124.1031         estimate D2E/DX2                !
 ! A16   A(3,4,5)              132.1642         estimate D2E/DX2                !
 ! A17   A(3,4,15)             112.7126         estimate D2E/DX2                !
 ! A18   A(5,4,15)             115.1204         estimate D2E/DX2                !
 ! A19   A(4,5,6)              123.2173         estimate D2E/DX2                !
 ! A20   A(5,6,7)              134.0015         estimate D2E/DX2                !
 ! A21   A(5,6,16)             112.6464         estimate D2E/DX2                !
 ! A22   A(7,6,16)             113.352          estimate D2E/DX2                !
 ! A23   A(6,7,8)              128.4017         estimate D2E/DX2                !
 ! A24   A(7,8,9)              123.4725         estimate D2E/DX2                !
 ! A25   A(3,9,8)              134.109          estimate D2E/DX2                !
 ! A26   A(3,9,17)             111.8561         estimate D2E/DX2                !
 ! A27   A(8,9,17)             114.0342         estimate D2E/DX2                !
 ! D1    D(10,1,2,3)          -179.5599         estimate D2E/DX2                !
 ! D2    D(10,1,2,13)           59.2662         estimate D2E/DX2                !
 ! D3    D(10,1,2,14)          -56.6369         estimate D2E/DX2                !
 ! D4    D(11,1,2,3)            61.2162         estimate D2E/DX2                !
 ! D5    D(11,1,2,13)          -59.9577         estimate D2E/DX2                !
 ! D6    D(11,1,2,14)         -175.8608         estimate D2E/DX2                !
 ! D7    D(12,1,2,3)           -58.545          estimate D2E/DX2                !
 ! D8    D(12,1,2,13)         -179.7189         estimate D2E/DX2                !
 ! D9    D(12,1,2,14)           64.3779         estimate D2E/DX2                !
 ! D10   D(1,2,3,4)            122.5447         estimate D2E/DX2                !
 ! D11   D(1,2,3,9)            -59.0676         estimate D2E/DX2                !
 ! D12   D(13,2,3,4)          -116.0619         estimate D2E/DX2                !
 ! D13   D(13,2,3,9)            62.3257         estimate D2E/DX2                !
 ! D14   D(14,2,3,4)             1.604          estimate D2E/DX2                !
 ! D15   D(14,2,3,9)           179.9917         estimate D2E/DX2                !
 ! D16   D(2,3,4,5)           -176.7907         estimate D2E/DX2                !
 ! D17   D(2,3,4,15)             3.8699         estimate D2E/DX2                !
 ! D18   D(9,3,4,5)              4.9458         estimate D2E/DX2                !
 ! D19   D(9,3,4,15)          -174.3936         estimate D2E/DX2                !
 ! D20   D(2,3,9,8)            174.8698         estimate D2E/DX2                !
 ! D21   D(2,3,9,17)            -5.4737         estimate D2E/DX2                !
 ! D22   D(4,3,9,8)             -6.8338         estimate D2E/DX2                !
 ! D23   D(4,3,9,17)           172.8227         estimate D2E/DX2                !
 ! D24   D(3,4,5,6)              1.9728         estimate D2E/DX2                !
 ! D25   D(15,4,5,6)          -178.7002         estimate D2E/DX2                !
 ! D26   D(4,5,6,7)             -3.8899         estimate D2E/DX2                !
 ! D27   D(4,5,6,16)           176.1965         estimate D2E/DX2                !
 ! D28   D(5,6,7,8)             -2.3492         estimate D2E/DX2                !
 ! D29   D(16,6,7,8)           177.5639         estimate D2E/DX2                !
 ! D30   D(6,7,8,9)              5.8738         estimate D2E/DX2                !
 ! D31   D(7,8,9,3)             -0.01           estimate D2E/DX2                !
 ! D32   D(7,8,9,17)          -179.6609         estimate D2E/DX2                !
 --------------------------------------------------------------------------------
 Trust Radius=3.00D-01 FncErr=1.00D-07 GrdErr=1.00D-06 EigMax=2.50D+02 EigMin=1.00D-04
 Number of steps in this run=     86 maximum allowed number of steps=    102.
 GradGradGradGradGradGradGradGradGradGradGradGradGradGradGradGradGradGrad

                          Input orientation:                          
 ---------------------------------------------------------------------
 Center     Atomic      Atomic             Coordinates (Angstroms)
 Number     Number       Type             X           Y           Z
 ---------------------------------------------------------------------
      1          6           0        0.990270    0.148230    0.001270
      2          6           0        2.515280    0.065360   -0.020800
      3          7           0        2.962280   -1.171930   -0.688440
      4          6           0        3.789840   -1.077480   -1.773350
      5          7           0        4.279800   -1.963400   -2.563600
      6          6           0        3.997390   -3.290650   -2.462230
      7          7           0        3.309280   -4.003420   -1.626780
      8          7           0        2.649600   -3.590390   -0.491160
      9          6           0        2.536980   -2.358810   -0.145990
     10          1           0        0.658030    1.068610    0.488970
     11          1           0        0.541770   -0.683590    0.554410
     12          1           0        0.586280    0.118980   -1.015330
     13          1           0        2.905650    0.090690    1.004270
     14          1           0        2.903090    0.961110   -0.522500
     15          1           0        4.090870   -0.038000   -1.990520
     16          1           0        4.458320   -3.886230   -3.269570
     17          1           0        1.983180   -2.205100    0.793670
 ---------------------------------------------------------------------
                    Distance matrix (angstroms):
                    1          2          3          4          5
     1  C    0.000000
     2  C    1.527419   0.000000
     3  N    2.471304   1.475276   0.000000
     4  C    3.534011   2.449902   1.367774   0.000000
     5  N    4.675313   3.700707   2.424564   1.284294   0.000000
     6  C    5.190135   4.406817   2.950722   2.327177   1.360744
     7  N    5.026386   4.445737   3.003036   2.968762   2.445654
     8  N    4.119847   3.688331   2.446556   3.042840   3.098331
     9  C    2.949449   2.427497   1.372522   2.420695   3.006428
    10  H    1.093313   2.171579   3.422847   4.419505   5.623921
    11  H    1.095007   2.187815   2.764421   4.015417   5.033167
    12  H    1.094321   2.170946   2.723726   3.502700   4.513927
    13  H    2.162869   1.097178   2.112506   3.140316   4.340192
    14  H    2.143359   1.097482   2.140304   2.550843   3.822850
    15  H    3.689936   2.524473   2.062747   1.103767   2.017741
    16  H    6.245209   5.472200   4.033335   3.251864   2.056098
    17  H    2.674309   2.470117   2.054928   3.335437   4.074818
                    6          7          8          9         10
     6  C    0.000000
     7  N    1.295960   0.000000
     8  N    2.406553   1.376737   0.000000
     9  C    2.892420   2.343913   1.283984   0.000000
    10  H    6.234104   6.101722   5.160745   3.959903   0.000000
    11  H    5.276191   4.841278   3.739739   2.697737   1.757272
    12  H    5.035352   4.978231   4.276853   3.271151   1.780411
    13  H    4.964069   4.883347   3.981485   2.731129   2.504727
    14  H    4.799740   5.102057   4.558661   3.361200   2.464736
    15  H    3.288006   4.058047   4.116408   3.347092   4.376854
    16  H    1.104070   2.008180   3.328446   3.972570   7.288297
    17  H    3.979491   3.294097   2.003480   1.101491   3.544861
                   11         12         13         14         15
    11  H    0.000000
    12  H    1.763571   0.000000
    13  H    2.527808   3.075559   0.000000
    14  H    3.072557   2.513896   1.757460   0.000000
    15  H    4.414699   3.641125   3.223364   2.136381   0.000000
    16  H    6.341852   6.009659   6.040893   5.784621   4.071838
    17  H    2.109479   3.259626   2.483134   3.550130   4.109792
                   16         17
    16  H    0.000000
    17  H    5.046032   0.000000
 Stoichiometry    C5H8N4
 Framework group  C1[X(C5H8N4)]
 Deg. of freedom    45
 Full point group                 C1      NOp   1
 Largest Abelian subgroup         C1      NOp   1
 Largest concise Abelian subgroup C1      NOp   1
                         Standard orientation:                         
 ---------------------------------------------------------------------
 Center     Atomic      Atomic             Coordinates (Angstroms)
 Number     Number       Type             X           Y           Z
 ---------------------------------------------------------------------
      1          6           0        2.846752   -0.308622    0.653355
      2          6           0        2.071087    0.445756   -0.424730
      3          7           0        0.619104    0.238070   -0.266458
      4          6           0       -0.192353    1.327377   -0.105975
      5          7           0       -1.454655    1.438765    0.102822
      6          6           0       -2.283085    0.369354    0.250093
      7          7           0       -2.119636   -0.913780    0.170317
      8          7           0       -0.977653   -1.612024   -0.151761
      9          6           0        0.166814   -1.056448   -0.325386
     10          1           0        3.922579   -0.149086    0.541651
     11          1           0        2.679064   -1.389376    0.599568
     12          1           0        2.540642    0.019340    1.651491
     13          1           0        2.384420    0.103473   -1.418945
     14          1           0        2.338955    1.508309   -0.363941
     15          1           0        0.355955    2.282247   -0.182680
     16          1           0       -3.319972    0.664468    0.488301
     17          1           0        0.972950   -1.761097   -0.584028
 ---------------------------------------------------------------------
 Rotational constants (GHZ):           3.4128002           1.2877711           0.9996533
 Standard basis: 6-31G(2df,p) (6D, 7F)
 There are   319 symmetry adapted cartesian basis functions of A   symmetry.
 There are   292 symmetry adapted basis functions of A   symmetry.
   292 basis functions,   452 primitive gaussians,   319 cartesian basis functions
    33 alpha electrons       33 beta electrons
       nuclear repulsion energy       438.2177541162 Hartrees.
 NAtoms=   17 NActive=   17 NUniq=   17 SFac= 1.00D+00 NAtFMM=   60 NAOKFM=F Big=F
 Integral buffers will be    131072 words long.
 Raffenetti 2 integral format.
 Two-electron integral symmetry is turned on.
 One-electron integrals computed using PRISM.
 PrsmSu:  requested number of processors reduced to:  13 ShMem   1 Linda.
 NBasis=   292 RedAO= T EigKep=  1.75D-04  NBF=   292
 NBsUse=   292 1.00D-06 EigRej= -1.00D+00 NBFU=   292
 ExpMin= 1.61D-01 ExpMax= 4.17D+03 ExpMxC= 6.27D+02 IAcc=3 IRadAn=         5 AccDes= 0.00D+00
 Harris functional with IExCor=  402 and IRadAn=       5 diagonalized for initial guess.
 HarFok:  IExCor=  402 AccDes= 0.00D+00 IRadAn=         5 IDoV= 1 UseB2=F ITyADJ=14
 ICtDFT=  3500011 ScaDFX=  1.000000  1.000000  1.000000  1.000000
 FoFCou: FMM=F IPFlag=           0 FMFlag=      100000 FMFlg1=           0
         NFxFlg=           0 DoJE=T BraDBF=F KetDBF=T FulRan=T
         wScrn=  0.000000 ICntrl=       500 IOpCl=  0 I1Cent=   200000004 NGrid=           0
         NMat0=    1 NMatS0=      1 NMatT0=    0 NMatD0=    1 NMtDS0=    0 NMtDT0=    0
 Petite list used in FoFCou.
 Requested convergence on RMS density matrix=1.00D-08 within 128 cycles.
 Requested convergence on MAX density matrix=1.00D-06.
 Requested convergence on             energy=1.00D-06.
 No special actions if energy rises.
 Integral accuracy reduced to 1.0D-05 until final iterations.
 Initial convergence to 1.0D-05 achieved.  Increase integral accuracy.
 SCF Done:  E(RB3LYP) =  -414.274553017     A.U. after   16 cycles
            NFock= 16  Conv=0.49D-08     -V/T= 2.0071

 **********************************************************************

            Population analysis using the SCF density.

 **********************************************************************

 Orbital symmetries:
       Occupied  (A) (A) (A) (A) (A) (A) (A) (A) (A) (A) (A) (A)
                 (A) (A) (A) (A) (A) (A) (A) (A) (A) (A) (A) (A)
                 (A) (A) (A) (A) (A) (A) (A) (A) (A)
       Virtual   (A) (A) (A) (A) (A) (A) (A) (A) (A) (A) (A) (A)
                 (A) (A) (A) (A) (A) (A) (A) (A) (A) (A) (A) (A)
                 (A) (A) (A) (A) (A) (A) (A) (A) (A) (A) (A) (A)
                 (A) (A) (A) (A) (A) (A) (A) (A) (A) (A) (A) (A)
                 (A) (A) (A) (A) (A) (A) (A) (A) (A) (A) (A) (A)
                 (A) (A) (A) (A) (A) (A) (A) (A) (A) (A) (A) (A)
                 (A) (A) (A) (A) (A) (A) (A) (A) (A) (A) (A) (A)
                 (A) (A) (A) (A) (A) (A) (A) (A) (A) (A) (A) (A)
                 (A) (A) (A) (A) (A) (A) (A) (A) (A) (A) (A) (A)
                 (A) (A) (A) (A) (A) (A) (A) (A) (A) (A) (A) (A)
                 (A) (A) (A) (A) (A) (A) (A) (A) (A) (A) (A) (A)
                 (A) (A) (A) (A) (A) (A) (A) (A) (A) (A) (A) (A)
                 (A) (A) (A) (A) (A) (A) (A) (A) (A) (A) (A) (A)
                 (A) (A) (A) (A) (A) (A) (A) (A) (A) (A) (A) (A)
                 (A) (A) (A) (A) (A) (A) (A) (A) (A) (A) (A) (A)
                 (A) (A) (A) (A) (A) (A) (A) (A) (A) (A) (A) (A)
                 (A) (A) (A) (A) (A) (A) (A) (A) (A) (A) (A) (A)
                 (A) (A) (A) (A) (A) (A) (A) (A) (A) (A) (A) (A)
                 (A) (A) (A) (A) (A) (A) (A) (A) (A) (A) (A) (A)
                 (A) (A) (A) (A) (A) (A) (A) (A) (A) (A) (A) (A)
                 (A) (A) (A) (A) (A) (A) (A) (A) (A) (A) (A) (A)
                 (A) (A) (A) (A) (A) (A) (A)
 The electronic state is 1-A.
 Alpha  occ. eigenvalues --  -14.39666 -14.34303 -14.32740 -14.32070 -10.29190
 Alpha  occ. eigenvalues --  -10.26952 -10.25674 -10.24449 -10.20602  -1.02625
 Alpha  occ. eigenvalues --   -0.96294  -0.92870  -0.81607  -0.77713  -0.73261
 Alpha  occ. eigenvalues --   -0.66398  -0.62098  -0.59890  -0.54377  -0.49780
 Alpha  occ. eigenvalues --   -0.48210  -0.45886  -0.45338  -0.43137  -0.41539
 Alpha  occ. eigenvalues --   -0.40488  -0.38399  -0.35826  -0.34357  -0.29682
 Alpha  occ. eigenvalues --   -0.28475  -0.21454  -0.20533
 Alpha virt. eigenvalues --   -0.09113   0.05269   0.06656   0.08901   0.09544
 Alpha virt. eigenvalues --    0.10370   0.12244   0.13437   0.14441   0.15208
 Alpha virt. eigenvalues --    0.17155   0.18453   0.20249   0.21245   0.23518
 Alpha virt. eigenvalues --    0.26305   0.29919   0.35274   0.36800   0.39842
 Alpha virt. eigenvalues --    0.40654   0.42779   0.43967   0.47709   0.48388
 Alpha virt. eigenvalues --    0.49671   0.50663   0.51170   0.51772   0.52914
 Alpha virt. eigenvalues --    0.55119   0.56407   0.57080   0.59810   0.62183
 Alpha virt. eigenvalues --    0.62362   0.65855   0.67386   0.68873   0.69965
 Alpha virt. eigenvalues --    0.70862   0.72480   0.73483   0.74553   0.75414
 Alpha virt. eigenvalues --    0.75580   0.76819   0.77964   0.79497   0.79899
 Alpha virt. eigenvalues --    0.80389   0.80656   0.82343   0.83521   0.86476
 Alpha virt. eigenvalues --    0.87203   0.89394   0.91323   0.92993   1.01249
 Alpha virt. eigenvalues --    1.03990   1.04206   1.05479   1.08045   1.08916
 Alpha virt. eigenvalues --    1.11350   1.14363   1.14540   1.17584   1.18658
 Alpha virt. eigenvalues --    1.24914   1.25223   1.26271   1.27334   1.31522
 Alpha virt. eigenvalues --    1.33677   1.36405   1.38387   1.42545   1.43924
 Alpha virt. eigenvalues --    1.46263   1.50423   1.50794   1.53587   1.54999
 Alpha virt. eigenvalues --    1.56381   1.57455   1.57702   1.60062   1.62155
 Alpha virt. eigenvalues --    1.63089   1.64406   1.69612   1.71071   1.73180
 Alpha virt. eigenvalues --    1.78496   1.84039   1.85175   1.87226   1.93094
 Alpha virt. eigenvalues --    1.95058   1.97458   2.01358   2.07161   2.07813
 Alpha virt. eigenvalues --    2.10108   2.13594   2.22947   2.25419   2.26525
 Alpha virt. eigenvalues --    2.27325   2.29260   2.29765   2.32070   2.32722
 Alpha virt. eigenvalues --    2.35591   2.38293   2.43435   2.46292   2.56970
 Alpha virt. eigenvalues --    2.63792   2.65819   2.72029   2.73738   2.75280
 Alpha virt. eigenvalues --    2.78634   2.81613   2.83415   2.85786   2.88014
 Alpha virt. eigenvalues --    2.89695   2.91374   2.92860   2.98150   2.99745
 Alpha virt. eigenvalues --    3.02646   3.06185   3.07101   3.10105   3.11849
 Alpha virt. eigenvalues --    3.14270   3.15523   3.17547   3.17797   3.19219
 Alpha virt. eigenvalues --    3.23713   3.25501   3.28785   3.28937   3.31258
 Alpha virt. eigenvalues --    3.31705   3.34785   3.37310   3.39206   3.43237
 Alpha virt. eigenvalues --    3.46716   3.49204   3.50981   3.53877   3.56643
 Alpha virt. eigenvalues --    3.58058   3.58265   3.62518   3.66842   3.71157
 Alpha virt. eigenvalues --    3.72187   3.75212   3.76020   3.80294   3.83646
 Alpha virt. eigenvalues --    3.87497   3.89430   3.91082   3.92265   3.94488
 Alpha virt. eigenvalues --    3.95429   3.99594   4.00734   4.01874   4.03563
 Alpha virt. eigenvalues --    4.05190   4.12693   4.17055   4.18078   4.19295
 Alpha virt. eigenvalues --    4.20163   4.22335   4.23465   4.26091   4.27393
 Alpha virt. eigenvalues --    4.31189   4.34768   4.35997   4.38420   4.39169
 Alpha virt. eigenvalues --    4.40297   4.42005   4.43998   4.46197   4.47121
 Alpha virt. eigenvalues --    4.48379   4.50701   4.52355   4.53149   4.55229
 Alpha virt. eigenvalues --    4.57889   4.58424   4.60507   4.61551   4.65349
 Alpha virt. eigenvalues --    4.66611   4.70271   4.71421   4.74845   4.79934
 Alpha virt. eigenvalues --    4.82393   4.83702   4.84515   4.86964   4.90914
 Alpha virt. eigenvalues --    4.92141   4.94500   4.95657   5.00017   5.04889
 Alpha virt. eigenvalues --    5.07087   5.11182   5.13744   5.18361   5.18817
 Alpha virt. eigenvalues --    5.25956   5.30890   5.34407   5.35462   5.43189
 Alpha virt. eigenvalues --    5.49901   5.51685   5.62511   5.73878   5.77962
 Alpha virt. eigenvalues --    5.79803   5.87715   5.96463   6.03800   6.16665
 Alpha virt. eigenvalues --    6.43473   8.79394  10.35742  10.59358  11.00327
 Alpha virt. eigenvalues --   11.27988  11.35127  11.39088  11.42087  11.50653
 Alpha virt. eigenvalues --   12.12885  14.06746  19.90002  22.40077
          Condensed to atoms (all electrons):
               1          2          3          4          5          6
     1  C    4.985076   0.396144  -0.049625   0.000626  -0.000070  -0.000021
     2  C    0.396144   4.859745   0.379487  -0.052910   0.003020  -0.000010
     3  N   -0.049625   0.379487   6.250276   0.395045  -0.046625  -0.005254
     4  C    0.000626  -0.052910   0.395045   4.544667   0.678295  -0.067652
     5  N   -0.000070   0.003020  -0.046625   0.678295   6.345024   0.458928
     6  C   -0.000021  -0.000010  -0.005254  -0.067652   0.458928   4.578115
     7  N    0.000001  -0.000349   0.001511  -0.002302  -0.055223   0.646880
     8  N    0.000131   0.003106  -0.025486  -0.000594  -0.005314  -0.082063
     9  C   -0.002554  -0.050881   0.362434  -0.010784   0.007980   0.006817
    10  H    0.367502  -0.021150   0.003171  -0.000026   0.000001   0.000000
    11  H    0.386380  -0.030149  -0.004303   0.000064   0.000005  -0.000002
    12  H    0.377444  -0.028011   0.000510   0.001231  -0.000078   0.000005
    13  H   -0.047983   0.369512  -0.030220   0.002233  -0.000129  -0.000002
    14  H   -0.032194   0.374076  -0.020559  -0.002506   0.000487   0.000011
    15  H   -0.000033  -0.008511  -0.059015   0.358449  -0.024495   0.004598
    16  H   -0.000000   0.000006   0.000056   0.003199  -0.046967   0.367837
    17  H   -0.002661  -0.006186  -0.053139   0.004368  -0.000168  -0.000500
               7          8          9         10         11         12
     1  C    0.000001   0.000131  -0.002554   0.367502   0.386380   0.377444
     2  C   -0.000349   0.003106  -0.050881  -0.021150  -0.030149  -0.028011
     3  N    0.001511  -0.025486   0.362434   0.003171  -0.004303   0.000510
     4  C   -0.002302  -0.000594  -0.010784  -0.000026   0.000064   0.001231
     5  N   -0.055223  -0.005314   0.007980   0.000001   0.000005  -0.000078
     6  C    0.646880  -0.082063   0.006817   0.000000  -0.000002   0.000005
     7  N    6.372887   0.378789  -0.091593   0.000000  -0.000004   0.000003
     8  N    0.378789   6.350859   0.653807  -0.000003   0.000087  -0.000079
     9  C   -0.091593   0.653807   4.603103  -0.000188   0.001596   0.000507
    10  H    0.000000  -0.000003  -0.000188   0.575884  -0.028449  -0.025750
    11  H   -0.000004   0.000087   0.001596  -0.028449   0.563246  -0.031479
    12  H    0.000003  -0.000079   0.000507  -0.025750  -0.031479   0.566951
    13  H   -0.000003   0.000113   0.000437   0.001037  -0.005376   0.005369
    14  H    0.000002  -0.000117   0.001909  -0.001542   0.004591  -0.004114
    15  H   -0.000232  -0.000174   0.004992  -0.000016   0.000001   0.000037
    16  H   -0.040008   0.003679  -0.000541   0.000000   0.000000  -0.000000
    17  H    0.004332  -0.021182   0.356501  -0.000020   0.003528   0.000052
              13         14         15         16         17
     1  C   -0.047983  -0.032194  -0.000033  -0.000000  -0.002661
     2  C    0.369512   0.374076  -0.008511   0.000006  -0.006186
     3  N   -0.030220  -0.020559  -0.059015   0.000056  -0.053139
     4  C    0.002233  -0.002506   0.358449   0.003199   0.004368
     5  N   -0.000129   0.000487  -0.024495  -0.046967  -0.000168
     6  C   -0.000002   0.000011   0.004598   0.367837  -0.000500
     7  N   -0.000003   0.000002  -0.000232  -0.040008   0.004332
     8  N    0.000113  -0.000117  -0.000174   0.003679  -0.021182
     9  C    0.000437   0.001909   0.004992  -0.000541   0.356501
    10  H    0.001037  -0.001542  -0.000016   0.000000  -0.000020
    11  H   -0.005376   0.004591   0.000001   0.000000   0.003528
    12  H    0.005369  -0.004114   0.000037  -0.000000   0.000052
    13  H    0.610372  -0.037702   0.000284  -0.000000   0.002815
    14  H   -0.037702   0.574393   0.007588   0.000000  -0.000003
    15  H    0.000284   0.007588   0.589759  -0.000285  -0.000277
    16  H   -0.000000   0.000000  -0.000285   0.589844   0.000017
    17  H    0.002815  -0.000003  -0.000277   0.000017   0.584237
 Mulliken charges:
               1
     1  C   -0.378163
     2  C   -0.186937
     3  N   -0.098264
     4  C    0.148597
     5  N   -0.314670
     6  C    0.092314
     7  N   -0.214692
     8  N   -0.255558
     9  C    0.156457
    10  H    0.129550
    11  H    0.140263
    12  H    0.137402
    13  H    0.129242
    14  H    0.135680
    15  H    0.127329
    16  H    0.123164
    17  H    0.128285
 Sum of Mulliken charges =  -0.00000
 Mulliken charges with hydrogens summed into heavy atoms:
               1
     1  C    0.029053
     2  C    0.077985
     3  N   -0.098264
     4  C    0.275926
     5  N   -0.314670
     6  C    0.215478
     7  N   -0.214692
     8  N   -0.255558
     9  C    0.284742
 Electronic spatial extent (au):  <R**2>=           1183.3348
 Charge=             -0.0000 electrons
 Dipole moment (field-independent basis, Debye):
    X=              5.5104    Y=              2.2546    Z=             -0.5282  Tot=              5.9771
 Quadrupole moment (field-independent basis, Debye-Ang):
   XX=            -51.9575   YY=            -58.4323   ZZ=            -52.3335
   XY=             -2.9516   XZ=             -0.6640   YZ=             -0.0437
 Traceless Quadrupole moment (field-independent basis, Debye-Ang):
   XX=              2.2836   YY=             -4.1912   ZZ=              1.9076
   XY=             -2.9516   XZ=             -0.6640   YZ=             -0.0437
 Octapole moment (field-independent basis, Debye-Ang**2):
  XXX=             18.5507  YYY=              8.3559  ZZZ=             -0.4284  XYY=             21.3135
  XXY=             10.5789  XXZ=             -0.8185  XZZ=              1.4654  YZZ=              0.1521
  YYZ=             -1.6525  XYZ=             -0.3299
 Hexadecapole moment (field-independent basis, Debye-Ang**3):
 XXXX=          -1032.4108 YYYY=           -417.6820 ZZZZ=           -102.5109 XXXY=            -27.3538
 XXXZ=             -7.0655 YYYX=              2.2157 YYYZ=             -3.6923 ZZZX=             -0.9438
 ZZZY=              0.8420 XXYY=           -267.5552 XXZZ=           -196.6496 YYZZ=            -85.0237
 XXYZ=              3.7307 YYXZ=             -1.0876 ZZXY=             -0.4278
 N-N= 4.382177541162D+02 E-N=-1.839595349014D+03  KE= 4.113359080559D+02
 PrsmSu:  requested number of processors reduced to:  13 ShMem   1 Linda.
 Calling FoFJK, ICntrl=      2127 FMM=F ISym2X=0 I1Cent= 0 IOpClX= 0 NMat=1 NMatS=1 NMatT=0.
 ***** Axes restored to original set *****
 -------------------------------------------------------------------
 Center     Atomic                   Forces (Hartrees/Bohr)
 Number     Number              X              Y              Z
 -------------------------------------------------------------------
      1        6          -0.005216795    0.000912182    0.001110773
      2        6          -0.008165837    0.000492148    0.005506353
      3        7           0.005775800    0.030989131   -0.009871918
      4        6           0.018523709    0.003977377   -0.021164090
      5        7           0.002594330    0.042406000    0.007087591
      6        6          -0.017386892   -0.045427479    0.016139363
      7        7           0.022355989   -0.016751964   -0.042666326
      8        7          -0.005614929    0.032745141    0.021900828
      9        6          -0.015314711   -0.039365211    0.021983714
     10        1           0.000759537    0.001235501   -0.000744219
     11        1           0.000593346    0.001059103   -0.000617370
     12        1           0.000182326    0.001343304    0.000075956
     13        1           0.000894020   -0.001020651    0.000115458
     14        1           0.003755991   -0.008267588   -0.002924895
     15        1          -0.003938689   -0.006261437    0.003789694
     16        1          -0.005221081    0.003907228    0.006759187
     17        1           0.005423888   -0.001972784   -0.006480099
 -------------------------------------------------------------------
 Cartesian Forces:  Max     0.045427479 RMS     0.016142575

 GradGradGradGradGradGradGradGradGradGradGradGradGradGradGradGradGradGrad
 Berny optimization.
 FormGI is forming the generalized inverse of G from B-inverse, IUseBI=4.
 Internal  Forces:  Max     0.040379384 RMS     0.008591426
 Search for a local minimum.
 Step number   1 out of a maximum of   86
 All quantities printed in internal units (Hartrees-Bohrs-Radians)
 Mixed Optimization -- RFO/linear search
 Second derivative matrix not updated -- first step.
 ITU=  0
     Eigenvalues ---    0.00403   0.00696   0.01562   0.02075   0.02350
     Eigenvalues ---    0.02429   0.02542   0.02652   0.02760   0.02841
     Eigenvalues ---    0.04301   0.05488   0.05525   0.05538   0.09070
     Eigenvalues ---    0.12663   0.16000   0.16000   0.16000   0.16000
     Eigenvalues ---    0.16000   0.16000   0.21887   0.22501   0.23210
     Eigenvalues ---    0.23423   0.24987   0.24994   0.29663   0.33236
     Eigenvalues ---    0.33269   0.33518   0.33962   0.33996   0.34240
     Eigenvalues ---    0.34318   0.34433   0.35116   0.47801   0.48971
     Eigenvalues ---    0.50912   0.52035   0.66693   0.69052   0.71636
 RFO step:  Lambda=-1.50359996D-02 EMin= 4.03241437D-03
 Linear search not attempted -- first point.
 Iteration  1 RMS(Cart)=  0.08287498 RMS(Int)=  0.00247212
 Iteration  2 RMS(Cart)=  0.00310636 RMS(Int)=  0.00048678
 Iteration  3 RMS(Cart)=  0.00000483 RMS(Int)=  0.00048676
 Iteration  4 RMS(Cart)=  0.00000000 RMS(Int)=  0.00048676
 Variable       Old X    -DE/DX   Delta X   Delta X   Delta X     New X
                                 (Linear)    (Quad)   (Total)
    R1        2.88640   0.00392   0.00000   0.01258   0.01258   2.89898
    R2        2.06606   0.00048   0.00000   0.00133   0.00133   2.06739
    R3        2.06926  -0.00136   0.00000  -0.00380  -0.00380   2.06546
    R4        2.06797  -0.00017   0.00000  -0.00049  -0.00049   2.06748
    R5        2.78787  -0.00024   0.00000  -0.00065  -0.00065   2.78722
    R6        2.07337   0.00040   0.00000   0.00113   0.00113   2.07450
    R7        2.07394  -0.00408   0.00000  -0.01151  -0.01151   2.06243
    R8        2.58472   0.01023   0.00000   0.01982   0.01974   2.60446
    R9        2.59369   0.03159   0.00000   0.06128   0.06114   2.65483
   R10        2.42696  -0.01132   0.00000  -0.01536  -0.01534   2.41162
   R11        2.08582  -0.00772   0.00000  -0.02219  -0.02219   2.06362
   R12        2.57143   0.04038   0.00000   0.07398   0.07409   2.64552
   R13        2.44901  -0.02089   0.00000  -0.03035  -0.03022   2.41879
   R14        2.08639  -0.00923   0.00000  -0.02657  -0.02657   2.05982
   R15        2.60166   0.02923   0.00000   0.05671   0.05676   2.65842
   R16        2.42638  -0.01239   0.00000  -0.01677  -0.01685   2.40953
   R17        2.08152  -0.00853   0.00000  -0.02436  -0.02436   2.05716
    A1        1.93427  -0.00157   0.00000  -0.01144  -0.01146   1.92280
    A2        1.95522   0.00057   0.00000   0.00672   0.00672   1.96194
    A3        1.93234   0.00002   0.00000  -0.00091  -0.00097   1.93137
    A4        1.86470   0.00084   0.00000   0.00675   0.00677   1.87147
    A5        1.90150  -0.00017   0.00000  -0.00759  -0.00768   1.89382
    A6        1.87314   0.00039   0.00000   0.00690   0.00687   1.88001
    A7        1.93324   0.01367   0.00000   0.06014   0.05981   1.99305
    A8        1.91823  -0.00195   0.00000   0.01924   0.01837   1.93660
    A9        1.89139  -0.00023   0.00000   0.00507   0.00642   1.89780
   A10        1.91173  -0.00366   0.00000  -0.00477  -0.00683   1.90490
   A11        1.95043  -0.01073   0.00000  -0.08663  -0.08666   1.86377
   A12        1.85722   0.00243   0.00000   0.00562   0.00456   1.86178
   A13        2.07644  -0.00085   0.00000  -0.00434  -0.00443   2.07201
   A14        2.04036   0.00368   0.00000   0.01272   0.01269   2.05305
   A15        2.16601  -0.00287   0.00000  -0.00957  -0.01039   2.15562
   A16        2.30670  -0.00408   0.00000  -0.01662  -0.01691   2.28979
   A17        1.96721  -0.00118   0.00000  -0.00998  -0.00992   1.95729
   A18        2.00923   0.00526   0.00000   0.02678   0.02685   2.03608
   A19        2.15055   0.00569   0.00000   0.01967   0.01964   2.17019
   A20        2.33877   0.00647   0.00000   0.02466   0.02469   2.36346
   A21        1.96605  -0.00173   0.00000  -0.00373  -0.00377   1.96228
   A22        1.97837  -0.00474   0.00000  -0.02091  -0.02096   1.95741
   A23        2.24103  -0.01612   0.00000  -0.06470  -0.06465   2.17638
   A24        2.15500   0.01303   0.00000   0.04777   0.04724   2.20225
   A25        2.34064  -0.00243   0.00000  -0.00942  -0.01006   2.33058
   A26        1.95226   0.00193   0.00000   0.00873   0.00885   1.96111
   A27        1.99027   0.00049   0.00000   0.00054   0.00069   1.99096
    D1       -3.13391   0.00315   0.00000   0.04479   0.04508  -3.08883
    D2        1.03439   0.00009   0.00000  -0.00122  -0.00168   1.03271
    D3       -0.98850  -0.00163   0.00000  -0.02129  -0.02121  -1.00971
    D4        1.06842   0.00277   0.00000   0.03954   0.03987   1.10829
    D5       -1.04646  -0.00028   0.00000  -0.00648  -0.00689  -1.05335
    D6       -3.06935  -0.00200   0.00000  -0.02654  -0.02642  -3.09577
    D7       -1.02180   0.00189   0.00000   0.02693   0.02726  -0.99454
    D8       -3.13669  -0.00116   0.00000  -0.01908  -0.01949   3.12700
    D9        1.12361  -0.00288   0.00000  -0.03915  -0.03903   1.08458
   D10        2.13881  -0.00168   0.00000  -0.07711  -0.07752   2.06129
   D11       -1.03092  -0.00309   0.00000  -0.12195  -0.12267  -1.15360
   D12       -2.02566   0.00232   0.00000  -0.01730  -0.01765  -2.04332
   D13        1.08779   0.00091   0.00000  -0.06214  -0.06281   1.02498
   D14        0.02800  -0.00354   0.00000  -0.06620  -0.06496  -0.03696
   D15        3.14145  -0.00495   0.00000  -0.11104  -0.11011   3.03133
   D16       -3.08558   0.00013   0.00000   0.00328   0.00283  -3.08275
   D17        0.06754  -0.00056   0.00000  -0.01685  -0.01679   0.05075
   D18        0.08632   0.00154   0.00000   0.05118   0.05041   0.13673
   D19       -3.04374   0.00085   0.00000   0.03105   0.03079  -3.01295
   D20        3.05205   0.00027   0.00000   0.01437   0.01388   3.06594
   D21       -0.09553  -0.00094   0.00000  -0.01800  -0.01837  -0.11391
   D22       -0.11927  -0.00118   0.00000  -0.03289  -0.03349  -0.15276
   D23        3.01633  -0.00239   0.00000  -0.06526  -0.06574   2.95058
   D24        0.03443  -0.00004   0.00000  -0.00215  -0.00216   0.03227
   D25       -3.11891   0.00063   0.00000   0.01817   0.01797  -3.10093
   D26       -0.06789  -0.00112   0.00000  -0.03334  -0.03286  -0.10075
   D27        3.07521  -0.00157   0.00000  -0.04536  -0.04493   3.03028
   D28       -0.04100  -0.00015   0.00000  -0.00797  -0.00751  -0.04851
   D29        3.09907   0.00031   0.00000   0.00412   0.00455   3.10363
   D30        0.10252   0.00195   0.00000   0.05889   0.05870   0.16122
   D31       -0.00017  -0.00176   0.00000  -0.03678  -0.03740  -0.03758
   D32       -3.13567  -0.00054   0.00000  -0.00391  -0.00475  -3.14043
         Item               Value     Threshold  Converged?
 Maximum Force            0.040379     0.000450     NO 
 RMS     Force            0.008591     0.000300     NO 
 Maximum Displacement     0.218306     0.001800     NO 
 RMS     Displacement     0.082506     0.001200     NO 
 Predicted change in Energy=-8.309595D-03
 GradGradGradGradGradGradGradGradGradGradGradGradGradGradGradGradGradGrad

                          Input orientation:                          
 ---------------------------------------------------------------------
 Center     Atomic      Atomic             Coordinates (Angstroms)
 Number     Number       Type             X           Y           Z
 ---------------------------------------------------------------------
      1          6           0        0.952648    0.222891   -0.019466
      2          6           0        2.475162    0.035970    0.000449
      3          7           0        2.942864   -1.187498   -0.677639
      4          6           0        3.769298   -1.062549   -1.773488
      5          7           0        4.259831   -1.939156   -2.560609
      6          6           0        4.001595   -3.312276   -2.472785
      7          7           0        3.375553   -4.071629   -1.654393
      8          7           0        2.761279   -3.634850   -0.466578
      9          6           0        2.589279   -2.422873   -0.109750
     10          1           0        0.683018    1.172620    0.451900
     11          1           0        0.428584   -0.568067    0.523102
     12          1           0        0.577601    0.226449   -1.047232
     13          1           0        2.858654    0.046483    1.029010
     14          1           0        2.938619    0.878879   -0.515151
     15          1           0        4.023773   -0.020965   -1.980512
     16          1           0        4.429369   -3.870039   -3.305871
     17          1           0        2.090784   -2.309410    0.851334
 ---------------------------------------------------------------------
                    Distance matrix (angstroms):
                    1          2          3          4          5
     1  C    0.000000
     2  C    1.534075   0.000000
     3  N    2.526529   1.474931   0.000000
     4  C    3.558436   2.455277   1.378221   0.000000
     5  N    4.697799   3.693939   2.417638   1.276174   0.000000
     6  C    5.273733   4.433693   2.976264   2.367329   1.399949
     7  N    5.194839   4.519024   3.075627   3.037068   2.480044
     8  N    4.284065   3.711454   2.463139   3.056280   3.083181
     9  C    3.112359   2.463955   1.404874   2.451724   3.005235
    10  H    1.094016   2.169691   3.457299   4.412874   5.617113
    11  H    1.092995   2.196932   2.854309   4.084019   5.105646
    12  H    1.094064   2.175926   2.780344   3.517939   4.531995
    13  H    2.182495   1.097777   2.107712   3.148527   4.334908
    14  H    2.149443   1.091390   2.072760   2.458167   3.724355
    15  H    3.651983   2.515083   2.055880   1.092023   2.017844
    16  H    6.296040   5.477918   4.038976   3.265867   2.076648
    17  H    2.909672   2.524392   2.079058   3.355855   4.059952
                    6          7          8          9         10
     6  C    0.000000
     7  N    1.279966   0.000000
     8  N    2.380611   1.406774   0.000000
     9  C    2.893028   2.392184   1.275068   0.000000
    10  H    6.299288   6.260061   5.317380   4.108144   0.000000
    11  H    5.410401   5.069621   3.978202   2.917090   1.760624
    12  H    5.126257   5.164364   4.473839   3.456100   1.775880
    13  H    4.984992   4.942336   3.974730   2.732591   2.516870
    14  H    4.746370   5.098658   4.517472   3.344840   2.471681
    15  H    3.327995   4.115146   4.116558   3.365514   4.301386
    16  H    1.090010   1.969403   3.301428   3.961743   7.320136
    17  H    3.963169   3.321854   1.985761   1.088601   3.777020
                   11         12         13         14         15
    11  H    0.000000
    12  H    1.766186   0.000000
    13  H    2.557119   3.089721   0.000000
    14  H    3.077645   2.506628   1.756049   0.000000
    15  H    4.415064   3.578872   3.227890   2.033362   0.000000
    16  H    6.447507   6.059602   6.049585   5.706372   4.091021
    17  H    2.429592   3.510677   2.484235   3.570895   4.122230
                   16         17
    16  H    0.000000
    17  H    5.018655   0.000000
 Stoichiometry    C5H8N4
 Framework group  C1[X(C5H8N4)]
 Deg. of freedom    45
 Full point group                 C1      NOp   1
 Largest Abelian subgroup         C1      NOp   1
 Largest concise Abelian subgroup C1      NOp   1
                         Standard orientation:                         
 ---------------------------------------------------------------------
 Center     Atomic      Atomic             Coordinates (Angstroms)
 Number     Number       Type             X           Y           Z
 ---------------------------------------------------------------------
      1          6           0        2.926720   -0.276534    0.680583
      2          6           0        2.089449    0.345857   -0.444135
      3          7           0        0.632929    0.193928   -0.268384
      4          6           0       -0.140859    1.327580   -0.143582
      5          7           0       -1.390400    1.472896    0.071248
      6          6           0       -2.285451    0.415361    0.272145
      7          7           0       -2.214434   -0.861546    0.219444
      8          7           0       -1.066683   -1.585085   -0.152271
      9          6           0        0.101418   -1.105140   -0.328309
     10          1           0        3.989729   -0.079991    0.512499
     11          1           0        2.803546   -1.360908    0.740570
     12          1           0        2.644708    0.144718    1.650115
     13          1           0        2.378711   -0.062684   -1.421139
     14          1           0        2.292465    1.417587   -0.480357
     15          1           0        0.448494    2.241377   -0.244348
     16          1           0       -3.281904    0.760537    0.547927
     17          1           0        0.846697   -1.844731   -0.615741
 ---------------------------------------------------------------------
 Rotational constants (GHZ):           3.3998769           1.2411822           0.9759549
 Standard basis: 6-31G(2df,p) (6D, 7F)
 There are   319 symmetry adapted cartesian basis functions of A   symmetry.
 There are   292 symmetry adapted basis functions of A   symmetry.
   292 basis functions,   452 primitive gaussians,   319 cartesian basis functions
    33 alpha electrons       33 beta electrons
       nuclear repulsion energy       434.6031904867 Hartrees.
 NAtoms=   17 NActive=   17 NUniq=   17 SFac= 1.00D+00 NAtFMM=   60 NAOKFM=F Big=F
 Integral buffers will be    131072 words long.
 Raffenetti 2 integral format.
 Two-electron integral symmetry is turned on.
 One-electron integrals computed using PRISM.
 PrsmSu:  requested number of processors reduced to:  13 ShMem   1 Linda.
 NBasis=   292 RedAO= T EigKep=  1.89D-04  NBF=   292
 NBsUse=   292 1.00D-06 EigRej= -1.00D+00 NBFU=   292
 Initial guess from the checkpoint file:  "CCN1CdNCdNNdC1.chk"
 B after Tr=     0.000000   -0.000000    0.000000
         Rot=    0.999803    0.016103   -0.003184    0.011142 Ang=   2.27 deg.
 ExpMin= 1.61D-01 ExpMax= 4.17D+03 ExpMxC= 6.27D+02 IAcc=2 IRadAn=         4 AccDes= 0.00D+00
 Harris functional with IExCor=  402 and IRadAn=       4 diagonalized for initial guess.
 HarFok:  IExCor=  402 AccDes= 0.00D+00 IRadAn=         4 IDoV= 1 UseB2=F ITyADJ=14
 ICtDFT=  3500011 ScaDFX=  1.000000  1.000000  1.000000  1.000000
 FoFCou: FMM=F IPFlag=           0 FMFlag=      100000 FMFlg1=           0
         NFxFlg=           0 DoJE=T BraDBF=F KetDBF=T FulRan=T
         wScrn=  0.000000 ICntrl=       500 IOpCl=  0 I1Cent=   200000004 NGrid=           0
         NMat0=    1 NMatS0=      1 NMatT0=    0 NMatD0=    1 NMtDS0=    0 NMtDT0=    0
 Petite list used in FoFCou.
 Requested convergence on RMS density matrix=1.00D-08 within 128 cycles.
 Requested convergence on MAX density matrix=1.00D-06.
 Requested convergence on             energy=1.00D-06.
 No special actions if energy rises.
 Integral accuracy reduced to 1.0D-05 until final iterations.
 Initial convergence to 1.0D-05 achieved.  Increase integral accuracy.
 SCF Done:  E(RB3LYP) =  -414.283004394     A.U. after   13 cycles
            NFock= 13  Conv=0.93D-08     -V/T= 2.0074
 PrsmSu:  requested number of processors reduced to:  13 ShMem   1 Linda.
 Calling FoFJK, ICntrl=      2127 FMM=F ISym2X=0 I1Cent= 0 IOpClX= 0 NMat=1 NMatS=1 NMatT=0.
 ***** Axes restored to original set *****
 -------------------------------------------------------------------
 Center     Atomic                   Forces (Hartrees/Bohr)
 Number     Number              X              Y              Z
 -------------------------------------------------------------------
      1        6           0.000879891   -0.001847971   -0.000958632
      2        6          -0.001376996   -0.000639118    0.000765280
      3        7          -0.004464925    0.010357414   -0.003128524
      4        6           0.002168513   -0.004502419   -0.005460718
      5        7           0.002953629    0.008697107    0.002876803
      6        6          -0.004572214   -0.009838336    0.003616860
      7        7           0.002697211   -0.002857137   -0.011168562
      8        7          -0.001776014    0.012538144    0.011488907
      9        6           0.001258791   -0.016183114    0.001304158
     10        1           0.001082360    0.000401674   -0.000190019
     11        1           0.000729973   -0.001214447    0.000299451
     12        1           0.000225349    0.000485543   -0.000000641
     13        1          -0.001445419   -0.000576610    0.000162433
     14        1           0.001380353    0.000343680    0.000445704
     15        1           0.000081333   -0.000139963    0.000820489
     16        1           0.000449821    0.002465691   -0.001230961
     17        1          -0.000271656    0.002509862    0.000357974
 -------------------------------------------------------------------
 Cartesian Forces:  Max     0.016183114 RMS     0.004736880

 GradGradGradGradGradGradGradGradGradGradGradGradGradGradGradGradGradGrad
 Berny optimization.
 Using GEDIIS/GDIIS optimizer.
 FormGI is forming the generalized inverse of G from B-inverse, IUseBI=4.
 Internal  Forces:  Max     0.009993260 RMS     0.002338833
 Search for a local minimum.
 Step number   2 out of a maximum of   86
 All quantities printed in internal units (Hartrees-Bohrs-Radians)
 Mixed Optimization -- RFO/linear search
 Update second derivatives using D2CorX and points    1    2
 DE= -8.45D-03 DEPred=-8.31D-03 R= 1.02D+00
 TightC=F SS=  1.41D+00  RLast= 3.24D-01 DXNew= 5.0454D-01 9.7173D-01
 Trust test= 1.02D+00 RLast= 3.24D-01 DXMaxT set to 5.05D-01
 ITU=  1  0
 Use linear search instead of GDIIS.
     Eigenvalues ---    0.00403   0.00715   0.01546   0.02036   0.02357
     Eigenvalues ---    0.02438   0.02546   0.02649   0.02756   0.02845
     Eigenvalues ---    0.04169   0.05377   0.05438   0.05629   0.09794
     Eigenvalues ---    0.12979   0.15742   0.15997   0.16000   0.16000
     Eigenvalues ---    0.16000   0.16200   0.22263   0.22774   0.23113
     Eigenvalues ---    0.23599   0.24046   0.26433   0.29988   0.33254
     Eigenvalues ---    0.33279   0.33718   0.33990   0.34091   0.34316
     Eigenvalues ---    0.34322   0.34433   0.35264   0.42594   0.48222
     Eigenvalues ---    0.50264   0.51190   0.66523   0.69184   0.70872
 RFO step:  Lambda=-2.73222021D-03 EMin= 4.03198972D-03
 Quartic linear search produced a step of  0.20192.
 Iteration  1 RMS(Cart)=  0.07018221 RMS(Int)=  0.00221491
 Iteration  2 RMS(Cart)=  0.00254171 RMS(Int)=  0.00048144
 Iteration  3 RMS(Cart)=  0.00000337 RMS(Int)=  0.00048143
 Iteration  4 RMS(Cart)=  0.00000000 RMS(Int)=  0.00048143
 Variable       Old X    -DE/DX   Delta X   Delta X   Delta X     New X
                                 (Linear)    (Quad)   (Total)
    R1        2.89898  -0.00315   0.00254  -0.01351  -0.01097   2.88801
    R2        2.06739   0.00000   0.00027  -0.00011   0.00016   2.06755
    R3        2.06546   0.00068  -0.00077   0.00264   0.00187   2.06733
    R4        2.06748  -0.00007  -0.00010  -0.00022  -0.00032   2.06717
    R5        2.78722  -0.00275  -0.00013  -0.00920  -0.00933   2.77789
    R6        2.07450  -0.00036   0.00023  -0.00133  -0.00111   2.07339
    R7        2.06243   0.00064  -0.00232   0.00316   0.00083   2.06326
    R8        2.60446   0.00191   0.00399   0.00262   0.00664   2.61110
    R9        2.65483   0.00588   0.01235   0.00847   0.02078   2.67560
   R10        2.41162  -0.00403  -0.00310  -0.00533  -0.00839   2.40323
   R11        2.06362  -0.00027  -0.00448   0.00084  -0.00365   2.05998
   R12        2.64552   0.00664   0.01496   0.00915   0.02412   2.66964
   R13        2.41879  -0.00232  -0.00610  -0.00134  -0.00744   2.41135
   R14        2.05982  -0.00014  -0.00536   0.00163  -0.00373   2.05609
   R15        2.65842   0.00999   0.01146   0.01921   0.03069   2.68911
   R16        2.40953  -0.00859  -0.00340  -0.01296  -0.01640   2.39313
   R17        2.05716   0.00070  -0.00492   0.00444  -0.00048   2.05668
    A1        1.92280  -0.00129  -0.00232  -0.00933  -0.01169   1.91112
    A2        1.96194  -0.00139   0.00136  -0.00977  -0.00843   1.95351
    A3        1.93137   0.00028  -0.00020   0.00199   0.00178   1.93315
    A4        1.87147   0.00144   0.00137   0.01026   0.01159   1.88307
    A5        1.89382   0.00035  -0.00155   0.00135  -0.00023   1.89359
    A6        1.88001   0.00074   0.00139   0.00636   0.00775   1.88776
    A7        1.99305  -0.00341   0.01208  -0.02490  -0.01294   1.98011
    A8        1.93660   0.00018   0.00371  -0.00966  -0.00623   1.93037
    A9        1.89780   0.00159   0.00130   0.01677   0.01836   1.91617
   A10        1.90490   0.00125  -0.00138  -0.00095  -0.00288   1.90202
   A11        1.86377   0.00100  -0.01750   0.01785   0.00042   1.86419
   A12        1.86178  -0.00039   0.00092   0.00402   0.00472   1.86650
   A13        2.07201   0.00422  -0.00089   0.02076   0.01938   2.09140
   A14        2.05305  -0.00353   0.00256  -0.01713  -0.01480   2.03825
   A15        2.15562  -0.00075  -0.00210  -0.00770  -0.01148   2.14413
   A16        2.28979   0.00042  -0.00341   0.00071  -0.00348   2.28631
   A17        1.95729  -0.00078  -0.00200  -0.00300  -0.00465   1.95264
   A18        2.03608   0.00036   0.00542   0.00238   0.00816   2.04424
   A19        2.17019   0.00007   0.00397  -0.00367  -0.00077   2.16942
   A20        2.36346   0.00063   0.00499   0.00006   0.00419   2.36764
   A21        1.96228  -0.00313  -0.00076  -0.02126  -0.02160   1.94068
   A22        1.95741   0.00250  -0.00423   0.02120   0.01739   1.97480
   A23        2.17638  -0.00251  -0.01305  -0.00889  -0.02318   2.15320
   A24        2.20225   0.00080   0.00954  -0.00408   0.00382   2.20607
   A25        2.33058   0.00088  -0.00203   0.00162  -0.00153   2.32905
   A26        1.96111  -0.00297   0.00179  -0.01953  -0.01723   1.94387
   A27        1.99096   0.00210   0.00014   0.01821   0.01888   2.00984
    D1       -3.08883  -0.00034   0.00910  -0.03099  -0.02177  -3.11060
    D2        1.03271   0.00045  -0.00034  -0.00302  -0.00347   1.02924
    D3       -1.00971  -0.00014  -0.00428  -0.01245  -0.01674  -1.02645
    D4        1.10829  -0.00037   0.00805  -0.03120  -0.02305   1.08525
    D5       -1.05335   0.00041  -0.00139  -0.00324  -0.00475  -1.05810
    D6       -3.09577  -0.00017  -0.00534  -0.01267  -0.01801  -3.11378
    D7       -0.99454  -0.00056   0.00551  -0.03407  -0.02844  -1.02298
    D8        3.12700   0.00023  -0.00394  -0.00611  -0.01014   3.11686
    D9        1.08458  -0.00036  -0.00788  -0.01554  -0.02341   1.06117
   D10        2.06129   0.00038  -0.01565  -0.03848  -0.05404   2.00725
   D11       -1.15360  -0.00059  -0.02477  -0.09837  -0.12349  -1.27708
   D12       -2.04332  -0.00091  -0.00356  -0.07028  -0.07372  -2.11703
   D13        1.02498  -0.00187  -0.01268  -0.13018  -0.14316   0.88182
   D14       -0.03696  -0.00022  -0.01312  -0.05673  -0.06941  -0.10638
   D15        3.03133  -0.00119  -0.02223  -0.11662  -0.13886   2.89248
   D16       -3.08275  -0.00004   0.00057  -0.00354  -0.00373  -3.08648
   D17        0.05075   0.00027  -0.00339   0.01044   0.00664   0.05739
   D18        0.13673   0.00109   0.01018   0.06042   0.07013   0.20686
   D19       -3.01295   0.00140   0.00622   0.07440   0.08050  -2.93245
   D20        3.06594  -0.00047   0.00280  -0.00639  -0.00458   3.06136
   D21       -0.11391  -0.00012  -0.00371   0.00450  -0.00008  -0.11399
   D22       -0.15276  -0.00127  -0.00676  -0.06813  -0.07491  -0.22767
   D23        2.95058  -0.00092  -0.01327  -0.05724  -0.07041   2.88017
   D24        0.03227   0.00088  -0.00044   0.03464   0.03406   0.06633
   D25       -3.10093   0.00057   0.00363   0.02017   0.02330  -3.07764
   D26       -0.10075  -0.00161  -0.00663  -0.07275  -0.07908  -0.17982
   D27        3.03028  -0.00148  -0.00907  -0.07294  -0.08165   2.94863
   D28       -0.04851  -0.00028  -0.00152  -0.01833  -0.01944  -0.06795
   D29        3.10363  -0.00038   0.00092  -0.01796  -0.01667   3.08696
   D30        0.16122   0.00208   0.01185   0.09525   0.10685   0.26806
   D31       -0.03758  -0.00105  -0.00755  -0.03679  -0.04485  -0.08243
   D32       -3.14043  -0.00131  -0.00096  -0.04719  -0.04887   3.09389
         Item               Value     Threshold  Converged?
 Maximum Force            0.009993     0.000450     NO 
 RMS     Force            0.002339     0.000300     NO 
 Maximum Displacement     0.231615     0.001800     NO 
 RMS     Displacement     0.070167     0.001200     NO 
 Predicted change in Energy=-1.523417D-03
 GradGradGradGradGradGradGradGradGradGradGradGradGradGradGradGradGradGrad

                          Input orientation:                          
 ---------------------------------------------------------------------
 Center     Atomic      Atomic             Coordinates (Angstroms)
 Number     Number       Type             X           Y           Z
 ---------------------------------------------------------------------
      1          6           0        0.946657    0.222969   -0.073176
      2          6           0        2.459537    0.026442    0.017229
      3          7           0        2.935345   -1.179176   -0.676296
      4          6           0        3.762724   -1.057884   -1.776261
      5          7           0        4.248502   -1.937435   -2.555820
      6          6           0        3.953394   -3.316998   -2.481870
      7          7           0        3.354558   -4.078886   -1.651705
      8          7           0        2.842003   -3.626888   -0.403526
      9          6           0        2.654382   -2.422514   -0.059973
     10          1           0        0.667922    1.150945    0.434981
     11          1           0        0.399125   -0.597157    0.400537
     12          1           0        0.625912    0.289043   -1.116904
     13          1           0        2.781615   -0.014292    1.065293
     14          1           0        2.970620    0.876101   -0.439896
     15          1           0        4.022318   -0.018281   -1.976619
     16          1           0        4.323970   -3.845992   -3.357462
     17          1           0        2.209325   -2.286017    0.923790
 ---------------------------------------------------------------------
                    Distance matrix (angstroms):
                    1          2          3          4          5
     1  C    0.000000
     2  C    1.528268   0.000000
     3  N    2.506919   1.469995   0.000000
     4  C    3.531475   2.467928   1.381734   0.000000
     5  N    4.661871   3.698350   2.414942   1.271732   0.000000
     6  C    5.231983   4.433475   2.977718   2.374413   1.412711
     7  N    5.176456   4.521076   3.087957   3.050995   2.490456
     8  N    4.303820   3.697314   2.464632   3.054818   3.076501
     9  C    3.148821   2.457907   1.415868   2.456884   3.000961
    10  H    1.094101   2.156133   3.435929   4.398445   5.594956
    11  H    1.093985   2.186573   2.816155   4.032929   5.035285
    12  H    1.093897   2.171957   2.771874   3.476860   4.488969
    13  H    2.172436   1.097192   2.100886   3.182151   4.354618
    14  H    2.158122   1.091829   2.069129   2.480645   3.745144
    15  H    3.625050   2.533716   2.054270   1.090094   2.017371
    16  H    6.224887   5.464467   4.028503   3.254034   2.071452
    17  H    2.980484   2.496382   2.076651   3.348378   4.048140
                    6          7          8          9         10
     6  C    0.000000
     7  N    1.276030   0.000000
     8  N    2.377128   1.423013   0.000000
     9  C    2.890176   2.401547   1.266391   0.000000
    10  H    6.266169   6.238863   5.315770   4.118327   0.000000
    11  H    5.323405   5.006867   3.974096   2.937717   1.768983
    12  H    5.093016   5.177869   4.555709   3.547440   1.775665
    13  H    4.986311   4.922526   3.900247   2.661192   2.494548
    14  H    4.766297   5.115446   4.504973   3.335447   2.478582
    15  H    3.337898   4.127951   4.109721   3.365280   4.293586
    16  H    1.088036   1.975755   3.312095   3.960713   7.260764
    17  H    3.962729   3.340526   1.989971   1.088346   3.798364
                   11         12         13         14         15
    11  H    0.000000
    12  H    1.771838   0.000000
    13  H    2.541239   3.082378   0.000000
    14  H    3.080488   2.510106   1.759010   0.000000
    15  H    4.371899   3.516978   3.285208   2.065795   0.000000
    16  H    6.331026   5.982830   6.051574   5.713310   4.080329
    17  H    2.530389   3.647268   2.346971   3.526784   4.103893
                   16         17
    16  H    0.000000
    17  H    5.023382   0.000000
 Stoichiometry    C5H8N4
 Framework group  C1[X(C5H8N4)]
 Deg. of freedom    45
 Full point group                 C1      NOp   1
 Largest Abelian subgroup         C1      NOp   1
 Largest concise Abelian subgroup C1      NOp   1
                         Standard orientation:                         
 ---------------------------------------------------------------------
 Center     Atomic      Atomic             Coordinates (Angstroms)
 Number     Number       Type             X           Y           Z
 ---------------------------------------------------------------------
      1          6           0        2.902756   -0.242008    0.733062
      2          6           0        2.096994    0.288384   -0.452280
      3          7           0        0.642798    0.180985   -0.266094
      4          6           0       -0.125902    1.326152   -0.183138
      5          7           0       -1.370531    1.482115    0.026331
      6          6           0       -2.268614    0.428528    0.307671
      7          7           0       -2.218114   -0.846148    0.277651
      8          7           0       -1.085735   -1.573957   -0.183845
      9          6           0        0.081674   -1.115596   -0.359373
     10          1           0        3.970681   -0.102399    0.540441
     11          1           0        2.728194   -1.308824    0.901091
     12          1           0        2.642485    0.294647    1.650052
     13          1           0        2.378136   -0.234360   -1.375063
     14          1           0        2.318369    1.346441   -0.605898
     15          1           0        0.470293    2.227032   -0.328989
     16          1           0       -3.231756    0.810717    0.639501
     17          1           0        0.823224   -1.846983   -0.675087
 ---------------------------------------------------------------------
 Rotational constants (GHZ):           3.3631498           1.2419680           0.9834298
 Standard basis: 6-31G(2df,p) (6D, 7F)
 There are   319 symmetry adapted cartesian basis functions of A   symmetry.
 There are   292 symmetry adapted basis functions of A   symmetry.
   292 basis functions,   452 primitive gaussians,   319 cartesian basis functions
    33 alpha electrons       33 beta electrons
       nuclear repulsion energy       434.4682818763 Hartrees.
 NAtoms=   17 NActive=   17 NUniq=   17 SFac= 1.00D+00 NAtFMM=   60 NAOKFM=F Big=F
 Integral buffers will be    131072 words long.
 Raffenetti 2 integral format.
 Two-electron integral symmetry is turned on.
 One-electron integrals computed using PRISM.
 PrsmSu:  requested number of processors reduced to:  13 ShMem   1 Linda.
 NBasis=   292 RedAO= T EigKep=  1.99D-04  NBF=   292
 NBsUse=   292 1.00D-06 EigRej= -1.00D+00 NBFU=   292
 Initial guess from the checkpoint file:  "CCN1CdNCdNNdC1.chk"
 B after Tr=    -0.000000    0.000000   -0.000000
         Rot=    0.999926    0.011619    0.000481    0.003659 Ang=   1.40 deg.
 ExpMin= 1.61D-01 ExpMax= 4.17D+03 ExpMxC= 6.27D+02 IAcc=2 IRadAn=         4 AccDes= 0.00D+00
 Harris functional with IExCor=  402 and IRadAn=       4 diagonalized for initial guess.
 HarFok:  IExCor=  402 AccDes= 0.00D+00 IRadAn=         4 IDoV= 1 UseB2=F ITyADJ=14
 ICtDFT=  3500011 ScaDFX=  1.000000  1.000000  1.000000  1.000000
 FoFCou: FMM=F IPFlag=           0 FMFlag=      100000 FMFlg1=           0
         NFxFlg=           0 DoJE=T BraDBF=F KetDBF=T FulRan=T
         wScrn=  0.000000 ICntrl=       500 IOpCl=  0 I1Cent=   200000004 NGrid=           0
         NMat0=    1 NMatS0=      1 NMatT0=    0 NMatD0=    1 NMtDS0=    0 NMtDT0=    0
 Petite list used in FoFCou.
 Requested convergence on RMS density matrix=1.00D-08 within 128 cycles.
 Requested convergence on MAX density matrix=1.00D-06.
 Requested convergence on             energy=1.00D-06.
 No special actions if energy rises.
 Integral accuracy reduced to 1.0D-05 until final iterations.
 Initial convergence to 1.0D-05 achieved.  Increase integral accuracy.
 SCF Done:  E(RB3LYP) =  -414.285325447     A.U. after   13 cycles
            NFock= 13  Conv=0.54D-08     -V/T= 2.0075
 PrsmSu:  requested number of processors reduced to:  13 ShMem   1 Linda.
 Calling FoFJK, ICntrl=      2127 FMM=F ISym2X=0 I1Cent= 0 IOpClX= 0 NMat=1 NMatS=1 NMatT=0.
 ***** Axes restored to original set *****
 -------------------------------------------------------------------
 Center     Atomic                   Forces (Hartrees/Bohr)
 Number     Number              X              Y              Z
 -------------------------------------------------------------------
      1        6           0.000100294    0.000853073   -0.000373223
      2        6           0.000759128   -0.001494937   -0.001290037
      3        7          -0.003815160    0.000336996   -0.003094624
      4        6          -0.002001503   -0.001123771    0.002777157
      5        7           0.003725673   -0.003032294    0.000893442
      6        6          -0.000623828    0.001671851   -0.000360403
      7        7          -0.002627394    0.001529751   -0.000623158
      8        7           0.002515158   -0.000053510    0.002719087
      9        6           0.001400072   -0.001706350   -0.001409218
     10        1          -0.000668997    0.000029685    0.000077862
     11        1           0.000450645   -0.000336850   -0.000136769
     12        1          -0.000126717   -0.000038584    0.000124165
     13        1          -0.000387039   -0.000102206    0.000041432
     14        1           0.000461160    0.001075794    0.000723476
     15        1           0.000657634    0.001448259   -0.000022035
     16        1          -0.000219211    0.000110138   -0.001716105
     17        1           0.000400086    0.000832954    0.001668953
 -------------------------------------------------------------------
 Cartesian Forces:  Max     0.003815160 RMS     0.001482130

 GradGradGradGradGradGradGradGradGradGradGradGradGradGradGradGradGradGrad
 Berny optimization.
 Using GEDIIS/GDIIS optimizer.
 FormGI is forming the generalized inverse of G from B-inverse, IUseBI=4.
 Internal  Forces:  Max     0.002562197 RMS     0.000932373
 Search for a local minimum.
 Step number   3 out of a maximum of   86
 All quantities printed in internal units (Hartrees-Bohrs-Radians)
 Mixed Optimization -- En-DIIS/RFO-DIIS
 Update second derivatives using D2CorX and points    2    3
 DE= -2.32D-03 DEPred=-1.52D-03 R= 1.52D+00
 TightC=F SS=  1.41D+00  RLast= 3.62D-01 DXNew= 8.4853D-01 1.0853D+00
 Trust test= 1.52D+00 RLast= 3.62D-01 DXMaxT set to 8.49D-01
 ITU=  1  1  0
 Use linear search instead of GDIIS.
     Eigenvalues ---    0.00354   0.00421   0.01056   0.01785   0.02354
     Eigenvalues ---    0.02464   0.02552   0.02662   0.02732   0.02847
     Eigenvalues ---    0.04274   0.05392   0.05508   0.05733   0.09725
     Eigenvalues ---    0.13033   0.15835   0.15998   0.16000   0.16000
     Eigenvalues ---    0.16067   0.16786   0.22462   0.22797   0.23150
     Eigenvalues ---    0.23495   0.25796   0.26345   0.30823   0.33253
     Eigenvalues ---    0.33439   0.33813   0.34001   0.34107   0.34297
     Eigenvalues ---    0.34317   0.34432   0.35409   0.48105   0.48187
     Eigenvalues ---    0.51116   0.54569   0.66830   0.68858   0.74152
 RFO step:  Lambda=-2.80931542D-03 EMin= 3.54300764D-03
 Quartic linear search produced a step of  1.02401.
 Iteration  1 RMS(Cart)=  0.13639055 RMS(Int)=  0.01624238
 Iteration  2 RMS(Cart)=  0.02141132 RMS(Int)=  0.00326022
 Iteration  3 RMS(Cart)=  0.00032579 RMS(Int)=  0.00324906
 Iteration  4 RMS(Cart)=  0.00000080 RMS(Int)=  0.00324906
 Variable       Old X    -DE/DX   Delta X   Delta X   Delta X     New X
                                 (Linear)    (Quad)   (Total)
    R1        2.88801   0.00033  -0.01124   0.00291  -0.00833   2.87968
    R2        2.06755   0.00023   0.00016   0.00127   0.00143   2.06898
    R3        2.06733  -0.00003   0.00192  -0.00047   0.00144   2.06878
    R4        2.06717  -0.00008  -0.00032  -0.00046  -0.00078   2.06638
    R5        2.77789  -0.00059  -0.00955  -0.00299  -0.01254   2.76535
    R6        2.07339  -0.00007  -0.00113  -0.00027  -0.00140   2.07200
    R7        2.06326   0.00075   0.00085   0.00285   0.00370   2.06696
    R8        2.61110  -0.00154   0.00680  -0.00351   0.00338   2.61448
    R9        2.67560   0.00010   0.02127   0.00506   0.02604   2.70164
   R10        2.40323   0.00146  -0.00860   0.00242  -0.00592   2.39731
   R11        2.05998   0.00154  -0.00373   0.00611   0.00238   2.06236
   R12        2.66964  -0.00201   0.02469  -0.00018   0.02470   2.69434
   R13        2.41135   0.00062  -0.00762  -0.00077  -0.00828   2.40307
   R14        2.05609   0.00125  -0.00382   0.00426   0.00044   2.05653
   R15        2.68911   0.00037   0.03142   0.00593   0.03733   2.72644
   R16        2.39313  -0.00111  -0.01679  -0.00437  -0.02146   2.37167
   R17        2.05668   0.00145  -0.00049   0.00541   0.00492   2.06160
    A1        1.91112   0.00107  -0.01197   0.01286   0.00086   1.91197
    A2        1.95351  -0.00099  -0.00863  -0.01192  -0.02059   1.93292
    A3        1.93315   0.00019   0.00182   0.00155   0.00336   1.93650
    A4        1.88307  -0.00003   0.01187   0.00082   0.01264   1.89570
    A5        1.89359  -0.00037  -0.00024  -0.00068  -0.00094   1.89266
    A6        1.88776   0.00012   0.00794  -0.00256   0.00537   1.89313
    A7        1.98011  -0.00118  -0.01325  -0.00336  -0.01679   1.96332
    A8        1.93037   0.00028  -0.00638  -0.00119  -0.00792   1.92245
    A9        1.91617   0.00002   0.01880   0.00251   0.02142   1.93758
   A10        1.90202   0.00017  -0.00295  -0.00385  -0.00720   1.89482
   A11        1.86419   0.00112   0.00043   0.01101   0.01160   1.87578
   A12        1.86650  -0.00034   0.00483  -0.00489  -0.00000   1.86650
   A13        2.09140   0.00032   0.01985   0.00151   0.01886   2.11026
   A14        2.03825  -0.00034  -0.01516  -0.00127  -0.01736   2.02089
   A15        2.14413  -0.00011  -0.01176  -0.01273  -0.03591   2.10822
   A16        2.28631   0.00062  -0.00357  -0.00294  -0.01323   2.27308
   A17        1.95264  -0.00035  -0.00476  -0.00054  -0.00196   1.95068
   A18        2.04424  -0.00027   0.00835   0.00350   0.01518   2.05942
   A19        2.16942  -0.00104  -0.00079  -0.01279  -0.02262   2.14680
   A20        2.36764  -0.00040   0.00429  -0.00677  -0.00959   2.35805
   A21        1.94068  -0.00047  -0.02211  -0.00283  -0.02145   1.91924
   A22        1.97480   0.00087   0.01780   0.00943   0.03068   2.00548
   A23        2.15320   0.00118  -0.02373  -0.00588  -0.04015   2.11306
   A24        2.20607  -0.00159   0.00392  -0.01755  -0.02596   2.18011
   A25        2.32905   0.00038  -0.00157  -0.00658  -0.01681   2.31223
   A26        1.94387  -0.00088  -0.01765  -0.00397  -0.01750   1.92638
   A27        2.00984   0.00050   0.01933   0.00963   0.03310   2.04294
    D1       -3.11060  -0.00054  -0.02229  -0.01989  -0.04206   3.13052
    D2        1.02924  -0.00011  -0.00356  -0.01150  -0.01514   1.01410
    D3       -1.02645   0.00012  -0.01714  -0.00632  -0.02348  -1.04993
    D4        1.08525  -0.00058  -0.02360  -0.02188  -0.04537   1.03988
    D5       -1.05810  -0.00016  -0.00486  -0.01349  -0.01845  -1.07654
    D6       -3.11378   0.00008  -0.01845  -0.00830  -0.02679  -3.14057
    D7       -1.02298  -0.00020  -0.02912  -0.01157  -0.04058  -1.06356
    D8        3.11686   0.00023  -0.01039  -0.00318  -0.01365   3.10321
    D9        1.06117   0.00046  -0.02397   0.00200  -0.02199   1.03918
   D10        2.00725   0.00021  -0.05534  -0.01130  -0.06559   1.94166
   D11       -1.27708  -0.00082  -0.12645  -0.10652  -0.23417  -1.51125
   D12       -2.11703  -0.00013  -0.07549  -0.01809  -0.09237  -2.20940
   D13        0.88182  -0.00116  -0.14659  -0.11331  -0.26094   0.62088
   D14       -0.10638   0.00014  -0.07108  -0.01996  -0.08993  -0.19631
   D15        2.89248  -0.00089  -0.14219  -0.11519  -0.25851   2.63397
   D16       -3.08648   0.00051  -0.00382   0.02267   0.01724  -3.06924
   D17        0.05739   0.00036   0.00680   0.01321   0.01932   0.07671
   D18        0.20686   0.00161   0.07182   0.12283   0.19234   0.39921
   D19       -2.93245   0.00146   0.08243   0.11337   0.19443  -2.73803
   D20        3.06136  -0.00050  -0.00469  -0.02349  -0.03143   3.02992
   D21       -0.11399  -0.00087  -0.00008  -0.05965  -0.06267  -0.17666
   D22       -0.22767  -0.00152  -0.07671  -0.12054  -0.19493  -0.42260
   D23        2.88017  -0.00189  -0.07210  -0.15670  -0.22616   2.65401
   D24        0.06633   0.00088   0.03487   0.04496   0.07890   0.14522
   D25       -3.07764   0.00103   0.02386   0.05481   0.07668  -3.00095
   D26       -0.17982  -0.00207  -0.08098  -0.12727  -0.20658  -0.38640
   D27        2.94863  -0.00218  -0.08361  -0.14530  -0.22727   2.72137
   D28       -0.06795  -0.00035  -0.01991  -0.02655  -0.04533  -0.11328
   D29        3.08696  -0.00024  -0.01707  -0.00820  -0.02360   3.06336
   D30        0.26806   0.00256   0.10941   0.17027   0.27759   0.54566
   D31       -0.08243  -0.00112  -0.04593  -0.07355  -0.11996  -0.20239
   D32        3.09389  -0.00072  -0.05005  -0.03614  -0.08628   3.00761
         Item               Value     Threshold  Converged?
 Maximum Force            0.002562     0.000450     NO 
 RMS     Force            0.000932     0.000300     NO 
 Maximum Displacement     0.566795     0.001800     NO 
 RMS     Displacement     0.152370     0.001200     NO 
 Predicted change in Energy=-2.674127D-03
 GradGradGradGradGradGradGradGradGradGradGradGradGradGradGradGradGradGrad

                          Input orientation:                          
 ---------------------------------------------------------------------
 Center     Atomic      Atomic             Coordinates (Angstroms)
 Number     Number       Type             X           Y           Z
 ---------------------------------------------------------------------
      1          6           0        0.928947    0.220751   -0.188588
      2          6           0        2.419962   -0.001741    0.033954
      3          7           0        2.920560   -1.183717   -0.668722
      4          6           0        3.783519   -1.059469   -1.742963
      5          7           0        4.264380   -1.944329   -2.514417
      6          6           0        3.836363   -3.304255   -2.498417
      7          7           0        3.265180   -4.058978   -1.649161
      8          7           0        3.024186   -3.611665   -0.298824
      9          6           0        2.801500   -2.422496    0.034940
     10          1           0        0.604122    1.107350    0.365619
     11          1           0        0.351726   -0.641088    0.161448
     12          1           0        0.710740    0.376332   -1.248723
     13          1           0        2.629002   -0.117194    1.104086
     14          1           0        3.000909    0.857446   -0.313414
     15          1           0        4.071074   -0.020503   -1.912994
     16          1           0        4.036481   -3.768144   -3.462312
     17          1           0        2.509260   -2.244320    1.070807
 ---------------------------------------------------------------------
                    Distance matrix (angstroms):
                    1          2          3          4          5
     1  C    0.000000
     2  C    1.523861   0.000000
     3  N    2.483864   1.463358   0.000000
     4  C    3.493369   2.476997   1.383521   0.000000
     5  N    4.606752   3.697259   2.406444   1.268599   0.000000
     6  C    5.119965   4.396100   2.946720   2.369085   1.425782
     7  N    5.089925   4.473080   3.057311   3.045411   2.493754
     8  N    4.369164   3.675239   2.458149   3.029163   3.037589
     9  C    3.247026   2.450638   1.429647   2.446047   2.977899
    10  H    1.094859   2.153453   3.418294   4.387459   5.568199
    11  H    1.094749   2.168552   2.753640   3.947028   4.916050
[...]
   xx         0.595897D+02      0.883028D+01      0.982501D+01
   yx         0.100102D+02      0.148336D+01      0.165046D+01
   yy         0.764619D+02      0.113305D+02      0.126069D+02
   zx        -0.340576D+00     -0.504682D-01     -0.561534D-01
   zy        -0.103834D+02     -0.153866D+01     -0.171199D+01
   zz         0.958893D+02      0.142093D+02      0.158100D+02

 ----------------------------------------------------------------------
 1\1\GINC-LEWIS4-Z10PH-HPC3-NODE391\Freq\RB3LYP\6-31G(2df,p)\C5H8N4\KS2
 9C\05-Aug-2022\0\\#N Geom=AllCheck Guess=TCheck SCRF=Check GenChk RB3L
 YP/6-31G(2df,p) Freq\\Title Card Required\\0,1\C,0.8492884424,0.110341
 2619,-0.2095356836\C,2.3710801228,0.0171972321,-0.1152430285\N,2.88063
 76808,-1.2033317426,-0.7487723816\C,4.0312150366,-1.1207166044,-1.5412
 677741\N,4.4741965291,-2.034801817,-2.3108477544\C,3.6871315245,-3.173
 3017159,-2.52262264\N,2.9825440817,-3.8693425224,-1.7119079926\N,3.009
 0427781,-3.5762455693,-0.3523555603\C,2.8685849491,-2.3842135699,0.052
 2418019\H,0.494435971,1.0271517725,0.2708109649\H,0.3734306726,-0.7394
 535956,0.2893552726\H,0.5258481679,0.1130140405,-1.2538565131\H,2.6870
 126818,0.0561077845,0.9381997504\H,2.8322524386,0.8709394063,-0.620048
 176\H,4.5823212746,-0.1795860776,-1.4648805208\H,3.703976426,-3.522781
 3216,-3.5539207315\H,2.8049112225,-2.2069969616,1.1269709669\\Version=
 ES64L-G16RevA.03\State=1-A\HF=-414.2969231\RMSD=4.006e-09\RMSF=2.036e-
 06\ZeroPoint=0.1366201\Thermal=0.1448322\Dipole=-0.3090372,1.8470061,0
 .5170598\DipoleDeriv=-0.004055,0.0134524,0.0022455,0.0191104,0.0512352
 ,-0.0175885,0.0056734,-0.0340515,0.0554444,0.401418,-0.2035992,-0.0367
 536,-0.2607232,0.5536008,0.2326116,-0.0602707,0.2220544,0.3949324,-0.7
 360216,0.3411742,0.4659503,-0.022859,-0.7677114,-0.0219054,0.2116926,0
 .2221383,-0.5963,0.8626019,-0.1935109,-0.6207326,0.0984371,0.4730328,0
 .1956818,-0.540795,0.352175,0.6488872,-0.576056,-0.0666995,0.2259613,-
 0.0324421,-0.8600301,-0.1812247,0.1768033,-0.3741681,-0.6515493,0.2938
 996,0.2761659,-0.0131908,0.3297949,0.7056299,0.036586,-0.0664044,0.218
 848,0.5351734,-0.2115135,-0.04602,-0.0434383,-0.1521438,-0.4761631,0.1
 840928,0.0409319,-0.356921,-0.2427406,-0.2398753,-0.0179686,-0.0658605
 ,0.0465713,-0.4637762,-0.0431507,0.0649998,0.406,-0.2563501,0.056699,0
 .0454824,0.034511,0.0180178,0.9237655,-0.2392864,0.0748525,-0.4656603,
 0.4289527,-0.0049877,0.070835,0.0325049,0.0783069,-0.0812594,-0.081785
 8,0.0351316,-0.0843077,0.0279402,0.0077599,-0.0302715,0.0041248,-0.070
 7845,-0.0439286,0.0685676,0.0217578,0.0676832,0.0259656,0.0113212,-0.0
 027205,-0.0221487,-0.0119507,0.0685513,-0.0067584,-0.0667591,0.0113503
 ,-0.0902024,-0.0419844,0.0322616,-0.0652291,0.0665574,-0.0102242,0.008
 1061,-0.0281238,-0.1026009,-0.1689826,-0.0318518,-0.0653387,0.0413249,
 -0.0108887,-0.0584445,0.0136915,0.0635015,0.0659381,0.0147948,0.063451
 9,-0.0869733,-0.0150041,-0.0924129,-0.0838454,-0.0039845,0.0166119,-0.
 0448903,0.0346048,0.0624919,-0.022529,0.049091,0.0055199,0.0314425,-0.
 0791013,0.0103489,-0.0718074,-0.06664,0.0867018,-0.0437404,0.0266439,-
 0.0081105,0.0381249,-0.0645516,0.0400478,-0.0317802,-0.0939305\Polar=6
 3.5931723,-2.9805534,88.7385106,-14.5698258,12.4461568,79.6091384\Quad
 rupole=-0.5747809,-2.0569116,2.6316925,-0.7557634,0.2564657,2.0373615\
 PG=C01 [X(C5H8N4)]\NImag=0\\0.46873115,0.00800522,0.57392107,-0.004852
 29,0.00530299,0.57708705,-0.19161147,-0.00781735,-0.01544168,0.4885795
 0,-0.00124079,-0.07537766,0.00268152,0.04920182,0.52320207,-0.01154975
 ,0.00397428,-0.08042140,-0.00683516,-0.06243463,0.57412917,-0.01370946
 ,0.03914622,0.02037511,-0.08398196,0.02819592,0.03828915,0.33139958,0.
 01037962,-0.00932424,-0.00386367,0.01294227,-0.16416422,-0.04043768,-0
 .06607104,0.53297771,0.00670875,-0.00664572,0.00010601,0.02832561,-0.0
 2830545,-0.10961233,-0.21186656,-0.00944413,0.37046178,-0.00047770,-0.
 00134024,0.00126188,-0.01751249,0.01503144,0.00125261,-0.16906322,0.00
 184845,0.09821272,0.44758569,0.00048663,-0.00493493,-0.00295806,0.0277
 8598,0.00288277,-0.01776602,-0.03894604,-0.12684915,0.02556061,0.05384
 569,0.78386022,-0.00079251,0.00363969,0.00100065,0.01308548,-0.0114149
 9,-0.01384840,0.07493869,-0.02476819,-0.08288121,-0.18748873,0.2387617
 8,0.41296545,0.00016793,0.00119645,0.00042500,0.00072242,-0.00612783,0
 .00442952,-0.03374652,0.03083796,0.03365749,-0.12604469,0.08689903,0.0
 9323375,0.26198070,-0.00090209,0.00009602,-0.00019727,-0.00338411,0.00
 370906,-0.00144829,0.02957847,0.02820892,-0.04425970,0.10543318,-0.362
 38294,-0.20468537,-0.00874695,0.59618637,-0.00052706,-0.00274718,-0.00
 151521,0.00408807,0.00604478,0.00136393,0.03924389,-0.01260736,-0.0337
 0550,0.09933456,-0.20534148,-0.21777589,-0.12418099,0.28512270,0.33169
 172,0.00031412,0.00057234,0.00021474,-0.00082374,-0.00082265,0.0004968
 8,-0.00736880,-0.00913463,0.01971885,0.01171614,-0.00150116,-0.0226045
 4,-0.11424493,-0.08020095,-0.00775819,0.36277618,0.00054007,0.00044386
 ,0.00022094,0.00044118,-0.00123950,0.00245738,-0.00450210,-0.01293818,
 0.03370777,-0.01105895,-0.06060335,-0.04884804,-0.05600402,-0.17073897
 ,-0.02758949,0.23275329,0.50147247,0.00005725,0.00083198,0.00020372,-0
 .00033322,-0.00203729,-0.00068084,-0.01244833,0.00074723,-0.00057193,-
 0.00384758,-0.03886182,-0.01151467,-0.01555276,-0.01921395,-0.10622802
 ,-0.16846027,-0.00389532,0.76434093,-0.00013122,-0.00023170,-0.0001595
 2,-0.00000785,0.00037893,-0.00064084,0.00359498,0.00456787,-0.00971467
 ,-0.01679828,0.00662722,0.02117470,-0.00339579,-0.05432498,0.00506714,
 -0.20439838,-0.15344994,0.15302615,0.26947664,-0.00015414,-0.00028324,
 -0.00003517,0.00106934,0.00119989,-0.00091587,0.00160991,0.01545748,-0
 .01186486,-0.00830286,0.01172573,0.01568671,-0.04846928,-0.03198398,0.
 01275094,-0.14929836,-0.20602537,0.12777401,0.19858044,0.31855758,-0.0
 0007934,-0.00065060,-0.00020946,0.00143074,0.00282981,0.00181950,0.017
 43033,-0.00174266,0.02092309,-0.00529928,-0.00268653,-0.01074391,0.005
 27979,0.01220455,0.01738730,0.18247972,0.15849512,-0.28637175,-0.19723
 937,-0.10520117,0.53830940,-0.00019919,-0.00050360,0.00006103,0.002449
 71,-0.00038242,0.00175839,0.01287575,0.00652584,-0.00359799,0.00753475
 ,0.00202625,0.00218300,-0.00430823,0.00850843,-0.00363131,0.00148815,0
 .00928807,0.03094995,-0.06346306,-0.01831837,-0.00696786,0.09621624,-0
 .00063353,-0.00023731,-0.00008912,-0.00650707,-0.00103013,0.00475854,-
 0.00738566,-0.06817068,0.01455758,0.02164282,-0.01325311,-0.01916122,0
 .00817384,0.01262301,0.01104037,-0.01785550,-0.00341615,0.01206629,0.0
 1400803,-0.07060229,-0.06366359,-0.06987678,0.66130929,0.00011780,0.00
 058609,0.00054494,0.00119451,0.00134484,-0.00565802,-0.01952112,0.0284
 8935,0.00063905,0.00334159,0.00180786,0.00516459,0.00040961,-0.0043110
 4,0.00860018,0.00321813,-0.00472022,-0.07831445,0.00564707,0.01125460,
 -0.18730131,-0.04279444,0.19029927,0.41062601,0.00053591,0.00194651,0.
 00008309,-0.00075088,0.00775368,-0.00895783,-0.04278087,0.01959241,0.0
 1348953,-0.01644549,-0.02434966,0.01783616,0.00353089,-0.00054858,0.00
 063443,0.00017091,-0.00641046,0.00503522,0.00475734,0.00634121,-0.0098
 5611,-0.05891491,0.06812718,0.03174899,0.15795455,0.00024035,0.0010413
 4,0.00038052,0.00562649,-0.03757696,0.01307982,0.03760473,-0.15080636,
 0.02054079,-0.05501280,0.01338436,0.05779574,0.00529775,-0.03638120,-0
 .02779837,0.02565874,0.02398314,0.01655074,-0.01680576,-0.03552798,-0.
 02204387,0.06901814,-0.50676524,-0.19203613,-0.07529568,0.78062218,-0.
 00081199,-0.00121354,-0.00063604,-0.00897710,-0.01036384,0.01372893,0.
 02572054,0.07125715,-0.13855268,0.01530077,0.01350670,-0.03734564,0.00
 333632,0.01130392,0.01189347,-0.01386439,-0.01855153,0.00059565,0.0180
 5148,-0.05230305,-0.06524812,0.01721106,-0.13929355,-0.15035204,-0.069
 17471,0.17278776,0.67748926,-0.07404077,0.06903050,0.03529340,-0.00658
 778,0.02756719,0.01494876,-0.00868772,0.00109232,0.00090858,0.00063355
 ,0.00167703,-0.00142916,-0.00057329,0.00027150,0.00112737,-0.00021937,
 -0.00030218,-0.00034350,0.00014268,0.00010986,0.00034702,0.00007915,0.
 00040866,-0.00041886,-0.00037923,-0.00083671,0.00082085,0.08021128,0.0
 7118173,-0.23396346,-0.09798503,-0.00141476,-0.00130742,-0.00008021,0.
 00093552,0.00106470,-0.00043656,-0.00038283,0.00000719,0.00084347,0.00
 011808,-0.00011026,-0.00026760,0.00001606,0.00005121,0.00013076,-0.000
 04583,-0.00002489,-0.00005184,0.00011140,0.00003434,0.00004280,-0.0004
 2035,0.00033809,-0.00017768,-0.07815252,0.25229357,0.03659439,-0.09820
 270,-0.09860306,-0.00110822,0.00292863,-0.00048132,0.00001122,-0.00041
 618,0.00147869,-0.00039291,0.00027964,0.00019574,0.00000333,-0.0000498
 9,0.00012646,-0.00006155,-0.00007186,0.00006606,0.00007102,-0.00001102
 ,-0.00020662,-0.00003098,-0.00011468,0.00013614,0.00019132,0.00020707,
 -0.00024221,-0.04053613,0.10821248,0.10237845,-0.09353690,-0.08587473,
 0.05074907,-0.01691748,-0.02795595,0.01658379,0.00267477,-0.00048372,-
 0.00138329,-0.00042459,-0.00045319,0.00045988,0.00008120,0.00043698,-0
 .00007874,-0.00004523,-0.00023080,0.00006658,-0.00003934,0.00005922,-0
 .00015107,0.00000931,0.00058664,-0.00010208,-0.00019703,-0.00027110,0.
 00080508,0.00442699,0.00836890,-0.00591601,0.10485652,-0.08775239,-0.2
 0845818,0.09530347,0.00211729,0.00168883,-0.00193806,-0.00046702,0.001
 42567,-0.00049051,0.00016528,0.00024630,-0.00013467,-0.00005566,0.0000
 3157,0.00009279,-0.00003268,-0.00011162,-0.00005522,-0.00000611,0.0000
 6850,0.00012226,0.00010335,-0.00000913,-0.00024536,-0.00029452,0.00015
 637,0.00057522,-0.01149260,-0.02001279,0.01321810,0.09612721,0.2236642
 1,0.05108638,0.09540915,-0.10383241,-0.00125773,-0.00307570,0.00096032
 ,-0.00001518,0.00009802,-0.00010534,0.00003761,-0.00005714,-0.00018197
 ,-0.00004714,-0.00007558,0.00004517,0.00009173,0.00013781,-0.00004858,
 -0.00002210,-0.00009702,-0.00006452,-0.00013252,-0.00007716,-0.0001112
 3,0.00033466,-0.00000249,0.00041284,-0.00720466,-0.01165750,0.00662492
 ,-0.05575485,-0.10479210,0.10786334,-0.06768341,0.00059415,-0.07040752
 ,-0.01236493,-0.00022169,-0.03513581,0.00322859,-0.00104135,0.00093241
 ,-0.00022561,-0.00015956,0.00001643,0.00001879,0.00007590,0.00006963,-
 0.00006691,-0.00004578,0.00003150,0.00002302,-0.00002307,-0.00013946,0
 .00006297,0.00005767,0.00018295,0.00003130,0.00023111,-0.00028089,0.00
 259520,-0.00117716,0.01055736,0.00378870,0.00086300,0.01349436,0.07590
 574,-0.00020813,-0.04754072,0.00112549,0.00092545,-0.00109587,0.001221
 99,-0.00112889,0.00050869,0.00049530,0.00057382,0.00015125,-0.00020312
 ,-0.00017875,0.00008470,0.00012847,0.00002876,-0.00002765,-0.00008170,
 -0.00006220,0.00000532,-0.00000645,-0.00001831,0.00015256,-0.00005868,
 0.00006847,-0.00038951,0.00053607,-0.00877209,0.00107848,-0.02605120,0
 .00801184,0.00013204,0.02478746,0.00047117,0.04581747,-0.07297412,0.00
 141800,-0.29370150,0.00010184,-0.00073728,-0.00154283,0.00022473,0.000
 59792,0.00150747,0.00005878,0.00018665,-0.00016822,-0.00008034,0.00013
 505,0.00018314,-0.00007964,-0.00011131,-0.00000926,0.00008656,0.000006
 11,0.00000362,-0.00000406,0.00007266,0.00002353,-0.00015122,-0.0000790
 9,-0.00018928,-0.00329556,0.00126660,-0.01169637,-0.00390370,-0.000985
 63,-0.01336100,0.08038530,-0.00123780,0.31668455,-0.01194784,0.0010920
 2,-0.03375795,-0.06993549,-0.00156763,-0.06833174,0.00345921,0.0041787
 9,0.01593157,0.00200996,0.00114496,0.00011934,-0.00091267,0.00059483,0
 .00026856,-0.00015260,-0.00045018,-0.00000749,0.00015025,0.00006132,-0
 .00029386,-0.00024286,0.00055844,0.00041832,0.00011269,-0.00173769,0.0
 0046783,0.00115881,0.00036541,0.00046726,0.00172821,-0.00060550,0.0004
 4099,-0.00693758,0.00039290,0.00007697,0.07742892,-0.00053616,0.001352
 50,0.00162549,-0.00188171,-0.05142771,0.00408731,0.00075279,-0.0099404
 1,-0.03228653,-0.00547520,-0.00195127,0.00030158,0.00227317,-0.0016906
 3,-0.00073701,0.00027838,0.00115962,0.00037301,-0.00077272,-0.00027154
 ,-0.00008406,0.00108319,0.00004985,0.00076488,-0.00028616,0.00250300,-
 0.00536807,-0.00012879,0.00013306,0.00007721,0.00028316,0.00016712,-0.
 00068532,0.00066296,0.00102504,-0.00036633,-0.00397641,0.05668650,-0.0
 0110516,0.00098753,-0.00167228,-0.06727794,0.00099604,-0.26906114,0.00
 420929,-0.01075503,-0.01581012,-0.00420651,-0.00159911,-0.00020006,0.0
 0164589,-0.00104273,-0.00054837,0.00021955,0.00056141,0.00030322,0.000
 06361,0.00026581,-0.00059006,-0.00000965,-0.00053071,0.00144897,0.0006
 5972,0.00425609,-0.00064802,-0.00071005,0.00033201,0.00016460,-0.00008
 685,-0.00022886,0.00056061,-0.00002295,0.00007344,0.00152432,0.0717166
 6,0.00771780,0.29761174,-0.01644469,-0.02637935,0.01676074,-0.09215879
 ,-0.08757686,0.05319801,0.00377890,0.01065182,-0.00623599,0.00036370,0
 .00345234,0.00106030,0.00009786,-0.00049878,-0.00067333,-0.00003360,0.
 00020418,0.00016640,0.00000391,-0.00026677,0.00016356,0.00015940,0.000
 67559,-0.00057421,-0.00120849,0.00257364,0.00142431,0.00122996,0.00046
 967,0.00016639,-0.00654211,0.00117589,-0.00094474,0.00173318,-0.000014
 67,-0.00043209,0.00436811,0.00772110,-0.00478948,0.10515988,0.00054871
 ,0.00311595,-0.00103461,-0.08077522,-0.20236540,0.09116675,-0.00720495
 ,-0.03022846,0.01278543,-0.00396505,-0.00047121,0.00303370,0.00082433,
 0.00090165,-0.00027349,-0.00025254,-0.00041036,0.00021142,-0.00008118,
 0.00068641,0.00020273,0.00038705,-0.00180387,0.00147592,0.00035185,-0.
 00241101,-0.00615904,-0.00046584,0.00043489,-0.00003376,0.00111975,0.0
 0108733,0.00004791,-0.00017906,0.00008839,-0.00013331,0.00044733,0.001
 75154,0.00025894,0.08773407,0.22858614,-0.00186927,-0.00249801,0.00165
 281,0.05289790,0.10045380,-0.11175687,-0.00521776,-0.01620158,0.007281
 64,0.00055568,-0.00126910,0.00040982,-0.00034102,-0.00016518,0.0000028
 5,0.00006795,-0.00001218,-0.00001673,-0.00007290,0.00030781,-0.0000782
 2,-0.00004778,-0.00112182,0.00146932,0.00103367,-0.00034234,-0.0030536
 5,0.00049762,-0.00000713,-0.00001413,-0.00077377,-0.00035420,0.0012013
 2,0.00025942,-0.00065139,0.00070762,0.01270737,0.02337208,-0.01341558,
 -0.05961859,-0.10103337,0.11480886,-0.00001978,0.00053474,-0.00027793,
 0.00081441,-0.00342254,0.00038575,-0.01009242,-0.02219771,0.00864803,-
 0.12371593,-0.11507628,-0.00576950,0.01225121,0.01355299,-0.00054042,0
 .00305049,-0.00366256,0.00830365,-0.00264734,0.00193835,-0.00314989,0.
 00319047,-0.00011077,0.00186044,-0.00494567,-0.00029170,-0.00059122,-0
 .00005570,0.00002776,-0.00000355,0.00027950,0.00003964,-0.00001162,0.0
 0000082,-0.00003541,-0.00000253,-0.00026178,0.00020987,0.00013084,-0.0
 0044380,0.00140457,-0.00013796,0.12238639,-0.00004408,0.00041484,0.000
 03037,0.00245855,0.00024502,-0.00041448,-0.00672698,-0.00230574,-0.000
 92326,-0.11293215,-0.23778647,-0.01194843,-0.00934747,-0.02616227,-0.0
 1097114,0.00051075,0.00364291,-0.00362451,-0.00018008,-0.00228828,0.00
 089280,-0.00043853,-0.00001885,0.00007769,0.00002731,0.00146029,-0.001
 67451,-0.00013071,0.00005403,0.00001921,0.00022513,-0.00010822,-0.0000
 1970,0.00003634,-0.00004832,0.00001110,-0.00014291,0.00059295,0.000135
 00,0.00024912,0.00090719,-0.00012860,0.12659583,0.26230917,0.00006104,
 -0.00046700,0.00003725,-0.00112284,0.00290305,0.00025269,0.02308463,0.
 01617051,-0.00223164,-0.01180853,-0.01156699,-0.04484328,-0.00459954,-
 0.02567274,-0.01035339,0.00536313,-0.00646491,0.00981633,-0.00406971,0
 .00010023,-0.00253233,0.00148039,0.00202524,0.00035090,0.00147767,-0.0
 0510022,0.00349110,0.00008562,-0.00007971,-0.00000783,-0.00016164,-0.0
 0007364,0.00004345,-0.00007794,0.00003799,-0.00001276,0.00002273,-0.00
 012655,-0.00048797,0.00020535,-0.00054777,0.00019524,-0.00897464,0.028
 38135,0.04686309,-0.00000937,-0.00008225,-0.00006828,0.00041493,0.0001
 6176,0.00005399,0.00268068,0.00020039,0.00029161,-0.00133871,-0.003187
 97,-0.00214201,0.00186641,-0.01231094,-0.01581397,-0.04959096,-0.00245
 978,0.00496883,-0.00180120,0.00992462,0.02057310,0.00729581,-0.0075528
 3,0.00537379,-0.00064479,-0.00273844,-0.00147233,0.00004849,0.00000470
 ,-0.00002147,0.00006573,0.00000536,-0.00001456,-0.00002285,0.00001444,
 -0.00001375,-0.00003442,-0.00007362,-0.00004036,-0.00000699,0.00013886
 ,-0.00001705,0.00044737,-0.00013707,-0.00044749,0.04205504,-0.00004261
 ,-0.00007122,-0.00009714,0.00007261,0.00024312,0.00010397,0.00021026,0
 .00191325,-0.00268490,-0.00605014,-0.00087737,0.00208691,-0.00608173,-
 0.01588141,-0.02821516,0.00143304,-0.07105184,-0.08993660,-0.00215678,
 -0.00136303,0.02254462,-0.00745018,0.00807187,0.00186585,0.00016223,-0
 .00356019,0.00304024,0.00004864,-0.00001893,0.00001074,0.00000443,0.00
 000822,0.00000535,0.00001287,0.00000036,0.00001604,0.00001792,-0.00006
 624,-0.00005227,-0.00003678,0.00004143,-0.00001039,0.00094757,-0.00107
 124,0.00052508,0.01772208,0.08290332,-0.00002801,-0.00003766,-0.000062
 36,-0.00007687,0.00025785,0.00021535,0.00119696,-0.00082011,0.00071166
 ,-0.00170459,0.00105909,-0.00012838,0.00071641,-0.00673907,-0.00132245
 ,0.00128156,-0.08494572,-0.29095521,0.00641947,0.00163669,-0.02842493,
 0.00411069,-0.00169091,0.00289008,-0.00032395,0.00131553,-0.00148121,0
 .00004184,-0.00000887,-0.00000691,0.00000365,0.00000606,-0.00000294,0.
 00000173,-0.00000508,0.00001267,0.00000759,-0.00000237,-0.00006007,0.0
 0000161,-0.00002822,0.00000175,-0.00000602,-0.00005687,-0.00041388,-0.
 01100246,0.09057606,0.31929094,0.00006269,0.00011107,-0.00025890,-0.00
 032810,0.00102761,0.00005428,0.00573852,-0.00388929,0.00597336,0.00220
 293,-0.00027126,-0.00388125,0.00250870,0.00246510,0.00337037,-0.002571
 49,-0.00465004,-0.00161240,0.01453363,0.00513856,-0.00452802,-0.004233
 45,-0.00431674,0.00989752,-0.04082624,0.00673894,0.01203438,0.00001777
 ,-0.00000579,0.00000854,-0.00020825,0.00010947,-0.00008063,-0.00008702
 ,-0.00006840,0.00000283,0.00000909,-0.00013383,-0.00039661,-0.00005645
 ,-0.00003267,0.00007645,-0.00023825,-0.00002305,-0.00051823,-0.0014251
 7,0.00118659,-0.00063962,0.02490108,0.00013160,-0.00019461,-0.00041070
 ,-0.00086077,0.00241412,0.00458520,-0.00560112,-0.00682897,0.02969413,
 0.00597954,-0.00314803,-0.00098552,-0.00060892,0.00349037,0.00136822,-
 0.00215289,-0.00419022,-0.00097904,0.00395479,0.00066971,-0.00116112,-
 0.00006352,-0.01693418,-0.03663775,0.00323458,-0.05007033,-0.03790225,
 0.00007574,-0.00005181,-0.00000178,0.00004622,0.00002379,0.00005404,-0
 .00015750,0.00005776,-0.00005940,-0.00037359,-0.00007338,-0.00137536,-
 0.00013421,0.00008940,-0.00033838,-0.00045438,0.00016299,-0.00004391,0
 .00037071,0.00077990,-0.00051640,-0.00338628,0.07380350,-0.00003610,0.
 00031271,0.00002130,0.00130663,-0.00207114,0.00059326,0.00434441,0.003
 69641,-0.01963866,-0.00460809,0.00094391,-0.00010461,0.00166468,-0.000
 90539,0.00015462,-0.00032366,-0.00036983,-0.00061445,0.00231192,0.0006
 4524,0.00332832,-0.00053793,-0.00907717,-0.01015669,0.01593936,-0.0395
 1156,-0.30986235,-0.00013315,-0.00007598,0.00008739,-0.00035605,-0.000
 01964,-0.00000398,0.00013348,-0.00011079,0.00003432,-0.00025415,0.0013
 3688,0.00088022,0.00012175,0.00006077,0.00060395,0.00013657,0.00021398
 ,-0.00016698,-0.00020759,0.00022160,-0.00026412,-0.01950208,0.04471002
 ,0.33510847\\0.00000102,-0.00000053,0.00000002,-0.00000420,0.00000277,
 0.00000217,0.00000453,-0.00000141,-0.00000422,-0.00000305,0.00000052,0
 .00000283,-0.00000144,-0.00000199,-0.00000206,0.00000379,0.00000389,0.
 00000132,-0.00000152,-0.00000272,-0.00000584,-0.00000012,0.00000283,0.
 00000435,0.00000072,-0.00000064,-0.00000055,-0.00000080,0.00000032,0.0
 0000006,0.00000017,0.00000025,-0.00000011,0.00000040,-0.00000005,-0.00
 000009,-0.00000081,0.00000008,0.00000038,-0.00000025,-0.00000159,0.000
 00083,0.00000081,-0.00000141,0.00000036,0.00000057,0.00000001,0.000000
 34,0.00000019,-0.00000034,0.00000020\\\@


 REALITY IS FOR PEOPLE WHO CAN'T FACE SCIENCE FICTION.
 Job cpu time:       0 days  1 hours 41 minutes  1.3 seconds.
 Elapsed time:       0 days  0 hours 25 minutes 16.0 seconds.
 File lengths (MBytes):  RWF=    117 Int=      0 D2E=      0 Chk=      8 Scr=      1
 Normal termination of Gaussian 16 at Fri Aug  5 11:12:18 2022.
### All Done ###
