### Starting Gaussian ###
 Entering Gaussian System, Link 0=g16
 Initial command:
 /cluster/software/gaussian/gaussian-16-A.03/avx2/g16/l1.exe "/local/scratch/ks29c/Gau-26651.inp" -scrdir="/local/scratch/ks29c/"
 Entering Link 1 = /cluster/software/gaussian/gaussian-16-A.03/avx2/g16/l1.exe PID=     26652.
  
 Copyright (c) 1988,1990,1992,1993,1995,1998,2003,2009,2016,
            Gaussian, Inc.  All Rights Reserved.
  
 This is part of the Gaussian(R) 16 program.  It is based on
 the Gaussian(R) 09 system (copyright 2009, Gaussian, Inc.),
 the Gaussian(R) 03 system (copyright 2003, Gaussian, Inc.),
 the Gaussian(R) 98 system (copyright 1998, Gaussian, Inc.),
 the Gaussian(R) 94 system (copyright 1995, Gaussian, Inc.),
 the Gaussian 92(TM) system (copyright 1992, Gaussian, Inc.),
 the Gaussian 90(TM) system (copyright 1990, Gaussian, Inc.),
 the Gaussian 88(TM) system (copyright 1988, Gaussian, Inc.),
 the Gaussian 86(TM) system (copyright 1986, Carnegie Mellon
 University), and the Gaussian 82(TM) system (copyright 1983,
 Carnegie Mellon University). Gaussian is a federally registered
 trademark of Gaussian, Inc.
  
 This software contains proprietary and confidential information,
 including trade secrets, belonging to Gaussian, Inc.
  
 This software is provided under written license and may be
 used, copied, transmitted, or stored only in accord with that
 written license.
  
 The following legend is applicable only to US Government
 contracts under FAR:
  
                    RESTRICTED RIGHTS LEGEND
  
 Use, reproduction and disclosure by the US Government is
 subject to restrictions as set forth in subparagraphs (a)
 and (c) of the Commercial Computer Software - Restricted
 Rights clause in FAR 52.227-19.
  
 Gaussian, Inc.
 340 Quinnipiac St., Bldg. 40, Wallingford CT 06492
  
  
 ---------------------------------------------------------------
 Warning -- This program may not be used in any manner that
 competes with the business of Gaussian, Inc. or will provide
 assistance to any competitor of Gaussian, Inc.  The licensee
 of this program is prohibited from giving any competitor of
 Gaussian, Inc. access to this program.  By using this program,
 the user acknowledges that Gaussian, Inc. is engaged in the
 business of creating and licensing software in the field of
 computational chemistry and represents and warrants to the
 licensee that it is not a competitor of Gaussian, Inc. and that
 it will not use this program in any manner prohibited above.
 ---------------------------------------------------------------
  

 Cite this work as:
 Gaussian 16, Revision A.03,
 M. J. Frisch, G. W. Trucks, H. B. Schlegel, G. E. Scuseria, 
 M. A. Robb, J. R. Cheeseman, G. Scalmani, V. Barone, 
 G. A. Petersson, H. Nakatsuji, X. Li, M. Caricato, A. V. Marenich, 
 J. Bloino, B. G. Janesko, R. Gomperts, B. Mennucci, H. P. Hratchian, 
 J. V. Ortiz, A. F. Izmaylov, J. L. Sonnenberg, D. Williams-Young, 
 F. Ding, F. Lipparini, F. Egidi, J. Goings, B. Peng, A. Petrone, 
 T. Henderson, D. Ranasinghe, V. G. Zakrzewski, J. Gao, N. Rega, 
 G. Zheng, W. Liang, M. Hada, M. Ehara, K. Toyota, R. Fukuda, 
 J. Hasegawa, M. Ishida, T. Nakajima, Y. Honda, O. Kitao, H. Nakai, 
 T. Vreven, K. Throssell, J. A. Montgomery, Jr., J. E. Peralta, 
 F. Ogliaro, M. J. Bearpark, J. J. Heyd, E. N. Brothers, K. N. Kudin, 
 V. N. Staroverov, T. A. Keith, R. Kobayashi, J. Normand, 
 K. Raghavachari, A. P. Rendell, J. C. Burant, S. S. Iyengar, 
 J. Tomasi, M. Cossi, J. M. Millam, M. Klene, C. Adamo, R. Cammi, 
 J. W. Ochterski, R. L. Martin, K. Morokuma, O. Farkas, 
 J. B. Foresman, and D. J. Fox, Gaussian, Inc., Wallingford CT, 2016.
 
 ******************************************
 Gaussian 16:  ES64L-G16RevA.03 25-Dec-2016
                 3-Jul-2022 
 ******************************************
 %chk=CCNOCCpdNpCdO.chk
 %NProcShared=20
 Will use up to   20 processors via shared memory.
 -----------------------------
 # opt freq b3lyp/6-31g(2df,p)
 -----------------------------
 1/18=20,19=15,26=3,38=1/1,3;
 2/9=110,12=2,17=6,18=5,40=1/2;
 3/5=1,6=6,7=104,11=2,25=1,30=1,71=1,74=-5/1,2,3;
 4//1;
 5/5=2,38=5/2;
 6/7=2,8=2,9=2,10=2,28=1/1;
 7//1,2,3,16;
 1/18=20,19=15,26=3/3(2);
 2/9=110/2;
 99//99;
 2/9=110/2;
 3/5=1,6=6,7=104,11=2,25=1,30=1,71=1,74=-5/1,2,3;
 4/5=5,16=3,69=1/1;
 5/5=2,38=5/2;
 7//1,2,3,16;
 1/18=20,19=15,26=3/3(-5);
 2/9=110/2;
 6/7=2,8=2,9=2,10=2,19=2,28=1/1;
 99/9=1/99;
 -------------------
 Title Card Required
 -------------------
 Symbolic Z-matrix:
 Charge =  0 Multiplicity = 1
 C                     1.08795  -0.03665  -0.02561 
 C                     2.60769  -0.05914   0.00656 
 N                     3.03371  -1.12964   0.91619 
 O                     4.48765  -1.15886   0.81382 
 C                     4.99691  -2.12525   1.73472 
 C                     6.50831  -2.07882   1.69847 
 N                     7.18409  -1.2346    0.97976 
 C                     7.22948  -3.09725   2.56082 
 O                     8.44797  -3.16836   2.61212 
 H                     0.72711   0.74951  -0.69571 
 H                     0.67918   0.1524    0.97273 
 H                     0.68851  -0.99292  -0.38206 
 H                     2.98464   0.91238   0.3446 
 H                     2.99023  -0.2399   -1.00573 
 H                     2.75907  -2.01278   0.48022 
 H                     4.66531  -3.12211   1.42251 
 H                     4.6481   -1.91768   2.7527 
 H                     6.53393  -0.62333   0.4675 
 H                     6.57139  -3.76969   3.13061 
 

 GradGradGradGradGradGradGradGradGradGradGradGradGradGradGradGradGradGrad
 Berny optimization.
 Initialization pass.
                           ----------------------------
                           !    Initial Parameters    !
                           ! (Angstroms and Degrees)  !
 --------------------------                            --------------------------
 ! Name  Definition              Value          Derivative Info.                !
 --------------------------------------------------------------------------------
 ! R1    R(1,2)                  1.5202         estimate D2E/DX2                !
 ! R2    R(1,10)                 1.0942         estimate D2E/DX2                !
 ! R3    R(1,11)                 1.0952         estimate D2E/DX2                !
 ! R4    R(1,12)                 1.0959         estimate D2E/DX2                !
 ! R5    R(2,3)                  1.468          estimate D2E/DX2                !
 ! R6    R(2,13)                 1.0955         estimate D2E/DX2                !
 ! R7    R(2,14)                 1.0972         estimate D2E/DX2                !
 ! R8    R(3,4)                  1.4578         estimate D2E/DX2                !
 ! R9    R(3,15)                 1.0225         estimate D2E/DX2                !
 ! R10   R(4,5)                  1.4287         estimate D2E/DX2                !
 ! R11   R(5,6)                  1.5125         estimate D2E/DX2                !
 ! R12   R(5,16)                 1.096          estimate D2E/DX2                !
 ! R13   R(5,17)                 1.0959         estimate D2E/DX2                !
 ! R14   R(6,7)                  1.2984         estimate D2E/DX2                !
 ! R15   R(6,8)                  1.5169         estimate D2E/DX2                !
 ! R16   R(7,18)                 1.029          estimate D2E/DX2                !
 ! R17   R(8,9)                  1.2216         estimate D2E/DX2                !
 ! R18   R(8,19)                 1.1            estimate D2E/DX2                !
 ! A1    A(2,1,10)             110.6863         estimate D2E/DX2                !
 ! A2    A(2,1,11)             110.8774         estimate D2E/DX2                !
 ! A3    A(2,1,12)             110.9976         estimate D2E/DX2                !
 ! A4    A(10,1,11)            108.1276         estimate D2E/DX2                !
 ! A5    A(10,1,12)            107.9109         estimate D2E/DX2                !
 ! A6    A(11,1,12)            108.1231         estimate D2E/DX2                !
 ! A7    A(1,2,3)              108.3015         estimate D2E/DX2                !
 ! A8    A(1,2,13)             109.7168         estimate D2E/DX2                !
 ! A9    A(1,2,14)             109.3576         estimate D2E/DX2                !
 ! A10   A(3,2,13)             110.8323         estimate D2E/DX2                !
 ! A11   A(3,2,14)             110.5115         estimate D2E/DX2                !
 ! A12   A(13,2,14)            108.1091         estimate D2E/DX2                !
 ! A13   A(2,3,4)              105.1022         estimate D2E/DX2                !
 ! A14   A(2,3,15)             106.7207         estimate D2E/DX2                !
 ! A15   A(4,3,15)             102.7463         estimate D2E/DX2                !
 ! A16   A(3,4,5)              108.8919         estimate D2E/DX2                !
 ! A17   A(4,5,6)              108.6604         estimate D2E/DX2                !
 ! A18   A(4,5,16)             108.8906         estimate D2E/DX2                !
 ! A19   A(4,5,17)             110.9256         estimate D2E/DX2                !
 ! A20   A(6,5,16)             108.8702         estimate D2E/DX2                !
 ! A21   A(6,5,17)             109.5414         estimate D2E/DX2                !
 ! A22   A(16,5,17)            109.9125         estimate D2E/DX2                !
 ! A23   A(5,6,7)              123.5928         estimate D2E/DX2                !
 ! A24   A(5,6,8)              116.1571         estimate D2E/DX2                !
 ! A25   A(7,6,8)              120.2496         estimate D2E/DX2                !
 ! A26   A(6,7,18)             109.4485         estimate D2E/DX2                !
 ! A27   A(6,8,9)              122.4903         estimate D2E/DX2                !
 ! A28   A(6,8,19)             114.8656         estimate D2E/DX2                !
 ! A29   A(9,8,19)             122.643          estimate D2E/DX2                !
 ! D1    D(10,1,2,3)          -179.9288         estimate D2E/DX2                !
 ! D2    D(10,1,2,13)           58.9771         estimate D2E/DX2                !
 ! D3    D(10,1,2,14)          -59.4395         estimate D2E/DX2                !
 ! D4    D(11,1,2,3)            60.0735         estimate D2E/DX2                !
 ! D5    D(11,1,2,13)          -61.0205         estimate D2E/DX2                !
 ! D6    D(11,1,2,14)         -179.4372         estimate D2E/DX2                !
 ! D7    D(12,1,2,3)           -60.1245         estimate D2E/DX2                !
 ! D8    D(12,1,2,13)          178.7815         estimate D2E/DX2                !
 ! D9    D(12,1,2,14)           60.3648         estimate D2E/DX2                !
 ! D10   D(1,2,3,4)            175.6559         estimate D2E/DX2                !
 ! D11   D(1,2,3,15)            67.012          estimate D2E/DX2                !
 ! D12   D(13,2,3,4)           -63.9427         estimate D2E/DX2                !
 ! D13   D(13,2,3,15)         -172.5866         estimate D2E/DX2                !
 ! D14   D(14,2,3,4)            55.8878         estimate D2E/DX2                !
 ! D15   D(14,2,3,15)          -52.7562         estimate D2E/DX2                !
 ! D16   D(2,3,4,5)            176.4905         estimate D2E/DX2                !
 ! D17   D(15,3,4,5)           -72.005          estimate D2E/DX2                !
 ! D18   D(3,4,5,6)           -175.8497         estimate D2E/DX2                !
 ! D19   D(3,4,5,16)            65.7019         estimate D2E/DX2                !
 ! D20   D(3,4,5,17)           -55.3783         estimate D2E/DX2                !
 ! D21   D(4,5,6,7)              3.0713         estimate D2E/DX2                !
 ! D22   D(4,5,6,8)           -176.6699         estimate D2E/DX2                !
 ! D23   D(16,5,6,7)           121.5325         estimate D2E/DX2                !
 ! D24   D(16,5,6,8)           -58.2086         estimate D2E/DX2                !
 ! D25   D(17,5,6,7)          -118.2527         estimate D2E/DX2                !
 ! D26   D(17,5,6,8)            62.0061         estimate D2E/DX2                !
 ! D27   D(5,6,7,18)             0.4792         estimate D2E/DX2                !
 ! D28   D(8,6,7,18)          -179.7898         estimate D2E/DX2                !
 ! D29   D(5,6,8,9)            179.5231         estimate D2E/DX2                !
 ! D30   D(5,6,8,19)            -0.1164         estimate D2E/DX2                !
 ! D31   D(7,6,8,9)             -0.2273         estimate D2E/DX2                !
 ! D32   D(7,6,8,19)          -179.8668         estimate D2E/DX2                !
 --------------------------------------------------------------------------------
 Trust Radius=3.00D-01 FncErr=1.00D-07 GrdErr=1.00D-06 EigMax=2.50D+02 EigMin=1.00D-04
 Number of steps in this run=     89 maximum allowed number of steps=    114.
 GradGradGradGradGradGradGradGradGradGradGradGradGradGradGradGradGradGrad

                          Input orientation:                          
 ---------------------------------------------------------------------
 Center     Atomic      Atomic             Coordinates (Angstroms)
 Number     Number       Type             X           Y           Z
 ---------------------------------------------------------------------
      1          6           0        1.087950   -0.036650   -0.025610
      2          6           0        2.607690   -0.059140    0.006560
      3          7           0        3.033710   -1.129640    0.916190
      4          8           0        4.487650   -1.158860    0.813820
      5          6           0        4.996910   -2.125250    1.734720
      6          6           0        6.508310   -2.078820    1.698470
      7          7           0        7.184090   -1.234600    0.979760
      8          6           0        7.229480   -3.097250    2.560820
      9          8           0        8.447970   -3.168360    2.612120
     10          1           0        0.727110    0.749510   -0.695710
     11          1           0        0.679180    0.152400    0.972730
     12          1           0        0.688510   -0.992920   -0.382060
     13          1           0        2.984640    0.912380    0.344600
     14          1           0        2.990230   -0.239900   -1.005730
     15          1           0        2.759070   -2.012780    0.480220
     16          1           0        4.665310   -3.122110    1.422510
     17          1           0        4.648100   -1.917680    2.752700
     18          1           0        6.533930   -0.623330    0.467500
     19          1           0        6.571390   -3.769690    3.130610
 ---------------------------------------------------------------------
                    Distance matrix (angstroms):
                    1          2          3          4          5
     1  C    0.000000
     2  C    1.520247   0.000000
     3  N    2.422312   1.467954   0.000000
     4  O    3.677222   2.322779   1.457832   0.000000
     5  C    4.768750   3.600517   2.348486   1.428745   0.000000
     6  C    6.043444   4.707069   3.685885   2.389979   1.512547
     7  N    6.293550   4.824133   4.152194   2.702603   2.479310
     8  C    7.333163   6.092233   4.917396   3.785102   2.571302
     9  O    8.422299   7.110912   6.028828   4.791253   3.710488
    10  H    1.094206   2.164181   3.383760   4.479087   5.692313
    11  H    1.095224   2.167345   2.681536   4.031017   4.940760
    12  H    1.095929   2.169383   2.684047   3.986368   4.932062
    13  H    2.152939   1.095543   2.121077   2.601777   3.899854
    14  H    2.149562   1.097152   2.118326   2.529331   3.884762
    15  H    2.636967   2.015931   1.022464   1.956644   2.567946
    16  H    4.941115   3.952278   2.624579   2.063109   1.095976
    17  H    4.892029   3.893421   2.569053   2.088255   1.095918
    18  H    5.499641   3.993261   3.564998   2.143360   2.494803
    19  H    7.346116   6.264087   4.938492   4.065209   2.670520
                    6          7          8          9         10
     6  C    0.000000
     7  N    1.298434   0.000000
     8  C    1.516883   2.443619   0.000000
     9  O    2.405023   2.828678   1.221641   0.000000
    10  H    6.866864   6.959632   8.226990   9.268394   0.000000
    11  H    6.283613   6.651141   7.482559   8.606343   1.772718
    12  H    6.275178   6.641199   7.474827   8.596911   1.770855
    13  H    4.816274   4.759026   6.245593   7.186241   2.491027
    14  H    4.803250   4.745531   6.233456   7.172980   2.489329
    15  H    3.942752   4.520609   5.048716   6.184169   3.625178
    16  H    2.135710   3.178518   2.805590   3.965580   5.914872
    17  H    2.144236   3.168779   2.844596   4.002871   5.863412
    18  H    1.906409   1.028965   3.314522   3.839287   6.079219
    19  H    2.216765   3.380568   1.099963   2.037641   8.319826
                   11         12         13         14         15
    11  H    0.000000
    12  H    1.774063   0.000000
    13  H    2.507441   3.070898   0.000000
    14  H    3.067435   2.500784   1.775154   0.000000
    15  H    3.042452   2.463912   2.936977   2.324777   0.000000
    16  H    5.178219   4.858483   4.501517   4.124243   2.398390
    17  H    4.817245   5.134224   4.071276   4.437260   2.956627
    18  H    5.927488   5.918385   3.869234   3.856843   4.022475
    19  H    7.399823   7.393076   6.522914   6.511024   4.964382
                   16         17         18         19
    16  H    0.000000
    17  H    1.794534   0.000000
    18  H    3.263079   3.233239   0.000000
    19  H    2.640096   2.696628   4.122274   0.000000
 Stoichiometry    C5H10N2O2
 Framework group  C1[X(C5H10N2O2)]
 Deg. of freedom    51
 Full point group                 C1      NOp   1
 Largest Abelian subgroup         C1      NOp   1
 Largest concise Abelian subgroup C1      NOp   1
                         Standard orientation:                         
 ---------------------------------------------------------------------
 Center     Atomic      Atomic             Coordinates (Angstroms)
 Number     Number       Type             X           Y           Z
 ---------------------------------------------------------------------
      1          6           0        4.262309   -0.221715   -0.037293
      2          6           0        2.924478    0.500291   -0.029067
      3          7           0        1.856894   -0.507030   -0.050465
      4          8           0        0.617045    0.251017    0.065357
      5          6           0       -0.487098   -0.650737   -0.029619
      6          6           0       -1.769581    0.150968   -0.012147
      7          7           0       -1.805301    1.448552    0.018358
      8          6           0       -3.058397   -0.648836   -0.026227
      9          8           0       -4.159314   -0.119714   -0.005786
     10          1           0        5.088637    0.495354   -0.020565
     11          1           0        4.366308   -0.840603   -0.934888
     12          1           0        4.362835   -0.872300    0.838889
     13          1           0        2.855172    1.160040   -0.900927
     14          1           0        2.850876    1.119353    0.873755
     15          1           0        1.902390   -1.002906    0.842547
     16          1           0       -0.475055   -1.319158    0.838846
     17          1           0       -0.434479   -1.238027   -0.953394
     18          1           0       -0.844865    1.817781    0.019981
     19          1           0       -2.925094   -1.740435   -0.049942
 ---------------------------------------------------------------------
 Rotational constants (GHZ):           7.3379720           0.5331530           0.5026421
 Standard basis: 6-31G(2df,p) (6D, 7F)
 There are   329 symmetry adapted cartesian basis functions of A   symmetry.
 There are   302 symmetry adapted basis functions of A   symmetry.
   302 basis functions,   466 primitive gaussians,   329 cartesian basis functions
    35 alpha electrons       35 beta electrons
       nuclear repulsion energy       432.1565930124 Hartrees.
 NAtoms=   19 NActive=   19 NUniq=   19 SFac= 1.00D+00 NAtFMM=   60 NAOKFM=F Big=F
 Integral buffers will be    131072 words long.
 Raffenetti 2 integral format.
 Two-electron integral symmetry is turned on.
 One-electron integrals computed using PRISM.
 PrsmSu:  requested number of processors reduced to:  13 ShMem   1 Linda.
 NBasis=   302 RedAO= T EigKep=  3.51D-04  NBF=   302
 NBsUse=   302 1.00D-06 EigRej= -1.00D+00 NBFU=   302
 ExpMin= 1.61D-01 ExpMax= 5.48D+03 ExpMxC= 8.25D+02 IAcc=3 IRadAn=         5 AccDes= 0.00D+00
 Harris functional with IExCor=  402 and IRadAn=       5 diagonalized for initial guess.
 HarFok:  IExCor=  402 AccDes= 0.00D+00 IRadAn=         5 IDoV= 1 UseB2=F ITyADJ=14
 ICtDFT=  3500011 ScaDFX=  1.000000  1.000000  1.000000  1.000000
 FoFCou: FMM=F IPFlag=           0 FMFlag=      100000 FMFlg1=           0
         NFxFlg=           0 DoJE=T BraDBF=F KetDBF=T FulRan=T
         wScrn=  0.000000 ICntrl=       500 IOpCl=  0 I1Cent=   200000004 NGrid=           0
         NMat0=    1 NMatS0=      1 NMatT0=    0 NMatD0=    1 NMtDS0=    0 NMtDT0=    0
 Petite list used in FoFCou.
 Requested convergence on RMS density matrix=1.00D-08 within 128 cycles.
 Requested convergence on MAX density matrix=1.00D-06.
 Requested convergence on             energy=1.00D-06.
 No special actions if energy rises.
 Integral accuracy reduced to 1.0D-05 until final iterations.
 Initial convergence to 1.0D-05 achieved.  Increase integral accuracy.
 SCF Done:  E(RB3LYP) =  -456.425371209     A.U. after   14 cycles
            NFock= 14  Conv=0.48D-08     -V/T= 2.0075

 **********************************************************************

            Population analysis using the SCF density.

 **********************************************************************

 Orbital symmetries:
       Occupied  (A) (A) (A) (A) (A) (A) (A) (A) (A) (A) (A) (A)
                 (A) (A) (A) (A) (A) (A) (A) (A) (A) (A) (A) (A)
                 (A) (A) (A) (A) (A) (A) (A) (A) (A) (A) (A)
       Virtual   (A) (A) (A) (A) (A) (A) (A) (A) (A) (A) (A) (A)
                 (A) (A) (A) (A) (A) (A) (A) (A) (A) (A) (A) (A)
                 (A) (A) (A) (A) (A) (A) (A) (A) (A) (A) (A) (A)
                 (A) (A) (A) (A) (A) (A) (A) (A) (A) (A) (A) (A)
                 (A) (A) (A) (A) (A) (A) (A) (A) (A) (A) (A) (A)
                 (A) (A) (A) (A) (A) (A) (A) (A) (A) (A) (A) (A)
                 (A) (A) (A) (A) (A) (A) (A) (A) (A) (A) (A) (A)
                 (A) (A) (A) (A) (A) (A) (A) (A) (A) (A) (A) (A)
                 (A) (A) (A) (A) (A) (A) (A) (A) (A) (A) (A) (A)
                 (A) (A) (A) (A) (A) (A) (A) (A) (A) (A) (A) (A)
                 (A) (A) (A) (A) (A) (A) (A) (A) (A) (A) (A) (A)
                 (A) (A) (A) (A) (A) (A) (A) (A) (A) (A) (A) (A)
                 (A) (A) (A) (A) (A) (A) (A) (A) (A) (A) (A) (A)
                 (A) (A) (A) (A) (A) (A) (A) (A) (A) (A) (A) (A)
                 (A) (A) (A) (A) (A) (A) (A) (A) (A) (A) (A) (A)
                 (A) (A) (A) (A) (A) (A) (A) (A) (A) (A) (A) (A)
                 (A) (A) (A) (A) (A) (A) (A) (A) (A) (A) (A) (A)
                 (A) (A) (A) (A) (A) (A) (A) (A) (A) (A) (A) (A)
                 (A) (A) (A) (A) (A) (A) (A) (A) (A) (A) (A) (A)
                 (A) (A) (A) (A) (A) (A) (A) (A) (A) (A) (A) (A)
                 (A) (A) (A) (A) (A) (A) (A) (A) (A) (A) (A) (A)
                 (A) (A) (A) (A) (A) (A) (A) (A) (A) (A) (A) (A)
                 (A) (A) (A)
 The electronic state is 1-A.
 Alpha  occ. eigenvalues --  -19.18366 -19.15251 -14.38370 -14.33347 -10.28396
 Alpha  occ. eigenvalues --  -10.25537 -10.24860 -10.22146 -10.19160  -1.07524
 Alpha  occ. eigenvalues --   -1.04683  -0.91159  -0.86446  -0.75376  -0.72587
 Alpha  occ. eigenvalues --   -0.64988  -0.62335  -0.55465  -0.52580  -0.50997
 Alpha  occ. eigenvalues --   -0.49126  -0.47452  -0.45590  -0.44784  -0.43418
 Alpha  occ. eigenvalues --   -0.40499  -0.39211  -0.38324  -0.37804  -0.36022
 Alpha  occ. eigenvalues --   -0.32397  -0.30720  -0.28330  -0.26011  -0.24155
 Alpha virt. eigenvalues --   -0.08171   0.04103   0.05621   0.06507   0.10020
 Alpha virt. eigenvalues --    0.11115   0.12790   0.13215   0.15223   0.15631
 Alpha virt. eigenvalues --    0.16988   0.17062   0.17926   0.18530   0.20212
 Alpha virt. eigenvalues --    0.22456   0.25192   0.27042   0.30307   0.37321
 Alpha virt. eigenvalues --    0.40643   0.44814   0.45773   0.47725   0.48006
 Alpha virt. eigenvalues --    0.49396   0.50437   0.51485   0.54232   0.54451
 Alpha virt. eigenvalues --    0.56111   0.56912   0.58151   0.60523   0.61347
 Alpha virt. eigenvalues --    0.64442   0.65465   0.67976   0.68202   0.69590
 Alpha virt. eigenvalues --    0.69660   0.70762   0.72864   0.73345   0.73710
 Alpha virt. eigenvalues --    0.74531   0.75409   0.75892   0.79112   0.79482
 Alpha virt. eigenvalues --    0.80693   0.81667   0.82453   0.84818   0.84946
 Alpha virt. eigenvalues --    0.87932   0.88113   0.91933   0.92872   0.94666
 Alpha virt. eigenvalues --    0.95329   0.96733   0.98626   1.00037   1.00266
 Alpha virt. eigenvalues --    1.03136   1.05408   1.09529   1.13048   1.15127
 Alpha virt. eigenvalues --    1.18567   1.19049   1.24084   1.26350   1.28172
 Alpha virt. eigenvalues --    1.28998   1.30317   1.31871   1.35604   1.37442
 Alpha virt. eigenvalues --    1.38551   1.40414   1.40770   1.42569   1.45033
 Alpha virt. eigenvalues --    1.46887   1.47466   1.49002   1.53015   1.54969
 Alpha virt. eigenvalues --    1.55695   1.58864   1.60293   1.65393   1.65740
 Alpha virt. eigenvalues --    1.69439   1.70067   1.72772   1.75057   1.76999
 Alpha virt. eigenvalues --    1.80076   1.83177   1.86710   1.88174   1.91199
 Alpha virt. eigenvalues --    1.93648   1.94466   1.98465   2.04594   2.11376
 Alpha virt. eigenvalues --    2.15283   2.16727   2.19491   2.23814   2.25987
 Alpha virt. eigenvalues --    2.29414   2.30809   2.37154   2.39338   2.40486
 Alpha virt. eigenvalues --    2.43816   2.48239   2.51622   2.58611   2.60455
 Alpha virt. eigenvalues --    2.62658   2.67571   2.68598   2.69614   2.73981
 Alpha virt. eigenvalues --    2.76084   2.78764   2.80182   2.80935   2.85371
 Alpha virt. eigenvalues --    2.86451   2.87871   2.89386   2.91547   2.92211
 Alpha virt. eigenvalues --    2.92938   2.96640   2.96887   3.01587   3.03598
 Alpha virt. eigenvalues --    3.08424   3.12228   3.14556   3.16210   3.17508
 Alpha virt. eigenvalues --    3.18766   3.20833   3.23080   3.30115   3.31048
 Alpha virt. eigenvalues --    3.33285   3.36350   3.38798   3.40142   3.41010
 Alpha virt. eigenvalues --    3.46301   3.50151   3.52391   3.54515   3.58046
 Alpha virt. eigenvalues --    3.61357   3.61908   3.62658   3.69340   3.74901
 Alpha virt. eigenvalues --    3.74925   3.80030   3.82463   3.89254   3.89993
 Alpha virt. eigenvalues --    3.92616   3.94135   3.95661   3.96355   4.00480
 Alpha virt. eigenvalues --    4.03086   4.07962   4.08841   4.12595   4.15170
 Alpha virt. eigenvalues --    4.16667   4.17832   4.19477   4.20980   4.28253
 Alpha virt. eigenvalues --    4.30586   4.31119   4.32045   4.34740   4.36553
 Alpha virt. eigenvalues --    4.38299   4.40389   4.40850   4.40998   4.42442
 Alpha virt. eigenvalues --    4.43033   4.46052   4.47781   4.48581   4.49798
 Alpha virt. eigenvalues --    4.51642   4.51887   4.55440   4.56332   4.59510
 Alpha virt. eigenvalues --    4.59882   4.62421   4.64135   4.65269   4.67369
 Alpha virt. eigenvalues --    4.70214   4.74188   4.75183   4.75544   4.77237
 Alpha virt. eigenvalues --    4.77793   4.82128   4.84472   4.86676   4.88982
 Alpha virt. eigenvalues --    4.92566   4.95034   4.99328   5.05960   5.06382
 Alpha virt. eigenvalues --    5.07699   5.11989   5.14681   5.17394   5.30142
 Alpha virt. eigenvalues --    5.33347   5.33936   5.38385   5.43016   5.45917
 Alpha virt. eigenvalues --    5.48596   5.51268   5.54590   5.63722   5.68611
 Alpha virt. eigenvalues --    5.78761   5.80933   5.91784   5.92897   5.96323
 Alpha virt. eigenvalues --    6.14552   6.18802   6.27705   6.35826   6.76407
 Alpha virt. eigenvalues --    7.02030   9.67664  10.22467  10.96097  11.26889
 Alpha virt. eigenvalues --   11.36741  11.51522  11.61679  12.00472  12.61107
 Alpha virt. eigenvalues --   13.06267  13.45875
          Condensed to atoms (all electrons):
               1          2          3          4          5          6
     1  C    4.965278   0.387982  -0.038897   0.002581  -0.000388   0.000004
     2  C    0.387982   4.758460   0.361588  -0.034891   0.002638  -0.000317
     3  N   -0.038897   0.361588   6.479756   0.183720  -0.051045   0.003470
     4  O    0.002581  -0.034891   0.183720   7.889971   0.336414  -0.020659
     5  C   -0.000388   0.002638  -0.051045   0.336414   4.989910   0.334822
     6  C    0.000004  -0.000317   0.003470  -0.020659   0.334822   4.918135
     7  N   -0.000000  -0.000014   0.000219  -0.011083  -0.081023   0.669383
     8  C    0.000000   0.000001  -0.000016   0.000522  -0.063058   0.203644
     9  O    0.000000  -0.000000   0.000000  -0.000005   0.002126  -0.057664
    10  H    0.376515  -0.021657   0.002658  -0.000052   0.000002  -0.000000
    11  H    0.378895  -0.027841   0.002716   0.000051   0.000018   0.000000
    12  H    0.378423  -0.029576  -0.003639   0.000048   0.000000  -0.000000
    13  H   -0.028256   0.371886  -0.024231   0.001815   0.000158  -0.000018
    14  H   -0.035591   0.367508  -0.040377   0.008604   0.000580   0.000102
    15  H    0.003274  -0.048629   0.314666  -0.032918  -0.006870  -0.000313
    16  H    0.000031   0.000147  -0.004332  -0.031900   0.334842  -0.022337
    17  H    0.000017   0.000386   0.007360  -0.027637   0.334995  -0.013835
    18  H    0.000003   0.000277  -0.001272   0.025970  -0.027594  -0.076768
    19  H    0.000000   0.000000   0.000019   0.000054   0.008764  -0.132511
               7          8          9         10         11         12
     1  C   -0.000000   0.000000   0.000000   0.376515   0.378895   0.378423
     2  C   -0.000014   0.000001  -0.000000  -0.021657  -0.027841  -0.029576
     3  N    0.000219  -0.000016   0.000000   0.002658   0.002716  -0.003639
     4  O   -0.011083   0.000522  -0.000005  -0.000052   0.000051   0.000048
     5  C   -0.081023  -0.063058   0.002126   0.000002   0.000018   0.000000
     6  C    0.669383   0.203644  -0.057664  -0.000000   0.000000  -0.000000
     7  N    6.517274  -0.004552  -0.003142  -0.000000  -0.000000  -0.000000
     8  C   -0.004552   4.596566   0.757253   0.000000   0.000000   0.000000
     9  O   -0.003142   0.757253   7.584979  -0.000000  -0.000000  -0.000000
    10  H   -0.000000   0.000000  -0.000000   0.577494  -0.028916  -0.030008
    11  H   -0.000000   0.000000  -0.000000  -0.028916   0.573369  -0.032999
    12  H   -0.000000   0.000000  -0.000000  -0.030008  -0.032999   0.596595
    13  H   -0.000006   0.000000  -0.000000  -0.002241  -0.005282   0.005209
    14  H   -0.000025   0.000000  -0.000000  -0.000277   0.005929  -0.005648
    15  H   -0.000012   0.000006  -0.000000  -0.000382  -0.000709   0.005464
    16  H    0.001810   0.001797  -0.000056  -0.000000  -0.000001  -0.000000
    17  H    0.000925   0.002053  -0.000045   0.000000   0.000007  -0.000001
    18  H    0.334967   0.006780  -0.000148   0.000000   0.000000   0.000000
    19  H    0.003551   0.370985  -0.050841  -0.000000   0.000000  -0.000000
              13         14         15         16         17         18
     1  C   -0.028256  -0.035591   0.003274   0.000031   0.000017   0.000003
     2  C    0.371886   0.367508  -0.048629   0.000147   0.000386   0.000277
     3  N   -0.024231  -0.040377   0.314666  -0.004332   0.007360  -0.001272
     4  O    0.001815   0.008604  -0.032918  -0.031900  -0.027637   0.025970
     5  C    0.000158   0.000580  -0.006870   0.334842   0.334995  -0.027594
     6  C   -0.000018   0.000102  -0.000313  -0.022337  -0.013835  -0.076768
     7  N   -0.000006  -0.000025  -0.000012   0.001810   0.000925   0.334967
     8  C    0.000000   0.000000   0.000006   0.001797   0.002053   0.006780
     9  O   -0.000000  -0.000000  -0.000000  -0.000056  -0.000045  -0.000148
    10  H   -0.002241  -0.000277  -0.000382  -0.000000   0.000000   0.000000
    11  H   -0.005282   0.005929  -0.000709  -0.000001   0.000007   0.000000
    12  H    0.005209  -0.005648   0.005464  -0.000000  -0.000001   0.000000
    13  H    0.598825  -0.048676   0.006797   0.000045  -0.000119   0.000067
    14  H   -0.048676   0.657463  -0.010778  -0.000125   0.000109   0.000193
    15  H    0.006797  -0.010778   0.531140   0.009066  -0.002004   0.000090
    16  H    0.000045  -0.000125   0.009066   0.654570  -0.054525   0.001165
    17  H   -0.000119   0.000109  -0.002004  -0.054525   0.619100   0.001089
    18  H    0.000067   0.000193   0.000090   0.001165   0.001089   0.485309
    19  H   -0.000000   0.000000   0.000001   0.002103   0.001679  -0.000246
              19
     1  C    0.000000
     2  C    0.000000
     3  N    0.000019
     4  O    0.000054
     5  C    0.008764
     6  C   -0.132511
     7  N    0.003551
     8  C    0.370985
     9  O   -0.050841
    10  H   -0.000000
    11  H    0.000000
    12  H   -0.000000
    13  H   -0.000000
    14  H    0.000000
    15  H    0.000001
    16  H    0.002103
    17  H    0.001679
    18  H   -0.000246
    19  H    0.705684
 Mulliken charges:
               1
     1  C   -0.389870
     2  C   -0.087949
     3  N   -0.192362
     4  O   -0.290603
     5  C   -0.115290
     6  C    0.194862
     7  N   -0.428273
     8  C    0.128019
     9  O   -0.232456
    10  H    0.126863
    11  H    0.134762
    12  H    0.116132
    13  H    0.124026
    14  H    0.101007
    15  H    0.232111
    16  H    0.107699
    17  H    0.130446
    18  H    0.250118
    19  H    0.090758
 Sum of Mulliken charges =  -0.00000
 Mulliken charges with hydrogens summed into heavy atoms:
               1
     1  C   -0.012113
     2  C    0.137084
     3  N    0.039749
     4  O   -0.290603
     5  C    0.122855
     6  C    0.194862
     7  N   -0.178155
     8  C    0.218776
     9  O   -0.232456
 Electronic spatial extent (au):  <R**2>=           2138.5549
 Charge=             -0.0000 electrons
 Dipole moment (field-independent basis, Debye):
    X=              4.7168    Y=             -2.5031    Z=              0.7844  Tot=              5.3971
 Quadrupole moment (field-independent basis, Debye-Ang):
   XX=            -65.7235   YY=            -53.3966   ZZ=            -52.0840
   XY=              7.9339   XZ=              1.9196   YZ=             -1.6403
 Traceless Quadrupole moment (field-independent basis, Debye-Ang):
   XX=             -8.6554   YY=              3.6714   ZZ=              4.9840
   XY=              7.9339   XZ=              1.9196   YZ=             -1.6403
 Octapole moment (field-independent basis, Debye-Ang**2):
  XXX=             99.1936  YYY=             -2.0106  ZZZ=              0.9302  XYY=              1.9045
  XXY=            -13.2424  XXZ=              1.8671  XZZ=             -2.9383  YZZ=             -1.2584
  YYZ=              1.2922  XYZ=             -3.2942
 Hexadecapole moment (field-independent basis, Debye-Ang**3):
 XXXX=          -2741.4818 YYYY=           -231.6622 ZZZZ=            -70.1855 XXXY=             56.6009
 XXXZ=              1.7948 YYYX=             20.2848 YYYZ=             -2.6304 ZZZX=              1.7498
 ZZZY=             -1.5671 XXYY=           -453.3415 XXZZ=           -407.1275 YYZZ=            -47.9223
 XXYZ=             -6.6110 YYXZ=              2.8040 ZZXY=             -0.6310
 N-N= 4.321565930124D+02 E-N=-1.929993941895D+03  KE= 4.530242665419D+02
 PrsmSu:  requested number of processors reduced to:  13 ShMem   1 Linda.
 Calling FoFJK, ICntrl=      2127 FMM=F ISym2X=0 I1Cent= 0 IOpClX= 0 NMat=1 NMatS=1 NMatT=0.
 ***** Axes restored to original set *****
 -------------------------------------------------------------------
 Center     Atomic                   Forces (Hartrees/Bohr)
 Number     Number              X              Y              Z
 -------------------------------------------------------------------
      1        6          -0.005082421    0.000728365    0.001982246
      2        6          -0.003537449   -0.003236682   -0.003700715
      3        7           0.009585263    0.005272711    0.003026870
      4        8           0.001974542   -0.008629114    0.008880059
      5        6          -0.001034926    0.013082792   -0.010996345
      6        6           0.013240407    0.025216224   -0.022129140
      7        7          -0.012904471   -0.022074549    0.019745102
      8        6           0.034006713    0.011513154   -0.010820652
      9        8          -0.031306345   -0.002298138    0.002516836
     10        1           0.000710728   -0.000803318   -0.000220737
     11        1           0.000163355   -0.000657655   -0.000878558
     12        1          -0.001003345    0.000472374   -0.000228772
     13        1           0.003221529   -0.004346851    0.003527300
     14        1           0.003018215    0.002461943   -0.001446916
     15        1          -0.002664224   -0.000498842   -0.001574049
     16        1          -0.002704272   -0.005801741    0.003929086
     17        1          -0.004182973   -0.001899827    0.001473801
     18        1           0.000647673   -0.003856811    0.002660274
     19        1          -0.002147998   -0.004644035    0.004254310
 -------------------------------------------------------------------
 Cartesian Forces:  Max     0.034006713 RMS     0.009918426

 GradGradGradGradGradGradGradGradGradGradGradGradGradGradGradGradGradGrad
 Berny optimization.
 FormGI is forming the generalized inverse of G from B-inverse, IUseBI=4.
 Internal  Forces:  Max     0.035641067 RMS     0.006206898
 Search for a local minimum.
 Step number   1 out of a maximum of   89
 All quantities printed in internal units (Hartrees-Bohrs-Radians)
 Mixed Optimization -- RFO/linear search
 Second derivative matrix not updated -- first step.
 ITU=  0
     Eigenvalues ---    0.00498   0.00530   0.00543   0.00543   0.00600
     Eigenvalues ---    0.00793   0.01025   0.01312   0.03035   0.04690
     Eigenvalues ---    0.05031   0.05621   0.05655   0.05667   0.06524
     Eigenvalues ---    0.07500   0.08715   0.11226   0.11920   0.12381
     Eigenvalues ---    0.13831   0.16000   0.16000   0.16000   0.16000
     Eigenvalues ---    0.16000   0.21901   0.22000   0.22122   0.24074
     Eigenvalues ---    0.25000   0.25000   0.25000   0.30343   0.30669
     Eigenvalues ---    0.31096   0.33686   0.33999   0.34131   0.34136
     Eigenvalues ---    0.34138   0.34180   0.34216   0.34331   0.35986
     Eigenvalues ---    0.37237   0.41170   0.42938   0.43947   0.67630
     Eigenvalues ---    0.94660
 RFO step:  Lambda=-8.11176474D-03 EMin= 4.98120987D-03
 Linear search not attempted -- first point.
 Iteration  1 RMS(Cart)=  0.13783624 RMS(Int)=  0.00869523
 Iteration  2 RMS(Cart)=  0.01870040 RMS(Int)=  0.00018456
 Iteration  3 RMS(Cart)=  0.00018438 RMS(Int)=  0.00015296
 Iteration  4 RMS(Cart)=  0.00000003 RMS(Int)=  0.00015296
 Variable       Old X    -DE/DX   Delta X   Delta X   Delta X     New X
                                 (Linear)    (Quad)   (Total)
    R1        2.87285   0.00519   0.00000   0.01667   0.01667   2.88952
    R2        2.06775  -0.00068   0.00000  -0.00192  -0.00192   2.06583
    R3        2.06967  -0.00098   0.00000  -0.00278  -0.00278   2.06689
    R4        2.07101   0.00003   0.00000   0.00008   0.00008   2.07109
    R5        2.77403  -0.00260   0.00000  -0.00706  -0.00706   2.76697
    R6        2.07028  -0.00166   0.00000  -0.00474  -0.00474   2.06554
    R7        2.07332   0.00198   0.00000   0.00569   0.00569   2.07901
    R8        2.75490  -0.00438   0.00000  -0.01151  -0.01151   2.74340
    R9        1.93218   0.00182   0.00000   0.00406   0.00406   1.93624
   R10        2.69994  -0.01456   0.00000  -0.03469  -0.03469   2.66525
   R11        2.85830   0.00174   0.00000   0.00547   0.00547   2.86377
   R12        2.07109   0.00498   0.00000   0.01424   0.01424   2.08534
   R13        2.07099   0.00234   0.00000   0.00670   0.00670   2.07768
   R14        2.45368  -0.03564   0.00000  -0.05208  -0.05208   2.40161
   R15        2.86649  -0.00511   0.00000  -0.01623  -0.01623   2.85027
   R16        1.94446  -0.00402   0.00000  -0.00920  -0.00920   1.93526
   R17        2.30857  -0.03099   0.00000  -0.03246  -0.03246   2.27611
   R18        2.07863   0.00633   0.00000   0.01834   0.01834   2.09697
    A1        1.93184  -0.00109   0.00000  -0.00738  -0.00736   1.92448
    A2        1.93518   0.00031   0.00000   0.00316   0.00315   1.93832
    A3        1.93727   0.00154   0.00000   0.00873   0.00873   1.94600
    A4        1.88718   0.00052   0.00000   0.00389   0.00390   1.89108
    A5        1.88340  -0.00057   0.00000  -0.00596  -0.00594   1.87746
    A6        1.88710  -0.00074   0.00000  -0.00269  -0.00272   1.88438
    A7        1.89022   0.00291   0.00000   0.01508   0.01468   1.90490
    A8        1.91492   0.00272   0.00000   0.01667   0.01660   1.93152
    A9        1.90865   0.00030   0.00000   0.02509   0.02439   1.93304
   A10        1.93439  -0.00637   0.00000  -0.06672  -0.06660   1.86778
   A11        1.92879   0.00091   0.00000   0.02020   0.01945   1.94824
   A12        1.88686  -0.00040   0.00000  -0.00919  -0.00949   1.87738
   A13        1.83438   0.00041   0.00000   0.00355   0.00354   1.83792
   A14        1.86263  -0.00059   0.00000  -0.00100  -0.00104   1.86159
   A15        1.79326   0.00109   0.00000   0.01500   0.01499   1.80825
   A16        1.90052  -0.00207   0.00000  -0.00801  -0.00801   1.89251
   A17        1.89648  -0.00213   0.00000  -0.00333  -0.00344   1.89304
   A18        1.90050   0.00342   0.00000   0.03198   0.03186   1.93236
   A19        1.93602  -0.00146   0.00000  -0.01524  -0.01517   1.92084
   A20        1.90014   0.00105   0.00000   0.01153   0.01135   1.91150
   A21        1.91186   0.00317   0.00000   0.01563   0.01564   1.92750
   A22        1.91834  -0.00398   0.00000  -0.03961  -0.03950   1.87883
   A23        2.15710   0.00855   0.00000   0.03314   0.03313   2.19024
   A24        2.02732  -0.00377   0.00000  -0.01460  -0.01461   2.01271
   A25        2.09875  -0.00478   0.00000  -0.01851  -0.01852   2.08023
   A26        1.91024  -0.00475   0.00000  -0.02825  -0.02825   1.88199
   A27        2.13786   0.00722   0.00000   0.03171   0.03151   2.16937
   A28        2.00478  -0.00149   0.00000  -0.00311  -0.00331   2.00147
   A29        2.14052  -0.00573   0.00000  -0.02839  -0.02859   2.11194
    D1       -3.14035  -0.00230   0.00000  -0.03631  -0.03651   3.10633
    D2        1.02934   0.00204   0.00000   0.02581   0.02592   1.05526
    D3       -1.03742   0.00073   0.00000   0.01210   0.01220  -1.02522
    D4        1.04848  -0.00244   0.00000  -0.03842  -0.03860   1.00988
    D5       -1.06501   0.00190   0.00000   0.02371   0.02382  -1.04119
    D6       -3.13177   0.00060   0.00000   0.01000   0.01010  -3.12167
    D7       -1.04937  -0.00273   0.00000  -0.04293  -0.04314  -1.09251
    D8        3.12033   0.00161   0.00000   0.01919   0.01928   3.13961
    D9        1.05357   0.00030   0.00000   0.00548   0.00556   1.05913
   D10        3.06577   0.00062   0.00000   0.00356   0.00366   3.06944
   D11        1.16958  -0.00054   0.00000  -0.01420  -0.01410   1.15548
   D12       -1.11601   0.00195   0.00000  -0.00684  -0.00686  -1.12287
   D13       -3.01220   0.00079   0.00000  -0.02461  -0.02463  -3.03683
   D14        0.97543  -0.00209   0.00000  -0.04848  -0.04856   0.92687
   D15       -0.92077  -0.00325   0.00000  -0.06624  -0.06632  -0.98709
   D16        3.08034  -0.00292   0.00000  -0.22345  -0.22349   2.85685
   D17       -1.25672  -0.00300   0.00000  -0.21762  -0.21758  -1.47430
   D18       -3.06916   0.00031   0.00000   0.01642   0.01652  -3.05264
   D19        1.14672  -0.00169   0.00000  -0.01373  -0.01392   1.13279
   D20       -0.96653   0.00195   0.00000   0.02420   0.02429  -0.94224
   D21        0.05360  -0.00154   0.00000  -0.01832  -0.01832   0.03528
   D22       -3.08347  -0.00168   0.00000  -0.02657  -0.02667  -3.11014
   D23        2.12114   0.00194   0.00000   0.02474   0.02483   2.14597
   D24       -1.01593   0.00180   0.00000   0.01648   0.01649  -0.99945
   D25       -2.06390  -0.00037   0.00000  -0.00715  -0.00710  -2.07100
   D26        1.08221  -0.00051   0.00000  -0.01540  -0.01544   1.06677
   D27        0.00836  -0.00049   0.00000  -0.01515  -0.01518  -0.00682
   D28       -3.13792  -0.00034   0.00000  -0.00656  -0.00653   3.13874
   D29        3.13327   0.00034   0.00000   0.02255   0.02246  -3.12745
   D30       -0.00203  -0.00016   0.00000  -0.01396  -0.01405  -0.01608
   D31       -0.00397   0.00017   0.00000   0.01445   0.01454   0.01057
   D32       -3.13927  -0.00033   0.00000  -0.02206  -0.02197   3.12195
         Item               Value     Threshold  Converged?
 Maximum Force            0.035641     0.000450     NO 
 RMS     Force            0.006207     0.000300     NO 
 Maximum Displacement     0.416184     0.001800     NO 
 RMS     Displacement     0.152667     0.001200     NO 
 Predicted change in Energy=-4.620324D-03
 GradGradGradGradGradGradGradGradGradGradGradGradGradGradGradGradGradGrad

                          Input orientation:                          
 ---------------------------------------------------------------------
 Center     Atomic      Atomic             Coordinates (Angstroms)
 Number     Number       Type             X           Y           Z
 ---------------------------------------------------------------------
      1          6           0        1.088447   -0.016115    0.021358
      2          6           0        2.616270   -0.071316    0.048821
      3          7           0        3.040573   -1.252430    0.803057
      4          8           0        4.487853   -1.278301    0.692277
      5          6           0        4.995462   -2.145207    1.682230
      6          6           0        6.508985   -2.075903    1.650607
      7          7           0        7.197609   -1.328992    0.887030
      8          6           0        7.216753   -2.982301    2.626549
      9          8           0        8.413367   -3.046714    2.747803
     10          1           0        0.751370    0.879327   -0.507435
     11          1           0        0.677766    0.007370    1.034807
     12          1           0        0.664392   -0.884721   -0.495222
     13          1           0        3.024633    0.801436    0.564835
     14          1           0        3.024710   -0.074278   -0.972712
     15          1           0        2.742740   -2.069538    0.261335
     16          1           0        4.669901   -3.183100    1.496417
     17          1           0        4.618199   -1.849598    2.671728
     18          1           0        6.548475   -0.795714    0.301356
     19          1           0        6.543726   -3.586594    3.269379
 ---------------------------------------------------------------------
                    Distance matrix (angstroms):
                    1          2          3          4          5
     1  C    0.000000
     2  C    1.529066   0.000000
     3  N    2.439329   1.464218   0.000000
     4  O    3.687710   2.318118   1.451744   0.000000
     5  C    4.749346   3.553815   2.321978   1.410390   0.000000
     6  C    6.023239   4.662329   3.664195   2.374772   1.515439
     7  N    6.308319   4.824211   4.158588   2.717218   2.479516
     8  C    7.289815   6.023533   4.874223   3.753920   2.554721
     9  O    8.382869   7.052930   5.989023   4.770968   3.691915
    10  H    1.093188   2.165871   3.391494   4.478390   5.652854
    11  H    1.093751   2.176272   2.687688   4.035721   4.867776
    12  H    1.095972   2.183447   2.732577   4.022924   5.008821
    13  H    2.170846   1.093035   2.067697   2.546088   3.716913
    14  H    2.177308   1.100164   2.131114   2.522428   3.901451
    15  H    2.647796   2.013467   1.024613   1.963972   2.664474
    16  H    5.003240   3.999516   2.619722   2.075582   1.103512
    17  H    4.779673   3.748286   2.517428   2.064364   1.099462
    18  H    5.522507   4.006340   3.572908   2.152179   2.477861
    19  H    7.284095   6.176899   4.878847   4.024461   2.644572
                    6          7          8          9         10
     6  C    0.000000
     7  N    1.270877   0.000000
     8  C    1.508295   2.399942   0.000000
     9  O    2.402703   2.809112   1.204466   0.000000
    10  H    6.822072   6.955229   8.156911   9.204161   0.000000
    11  H    6.222729   6.657031   7.364110   8.491249   1.773200
    12  H    6.338988   6.692602   7.555047   8.673987   1.766233
    13  H    4.647440   4.696410   6.011755   6.972235   2.514668
    14  H    4.798799   4.737724   6.243757   7.191330   2.508769
    15  H    4.014314   4.559140   5.142389   6.268445   3.640381
    16  H    2.152183   3.193490   2.793559   3.949444   5.989459
    17  H    2.160781   3.179548   2.835055   3.980222   5.701446
    18  H    1.860355   1.024097   3.261024   3.811814   6.088213
    19  H    2.214457   3.346628   1.109670   2.014714   8.231657
                   11         12         13         14         15
    11  H    0.000000
    12  H    1.771156   0.000000
    13  H    2.521745   3.088298   0.000000
    14  H    3.089489   2.540850   1.769442   0.000000
    15  H    3.029179   2.509124   2.900702   2.362931   0.000000
    16  H    5.131211   5.029242   4.410361   4.297444   2.545466
    17  H    4.653478   5.156855   3.742517   4.355790   3.061979
    18  H    5.970605   5.938426   3.877857   3.815841   4.013459
    19  H    7.233214   7.485914   6.241265   6.535685   5.079102
                   16         17         18         19
    16  H    0.000000
    17  H    1.778273   0.000000
    18  H    3.264480   3.233465   0.000000
    19  H    2.611020   2.661202   4.074089   0.000000
 Stoichiometry    C5H10N2O2
 Framework group  C1[X(C5H10N2O2)]
 Deg. of freedom    51
 Full point group                 C1      NOp   1
 Largest Abelian subgroup         C1      NOp   1
 Largest concise Abelian subgroup C1      NOp   1
                         Standard orientation:                         
 ---------------------------------------------------------------------
 Center     Atomic      Atomic             Coordinates (Angstroms)
 Number     Number       Type             X           Y           Z
 ---------------------------------------------------------------------
      1          6           0        4.252225   -0.219235   -0.146145
      2          6           0        2.893333    0.481798   -0.143046
      3          7           0        1.843387   -0.507270    0.108532
      4          8           0        0.610965    0.255294    0.193350
      5          6           0       -0.474517   -0.634898    0.057384
      6          6           0       -1.755956    0.173174    0.018758
      7          7           0       -1.830154    1.441215    0.059925
      8          6           0       -3.025438   -0.635056   -0.081909
      9          8           0       -4.130423   -0.159018   -0.137880
     10          1           0        5.047419    0.497312   -0.368152
     11          1           0        4.283514   -1.012438   -0.898568
     12          1           0        4.474493   -0.668719    0.828388
     13          1           0        2.686425    0.926515   -1.119848
     14          1           0        2.874164    1.291712    0.601288
     15          1           0        1.982925   -0.846990    1.065063
     16          1           0       -0.509067   -1.340692    0.904969
     17          1           0       -0.364967   -1.225187   -0.863688
     18          1           0       -0.876931    1.808997    0.129752
     19          1           0       -2.872822   -1.733020   -0.132413
 ---------------------------------------------------------------------
 Rotational constants (GHZ):           7.2304022           0.5379966           0.5085570
 Standard basis: 6-31G(2df,p) (6D, 7F)
 There are   329 symmetry adapted cartesian basis functions of A   symmetry.
 There are   302 symmetry adapted basis functions of A   symmetry.
   302 basis functions,   466 primitive gaussians,   329 cartesian basis functions
    35 alpha electrons       35 beta electrons
       nuclear repulsion energy       434.1058817383 Hartrees.
 NAtoms=   19 NActive=   19 NUniq=   19 SFac= 1.00D+00 NAtFMM=   60 NAOKFM=F Big=F
 Integral buffers will be    131072 words long.
 Raffenetti 2 integral format.
 Two-electron integral symmetry is turned on.
 One-electron integrals computed using PRISM.
 PrsmSu:  requested number of processors reduced to:  13 ShMem   1 Linda.
 NBasis=   302 RedAO= T EigKep=  3.19D-04  NBF=   302
 NBsUse=   302 1.00D-06 EigRej= -1.00D+00 NBFU=   302
 Initial guess from the checkpoint file:  "CCNOCCpdNpCdO.chk"
 B after Tr=     0.000000   -0.000000   -0.000000
         Rot=    0.999820    0.018904   -0.000618   -0.001678 Ang=   2.18 deg.
 ExpMin= 1.61D-01 ExpMax= 5.48D+03 ExpMxC= 8.25D+02 IAcc=2 IRadAn=         4 AccDes= 0.00D+00
 Harris functional with IExCor=  402 and IRadAn=       4 diagonalized for initial guess.
 HarFok:  IExCor=  402 AccDes= 0.00D+00 IRadAn=         4 IDoV= 1 UseB2=F ITyADJ=14
 ICtDFT=  3500011 ScaDFX=  1.000000  1.000000  1.000000  1.000000
 FoFCou: FMM=F IPFlag=           0 FMFlag=      100000 FMFlg1=           0
         NFxFlg=           0 DoJE=T BraDBF=F KetDBF=T FulRan=T
         wScrn=  0.000000 ICntrl=       500 IOpCl=  0 I1Cent=   200000004 NGrid=           0
         NMat0=    1 NMatS0=      1 NMatT0=    0 NMatD0=    1 NMtDS0=    0 NMtDT0=    0
 Petite list used in FoFCou.
 Requested convergence on RMS density matrix=1.00D-08 within 128 cycles.
 Requested convergence on MAX density matrix=1.00D-06.
 Requested convergence on             energy=1.00D-06.
 No special actions if energy rises.
 Integral accuracy reduced to 1.0D-05 until final iterations.
 Initial convergence to 1.0D-05 achieved.  Increase integral accuracy.
 SCF Done:  E(RB3LYP) =  -456.430032018     A.U. after   14 cycles
            NFock= 14  Conv=0.21D-08     -V/T= 2.0071
 PrsmSu:  requested number of processors reduced to:  13 ShMem   1 Linda.
 Calling FoFJK, ICntrl=      2127 FMM=F ISym2X=0 I1Cent= 0 IOpClX= 0 NMat=1 NMatS=1 NMatT=0.
 ***** Axes restored to original set *****
 -------------------------------------------------------------------
 Center     Atomic                   Forces (Hartrees/Bohr)
 Number     Number              X              Y              Z
 -------------------------------------------------------------------
      1        6           0.000609449    0.000092841    0.000111154
      2        6          -0.002736909    0.000854461    0.001077303
      3        7           0.003700479    0.000251147   -0.001873913
      4        8          -0.002563246   -0.004993433    0.001682559
      5        6           0.000105696    0.004942389   -0.003058004
      6        6           0.000736091    0.000826414   -0.002328242
      7        7          -0.002985508   -0.001039409    0.000344511
      8        6           0.006879295    0.001972158    0.003083132
      9        8          -0.004464413   -0.000859497   -0.000963282
     10        1           0.000320839   -0.000032360   -0.000244452
     11        1           0.000554263   -0.000110583   -0.000077870
     12        1           0.000215978    0.000031458   -0.000178974
     13        1           0.000016052    0.000893612    0.000174873
     14        1           0.000200947    0.000250320    0.000192730
     15        1           0.000381923   -0.000433115    0.000236389
     16        1           0.000022592   -0.000851891    0.001685849
     17        1          -0.000266716   -0.001763170    0.001191848
     18        1           0.001326139    0.002235373   -0.001763019
     19        1          -0.002052953   -0.002266717    0.000707409
 -------------------------------------------------------------------
 Cartesian Forces:  Max     0.006879295 RMS     0.001982626

 GradGradGradGradGradGradGradGradGradGradGradGradGradGradGradGradGradGrad
 Berny optimization.
 Using GEDIIS/GDIIS optimizer.
 FormGI is forming the generalized inverse of G from B-inverse, IUseBI=4.
 Internal  Forces:  Max     0.005456055 RMS     0.001363038
 Search for a local minimum.
 Step number   2 out of a maximum of   89
 All quantities printed in internal units (Hartrees-Bohrs-Radians)
 Mixed Optimization -- RFO/linear search
 Update second derivatives using D2CorX and points    1    2
 DE= -4.66D-03 DEPred=-4.62D-03 R= 1.01D+00
 TightC=F SS=  1.41D+00  RLast= 3.70D-01 DXNew= 5.0454D-01 1.1099D+00
 Trust test= 1.01D+00 RLast= 3.70D-01 DXMaxT set to 5.05D-01
 ITU=  1  0
 Use linear search instead of GDIIS.
     Eigenvalues ---    0.00472   0.00498   0.00543   0.00597   0.00602
     Eigenvalues ---    0.00792   0.01032   0.01311   0.03042   0.04657
     Eigenvalues ---    0.04948   0.05553   0.05565   0.05678   0.06468
     Eigenvalues ---    0.07167   0.09036   0.11321   0.12004   0.12571
     Eigenvalues ---    0.13831   0.15925   0.16000   0.16000   0.16000
     Eigenvalues ---    0.16957   0.21517   0.21903   0.22041   0.23988
     Eigenvalues ---    0.24423   0.25000   0.25650   0.30436   0.31051
     Eigenvalues ---    0.31473   0.33079   0.34011   0.34093   0.34136
     Eigenvalues ---    0.34140   0.34214   0.34273   0.34335   0.36126
     Eigenvalues ---    0.36869   0.40438   0.43148   0.43950   0.69328
     Eigenvalues ---    0.91560
 RFO step:  Lambda=-2.51166808D-03 EMin= 4.72218184D-03
 Quartic linear search produced a step of  0.14815.
 Iteration  1 RMS(Cart)=  0.10511250 RMS(Int)=  0.01784640
 Iteration  2 RMS(Cart)=  0.06232921 RMS(Int)=  0.00296086
 Iteration  3 RMS(Cart)=  0.00212038 RMS(Int)=  0.00257932
 Iteration  4 RMS(Cart)=  0.00000141 RMS(Int)=  0.00257932
 Iteration  5 RMS(Cart)=  0.00000001 RMS(Int)=  0.00257932
 Variable       Old X    -DE/DX   Delta X   Delta X   Delta X     New X
                                 (Linear)    (Quad)   (Total)
    R1        2.88952  -0.00169   0.00247  -0.00489  -0.00242   2.88710
    R2        2.06583  -0.00001  -0.00029  -0.00017  -0.00045   2.06537
    R3        2.06689  -0.00028  -0.00041  -0.00111  -0.00153   2.06536
    R4        2.07109  -0.00002   0.00001  -0.00007  -0.00006   2.07103
    R5        2.76697   0.00129  -0.00105   0.00341   0.00237   2.76934
    R6        2.06554   0.00080  -0.00070   0.00223   0.00152   2.06706
    R7        2.07901  -0.00011   0.00084   0.00008   0.00093   2.07994
    R8        2.74340  -0.00327  -0.00170  -0.01050  -0.01220   2.73119
    R9        1.93624   0.00011   0.00060   0.00058   0.00118   1.93742
   R10        2.66525  -0.00299  -0.00514  -0.01059  -0.01573   2.64952
   R11        2.86377  -0.00050   0.00081  -0.00137  -0.00056   2.86321
   R12        2.08534   0.00051   0.00211   0.00270   0.00481   2.09015
   R13        2.07768   0.00069   0.00099   0.00272   0.00371   2.08139
   R14        2.40161   0.00066  -0.00772  -0.00292  -0.01064   2.39097
   R15        2.85027   0.00269  -0.00240   0.00844   0.00603   2.85630
   R16        1.93526   0.00133  -0.00136   0.00272   0.00136   1.93662
   R17        2.27611  -0.00449  -0.00481  -0.00774  -0.01255   2.26356
   R18        2.09697   0.00289   0.00272   0.01079   0.01350   2.11048
    A1        1.92448  -0.00033  -0.00109  -0.00289  -0.00398   1.92049
    A2        1.93832  -0.00053   0.00047  -0.00300  -0.00254   1.93579
    A3        1.94600  -0.00015   0.00129  -0.00074   0.00055   1.94655
    A4        1.89108   0.00051   0.00058   0.00433   0.00491   1.89599
    A5        1.87746   0.00017  -0.00088  -0.00002  -0.00090   1.87656
    A6        1.88438   0.00039  -0.00040   0.00267   0.00226   1.88665
    A7        1.90490   0.00035   0.00217   0.00340   0.00550   1.91039
    A8        1.93152  -0.00018   0.00246   0.00073   0.00319   1.93471
    A9        1.93304  -0.00013   0.00361  -0.00072   0.00276   1.93580
   A10        1.86778   0.00016  -0.00987  -0.00027  -0.01012   1.85766
   A11        1.94824  -0.00013   0.00288  -0.00015   0.00259   1.95083
   A12        1.87738  -0.00007  -0.00141  -0.00305  -0.00450   1.87287
   A13        1.83792   0.00156   0.00052   0.00868   0.00914   1.84706
   A14        1.86159   0.00174  -0.00015   0.01888   0.01867   1.88026
   A15        1.80825  -0.00112   0.00222  -0.00386  -0.00181   1.80644
   A16        1.89251   0.00258  -0.00119   0.01072   0.00953   1.90204
   A17        1.89304  -0.00070  -0.00051  -0.00060  -0.00115   1.89189
   A18        1.93236   0.00112   0.00472   0.01322   0.01792   1.95028
   A19        1.92084   0.00115  -0.00225   0.01164   0.00940   1.93024
   A20        1.91150  -0.00024   0.00168  -0.00369  -0.00209   1.90941
   A21        1.92750  -0.00003   0.00232  -0.00056   0.00173   1.92922
   A22        1.87883  -0.00128  -0.00585  -0.01998  -0.02586   1.85297
   A23        2.19024   0.00131   0.00491   0.00815   0.01305   2.20329
   A24        2.01271  -0.00293  -0.00216  -0.01389  -0.01606   1.99665
   A25        2.08023   0.00162  -0.00274   0.00573   0.00298   2.08321
   A26        1.88199   0.00546  -0.00419   0.03518   0.03100   1.91299
   A27        2.16937   0.00089   0.00467   0.00857   0.00035   2.16972
   A28        2.00147  -0.00082  -0.00049  -0.00208  -0.01557   1.98590
   A29        2.11194  -0.00001  -0.00423   0.00165  -0.01602   2.09592
    D1        3.10633   0.00016  -0.00541   0.00048  -0.00496   3.10136
    D2        1.05526  -0.00014   0.00384  -0.00168   0.00218   1.05744
    D3       -1.02522   0.00014   0.00181   0.00213   0.00395  -1.02127
    D4        1.00988   0.00008  -0.00572  -0.00109  -0.00684   1.00303
    D5       -1.04119  -0.00022   0.00353  -0.00325   0.00030  -1.04089
    D6       -3.12167   0.00007   0.00150   0.00056   0.00207  -3.11959
    D7       -1.09251   0.00005  -0.00639  -0.00194  -0.00836  -1.10087
    D8        3.13961  -0.00025   0.00286  -0.00409  -0.00122   3.13838
    D9        1.05913   0.00003   0.00082  -0.00029   0.00056   1.05968
   D10        3.06944  -0.00026   0.00054  -0.02478  -0.02416   3.04528
   D11        1.15548  -0.00035  -0.00209  -0.03157  -0.03369   1.12179
   D12       -1.12287  -0.00019  -0.00102  -0.02219  -0.02317  -1.14605
   D13       -3.03683  -0.00028  -0.00365  -0.02899  -0.03270  -3.06953
   D14        0.92687  -0.00025  -0.00719  -0.02612  -0.03328   0.89358
   D15       -0.98709  -0.00034  -0.00983  -0.03292  -0.04281  -1.02990
   D16        2.85685  -0.00311  -0.03311  -0.28245  -0.31555   2.54130
   D17       -1.47430  -0.00106  -0.03223  -0.25997  -0.29222  -1.76652
   D18       -3.05264   0.00006   0.00245   0.00962   0.01209  -3.04055
   D19        1.13279   0.00012  -0.00206   0.00652   0.00441   1.13720
   D20       -0.94224   0.00028   0.00360   0.01563   0.01925  -0.92300
   D21        0.03528   0.00007  -0.00271   0.00077  -0.00194   0.03334
   D22       -3.11014   0.00001  -0.00395  -0.00421  -0.00817  -3.11831
   D23        2.14597   0.00086   0.00368   0.01430   0.01797   2.16395
   D24       -0.99945   0.00080   0.00244   0.00932   0.01174  -0.98770
   D25       -2.07100  -0.00088  -0.00105  -0.01282  -0.01384  -2.08484
   D26        1.06677  -0.00094  -0.00229  -0.01779  -0.02007   1.04669
   D27       -0.00682   0.00031  -0.00225   0.00875   0.00646  -0.00036
   D28        3.13874   0.00038  -0.00097   0.01394   0.01301  -3.13144
   D29       -3.12745  -0.00105   0.00333  -0.14921  -0.14436   3.01137
   D30       -0.01608   0.00114  -0.00208   0.15826   0.15458   0.13850
   D31        0.01057  -0.00111   0.00215  -0.15385  -0.15010  -0.13953
   D32        3.12195   0.00108  -0.00326   0.15362   0.14884  -3.01240
         Item               Value     Threshold  Converged?
 Maximum Force            0.005456     0.000450     NO 
 RMS     Force            0.001363     0.000300     NO 
 Maximum Displacement     0.478223     0.001800     NO 
 RMS     Displacement     0.164052     0.001200     NO 
 Predicted change in Energy=-1.674901D-03
 GradGradGradGradGradGradGradGradGradGradGradGradGradGradGradGradGradGrad

                          Input orientation:                          
 ---------------------------------------------------------------------
 Center     Atomic      Atomic             Coordinates (Angstroms)
 Number     Number       Type             X           Y           Z
 ---------------------------------------------------------------------
      1          6           0        1.109387   -0.005717    0.059487
      2          6           0        2.633761   -0.086801    0.121433
      3          7           0        3.031656   -1.387355    0.667187
      4          8           0        4.472826   -1.432312    0.567893
      5          6           0        4.983453   -2.142442    1.663685
      6          6           0        6.495807   -2.059175    1.624744
      7          7           0        7.188457   -1.426720    0.775574
      8          6           0        7.191372   -2.811201    2.736157
      9          8           0        8.376432   -2.971798    2.804192
     10          1           0        0.801268    0.976372   -0.308071
     11          1           0        0.669906   -0.162293    1.047852
     12          1           0        0.693944   -0.757814   -0.620838
     13          1           0        3.036640    0.670173    0.800526
     14          1           0        3.077367    0.093074   -0.869677
     15          1           0        2.723672   -2.109912    0.008270
     16          1           0        4.673315   -3.203958    1.644534
     17          1           0        4.597817   -1.727257    2.608167
     18          1           0        6.569346   -0.967197    0.100456
     19          1           0        6.504803   -3.440357    3.352650
 ---------------------------------------------------------------------
                    Distance matrix (angstroms):
                    1          2          3          4          5
     1  C    0.000000
     2  C    1.527786   0.000000
     3  N    2.444042   1.465472   0.000000
     4  O    3.688682   2.322043   1.445286   0.000000
     5  C    4.706106   3.482133   2.317903   1.402065   0.000000
     6  C    5.973294   4.589728   3.656309   2.366927   1.515145
     7  N    6.283878   4.792550   4.158400   2.723566   2.482548
     8  C    7.212894   5.918695   4.859137   3.740748   2.544080
     9  O    8.315106   6.964099   5.970249   4.754912   3.674356
    10  H    1.092949   2.161676   3.393076   4.477657   5.577230
    11  H    1.092943   2.172712   2.687666   4.038008   4.786118
    12  H    1.095940   2.182685   2.742303   4.018454   5.053328
    13  H    2.172619   1.093841   2.061850   2.556793   3.527879
    14  H    2.178544   1.100655   2.134411   2.518078   3.879255
    15  H    2.652579   2.028267   1.025239   1.957514   2.801440
    16  H    5.044076   4.024460   2.636342   2.082806   1.106060
    17  H    4.650657   3.568256   2.517101   2.065268   1.101426
    18  H    5.544121   4.032910   3.607348   2.197777   2.517924
    19  H    7.193899   6.055746   4.846574   3.989492   2.617574
                    6          7          8          9         10
     6  C    0.000000
     7  N    1.265248   0.000000
     8  C    1.511487   2.400142   0.000000
     9  O    2.400152   2.813155   1.197826   0.000000
    10  H    6.736327   6.909799   8.027856   9.091608   0.000000
    11  H    6.154030   6.645632   7.238550   8.388599   1.775483
    12  H    6.355925   6.676533   7.596208   8.697883   1.765430
    13  H    4.482690   4.651362   5.755730   6.766979   2.513888
    14  H    4.747636   4.681633   6.193698   7.139387   2.505244
    15  H    4.104213   4.581464   5.281431   6.365039   3.649776
    16  H    2.152301   3.199938   2.772456   3.887387   6.023336
    17  H    2.163251   3.187496   2.813866   3.983119   5.497985
    18  H    1.876507   1.024814   3.276307   3.820232   6.100416
    19  H    2.212104   3.341173   1.116816   2.005829   8.089419
                   11         12         13         14         15
    11  H    0.000000
    12  H    1.771933   0.000000
    13  H    2.521032   3.089927   0.000000
    14  H    3.088365   2.542958   1.767563   0.000000
    15  H    3.015278   2.518678   2.907661   2.397716   0.000000
    16  H    5.063105   5.191427   4.289516   4.442829   2.770452
    17  H    4.506904   5.158150   3.384156   4.209605   3.227741
    18  H    6.028998   5.923213   3.956145   3.776142   4.012917
    19  H    7.078405   7.533307   5.952978   6.485407   5.220336
                   16         17         18         19
    16  H    0.000000
    17  H    1.764918   0.000000
    18  H    3.313942   3.279211   0.000000
    19  H    2.515531   2.669375   4.086252   0.000000
 Stoichiometry    C5H10N2O2
 Framework group  C1[X(C5H10N2O2)]
 Deg. of freedom    51
 Full point group                 C1      NOp   1
 Largest Abelian subgroup         C1      NOp   1
 Largest concise Abelian subgroup C1      NOp   1
                         Standard orientation:                         
 ---------------------------------------------------------------------
 Center     Atomic      Atomic             Coordinates (Angstroms)
 Number     Number       Type             X           Y           Z
 ---------------------------------------------------------------------
      1          6           0        4.217218   -0.221716   -0.233317
      2          6           0        2.836974    0.431402   -0.283238
      3          7           0        1.846283   -0.475522    0.302958
      4          8           0        0.605597    0.264995    0.337367
      5          6           0       -0.459334   -0.618831    0.112511
      6          6           0       -1.737068    0.188726    0.008052
      7          7           0       -1.832872    1.448724    0.071912
      8          6           0       -2.983513   -0.639422   -0.204403
      9          8           0       -4.097713   -0.200191   -0.183851
     10          1           0        4.957042    0.429751   -0.705320
     11          1           0        4.213615   -1.181811   -0.755550
     12          1           0        4.542275   -0.396690    0.798578
     13          1           0        2.525024    0.603859   -1.317373
     14          1           0        2.846140    1.408529    0.223299
     15          1           0        2.080791   -0.595826    1.293740
     16          1           0       -0.557675   -1.358115    0.929307
     17          1           0       -0.292943   -1.199624   -0.808431
     18          1           0       -0.903145    1.857837    0.207844
     19          1           0       -2.813722   -1.739705   -0.115936
 ---------------------------------------------------------------------
 Rotational constants (GHZ):           6.8197820           0.5451270           0.5179806
 Standard basis: 6-31G(2df,p) (6D, 7F)
 There are   329 symmetry adapted cartesian basis functions of A   symmetry.
 There are   302 symmetry adapted basis functions of A   symmetry.
   302 basis functions,   466 primitive gaussians,   329 cartesian basis functions
    35 alpha electrons       35 beta electrons
       nuclear repulsion energy       435.1034328067 Hartrees.
 NAtoms=   19 NActive=   19 NUniq=   19 SFac= 1.00D+00 NAtFMM=   60 NAOKFM=F Big=F
 Integral buffers will be    131072 words long.
 Raffenetti 2 integral format.
 Two-electron integral symmetry is turned on.
 One-electron integrals computed using PRISM.
 PrsmSu:  requested number of processors reduced to:  13 ShMem   1 Linda.
 NBasis=   302 RedAO= T EigKep=  3.16D-04  NBF=   302
 NBsUse=   302 1.00D-06 EigRej= -1.00D+00 NBFU=   302
 Initial guess from the checkpoint file:  "CCNOCCpdNpCdO.chk"
 B after Tr=    -0.000000    0.000000    0.000000
         Rot=    0.999587    0.028701   -0.000740   -0.001479 Ang=   3.29 deg.
 ExpMin= 1.61D-01 ExpMax= 5.48D+03 ExpMxC= 8.25D+02 IAcc=2 IRadAn=         4 AccDes= 0.00D+00
 Harris functional with IExCor=  402 and IRadAn=       4 diagonalized for initial guess.
 HarFok:  IExCor=  402 AccDes= 0.00D+00 IRadAn=         4 IDoV= 1 UseB2=F ITyADJ=14
 ICtDFT=  3500011 ScaDFX=  1.000000  1.000000  1.000000  1.000000
 FoFCou: FMM=F IPFlag=           0 FMFlag=      100000 FMFlg1=           0
         NFxFlg=           0 DoJE=T BraDBF=F KetDBF=T FulRan=T
         wScrn=  0.000000 ICntrl=       500 IOpCl=  0 I1Cent=   200000004 NGrid=           0
         NMat0=    1 NMatS0=      1 NMatT0=    0 NMatD0=    1 NMtDS0=    0 NMtDT0=    0
 Petite list used in FoFCou.
 Requested convergence on RMS density matrix=1.00D-08 within 128 cycles.
 Requested convergence on MAX density matrix=1.00D-06.
 Requested convergence on             energy=1.00D-06.
 No special actions if energy rises.
 Integral accuracy reduced to 1.0D-05 until final iterations.
 Initial convergence to 1.0D-05 achieved.  Increase integral accuracy.
 SCF Done:  E(RB3LYP) =  -456.428595446     A.U. after   13 cycles
            NFock= 13  Conv=0.69D-08     -V/T= 2.0070
 PrsmSu:  requested number of processors reduced to:  13 ShMem   1 Linda.
 Calling FoFJK, ICntrl=      2127 FMM=F ISym2X=0 I1Cent= 0 IOpClX= 0 NMat=1 NMatS=1 NMatT=0.
 ***** Axes restored to original set *****
 -------------------------------------------------------------------
 Center     Atomic                   Forces (Hartrees/Bohr)
 Number     Number              X              Y              Z
 -------------------------------------------------------------------
      1        6           0.001182144    0.000135910   -0.000432861
      2        6          -0.000969412   -0.000197643    0.001523195
      3        7           0.001264716   -0.000907286   -0.003048281
      4        8          -0.003061890   -0.002078903   -0.001672300
      5        6           0.000802332   -0.000264918    0.001263976
      6        6          -0.003803004    0.007032300    0.008029364
      7        7           0.002246405    0.003990200   -0.003220149
      8        6          -0.005523847   -0.025287340   -0.016210789
      9        8           0.008111444    0.007752187    0.006487317
     10        1          -0.000150308    0.000135598    0.000061635
     11        1          -0.000068707    0.000016653    0.000224020
     12        1           0.000262442   -0.000072812   -0.000034396
     13        1          -0.000683096    0.001305334   -0.000196499
     14        1          -0.000252452   -0.000391077    0.000219737
     15        1           0.000762319    0.001538648    0.001024628
     16        1           0.000192486    0.001049249   -0.000421922
     17        1           0.001071887   -0.000373581    0.000497213
     18        1          -0.000016722   -0.001472540   -0.000859448
     19        1          -0.001366737    0.008090019    0.006765559
 -------------------------------------------------------------------
 Cartesian Forces:  Max     0.025287340 RMS     0.004993630

 GradGradGradGradGradGradGradGradGradGradGradGradGradGradGradGradGradGrad
 Berny optimization.
 Using GEDIIS/GDIIS optimizer.
 FormGI is forming the generalized inverse of G from B-inverse, IUseBI=4.
 Internal  Forces:  Max     0.010508679 RMS     0.002626624
 Search for a local minimum.
 Step number   3 out of a maximum of   89
 All quantities printed in internal units (Hartrees-Bohrs-Radians)
 Mixed Optimization -- RFO/linear search
 Update second derivatives using D2CorX and points    1    3    2
 DE=  1.44D-03 DEPred=-1.67D-03 R=-8.58D-01
 Trust test=-8.58D-01 RLast= 5.36D-01 DXMaxT set to 2.52D-01
 ITU= -1  1  0
 Use linear search instead of GDIIS.
     Eigenvalues ---    0.00259   0.00498   0.00543   0.00600   0.00783
     Eigenvalues ---    0.01041   0.01309   0.02985   0.04596   0.04760
     Eigenvalues ---    0.05524   0.05574   0.05703   0.06181   0.06431
     Eigenvalues ---    0.07248   0.09126   0.11298   0.11897   0.12629
     Eigenvalues ---    0.13920   0.15638   0.16000   0.16000   0.16010
     Eigenvalues ---    0.16322   0.21406   0.21902   0.22105   0.23524
     Eigenvalues ---    0.24291   0.25007   0.25377   0.30439   0.30685
     Eigenvalues ---    0.31117   0.32920   0.34008   0.34100   0.34136
     Eigenvalues ---    0.34143   0.34214   0.34237   0.34333   0.36010
     Eigenvalues ---    0.36595   0.40569   0.43078   0.44004   0.69392
     Eigenvalues ---    0.92274
 RFO step:  Lambda=-2.91015750D-03 EMin= 2.59040462D-03
 Quartic linear search produced a step of -0.67457.
 Iteration  1 RMS(Cart)=  0.12951621 RMS(Int)=  0.00929917
 Iteration  2 RMS(Cart)=  0.01795750 RMS(Int)=  0.00114310
 Iteration  3 RMS(Cart)=  0.00018183 RMS(Int)=  0.00113531
 Iteration  4 RMS(Cart)=  0.00000036 RMS(Int)=  0.00113531
 Variable       Old X    -DE/DX   Delta X   Delta X   Delta X     New X
                                 (Linear)    (Quad)   (Total)
    R1        2.88710  -0.00120   0.00163  -0.00893  -0.00730   2.87979
    R2        2.06537   0.00014   0.00030  -0.00024   0.00006   2.06543
    R3        2.06536   0.00023   0.00103  -0.00185  -0.00082   2.06454
    R4        2.07103  -0.00003   0.00004  -0.00014  -0.00010   2.07092
    R5        2.76934   0.00050  -0.00160   0.00605   0.00445   2.77379
    R6        2.06706   0.00053  -0.00103   0.00410   0.00307   2.07013
    R7        2.07994  -0.00036  -0.00063   0.00006  -0.00057   2.07937
    R8        2.73119  -0.00134   0.00823  -0.01949  -0.01126   2.71993
    R9        1.93742  -0.00197  -0.00080  -0.00001  -0.00081   1.93661
   R10        2.64952   0.00219   0.01061  -0.01813  -0.00752   2.64200
   R11        2.86321  -0.00037   0.00038  -0.00249  -0.00212   2.86109
   R12        2.09015  -0.00105  -0.00325   0.00436   0.00111   2.09126
   R13        2.08139  -0.00009  -0.00250   0.00486   0.00236   2.08375
   R14        2.39097   0.00522   0.00717  -0.00475   0.00243   2.39340
   R15        2.85630   0.00309  -0.00407   0.01664   0.01257   2.86887
   R16        1.93662  -0.00008  -0.00091   0.00437   0.00346   1.94008
   R17        2.26356   0.00735   0.00846  -0.01248  -0.00402   2.25954
   R18        2.11048   0.00002  -0.00911   0.01930   0.01019   2.12066
    A1        1.92049   0.00024   0.00269  -0.00481  -0.00212   1.91837
    A2        1.93579  -0.00000   0.00171  -0.00512  -0.00341   1.93238
    A3        1.94655  -0.00041  -0.00037  -0.00164  -0.00202   1.94453
    A4        1.89599  -0.00010  -0.00331   0.00744   0.00413   1.90012
    A5        1.87656   0.00011   0.00061   0.00002   0.00062   1.87718
    A6        1.88665   0.00018  -0.00153   0.00468   0.00315   1.88980
    A7        1.91039  -0.00020  -0.00371   0.00606   0.00236   1.91275
    A8        1.93471  -0.00067  -0.00215   0.00079  -0.00140   1.93331
    A9        1.93580  -0.00003  -0.00186  -0.00149  -0.00334   1.93246
   A10        1.85766   0.00118   0.00683   0.00063   0.00746   1.86512
   A11        1.95083  -0.00031  -0.00175  -0.00077  -0.00249   1.94834
   A12        1.87287   0.00006   0.00304  -0.00536  -0.00232   1.87055
   A13        1.84706   0.00242  -0.00616   0.01759   0.01140   1.85846
   A14        1.88026   0.00003  -0.01260   0.03273   0.02013   1.90039
   A15        1.80644  -0.00092   0.00122  -0.00763  -0.00649   1.79995
   A16        1.90204   0.00201  -0.00643   0.02032   0.01389   1.91593
   A17        1.89189   0.00078   0.00078  -0.00041   0.00037   1.89226
   A18        1.95028  -0.00079  -0.01209   0.02210   0.01002   1.96030
   A19        1.93024   0.00097  -0.00634   0.02180   0.01545   1.94570
   A20        1.90941   0.00003   0.00141  -0.00626  -0.00485   1.90456
   A21        1.92922  -0.00131  -0.00116  -0.00248  -0.00367   1.92555
   A22        1.85297   0.00026   0.01745  -0.03530  -0.01791   1.83506
   A23        2.20329  -0.00084  -0.00880   0.01435   0.00553   2.20882
[...]
 569,-0.00190706,0.37837058,0.00081801,-0.00734205,0.00184946,0.0462799
 5,0.00370343,-0.00212968,-0.00655053,-0.06223798,0.00147562,-0.0464601
 3,0.14694218,-0.00072460,0.00361097,0.00031877,-0.01404592,0.00200697,
 -0.00168924,0.01846501,0.00401672,-0.06810026,0.06391336,-0.11411748,0
 .32211617,-0.00001275,0.00115610,-0.00010131,-0.00476035,-0.00022613,-
 0.00203957,-0.03150057,0.01990919,-0.04050645,-0.08560309,0.00527630,-
 0.00490873,0.48988657,0.00028294,0.00034076,-0.00055446,0.00198158,-0.
 00244928,0.00240469,0.00468200,-0.00584606,-0.00152401,0.02067822,-0.0
 9081589,0.06556627,0.00762808,0.53421552,-0.00012464,-0.00305472,0.000
 54597,0.00474925,0.00491976,0.00024040,-0.01232567,-0.00380835,0.00384
 142,-0.03797709,0.06856671,-0.20299472,-0.02523547,0.00640813,0.521931
 41,-0.00011738,-0.00012294,0.00002432,-0.00029651,0.00076186,-0.000190
 06,-0.00014348,-0.00133405,-0.00027452,-0.02756785,0.00430112,-0.00748
 277,-0.17705590,0.00607652,-0.01267518,0.61656324,-0.00002808,-0.00041
 283,0.00003724,0.00072428,0.00064929,-0.00013602,0.00081076,0.00000376
 ,0.00383595,0.01882783,0.00159951,0.00056890,-0.00274964,-0.08537106,0
 .00323513,0.07974014,0.29572088,0.00007904,0.00093312,-0.00011978,-0.0
 0181286,-0.00117832,-0.00057111,-0.00056093,0.00314659,-0.00524207,-0.
 03818346,0.00176066,-0.00000994,0.00467536,0.00214759,-0.08954936,-0.1
 5075587,-0.24432604,0.64178055,0.00014091,0.00026627,-0.00002580,0.000
 31016,-0.00118795,0.00001831,0.00058503,0.00004834,0.00021137,-0.00032
 084,-0.00002273,0.00101579,-0.02521101,-0.01883424,0.03631989,-0.26219
 579,-0.09038733,0.17388311,0.45194834,-0.00001156,0.00004267,-0.000008
 33,-0.00005373,-0.00029284,0.00011842,-0.00004720,0.00062515,-0.000384
 31,0.00159559,-0.00042681,0.00009704,-0.00825780,0.02801426,0.01806111
 ,-0.12096039,-0.14197254,0.16471855,0.03872999,0.21633445,0.00000789,0
 .00005474,-0.00001915,-0.00008855,-0.00002778,0.00017864,-0.00014800,-
 0.00080664,0.00089673,-0.00319891,0.00029556,-0.00042463,0.01597625,0.
 01847037,0.00190839,0.23313910,0.16452332,-0.37418220,-0.07284517,-0.2
 9119296,0.62953003,-0.00001891,0.00006872,-0.00003822,-0.00041435,0.00
 015470,-0.00017292,-0.00075308,0.00034204,-0.00113294,-0.00461552,-0.0
 0173022,0.00393374,-0.01477144,0.01437671,-0.02852676,-0.10493128,0.00
 225143,-0.00469661,0.01931479,-0.00463595,0.00917473,1.00021794,0.0000
 6521,0.00028201,-0.00003506,-0.00038843,-0.00045973,-0.00009167,-0.000
 12591,0.00094981,-0.00032862,-0.00364039,0.00077885,0.00112138,0.00361
 385,0.00695990,-0.00081952,0.01329951,-0.09687910,0.02756469,0.0006089
 5,-0.01915755,0.01744193,-0.00283906,0.25178564,-0.00012595,-0.0004310
 2,0.00006959,0.00022086,0.00092112,0.00018027,0.00047144,-0.00008186,0
 .00107646,0.00678182,0.00071361,-0.00073090,-0.00749255,-0.00099156,0.
 00808358,-0.02566728,0.02722161,-0.13576066,-0.00115173,0.01750011,-0.
 04420197,0.01970667,-0.13373805,0.44178468,0.00008775,0.00032732,-0.00
 001647,-0.00016040,-0.00087607,-0.00003856,0.00032626,0.00042964,-0.00
 062530,-0.00276630,0.00025381,0.00001446,0.00369340,0.00193441,-0.0039
 9101,-0.03855816,0.01673913,-0.03343778,-0.00099912,-0.00344728,0.0066
 8636,-0.78155092,0.03266550,-0.07599666,0.87144810,-0.00003811,-0.0001
 4372,0.00001599,0.00017712,0.00025425,0.00004831,0.00005610,-0.0003934
 4,0.00022438,0.00191257,0.00004458,-0.00053134,-0.00094324,-0.00145036
 ,0.00362795,0.02129127,0.01382207,0.00833496,0.00067485,0.00288926,-0.
 00075197,0.03268117,-0.06917454,0.02111525,-0.04309640,0.03621901,0.00
 006668,0.00025052,-0.00003233,-0.00015966,-0.00055424,-0.00010425,-0.0
 0021676,0.00014005,-0.00067365,-0.00366399,-0.00028367,0.00089048,0.00
 196062,0.00374118,-0.00673896,-0.04228283,0.00831239,0.00110427,-0.001
 27245,-0.00086745,0.00412915,-0.07596811,0.02109735,-0.10076914,0.0983
 7433,-0.03023228,0.08123763,-0.06443857,0.06727658,-0.00938984,-0.0071
 8666,0.03424244,-0.00484771,-0.00557312,-0.00283394,-0.00045149,-0.002
 32575,0.00237643,-0.00114781,-0.00032637,-0.00018325,0.00109218,0.0001
 2827,0.00014682,-0.00031446,-0.00014254,-0.00002239,-0.00000426,0.0000
 0364,-0.00011765,0.00018696,-0.00015064,0.00005822,-0.00010653,0.07143
 189,0.06928922,-0.29068051,0.03603041,-0.00119919,-0.00080330,-0.00003
 108,0.00053288,0.00132985,-0.00011958,-0.00022980,0.00001996,0.0000588
 2,-0.00003904,0.00012258,-0.00026795,-0.00009827,-0.00003613,0.0000551
 6,0.00007777,0.00000928,-0.00000465,-0.00003769,0.00003596,-0.00007828
 ,0.00007542,-0.00001802,0.00004395,-0.07536848,0.31393591,-0.00958393,
 0.03566797,-0.05049638,-0.00023912,0.00260977,-0.00225764,-0.00084601,
 -0.00029955,-0.00032809,-0.00066206,0.00021699,0.00083333,0.00022395,-
 0.00004864,0.00018337,0.00003111,-0.00001189,0.00002495,-0.00003917,-0
 .00000382,-0.00001101,0.00002704,-0.00001270,0.00002226,-0.00002579,0.
 00000514,-0.00001313,0.01161734,-0.03916546,0.05116248,-0.09888219,-0.
 04072378,0.09604895,-0.01691114,-0.01282262,0.02995689,0.00196410,-0.0
 0069353,0.00047389,0.00059327,0.00014543,-0.00080090,0.00002033,0.0001
 2425,0.00002104,-0.00004638,-0.00001175,-0.00000753,0.00006375,0.00003
 672,-0.00001590,-0.00002028,-0.00001966,0.00003408,0.00001640,0.000006
 22,-0.00001011,0.00375634,0.00246310,-0.00825900,0.11005010,-0.0415966
 9,-0.07919215,0.07540735,0.00075925,-0.00032988,-0.00196505,0.00038477
 ,0.00105280,-0.00090128,-0.00033821,-0.00013208,0.00008985,0.00004482,
 -0.00008517,0.00026443,0.00004716,0.00000844,-0.00004526,-0.00005877,0
 .00000293,0.00000355,0.00002279,-0.00002889,0.00006386,-0.00005175,0.0
 0001431,-0.00003553,-0.01445511,-0.00929938,0.02565171,0.04604908,0.08
 115655,0.09789874,0.07539939,-0.22968680,-0.00156108,-0.00182542,0.003
 72145,-0.00032163,-0.00018446,0.00003216,-0.00003225,-0.00024606,0.000
 24268,0.00006948,0.00003937,-0.00006375,0.00000249,-0.00001432,0.00002
 634,-0.00000775,-0.00000816,0.00000740,0.00000747,0.00001950,-0.000031
 25,0.00000751,-0.00000948,0.00001411,0.00074118,0.00027925,-0.00293810
 ,-0.10719960,-0.08331963,0.24664383,-0.07263315,-0.04278268,-0.0626585
 8,-0.01183328,-0.01925083,-0.02867782,0.00148631,-0.00176814,-0.000241
 83,0.00036605,0.00041968,0.00065599,0.00020850,-0.00006029,-0.00006127
 ,0.00005355,-0.00003932,0.00007119,-0.00002202,0.00002145,0.00001624,0
 .00002984,-0.00001206,0.00000307,-0.00001024,0.00000628,0.00000177,0.0
 0228292,0.00419278,0.00771038,0.00440369,0.00887701,0.01094976,0.08093
 665,-0.04303947,-0.11963072,-0.10750974,0.00054462,-0.00007634,0.00233
 418,0.00055013,0.00131595,0.00090997,-0.00035008,-0.00005028,-0.000154
 25,0.00002702,-0.00005825,0.00014945,0.00004528,0.00001250,-0.00003626
 ,-0.00004584,0.00000622,0.00000817,0.00002173,-0.00002557,0.00003972,-
 0.00004359,0.00001481,-0.00002229,-0.01007182,-0.01564249,-0.02519827,
 0.00445876,0.00622773,0.00947639,0.04790581,0.12680943,-0.06322540,-0.
 10807111,-0.20845395,-0.00093009,-0.00079648,-0.00205981,0.00030898,-0
 .00018412,0.00005578,0.00005463,0.00033484,0.00022781,0.00005329,0.000
 00958,-0.00007080,0.00001465,-0.00000842,0.00002239,-0.00000378,0.0000
 1034,0.00000921,0.00001747,-0.00001074,-0.00000610,-0.00001027,0.00000
 780,0.00000316,0.00222207,0.00293008,0.00371114,-0.00853400,-0.0151275
 7,-0.01999150,0.07165565,0.11980058,0.22397442,-0.01194362,-0.01762212
 ,-0.02667464,-0.07209492,-0.04531766,-0.06192590,0.00227451,0.00826174
 ,0.00561441,0.00134177,-0.00094214,0.00098099,0.00025625,0.00034780,-0
 .00041797,-0.00003025,-0.00004310,0.00007648,0.00002538,-0.00002715,-0
 .00001254,0.00001164,0.00004989,-0.00007796,0.00003825,-0.00002142,0.0
 0004003,0.00135695,0.00036578,0.00019324,0.00157439,-0.00024226,0.0004
 5547,-0.00650155,0.00050613,-0.00025556,0.07903194,0.00089765,0.002560
 13,0.00338471,-0.04039048,-0.11643981,-0.10194159,-0.01225394,-0.03084
 708,-0.02588041,-0.00008125,0.00276345,0.00083251,0.00008912,-0.000028
 45,-0.00066063,0.00013150,-0.00002378,0.00015147,0.00000937,-0.0000138
 4,0.00003439,0.00003548,0.00000436,-0.00007090,0.00001519,-0.00000227,
 0.00003667,-0.00043811,0.00046654,0.00020111,-0.00024300,-0.00016418,-
 0.00021394,0.00137570,0.00084246,0.00008728,0.04521966,0.14058425,-0.0
 0066330,-0.00052122,-0.00173787,-0.06287194,-0.10838711,-0.21403867,0.
 00280784,0.00307777,0.00823544,0.00070178,0.00028548,0.00047706,0.0003
 7702,-0.00018550,-0.00022988,-0.00001968,-0.00010446,0.00005339,0.0000
 5827,0.00010293,0.00000596,0.00001544,-0.00000267,0.00000690,0.0000181
 1,0.00000438,0.00000837,-0.00036481,0.00026330,-0.00001078,-0.00023232
 ,0.00027239,0.00093074,-0.00025645,0.00056006,0.00159087,0.06934411,0.
 11595340,0.22465449,-0.01617879,-0.01048783,0.02763340,-0.09911555,-0.
 03762485,0.09105322,0.00278082,0.00731507,-0.00797058,0.00409774,-0.00
 079671,-0.00087512,-0.00018773,0.00023834,-0.00033831,-0.00002904,-0.0
 0004352,0.00001985,0.00002735,-0.00000017,0.00004599,-0.00001377,0.000
 03014,-0.00002337,0.00003656,-0.00001283,0.00001638,0.00108545,0.00044
 258,-0.00007556,-0.00634357,0.00043808,-0.00117835,0.00167148,-0.00038
 883,-0.00038476,0.00490632,0.00264504,-0.00838679,0.10761243,0.0008748
 6,0.00183500,-0.00312310,-0.03496266,-0.07392967,0.05940154,-0.0110210
 1,-0.03026226,0.03423559,-0.00191395,0.00315138,-0.00274180,-0.0001161
 2,0.00051363,-0.00096011,-0.00027663,0.00002232,0.00010982,0.00040333,
 0.00002235,-0.00008926,-0.00005847,0.00005747,-0.00015893,0.00016589,-
 0.00003748,0.00009444,-0.00044092,0.00028807,-0.00024773,0.00124410,0.
 00072538,0.00037098,-0.00010175,-0.00004708,0.00048934,0.00712102,0.00
 660576,-0.01351840,0.03945322,0.08895280,-0.00276805,-0.00199338,0.003
 73333,0.09122220,0.06099579,-0.21944762,0.00088897,0.01017392,-0.00191
 167,-0.00102377,-0.00101611,0.00070300,0.00000138,-0.00044861,0.000089
 57,0.00025248,0.00007861,-0.00010779,-0.00024026,-0.00010119,0.0000288
 6,0.00002557,0.00000876,0.00000807,-0.00008642,0.00000346,-0.00002016,
 0.00074412,-0.00026044,0.00007352,-0.00144241,-0.00010927,0.00140392,0
 .00045226,0.00003438,0.00090601,0.01233603,0.00732934,-0.02162988,-0.0
 9987991,-0.07477243,0.23403739,0.00173528,0.00036285,0.00122496,0.0049
 2481,0.00384827,0.00781674,-0.05936934,-0.03476712,-0.05908888,-0.0373
 3870,-0.01485408,-0.03531978,-0.00460791,-0.00431059,0.00215631,-0.000
 35794,0.00096944,-0.00170345,0.00006022,0.00018821,0.00007583,-0.00030
 164,-0.00005030,0.00052356,-0.00028238,0.00007650,-0.00029224,-0.00007
 009,-0.00039444,-0.00011860,-0.00017899,0.00006144,0.00016143,-0.00042
 673,-0.00014678,-0.00097525,-0.00024083,0.00311191,-0.00042292,-0.0001
 0920,-0.00003993,-0.00062347,0.09609947,-0.00057628,0.00141226,-0.0005
 3995,-0.00890529,-0.02807865,-0.03358564,-0.04234990,-0.14633382,-0.14
 468107,0.00273927,0.00469609,0.00520499,0.00106268,0.00167444,-0.00013
 607,0.00022732,-0.00064394,0.00033989,0.00009895,0.00010039,0.00007048
 ,0.00013997,0.00010155,-0.00026406,0.00016981,-0.00006418,0.00016654,-
 0.00032013,0.00032415,0.00060006,0.00000390,0.00002300,0.00023464,0.00
 127387,0.00025495,0.00052945,0.00230993,-0.00612045,0.00229851,-0.0010
 9071,0.00199136,-0.00000819,0.04561863,0.17155913,0.00083445,-0.000494
 22,0.00081722,0.00197044,0.01294311,0.00013562,-0.09783907,-0.19104811
 ,-0.27400760,0.00870269,0.00868067,0.00492559,-0.00185244,-0.00090101,
 -0.00047455,0.00002374,0.00054988,-0.00024070,0.00001379,-0.00024040,0
 .00001155,-0.00010872,-0.00010139,0.00020300,-0.00009264,0.00005820,-0
 .00010388,0.00033354,0.00017128,0.00011851,0.00002526,-0.00016250,-0.0
 0030921,0.00034401,-0.00033078,0.00006580,0.00021731,0.00036330,0.0016
 5315,0.00015689,0.00077358,0.00194055,0.08723560,0.16963001,0.26499897
 ,-0.00002235,0.00008192,0.00001948,-0.00027088,0.00011951,0.00020485,0
 .00320340,0.00049346,0.00087429,0.00282447,0.01594389,-0.00835587,-0.0
 7472461,-0.08077975,0.00503849,-0.00982048,-0.03196979,0.00347930,-0.0
 0492673,0.00601344,0.00224981,0.00017530,0.00087736,0.00237567,-0.0000
 2341,-0.00012869,-0.00070616,-0.00002784,0.00000063,-0.00000675,-0.000
 02559,0.00001096,0.00001021,-0.00001529,-0.00000451,-0.00001508,0.0000
 0218,-0.00008759,-0.00002340,-0.00012276,-0.00012393,0.00005445,0.0004
 2026,-0.00000693,-0.00043654,0.07799503,-0.00003722,-0.00021890,0.0000
 2277,0.00036371,0.00019996,-0.00047099,-0.00197106,0.00220170,-0.00010
 364,0.00240760,-0.01359421,0.01680715,-0.07337526,-0.25602495,0.012107
 89,-0.00175802,0.00118295,-0.00053314,0.00075949,-0.00043766,-0.001606
 16,-0.00107209,-0.00082390,0.00151729,-0.00001933,0.00039825,-0.000655
 66,0.00009601,-0.00002102,0.00000825,0.00004731,-0.00000458,-0.0000183
 7,0.00002585,0.00002622,0.00001800,-0.00004975,0.00005652,0.00004050,-
 0.00008294,0.00027045,-0.00008214,0.00056931,-0.00062214,0.00007175,0.
 08115994,0.28460509,-0.00001434,0.00026675,0.00008234,-0.00042215,-0.0
 0061247,-0.00014249,0.00351619,-0.00100858,0.00066820,0.00306656,0.038
 47128,-0.01616884,0.00099567,0.00944960,-0.04642236,0.00478849,0.00242
 289,0.00054448,-0.00007425,-0.00035675,0.00040300,-0.00067539,-0.00040
 505,0.00050486,0.00071254,-0.00002780,-0.00010613,-0.00009998,0.000033
 56,-0.00002991,-0.00004222,-0.00002177,-0.00000386,-0.00000178,-0.0000
 1378,-0.00000450,0.00005293,0.00004802,0.00005733,0.00003978,-0.000050
 90,0.00017123,-0.00016867,0.00012661,-0.00032328,-0.00376257,-0.025172
 62,0.05937943,0.00000156,-0.00007250,0.00001674,0.00044585,0.00046197,
 -0.00028567,0.00289054,-0.00126832,-0.00042161,0.00234084,-0.00284101,
 -0.01741925,-0.07521444,0.04761155,0.06877384,-0.01001169,0.01662010,0
 .02709945,-0.00449115,-0.00535782,-0.00367536,0.00016031,-0.00235669,0
 .00048349,-0.00005197,0.00061245,-0.00027978,0.00003311,-0.00000870,0.
 00002137,-0.00003475,-0.00000101,0.00000164,0.00000318,-0.00000842,0.0
 0000989,0.00001534,0.00004018,-0.00006407,-0.00000926,-0.00009471,0.00
 005909,-0.00020987,-0.00019384,0.00049925,0.00527266,-0.00787849,-0.00
 721011,0.07886456,-0.00000084,0.00000022,-0.00017972,-0.00062535,0.000
 20714,0.00014197,-0.00074452,0.00080433,0.00015279,-0.00420120,0.01104
 799,0.01838376,0.04618126,-0.11716918,-0.10162131,-0.00257725,0.001915
 71,0.00244228,-0.00055986,-0.00099546,-0.00009394,0.00108790,0.0005572
 6,-0.00133742,-0.00051355,-0.00025546,0.00042185,-0.00001761,-0.000009
 60,0.00001051,-0.00002218,0.00001461,0.00001610,-0.00005810,0.00001488
 ,-0.00000428,0.00006633,-0.00020044,-0.00005707,-0.00002351,-0.0000723
 3,0.00001424,0.00000772,-0.00019878,-0.00006234,0.01075542,-0.01808816
 ,-0.02344740,-0.04877607,0.12230682,0.00001449,0.00047088,-0.00000935,
 -0.00058999,-0.00088895,-0.00025946,0.00426523,0.00068535,0.00267390,0
 .00044282,-0.00407390,-0.04194422,0.05892865,-0.09775413,-0.18629271,0
 .00424783,-0.00061323,0.00052953,-0.00071846,-0.00130204,0.00069280,0.
 00049344,0.00027346,-0.00076397,0.00049724,-0.00010628,0.00048926,-0.0
 0014732,0.00002956,-0.00003214,-0.00002714,-0.00003793,0.00000060,0.00
 006463,-0.00001891,0.00002626,-0.00000985,0.00032546,0.00003878,0.0001
 4316,0.00000482,0.00005799,-0.00023957,-0.00003079,0.00053487,0.001654
 78,-0.00165305,0.00181176,-0.06807782,0.10433138,0.22212222,-0.0001033
 1,-0.00032520,0.00000204,0.00002744,0.00088979,0.00002048,-0.00066244,
 0.00072149,-0.00105972,-0.00181885,-0.00164312,0.00213699,0.00014317,-
 0.00144734,0.00283479,0.00644480,-0.01523217,0.02957729,-0.17320643,0.
 09534274,-0.18556490,-0.00205462,-0.00000893,-0.00000590,0.00104779,0.
 00003704,-0.00005846,0.00014587,-0.00006016,0.00003018,-0.00000603,0.0
 0004375,-0.00000035,0.00000116,0.00003795,-0.00000157,-0.00001538,-0.0
 0006690,-0.00001978,-0.00010458,-0.00010714,0.00003372,0.00020520,-0.0
 0016740,-0.00004074,0.00012470,0.00057097,-0.00073630,0.00003075,0.000
 21337,-0.00082713,0.16989426,-0.00000760,-0.00018146,0.00005354,0.0001
 6664,0.00058991,-0.00024014,0.00014610,-0.00058207,-0.00053394,0.00060
 269,-0.00019042,-0.00012493,0.00085005,-0.01114479,-0.00618135,0.01116
 906,-0.00236146,0.02091430,0.06784286,-0.08488259,0.08934112,-0.003259
 50,0.01447972,0.00942188,0.00027829,-0.00187009,-0.00194627,0.00006457
 ,-0.00002079,0.00001523,-0.00004977,0.00000728,0.00000678,-0.00002420,
 0.00000564,-0.00001326,0.00002349,-0.00003523,-0.00007958,-0.00000858,
 -0.00009053,0.00016997,-0.00023573,-0.00006811,0.00008606,-0.00240515,
 0.00042948,0.00032205,0.00279793,0.00039746,0.00025549,-0.07843002,0.0
 8806495,0.00005882,0.00010399,-0.00003883,0.00011616,-0.00044353,0.000
 10046,-0.00026348,-0.00050597,0.00027409,-0.00118376,-0.00018252,0.000
 40467,-0.00145750,-0.00611736,-0.00239549,-0.02205345,0.02080884,-0.03
 198506,-0.13216155,0.08953445,-0.21297622,0.00607758,0.00946391,0.0011
 0928,-0.00043413,-0.00195478,0.00090904,-0.00005589,0.00003060,-0.0000
 1211,0.00002498,-0.00002310,-0.00000480,-0.00002658,-0.00002854,-0.000
 00737,0.00005267,0.00000994,-0.00006021,0.00000722,0.00018717,-0.00006
 754,-0.00021137,0.00001525,0.00010778,-0.00169152,0.00018227,-0.000068
 33,0.00101449,0.00038691,0.00001217,0.15300297,-0.11102492,0.24663895,
 -0.00001035,-0.00004416,0.00000809,0.00005114,0.00007568,0.00002139,0.
 00005254,-0.00003441,0.00007314,0.00115554,0.00002605,-0.00003555,-0.0
 0023204,-0.00034695,0.00068759,0.00797228,0.00367479,-0.00748813,-0.00
 096031,0.00089331,-0.00181861,-0.11046764,-0.04165134,0.07975378,-0.05
 214098,-0.01334911,0.02455728,0.00001714,-0.00000439,0.00000138,0.0000
 0653,0.00000469,-0.00000438,-0.00000107,0.00000190,-0.00000087,-0.0000
 0835,-0.00000952,0.00000290,-0.00000390,-0.00000517,-0.00000598,0.0000
 4837,-0.00003385,0.00001319,-0.00003804,0.00024400,0.00003560,-0.00003
 558,-0.00019198,-0.00011500,-0.00009349,0.00047888,-0.00081566,0.15468
 823,-0.00000329,-0.00002249,0.00000212,0.00002736,0.00001456,0.0000427
 7,0.00013244,-0.00009488,0.00000715,0.00026011,0.00004230,-0.00069555,
 -0.00013124,-0.00139766,0.00016945,-0.00996318,0.01276341,0.01349992,0
 .00157657,0.00013233,0.00432972,-0.03754965,-0.08944327,0.05863763,-0.
 00500641,0.01975303,0.00029246,0.00000835,-0.00000106,0.00000132,0.000
 00743,0.00000329,-0.00000257,-0.00000106,-0.00000006,-0.00000132,-0.00
 000617,-0.00000797,-0.00000277,-0.00000201,0.00000336,-0.00001672,-0.0
 0001530,-0.00000726,0.00001291,0.00004979,0.00046492,-0.00002361,0.000
 71339,-0.00027701,0.00010281,-0.00036873,-0.00254692,-0.00044261,0.050
 27159,0.06062137,0.00001054,0.00001935,-0.00000633,0.00000521,0.000000
 38,-0.00006175,-0.00025302,-0.00006958,-0.00005807,-0.00053001,-0.0006
 0147,0.00092319,0.00033236,0.00028850,-0.00159153,0.01887743,0.0136196
 1,-0.00631724,-0.00298017,0.00432246,-0.00598654,0.07184051,0.05855448
 ,-0.17078497,0.00844448,0.00016812,0.01977617,-0.00000729,0.00000147,-
 0.00000029,-0.00001396,-0.00000425,0.00000606,-0.00000066,-0.00000008,
 0.00000119,0.00001074,0.00000987,-0.00000521,-0.00000314,-0.00000461,0
 .00003122,-0.00003023,0.00002934,-0.00005340,-0.00096345,-0.00048010,-
 0.00035294,-0.00054558,0.00050166,0.00031171,0.00067640,-0.00044202,-0
 .00194048,-0.09487016,-0.07591312,0.16610918\\0.00000010,0.00000284,-0
 .00000257,-0.00000961,-0.00000451,0.00000229,0.00001143,0.00000340,-0.
 00000486,0.00000315,-0.00000384,0.00000989,0.00000294,-0.00000151,-0.0
 0000901,-0.00001150,0.00000162,-0.00000067,0.00000591,0.00000155,-0.00
 000414,0.00000814,-0.00000652,0.00001355,-0.00000427,0.00000143,-0.000
 00222,-0.00000129,0.00000057,0.00000188,-0.00000159,-0.00000023,0.0000
 0050,0.00000095,0.00000131,-0.00000005,0.00000003,0.,-0.00000145,0.000
 00196,-0.00000199,-0.00000122,-0.00000427,0.00000242,0.00000147,0.0000
 0025,-0.00000030,0.00000158,0.00000123,0.00000218,0.00000224,-0.000002
 57,0.00000103,-0.00000218,-0.00000099,0.00000055,-0.00000504\\\@


 GOD DOES NOT PLAY WITH DICE.
               -- A. EINSTEIN
 Job cpu time:       0 days  1 hours 34 minutes 20.8 seconds.
 Elapsed time:       0 days  0 hours 23 minutes 35.6 seconds.
 File lengths (MBytes):  RWF=    139 Int=      0 D2E=      0 Chk=      8 Scr=      1
 Normal termination of Gaussian 16 at Sun Jul  3 10:06:13 2022.
### All Done ###
