### Starting Gaussian ###
 Entering Gaussian System, Link 0=g16
 Initial command:
 /cluster/software/gaussian/gaussian-16-A.03/avx2/g16/l1.exe "/local/scratch/ks29c/Gau-8441.inp" -scrdir="/local/scratch/ks29c/"
 Entering Link 1 = /cluster/software/gaussian/gaussian-16-A.03/avx2/g16/l1.exe PID=      8442.
  
 Copyright (c) 1988,1990,1992,1993,1995,1998,2003,2009,2016,
            Gaussian, Inc.  All Rights Reserved.
  
 This is part of the Gaussian(R) 16 program.  It is based on
 the Gaussian(R) 09 system (copyright 2009, Gaussian, Inc.),
 the Gaussian(R) 03 system (copyright 2003, Gaussian, Inc.),
 the Gaussian(R) 98 system (copyright 1998, Gaussian, Inc.),
 the Gaussian(R) 94 system (copyright 1995, Gaussian, Inc.),
 the Gaussian 92(TM) system (copyright 1992, Gaussian, Inc.),
 the Gaussian 90(TM) system (copyright 1990, Gaussian, Inc.),
 the Gaussian 88(TM) system (copyright 1988, Gaussian, Inc.),
 the Gaussian 86(TM) system (copyright 1986, Carnegie Mellon
 University), and the Gaussian 82(TM) system (copyright 1983,
 Carnegie Mellon University). Gaussian is a federally registered
 trademark of Gaussian, Inc.
  
 This software contains proprietary and confidential information,
 including trade secrets, belonging to Gaussian, Inc.
  
 This software is provided under written license and may be
 used, copied, transmitted, or stored only in accord with that
 written license.
  
 The following legend is applicable only to US Government
 contracts under FAR:
  
                    RESTRICTED RIGHTS LEGEND
  
 Use, reproduction and disclosure by the US Government is
 subject to restrictions as set forth in subparagraphs (a)
 and (c) of the Commercial Computer Software - Restricted
 Rights clause in FAR 52.227-19.
  
 Gaussian, Inc.
 340 Quinnipiac St., Bldg. 40, Wallingford CT 06492
  
  
 ---------------------------------------------------------------
 Warning -- This program may not be used in any manner that
 competes with the business of Gaussian, Inc. or will provide
 assistance to any competitor of Gaussian, Inc.  The licensee
 of this program is prohibited from giving any competitor of
 Gaussian, Inc. access to this program.  By using this program,
 the user acknowledges that Gaussian, Inc. is engaged in the
 business of creating and licensing software in the field of
 computational chemistry and represents and warrants to the
 licensee that it is not a competitor of Gaussian, Inc. and that
 it will not use this program in any manner prohibited above.
 ---------------------------------------------------------------
  

 Cite this work as:
 Gaussian 16, Revision A.03,
 M. J. Frisch, G. W. Trucks, H. B. Schlegel, G. E. Scuseria, 
 M. A. Robb, J. R. Cheeseman, G. Scalmani, V. Barone, 
 G. A. Petersson, H. Nakatsuji, X. Li, M. Caricato, A. V. Marenich, 
 J. Bloino, B. G. Janesko, R. Gomperts, B. Mennucci, H. P. Hratchian, 
 J. V. Ortiz, A. F. Izmaylov, J. L. Sonnenberg, D. Williams-Young, 
 F. Ding, F. Lipparini, F. Egidi, J. Goings, B. Peng, A. Petrone, 
 T. Henderson, D. Ranasinghe, V. G. Zakrzewski, J. Gao, N. Rega, 
 G. Zheng, W. Liang, M. Hada, M. Ehara, K. Toyota, R. Fukuda, 
 J. Hasegawa, M. Ishida, T. Nakajima, Y. Honda, O. Kitao, H. Nakai, 
 T. Vreven, K. Throssell, J. A. Montgomery, Jr., J. E. Peralta, 
 F. Ogliaro, M. J. Bearpark, J. J. Heyd, E. N. Brothers, K. N. Kudin, 
 V. N. Staroverov, T. A. Keith, R. Kobayashi, J. Normand, 
 K. Raghavachari, A. P. Rendell, J. C. Burant, S. S. Iyengar, 
 J. Tomasi, M. Cossi, J. M. Millam, M. Klene, C. Adamo, R. Cammi, 
 J. W. Ochterski, R. L. Martin, K. Morokuma, O. Farkas, 
 J. B. Foresman, and D. J. Fox, Gaussian, Inc., Wallingford CT, 2016.
 
 ******************************************
 Gaussian 16:  ES64L-G16RevA.03 25-Dec-2016
                 4-Aug-2022 
 ******************************************
 %chk=CCOCpdNpCpOpCC.chk
 %NProcShared=20
 Will use up to   20 processors via shared memory.
 -----------------------------
 # opt freq b3lyp/6-31g(2df,p)
 -----------------------------
 1/18=20,19=15,26=3,38=1/1,3;
 2/9=110,12=2,17=6,18=5,40=1/2;
 3/5=1,6=6,7=104,11=2,25=1,30=1,71=1,74=-5/1,2,3;
 4//1;
 5/5=2,38=5/2;
 6/7=2,8=2,9=2,10=2,28=1/1;
 7//1,2,3,16;
 1/18=20,19=15,26=3/3(2);
 2/9=110/2;
 99//99;
 2/9=110/2;
 3/5=1,6=6,7=104,11=2,25=1,30=1,71=1,74=-5/1,2,3;
 4/5=5,16=3,69=1/1;
 5/5=2,38=5/2;
 7//1,2,3,16;
 1/18=20,19=15,26=3/3(-5);
 2/9=110/2;
 6/7=2,8=2,9=2,10=2,19=2,28=1/1;
 99/9=1/99;
 -------------------
 Title Card Required
 -------------------
 Symbolic Z-matrix:
 Charge =  0 Multiplicity = 1
 C                     1.05612  -0.10047  -0.07708 
 C                     2.57137  -0.08398  -0.05997 
 O                     3.10079  -1.11023  -0.91696 
 C                     4.4484   -1.22579  -1.02872 
 N                     5.30013  -0.47415  -0.41207 
 C                     4.89609  -2.33148  -1.9972 
 O                     4.38855  -2.11098  -3.31001 
 C                     6.43051  -2.411    -2.04155 
 C                     6.95231  -3.49999  -2.96158 
 H                     0.66336   0.67969   0.58357 
 H                     0.6711   -1.0683    0.25769 
 H                     0.67343   0.07277  -1.0874 
 H                     2.91877  -0.26073   0.96372 
 H                     2.92131   0.89354  -0.40998 
 H                     4.85137   0.2111    0.18819 
 H                     4.48848  -3.28369  -1.63818 
 H                     4.77903  -1.27856  -3.62738 
 H                     6.82388  -2.57998  -1.03129 
 H                     6.83854  -1.45248  -2.38843 
 H                     6.60703  -4.48424  -2.63295 
 H                     8.04739  -3.50112  -2.95249 
 H                     6.62572  -3.33883  -3.99288 
 

 GradGradGradGradGradGradGradGradGradGradGradGradGradGradGradGradGradGrad
 Berny optimization.
 Initialization pass.
                           ----------------------------
                           !    Initial Parameters    !
                           ! (Angstroms and Degrees)  !
 --------------------------                            --------------------------
 ! Name  Definition              Value          Derivative Info.                !
 --------------------------------------------------------------------------------
 ! R1    R(1,2)                  1.5154         estimate D2E/DX2                !
 ! R2    R(1,10)                 1.0952         estimate D2E/DX2                !
 ! R3    R(1,11)                 1.0941         estimate D2E/DX2                !
 ! R4    R(1,12)                 1.0942         estimate D2E/DX2                !
 ! R5    R(2,3)                  1.438          estimate D2E/DX2                !
 ! R6    R(2,13)                 1.0954         estimate D2E/DX2                !
 ! R7    R(2,14)                 1.0957         estimate D2E/DX2                !
 ! R8    R(3,4)                  1.3572         estimate D2E/DX2                !
 ! R9    R(4,5)                  1.2925         estimate D2E/DX2                !
 ! R10   R(4,6)                  1.5365         estimate D2E/DX2                !
 ! R11   R(5,15)                 1.0155         estimate D2E/DX2                !
 ! R12   R(6,7)                  1.4247         estimate D2E/DX2                !
 ! R13   R(6,8)                  1.5371         estimate D2E/DX2                !
 ! R14   R(6,16)                 1.0962         estimate D2E/DX2                !
 ! R15   R(7,17)                 0.9727         estimate D2E/DX2                !
 ! R16   R(8,9)                  1.5181         estimate D2E/DX2                !
 ! R17   R(8,18)                 1.0972         estimate D2E/DX2                !
 ! R18   R(8,19)                 1.098          estimate D2E/DX2                !
 ! R19   R(9,20)                 1.0936         estimate D2E/DX2                !
 ! R20   R(9,21)                 1.0951         estimate D2E/DX2                !
 ! R21   R(9,22)                 1.0937         estimate D2E/DX2                !
 ! A1    A(2,1,10)             110.1224         estimate D2E/DX2                !
 ! A2    A(2,1,11)             110.9799         estimate D2E/DX2                !
 ! A3    A(2,1,12)             111.0028         estimate D2E/DX2                !
 ! A4    A(10,1,11)            108.6254         estimate D2E/DX2                !
 ! A5    A(10,1,12)            108.59           estimate D2E/DX2                !
 ! A6    A(11,1,12)            107.4283         estimate D2E/DX2                !
 ! A7    A(1,2,3)              110.7088         estimate D2E/DX2                !
 ! A8    A(1,2,13)             109.0204         estimate D2E/DX2                !
 ! A9    A(1,2,14)             108.9925         estimate D2E/DX2                !
 ! A10   A(3,2,13)             108.9673         estimate D2E/DX2                !
 ! A11   A(3,2,14)             109.1921         estimate D2E/DX2                !
 ! A12   A(13,2,14)            109.9502         estimate D2E/DX2                !
 ! A13   A(2,3,4)              118.3859         estimate D2E/DX2                !
 ! A14   A(3,4,5)              124.4381         estimate D2E/DX2                !
 ! A15   A(3,4,6)              113.7339         estimate D2E/DX2                !
 ! A16   A(5,4,6)              121.8147         estimate D2E/DX2                !
 ! A17   A(4,5,15)             112.5322         estimate D2E/DX2                !
 ! A18   A(4,6,7)              111.447          estimate D2E/DX2                !
 ! A19   A(4,6,8)              110.2591         estimate D2E/DX2                !
 ! A20   A(4,6,16)             108.077          estimate D2E/DX2                !
 ! A21   A(7,6,8)              109.6969         estimate D2E/DX2                !
 ! A22   A(7,6,16)             107.6836         estimate D2E/DX2                !
 ! A23   A(8,6,16)             109.6142         estimate D2E/DX2                !
 ! A24   A(6,7,17)             106.864          estimate D2E/DX2                !
 ! A25   A(6,8,9)              113.4352         estimate D2E/DX2                !
 ! A26   A(6,8,18)             109.8332         estimate D2E/DX2                !
 ! A27   A(6,8,19)             109.5675         estimate D2E/DX2                !
 ! A28   A(9,8,18)             108.9232         estimate D2E/DX2                !
 ! A29   A(9,8,19)             107.8801         estimate D2E/DX2                !
 ! A30   A(18,8,19)            106.9835         estimate D2E/DX2                !
 ! A31   A(8,9,20)             110.7917         estimate D2E/DX2                !
 ! A32   A(8,9,21)             109.8413         estimate D2E/DX2                !
 ! A33   A(8,9,22)             111.2918         estimate D2E/DX2                !
 ! A34   A(20,9,21)            108.1975         estimate D2E/DX2                !
 ! A35   A(20,9,22)            108.7653         estimate D2E/DX2                !
 ! A36   A(21,9,22)            107.8529         estimate D2E/DX2                !
 ! D1    D(10,1,2,3)           179.6093         estimate D2E/DX2                !
 ! D2    D(10,1,2,13)           59.7501         estimate D2E/DX2                !
 ! D3    D(10,1,2,14)          -60.2721         estimate D2E/DX2                !
 ! D4    D(11,1,2,3)            59.2919         estimate D2E/DX2                !
 ! D5    D(11,1,2,13)          -60.5672         estimate D2E/DX2                !
 ! D6    D(11,1,2,14)          179.4106         estimate D2E/DX2                !
 ! D7    D(12,1,2,3)           -60.1028         estimate D2E/DX2                !
 ! D8    D(12,1,2,13)         -179.962          estimate D2E/DX2                !
 ! D9    D(12,1,2,14)           60.0158         estimate D2E/DX2                !
 ! D10   D(1,2,3,4)            179.3343         estimate D2E/DX2                !
 ! D11   D(13,2,3,4)           -60.7747         estimate D2E/DX2                !
 ! D12   D(14,2,3,4)            59.335          estimate D2E/DX2                !
 ! D13   D(2,3,4,5)              0.1516         estimate D2E/DX2                !
 ! D14   D(2,3,4,6)           -178.5383         estimate D2E/DX2                !
 ! D15   D(3,4,5,15)             1.1275         estimate D2E/DX2                !
 ! D16   D(6,4,5,15)           179.7161         estimate D2E/DX2                !
 ! D17   D(3,4,6,7)             59.0492         estimate D2E/DX2                !
 ! D18   D(3,4,6,8)           -178.8781         estimate D2E/DX2                !
 ! D19   D(3,4,6,16)           -59.0845         estimate D2E/DX2                !
 ! D20   D(5,4,6,7)           -119.6793         estimate D2E/DX2                !
 ! D21   D(5,4,6,8)              2.3934         estimate D2E/DX2                !
 ! D22   D(5,4,6,16)           122.187          estimate D2E/DX2                !
 ! D23   D(4,6,7,17)            63.3678         estimate D2E/DX2                !
 ! D24   D(8,6,7,17)           -59.0291         estimate D2E/DX2                !
 ! D25   D(16,6,7,17)         -178.2624         estimate D2E/DX2                !
 ! D26   D(4,6,8,9)            178.999          estimate D2E/DX2                !
 ! D27   D(4,6,8,18)            56.8524         estimate D2E/DX2                !
 ! D28   D(4,6,8,19)           -60.3895         estimate D2E/DX2                !
 ! D29   D(7,6,8,9)            -57.9006         estimate D2E/DX2                !
 ! D30   D(7,6,8,18)           179.9528         estimate D2E/DX2                !
 ! D31   D(7,6,8,19)            62.7109         estimate D2E/DX2                !
 ! D32   D(16,6,8,9)            60.1395         estimate D2E/DX2                !
 ! D33   D(16,6,8,18)          -62.0071         estimate D2E/DX2                !
 ! D34   D(16,6,8,19)         -179.249          estimate D2E/DX2                !
 ! D35   D(6,8,9,20)           -60.8006         estimate D2E/DX2                !
 ! D36   D(6,8,9,21)           179.7182         estimate D2E/DX2                !
 ! D37   D(6,8,9,22)            60.3498         estimate D2E/DX2                !
 ! D38   D(18,8,9,20)           61.8504         estimate D2E/DX2                !
 ! D39   D(18,8,9,21)          -57.6309         estimate D2E/DX2                !
 ! D40   D(18,8,9,22)         -176.9993         estimate D2E/DX2                !
 ! D41   D(19,8,9,20)          177.6393         estimate D2E/DX2                !
 ! D42   D(19,8,9,21)           58.158          estimate D2E/DX2                !
 ! D43   D(19,8,9,22)          -61.2104         estimate D2E/DX2                !
 --------------------------------------------------------------------------------
 Trust Radius=3.00D-01 FncErr=1.00D-07 GrdErr=1.00D-06 EigMax=2.50D+02 EigMin=1.00D-04
 Number of steps in this run=    110 maximum allowed number of steps=    132.
 GradGradGradGradGradGradGradGradGradGradGradGradGradGradGradGradGradGrad

                          Input orientation:                          
 ---------------------------------------------------------------------
 Center     Atomic      Atomic             Coordinates (Angstroms)
 Number     Number       Type             X           Y           Z
 ---------------------------------------------------------------------
      1          6           0        1.056120   -0.100470   -0.077080
      2          6           0        2.571370   -0.083980   -0.059970
      3          8           0        3.100790   -1.110230   -0.916960
      4          6           0        4.448400   -1.225790   -1.028720
      5          7           0        5.300130   -0.474150   -0.412070
      6          6           0        4.896090   -2.331480   -1.997200
      7          8           0        4.388550   -2.110980   -3.310010
      8          6           0        6.430510   -2.411000   -2.041550
      9          6           0        6.952310   -3.499990   -2.961580
     10          1           0        0.663360    0.679690    0.583570
     11          1           0        0.671100   -1.068300    0.257690
     12          1           0        0.673430    0.072770   -1.087400
     13          1           0        2.918770   -0.260730    0.963720
     14          1           0        2.921310    0.893540   -0.409980
     15          1           0        4.851370    0.211100    0.188190
     16          1           0        4.488480   -3.283690   -1.638180
     17          1           0        4.779030   -1.278560   -3.627380
     18          1           0        6.823880   -2.579980   -1.031290
     19          1           0        6.838540   -1.452480   -2.388430
     20          1           0        6.607030   -4.484240   -2.632950
     21          1           0        8.047390   -3.501120   -2.952490
     22          1           0        6.625720   -3.338830   -3.992880
 ---------------------------------------------------------------------
                    Distance matrix (angstroms):
                    1          2          3          4          5
     1  C    0.000000
     2  C    1.515436   0.000000
     3  O    2.430162   1.438022   0.000000
     4  C    3.698585   2.401135   1.357165   0.000000
     5  N    4.273579   2.778910   2.344485   1.292542   0.000000
     6  C    4.838351   3.769408   2.425175   1.536532   2.474987
     7  O    5.059553   4.239532   2.895948   2.447739   3.450833
     8  C    6.171042   4.922869   3.747498   2.521767   2.772066
     9  C    7.392032   6.267464   4.972487   3.895831   4.287821
    10  H    1.095157   2.153564   3.375866   4.533967   4.880807
    11  H    1.094078   2.163520   2.699065   3.993451   4.714818
    12  H    1.094171   2.163876   2.705664   3.992505   4.707605
    13  H    2.139723   1.095385   2.071651   2.690897   2.758482
    14  H    2.139582   1.095678   2.074689   2.684474   2.743969
    15  H    3.817246   2.312370   2.455972   1.925593   1.015512
    16  H    4.934675   4.050210   2.677643   2.146625   3.171062
    17  H    5.277555   4.362018   3.192366   2.620140   3.355121
    18  H    6.350240   5.025666   4.004327   2.734363   2.672034
    19  H    6.372335   5.050075   4.031518   2.759161   2.688835
    20  H    7.520805   6.501466   5.159679   4.225013   4.766667
    21  H    8.289165   7.073211   5.859060   4.672338   4.812870
    22  H    7.539291   6.519170   5.181995   4.241687   4.773445
                    6          7          8          9         10
     6  C    0.000000
     7  O    1.424671   0.000000
     8  C    1.537119   2.422520   0.000000
     9  C    2.554111   2.936600   1.518101   0.000000
    10  H    5.800304   6.068348   7.050081   8.341985   0.000000
    11  H    4.952847   5.256910   6.345089   7.465281   1.778124
    12  H    4.943583   4.848801   6.342199   7.463344   1.777806
    13  H    4.118841   4.883487   5.097806   6.493861   2.473010
    14  H    4.101192   4.426071   5.088859   6.485579   2.476128
    15  H    3.353005   4.224176   3.786929   5.301621   4.232650
    16  H    1.096241   2.044566   2.166974   2.805108   5.939368
    17  H    1.944179   0.972688   2.554342   3.178236   6.205287
    18  H    2.170509   3.367990   1.097233   2.142179   7.154385
    19  H    2.167675   2.699145   1.097987   2.129258   7.177171
    20  H    2.822387   3.318498   2.163154   1.093601   8.505256
    21  H    3.494471   3.930321   2.152318   1.095118   9.192758
    22  H    2.826502   2.641753   2.169485   1.093715   8.523036
                   11         12         13         14         15
    11  H    0.000000
    12  H    1.763892   0.000000
    13  H    2.490516   3.059390   0.000000
    14  H    3.059092   2.487072   1.794268   0.000000
    15  H    4.372225   4.370520   2.135185   2.132760   0.000000
    16  H    4.803610   5.111144   4.286276   4.627499   3.959908
    17  H    5.658009   5.013336   5.057148   4.303580   4.096693
    18  H    6.465551   6.698378   4.960733   5.261314   3.628781
    19  H    6.722117   6.482873   5.293560   4.976220   3.654492
    20  H    7.433688   7.639547   6.661631   6.888153   5.752164
    21  H    8.404375   8.403960   7.220774   7.214852   5.818848
    22  H    7.660297   7.450543   6.912602   6.668792   5.764691
                   16         17         18         19         20
    16  H    0.000000
    17  H    2.839345   0.000000
    18  H    2.513487   3.551730   0.000000
    19  H    3.072293   2.409736   1.764455   0.000000
    20  H    2.630426   3.821892   2.497708   3.050403   0.000000
    21  H    3.800069   4.009667   2.456926   2.444669   1.772926
    22  H    3.180479   2.790800   3.063680   2.485532   1.778123
                   21         22
    21  H    0.000000
    22  H    1.769151   0.000000
 Stoichiometry    C6H13NO2
 Framework group  C1[X(C6H13NO2)]
 Deg. of freedom    60
 Full point group                 C1      NOp   1
 Largest Abelian subgroup         C1      NOp   1
 Largest concise Abelian subgroup C1      NOp   1
                         Standard orientation:                         
 ---------------------------------------------------------------------
 Center     Atomic      Atomic             Coordinates (Angstroms)
 Number     Number       Type             X           Y           Z
 ---------------------------------------------------------------------
      1          6           0        3.749191   -0.626119   -0.206870
      2          6           0        2.612429    0.346138    0.036100
      3          8           0        1.342993   -0.285700   -0.203108
      4          6           0        0.213888    0.444056   -0.017427
      5          7           0        0.196251    1.680061    0.360256
      6          6           0       -1.080583   -0.344804   -0.268375
      7          8           0       -1.174087   -1.478751    0.589010
      8          6           0       -2.304699    0.561991   -0.063442
      9          6           0       -3.626072   -0.140929   -0.317424
     10          1           0        4.710915   -0.133425   -0.028802
     11          1           0        3.732710   -0.998945   -1.235333
     12          1           0        3.672899   -1.492494    0.457046
     13          1           0        2.719839    1.198107   -0.643959
     14          1           0        2.653394    0.690058    1.075596
     15          1           0        1.128776    2.061081    0.488653
     16          1           0       -1.061709   -0.709519   -1.301996
     17          1           0       -1.218116   -1.140807    1.500041
     18          1           0       -2.234538    1.436631   -0.722230
     19          1           0       -2.315506    0.937595    0.968246
     20          1           0       -3.683274   -0.499000   -1.349159
     21          1           0       -4.455249    0.554655   -0.150354
     22          1           0       -3.760070   -0.990763    0.357884
 ---------------------------------------------------------------------
 Rotational constants (GHZ):           3.9717132           0.7360453           0.6558983
 Standard basis: 6-31G(2df,p) (6D, 7F)
 There are   344 symmetry adapted cartesian basis functions of A   symmetry.
 There are   317 symmetry adapted basis functions of A   symmetry.
   317 basis functions,   487 primitive gaussians,   344 cartesian basis functions
    36 alpha electrons       36 beta electrons
       nuclear repulsion energy       474.0989953018 Hartrees.
 NAtoms=   22 NActive=   22 NUniq=   22 SFac= 1.00D+00 NAtFMM=   60 NAOKFM=F Big=F
 Integral buffers will be    131072 words long.
 Raffenetti 2 integral format.
 Two-electron integral symmetry is turned on.
 One-electron integrals computed using PRISM.
 PrsmSu:  requested number of processors reduced to:  13 ShMem   1 Linda.
 NBasis=   317 RedAO= T EigKep=  3.36D-04  NBF=   317
 NBsUse=   317 1.00D-06 EigRej= -1.00D+00 NBFU=   317
 ExpMin= 1.61D-01 ExpMax= 5.48D+03 ExpMxC= 8.25D+02 IAcc=3 IRadAn=         5 AccDes= 0.00D+00
 Harris functional with IExCor=  402 and IRadAn=       5 diagonalized for initial guess.
 HarFok:  IExCor=  402 AccDes= 0.00D+00 IRadAn=         5 IDoV= 1 UseB2=F ITyADJ=14
 ICtDFT=  3500011 ScaDFX=  1.000000  1.000000  1.000000  1.000000
 FoFCou: FMM=F IPFlag=           0 FMFlag=      100000 FMFlg1=           0
         NFxFlg=           0 DoJE=T BraDBF=F KetDBF=T FulRan=T
         wScrn=  0.000000 ICntrl=       500 IOpCl=  0 I1Cent=   200000004 NGrid=           0
         NMat0=    1 NMatS0=      1 NMatT0=    0 NMatD0=    1 NMtDS0=    0 NMtDT0=    0
 Petite list used in FoFCou.
 Requested convergence on RMS density matrix=1.00D-08 within 128 cycles.
 Requested convergence on MAX density matrix=1.00D-06.
 Requested convergence on             energy=1.00D-06.
 No special actions if energy rises.
 Integral accuracy reduced to 1.0D-05 until final iterations.
 Initial convergence to 1.0D-05 achieved.  Increase integral accuracy.
 SCF Done:  E(RB3LYP) =  -441.680764092     A.U. after   13 cycles
            NFock= 13  Conv=0.69D-08     -V/T= 2.0077

 **********************************************************************

            Population analysis using the SCF density.

 **********************************************************************

 Orbital symmetries:
       Occupied  (A) (A) (A) (A) (A) (A) (A) (A) (A) (A) (A) (A)
                 (A) (A) (A) (A) (A) (A) (A) (A) (A) (A) (A) (A)
                 (A) (A) (A) (A) (A) (A) (A) (A) (A) (A) (A) (A)
       Virtual   (A) (A) (A) (A) (A) (A) (A) (A) (A) (A) (A) (A)
                 (A) (A) (A) (A) (A) (A) (A) (A) (A) (A) (A) (A)
                 (A) (A) (A) (A) (A) (A) (A) (A) (A) (A) (A) (A)
                 (A) (A) (A) (A) (A) (A) (A) (A) (A) (A) (A) (A)
                 (A) (A) (A) (A) (A) (A) (A) (A) (A) (A) (A) (A)
                 (A) (A) (A) (A) (A) (A) (A) (A) (A) (A) (A) (A)
                 (A) (A) (A) (A) (A) (A) (A) (A) (A) (A) (A) (A)
                 (A) (A) (A) (A) (A) (A) (A) (A) (A) (A) (A) (A)
                 (A) (A) (A) (A) (A) (A) (A) (A) (A) (A) (A) (A)
                 (A) (A) (A) (A) (A) (A) (A) (A) (A) (A) (A) (A)
                 (A) (A) (A) (A) (A) (A) (A) (A) (A) (A) (A) (A)
                 (A) (A) (A) (A) (A) (A) (A) (A) (A) (A) (A) (A)
                 (A) (A) (A) (A) (A) (A) (A) (A) (A) (A) (A) (A)
                 (A) (A) (A) (A) (A) (A) (A) (A) (A) (A) (A) (A)
                 (A) (A) (A) (A) (A) (A) (A) (A) (A) (A) (A) (A)
                 (A) (A) (A) (A) (A) (A) (A) (A) (A) (A) (A) (A)
                 (A) (A) (A) (A) (A) (A) (A) (A) (A) (A) (A) (A)
                 (A) (A) (A) (A) (A) (A) (A) (A) (A) (A) (A) (A)
                 (A) (A) (A) (A) (A) (A) (A) (A) (A) (A) (A) (A)
                 (A) (A) (A) (A) (A) (A) (A) (A) (A) (A) (A) (A)
                 (A) (A) (A) (A) (A) (A) (A) (A) (A) (A) (A) (A)
                 (A) (A) (A) (A) (A) (A) (A) (A) (A) (A) (A) (A)
                 (A) (A) (A) (A) (A) (A) (A) (A) (A) (A) (A) (A)
                 (A) (A) (A) (A) (A)
 The electronic state is 1-A.
 Alpha  occ. eigenvalues --  -19.17558 -19.13933 -14.29920 -10.27171 -10.24988
 Alpha  occ. eigenvalues --  -10.23979 -10.19052 -10.17169 -10.16395  -1.07343
 Alpha  occ. eigenvalues --   -1.01782  -0.87440  -0.77972  -0.76911  -0.69749
 Alpha  occ. eigenvalues --   -0.64264  -0.59191  -0.56483  -0.53387  -0.49533
 Alpha  occ. eigenvalues --   -0.47549  -0.46494  -0.45348  -0.41852  -0.41326
 Alpha  occ. eigenvalues --   -0.40372  -0.39162  -0.36906  -0.35462  -0.34673
 Alpha  occ. eigenvalues --   -0.34168  -0.33103  -0.31698  -0.27691  -0.26437
 Alpha  occ. eigenvalues --   -0.25894
 Alpha virt. eigenvalues --    0.01496   0.08079   0.09108   0.11165   0.12076
 Alpha virt. eigenvalues --    0.12289   0.13952   0.14883   0.16020   0.16739
 Alpha virt. eigenvalues --    0.17051   0.17868   0.18258   0.18995   0.19560
 Alpha virt. eigenvalues --    0.22053   0.23937   0.24718   0.25303   0.27794
 Alpha virt. eigenvalues --    0.31380   0.38377   0.43831   0.45103   0.47659
 Alpha virt. eigenvalues --    0.48673   0.49376   0.50046   0.50698   0.52315
 Alpha virt. eigenvalues --    0.52504   0.54475   0.55782   0.57105   0.59037
 Alpha virt. eigenvalues --    0.59971   0.60220   0.63116   0.65128   0.68105
 Alpha virt. eigenvalues --    0.68232   0.69545   0.70833   0.72351   0.72607
 Alpha virt. eigenvalues --    0.73482   0.74207   0.74846   0.75433   0.76792
 Alpha virt. eigenvalues --    0.77409   0.77716   0.79203   0.79518   0.80598
 Alpha virt. eigenvalues --    0.84266   0.85818   0.86294   0.87258   0.88127
 Alpha virt. eigenvalues --    0.89328   0.89636   0.91700   0.92917   0.94814
 Alpha virt. eigenvalues --    0.99257   1.02126   1.02648   1.04048   1.08821
 Alpha virt. eigenvalues --    1.11333   1.15313   1.15899   1.19185   1.20683
 Alpha virt. eigenvalues --    1.21003   1.24168   1.24689   1.27300   1.30147
 Alpha virt. eigenvalues --    1.31000   1.35216   1.36106   1.39117   1.39500
 Alpha virt. eigenvalues --    1.41300   1.44365   1.47389   1.49492   1.50139
 Alpha virt. eigenvalues --    1.51729   1.53544   1.56978   1.57756   1.59216
 Alpha virt. eigenvalues --    1.61502   1.64297   1.65340   1.69063   1.69665
 Alpha virt. eigenvalues --    1.71648   1.74191   1.77587   1.78992   1.81353
 Alpha virt. eigenvalues --    1.85741   1.88480   1.89932   1.90204   1.94231
 Alpha virt. eigenvalues --    1.96102   1.97749   2.00670   2.02020   2.11749
 Alpha virt. eigenvalues --    2.15955   2.17334   2.18235   2.19343   2.24209
 Alpha virt. eigenvalues --    2.24927   2.28051   2.28474   2.30400   2.37312
 Alpha virt. eigenvalues --    2.38011   2.44231   2.45940   2.48348   2.53086
 Alpha virt. eigenvalues --    2.54365   2.56869   2.58597   2.60214   2.63376
 Alpha virt. eigenvalues --    2.68563   2.71727   2.74240   2.76023   2.77377
 Alpha virt. eigenvalues --    2.78249   2.80151   2.81626   2.83697   2.85723
 Alpha virt. eigenvalues --    2.86541   2.86949   2.88272   2.90281   2.91713
 Alpha virt. eigenvalues --    2.94781   2.97711   2.98488   2.99944   3.00535
 Alpha virt. eigenvalues --    3.00827   3.03603   3.04812   3.10994   3.13213
 Alpha virt. eigenvalues --    3.14242   3.16350   3.19395   3.25365   3.28559
 Alpha virt. eigenvalues --    3.28884   3.32260   3.34807   3.36467   3.38697
 Alpha virt. eigenvalues --    3.42045   3.46604   3.47014   3.52230   3.53321
 Alpha virt. eigenvalues --    3.55779   3.56482   3.58831   3.60573   3.62361
 Alpha virt. eigenvalues --    3.64467   3.65366   3.69896   3.73665   3.74632
 Alpha virt. eigenvalues --    3.76740   3.81054   3.83119   3.87855   3.92646
 Alpha virt. eigenvalues --    3.95308   3.97697   4.01335   4.03652   4.06188
 Alpha virt. eigenvalues --    4.09568   4.12463   4.14968   4.17343   4.20179
 Alpha virt. eigenvalues --    4.24381   4.27809   4.30043   4.30928   4.31451
 Alpha virt. eigenvalues --    4.35585   4.38874   4.40857   4.42048   4.44491
 Alpha virt. eigenvalues --    4.44874   4.45821   4.47894   4.48781   4.50123
 Alpha virt. eigenvalues --    4.51495   4.54675   4.55850   4.56159   4.59220
 Alpha virt. eigenvalues --    4.59813   4.60318   4.61019   4.63586   4.64641
 Alpha virt. eigenvalues --    4.67543   4.68092   4.69770   4.70597   4.74794
 Alpha virt. eigenvalues --    4.75130   4.75756   4.77466   4.79404   4.83833
 Alpha virt. eigenvalues --    4.84503   4.85181   4.86296   4.88590   4.90501
 Alpha virt. eigenvalues --    4.92260   4.95294   4.95974   4.97678   5.03514
 Alpha virt. eigenvalues --    5.11871   5.24028   5.27011   5.29982   5.36826
 Alpha virt. eigenvalues --    5.39488   5.41667   5.42854   5.46166   5.47694
 Alpha virt. eigenvalues --    5.52552   5.58352   5.62335   5.67419   5.77713
 Alpha virt. eigenvalues --    5.84095   5.91179   5.92543   5.94214   5.99368
 Alpha virt. eigenvalues --    6.08072   6.18782   6.41267   6.48100   7.04756
 Alpha virt. eigenvalues --    7.23535  10.64999  11.20893  11.26818  11.39053
 Alpha virt. eigenvalues --   11.81006  11.85667  12.39720  12.85999  13.34243
 Alpha virt. eigenvalues --   13.81657
          Condensed to atoms (all electrons):
               1          2          3          4          5          6
     1  C    4.961029   0.413982  -0.026883   0.001861   0.001507  -0.000144
     2  C    0.413982   4.713266   0.328391  -0.071017  -0.000249   0.004044
     3  O   -0.026883   0.328391   7.637471   0.468226  -0.065185  -0.032900
     4  C    0.001861  -0.071017   0.468226   4.440450   0.628530   0.332551
     5  N    0.001507  -0.000249  -0.065185   0.628530   6.628414  -0.023468
     6  C   -0.000144   0.004044  -0.032900   0.332551  -0.023468   4.756605
     7  O   -0.000003  -0.000056  -0.001752  -0.021928  -0.002088   0.348756
     8  C    0.000000  -0.000224   0.001152  -0.030956  -0.006666   0.364186
     9  C   -0.000000  -0.000000  -0.000011   0.003081   0.000810  -0.028592
    10  H    0.370819  -0.023478   0.001992  -0.000111   0.000023   0.000003
    11  H    0.375344  -0.022885   0.000952   0.000213  -0.000011   0.000002
    12  H    0.375821  -0.022830   0.000987   0.000176  -0.000014  -0.000006
    13  H   -0.036818   0.363989  -0.029386  -0.001885   0.003802  -0.000209
    14  H   -0.037256   0.362413  -0.029538  -0.001518   0.004812   0.000278
    15  H   -0.000219   0.011474  -0.011749  -0.086854   0.344265   0.007656
    16  H   -0.000000  -0.000115   0.000036  -0.035856   0.001884   0.355726
    17  H   -0.000001  -0.000045   0.000058   0.000080   0.000548  -0.067899
    18  H   -0.000000  -0.000006   0.000042   0.001463   0.003665  -0.019537
    19  H   -0.000000  -0.000006   0.000003  -0.006667   0.006698  -0.021367
    20  H    0.000000   0.000000  -0.000000   0.000082  -0.000006  -0.003382
    21  H    0.000000  -0.000000   0.000000  -0.000090   0.000002   0.002627
    22  H    0.000000   0.000000   0.000000   0.000295  -0.000012  -0.005140
               7          8          9         10         11         12
     1  C   -0.000003   0.000000  -0.000000   0.370819   0.375344   0.375821
     2  C   -0.000056  -0.000224  -0.000000  -0.023478  -0.022885  -0.022830
     3  O   -0.001752   0.001152  -0.000011   0.001992   0.000952   0.000987
     4  C   -0.021928  -0.030956   0.003081  -0.000111   0.000213   0.000176
     5  N   -0.002088  -0.006666   0.000810   0.000023  -0.000011  -0.000014
     6  C    0.348756   0.364186  -0.028592   0.000003   0.000002  -0.000006
     7  O    7.853756  -0.042991  -0.005121  -0.000000   0.000000   0.000000
     8  C   -0.042991   4.895733   0.385285  -0.000000   0.000000   0.000000
     9  C   -0.005121   0.385285   4.996672   0.000000   0.000000   0.000000
    10  H   -0.000000  -0.000000   0.000000   0.582049  -0.028221  -0.028245
    11  H    0.000000   0.000000   0.000000  -0.028221   0.571871  -0.031533
    12  H    0.000000   0.000000   0.000000  -0.028245  -0.031533   0.569993
    13  H   -0.000000   0.000008   0.000000  -0.000114  -0.005852   0.005591
    14  H   -0.000017   0.000011   0.000000  -0.000071   0.005616  -0.005961
    15  H   -0.000150  -0.000371  -0.000010   0.000056   0.000019   0.000020
    16  H   -0.021465  -0.046869  -0.003891   0.000000   0.000003   0.000002
    17  H    0.307129  -0.002667  -0.000103  -0.000000  -0.000000   0.000002
    18  H    0.003116   0.356006  -0.039041  -0.000000  -0.000000   0.000000
    19  H   -0.004010   0.362715  -0.044230  -0.000000   0.000000   0.000000
    20  H   -0.000070  -0.028026   0.373350   0.000000  -0.000000   0.000000
    21  H    0.000235  -0.022685   0.374823  -0.000000   0.000000   0.000000
    22  H    0.011257  -0.025409   0.370884   0.000000  -0.000000  -0.000000
              13         14         15         16         17         18
     1  C   -0.036818  -0.037256  -0.000219  -0.000000  -0.000001  -0.000000
     2  C    0.363989   0.362413   0.011474  -0.000115  -0.000045  -0.000006
     3  O   -0.029386  -0.029538  -0.011749   0.000036   0.000058   0.000042
     4  C   -0.001885  -0.001518  -0.086854  -0.035856   0.000080   0.001463
     5  N    0.003802   0.004812   0.344265   0.001884   0.000548   0.003665
     6  C   -0.000209   0.000278   0.007656   0.355726  -0.067899  -0.019537
     7  O   -0.000000  -0.000017  -0.000150  -0.021465   0.307129   0.003116
     8  C    0.000008   0.000011  -0.000371  -0.046869  -0.002667   0.356006
     9  C    0.000000   0.000000  -0.000010  -0.003891  -0.000103  -0.039041
    10  H   -0.000114  -0.000071   0.000056   0.000000  -0.000000  -0.000000
    11  H   -0.005852   0.005616   0.000019   0.000003  -0.000000  -0.000000
    12  H    0.005591  -0.005961   0.000020   0.000002   0.000002   0.000000
    13  H    0.639967  -0.056883   0.003439  -0.000023   0.000001   0.000003
    14  H   -0.056883   0.640946   0.003485   0.000026   0.000002  -0.000001
    15  H    0.003439   0.003485   0.511738  -0.000278  -0.000050  -0.000037
    16  H   -0.000023   0.000026  -0.000278   0.627604   0.007132  -0.001127
    17  H    0.000001   0.000002  -0.000050   0.007132   0.464141  -0.000130
    18  H    0.000003  -0.000001  -0.000037  -0.001127  -0.000130   0.617487
    19  H   -0.000001   0.000002  -0.000211   0.005938   0.005763  -0.031083
    20  H    0.000000  -0.000000   0.000000   0.004529   0.000085  -0.003566
    21  H    0.000000   0.000000  -0.000000  -0.000114  -0.000057  -0.003199
    22  H   -0.000000   0.000000   0.000001  -0.000170   0.000100   0.005657
              19         20         21         22
     1  C   -0.000000   0.000000   0.000000   0.000000
     2  C   -0.000006   0.000000  -0.000000   0.000000
     3  O    0.000003  -0.000000   0.000000   0.000000
     4  C   -0.006667   0.000082  -0.000090   0.000295
     5  N    0.006698  -0.000006   0.000002  -0.000012
     6  C   -0.021367  -0.003382   0.002627  -0.005140
     7  O   -0.004010  -0.000070   0.000235   0.011257
     8  C    0.362715  -0.028026  -0.022685  -0.025409
     9  C   -0.044230   0.373350   0.374823   0.370884
    10  H   -0.000000   0.000000  -0.000000   0.000000
    11  H    0.000000  -0.000000   0.000000  -0.000000
    12  H    0.000000   0.000000   0.000000  -0.000000
    13  H   -0.000001   0.000000   0.000000  -0.000000
    14  H    0.000002  -0.000000   0.000000   0.000000
    15  H   -0.000211   0.000000  -0.000000   0.000001
    16  H    0.005938   0.004529  -0.000114  -0.000170
    17  H    0.005763   0.000085  -0.000057   0.000100
    18  H   -0.031083  -0.003566  -0.003199   0.005657
    19  H    0.627208   0.005754  -0.002685  -0.003919
    20  H    0.005754   0.605496  -0.032035  -0.030781
    21  H   -0.002685  -0.032035   0.606911  -0.032559
    22  H   -0.003919  -0.030781  -0.032559   0.590598
 Mulliken charges:
               1
     1  C   -0.399038
     2  C   -0.056647
     3  O   -0.241905
     4  C    0.379875
     5  N   -0.527261
     6  C    0.030212
     7  O   -0.424597
     8  C   -0.158231
     9  C   -0.383904
    10  H    0.125297
    11  H    0.134481
    12  H    0.135999
    13  H    0.114370
    14  H    0.113656
    15  H    0.217773
    16  H    0.107030
    17  H    0.285911
    18  H    0.110287
    19  H    0.100097
    20  H    0.108570
    21  H    0.108826
    22  H    0.119198
 Sum of Mulliken charges =  -0.00000
 Mulliken charges with hydrogens summed into heavy atoms:
               1
     1  C   -0.003260
     2  C    0.171378
     3  O   -0.241905
     4  C    0.379875
     5  N   -0.309489
     6  C    0.137242
     7  O   -0.138686
     8  C    0.052153
     9  C   -0.047309
 Electronic spatial extent (au):  <R**2>=           1804.9393
 Charge=              0.0000 electrons
 Dipole moment (field-independent basis, Debye):
    X=              2.1983    Y=              0.4139    Z=              0.3261  Tot=              2.2605
 Quadrupole moment (field-independent basis, Debye-Ang):
   XX=            -47.8520   YY=            -62.1483   ZZ=            -51.8388
   XY=              1.6106   XZ=             -0.0135   YZ=             -1.1044
 Traceless Quadrupole moment (field-independent basis, Debye-Ang):
   XX=              6.0944   YY=             -8.2019   ZZ=              2.1075
   XY=              1.6106   XZ=             -0.0135   YZ=             -1.1044
 Octapole moment (field-independent basis, Debye-Ang**2):
  XXX=             31.3271  YYY=             -5.4607  ZZZ=              6.5782  XYY=             10.6994
  XXY=              6.3485  XXZ=              3.8528  XZZ=             -2.1901  YZZ=             -6.4420
  YYZ=             -0.7631  XYZ=              1.6743
 Hexadecapole moment (field-independent basis, Debye-Ang**3):
 XXXX=          -1892.7632 YYYY=           -345.8585 ZZZZ=           -108.0870 XXXY=              1.3076
 XXXZ=            -10.8088 YYYX=             10.8748 YYYZ=             -5.1428 ZZZX=            -11.0497
 ZZZY=             -8.6010 XXYY=           -374.8108 XXZZ=           -336.3026 YYZZ=            -70.0159
 XXYZ=             -1.7333 YYXZ=              1.9292 ZZXY=              7.1906
 N-N= 4.740989953018D+02 E-N=-1.978445800102D+03  KE= 4.383225397870D+02
 PrsmSu:  requested number of processors reduced to:  13 ShMem   1 Linda.
 Calling FoFJK, ICntrl=      2127 FMM=F ISym2X=0 I1Cent= 0 IOpClX= 0 NMat=1 NMatS=1 NMatT=0.
 ***** Axes restored to original set *****
 -------------------------------------------------------------------
 Center     Atomic                   Forces (Hartrees/Bohr)
 Number     Number              X              Y              Z
 -------------------------------------------------------------------
      1        6          -0.003164421   -0.007013295   -0.006067778
      2        6           0.001722542   -0.002337738   -0.001856599
      3        8          -0.008051412   -0.006414527   -0.004535492
      4        6           0.010641889    0.027004773    0.020431135
      5        7          -0.007578472   -0.020553902   -0.016867540
      6        6           0.011461202    0.012454895    0.001718909
      7        8          -0.004537392    0.004584227    0.001328777
      8        6           0.003344646   -0.001091725    0.004671657
      9        6           0.000997177   -0.003629359   -0.003587358
     10        1           0.001662175   -0.000592004   -0.000436464
     11        1           0.000048505    0.000387304    0.000954980
     12        1           0.000145408    0.000871983    0.000256387
     13        1           0.003575581    0.002145645    0.000893753
     14        1           0.003672464    0.000804795    0.001742856
     15        1          -0.000903701    0.000487380    0.000274958
     16        1          -0.003385655    0.000327770   -0.004247490
     17        1          -0.003255799   -0.007239931    0.003067141
     18        1          -0.001983689    0.003747440   -0.000965391
     19        1          -0.003187166    0.001670280    0.004828581
     20        1           0.000302242   -0.002485189   -0.001901660
     21        1          -0.000481711   -0.001283535   -0.000076411
     22        1          -0.001044414   -0.001845288    0.000373051
 -------------------------------------------------------------------
 Cartesian Forces:  Max     0.027004773 RMS     0.006592180

 GradGradGradGradGradGradGradGradGradGradGradGradGradGradGradGradGradGrad
 Berny optimization.
 FormGI is forming the generalized inverse of G from B-inverse, IUseBI=4.
 Internal  Forces:  Max     0.025174544 RMS     0.005026843
 Search for a local minimum.
 Step number   1 out of a maximum of  110
 All quantities printed in internal units (Hartrees-Bohrs-Radians)
 Mixed Optimization -- RFO/linear search
 Second derivative matrix not updated -- first step.
 ITU=  0
     Eigenvalues ---    0.00275   0.00283   0.00527   0.00562   0.01189
     Eigenvalues ---    0.01339   0.01365   0.02258   0.03113   0.03505
     Eigenvalues ---    0.04847   0.04945   0.05203   0.05291   0.05607
     Eigenvalues ---    0.05689   0.05727   0.05782   0.06039   0.07722
     Eigenvalues ---    0.08472   0.11319   0.12294   0.13782   0.16000
     Eigenvalues ---    0.16000   0.16000   0.16000   0.16000   0.16000
     Eigenvalues ---    0.16000   0.16000   0.17438   0.20153   0.21943
     Eigenvalues ---    0.22120   0.24995   0.24998   0.25000   0.28776
     Eigenvalues ---    0.28828   0.30550   0.30810   0.33906   0.33990
     Eigenvalues ---    0.34101   0.34165   0.34198   0.34223   0.34228
     Eigenvalues ---    0.34335   0.34346   0.34387   0.34400   0.39858
     Eigenvalues ---    0.41765   0.45062   0.52832   0.53525   0.69308
 RFO step:  Lambda=-1.00094417D-02 EMin= 2.74933160D-03
 Linear search not attempted -- first point.
 Iteration  1 RMS(Cart)=  0.12196131 RMS(Int)=  0.00342047
 Iteration  2 RMS(Cart)=  0.00927666 RMS(Int)=  0.00047974
 Iteration  3 RMS(Cart)=  0.00002050 RMS(Int)=  0.00047969
 Iteration  4 RMS(Cart)=  0.00000002 RMS(Int)=  0.00047969
 Variable       Old X    -DE/DX   Delta X   Delta X   Delta X     New X
                                 (Linear)    (Quad)   (Total)
    R1        2.86376   0.00144   0.00000   0.00452   0.00452   2.86828
    R2        2.06955  -0.00128   0.00000  -0.00364  -0.00364   2.06591
    R3        2.06751  -0.00007   0.00000  -0.00019  -0.00019   2.06732
    R4        2.06768  -0.00015   0.00000  -0.00042  -0.00042   2.06726
    R5        2.71747  -0.00960   0.00000  -0.02350  -0.02350   2.69397
    R6        2.06998   0.00162   0.00000   0.00461   0.00461   2.07459
    R7        2.07053   0.00133   0.00000   0.00379   0.00379   2.07432
    R8        2.56467  -0.00139   0.00000  -0.00256  -0.00256   2.56212
    R9        2.44255  -0.02517   0.00000  -0.03581  -0.03581   2.40674
   R10        2.90362  -0.00755   0.00000  -0.02531  -0.02531   2.87832
   R11        1.91904   0.00089   0.00000   0.00193   0.00193   1.92097
   R12        2.69224  -0.00169   0.00000  -0.00394  -0.00394   2.68830
   R13        2.90473  -0.00189   0.00000  -0.00635  -0.00635   2.89838
   R14        2.07160  -0.00042   0.00000  -0.00119  -0.00119   2.07041
   R15        1.83811  -0.00850   0.00000  -0.01580  -0.01580   1.82232
   R16        2.86879   0.00970   0.00000   0.03074   0.03074   2.89954
   R17        2.07347  -0.00218   0.00000  -0.00622  -0.00622   2.06725
   R18        2.07489  -0.00125   0.00000  -0.00359  -0.00359   2.07131
   R19        2.06661   0.00157   0.00000   0.00443   0.00443   2.07104
   R20        2.06947  -0.00048   0.00000  -0.00137  -0.00137   2.06811
   R21        2.06682  -0.00031   0.00000  -0.00088  -0.00088   2.06594
    A1        1.92200  -0.00217   0.00000  -0.01634  -0.01635   1.90564
    A2        1.93696   0.00042   0.00000   0.00417   0.00413   1.94110
    A3        1.93736   0.00033   0.00000   0.00382   0.00378   1.94114
    A4        1.89587   0.00042   0.00000  -0.00109  -0.00111   1.89476
    A5        1.89525   0.00052   0.00000  -0.00014  -0.00016   1.89509
    A6        1.87498   0.00056   0.00000   0.01005   0.00999   1.88497
    A7        1.93223  -0.01288   0.00000  -0.05494  -0.05455   1.87769
    A8        1.90277   0.00548   0.00000   0.03174   0.03154   1.93430
    A9        1.90228   0.00574   0.00000   0.03219   0.03192   1.93420
   A10        1.90184   0.00315   0.00000   0.00917   0.00965   1.91149
   A11        1.90576   0.00270   0.00000   0.00433   0.00478   1.91054
   A12        1.91899  -0.00425   0.00000  -0.02285  -0.02348   1.89551
   A13        2.06622   0.00323   0.00000   0.01243   0.01243   2.07866
   A14        2.17185   0.02236   0.00000   0.08613   0.08610   2.25795
   A15        1.98503  -0.01947   0.00000  -0.07478  -0.07482   1.91021
   A16        2.12607  -0.00289   0.00000  -0.01102  -0.01106   2.11501
   A17        1.96406  -0.00108   0.00000  -0.00638  -0.00638   1.95768
   A18        1.94512  -0.00651   0.00000  -0.02178  -0.02458   1.92054
   A19        1.92438   0.00503   0.00000   0.04516   0.04450   1.96888
   A20        1.88630  -0.00035   0.00000  -0.01571  -0.01666   1.86964
   A21        1.91457   0.00709   0.00000   0.05456   0.05433   1.96890
   A22        1.87943  -0.00354   0.00000  -0.06092  -0.06137   1.81806
   A23        1.91313  -0.00205   0.00000  -0.00502  -0.00408   1.90905
   A24        1.86513  -0.00061   0.00000  -0.00362  -0.00362   1.86151
   A25        1.97982  -0.00473   0.00000  -0.01684  -0.01661   1.96321
   A26        1.91695   0.00030   0.00000  -0.01060  -0.01054   1.90641
   A27        1.91231  -0.00176   0.00000  -0.02275  -0.02262   1.88969
   A28        1.90107   0.00302   0.00000   0.02470   0.02444   1.92551
   A29        1.88286   0.00542   0.00000   0.04643   0.04622   1.92908
   A30        1.86722  -0.00204   0.00000  -0.02032  -0.02134   1.84587
   A31        1.93368   0.00312   0.00000   0.01635   0.01631   1.94999
   A32        1.91709   0.00101   0.00000   0.00856   0.00849   1.92558
   A33        1.94241   0.00041   0.00000   0.00174   0.00173   1.94414
   A34        1.88840  -0.00194   0.00000  -0.01020  -0.01029   1.87811
   A35        1.89831  -0.00257   0.00000  -0.01995  -0.01993   1.87839
   A36        1.88239  -0.00021   0.00000   0.00255   0.00252   1.88490
    D1        3.13477   0.00013   0.00000   0.00268   0.00268   3.13746
    D2        1.04284   0.00070   0.00000   0.00501   0.00533   1.04816
    D3       -1.05195  -0.00084   0.00000  -0.00539  -0.00571  -1.05765
    D4        1.03484   0.00076   0.00000   0.01210   0.01211   1.04695
    D5       -1.05710   0.00133   0.00000   0.01443   0.01475  -1.04234
    D6        3.13131  -0.00021   0.00000   0.00402   0.00372   3.13502
    D7       -1.04899  -0.00044   0.00000  -0.00578  -0.00579  -1.05478
    D8       -3.14093   0.00013   0.00000  -0.00345  -0.00314   3.13911
    D9        1.04747  -0.00140   0.00000  -0.01385  -0.01418   1.03330
   D10        3.12997   0.00003   0.00000   0.00089   0.00096   3.13093
   D11       -1.06072   0.00087   0.00000   0.01211   0.01221  -1.04851
   D12        1.03559  -0.00079   0.00000  -0.00757  -0.00773   1.02786
   D13        0.00265   0.00028   0.00000   0.01378   0.01402   0.01667
   D14       -3.11608   0.00008   0.00000  -0.00251  -0.00275  -3.11883
   D15        0.01968  -0.00014   0.00000  -0.01123  -0.01173   0.00794
   D16        3.13664  -0.00009   0.00000   0.00568   0.00618  -3.14036
   D17        1.03060  -0.00480   0.00000  -0.02279  -0.02247   1.00814
   D18       -3.12201   0.00328   0.00000   0.06317   0.06256  -3.05945
   D19       -1.03122   0.00352   0.00000   0.07398   0.07338  -0.95784
   D20       -2.08880  -0.00537   0.00000  -0.04006  -0.03915  -2.12795
   D21        0.04177   0.00270   0.00000   0.04590   0.04588   0.08765
   D22        2.13257   0.00294   0.00000   0.05670   0.05670   2.18926
   D23        1.10598   0.00441   0.00000   0.04967   0.04851   1.15449
   D24       -1.03025  -0.00249   0.00000  -0.03071  -0.03085  -1.06110
   D25       -3.11127  -0.00194   0.00000  -0.01967  -0.01838  -3.12964
   D26        3.12412  -0.00019   0.00000  -0.02572  -0.02652   3.09760
   D27        0.99226  -0.00101   0.00000  -0.03811  -0.03882   0.95344
   D28       -1.05400   0.00232   0.00000   0.00615   0.00528  -1.04872
   D29       -1.01056  -0.00024   0.00000   0.01383   0.01465  -0.99591
   D30        3.14077  -0.00107   0.00000   0.00144   0.00234  -3.14008
   D31        1.09451   0.00227   0.00000   0.04570   0.04644   1.14095
   D32        1.04963  -0.00155   0.00000  -0.03088  -0.03091   1.01872
   D33       -1.08223  -0.00238   0.00000  -0.04327  -0.04321  -1.12544
   D34       -3.12849   0.00096   0.00000   0.00099   0.00089  -3.12760
   D35       -1.06117  -0.00003   0.00000  -0.00198  -0.00197  -1.06314
   D36        3.13667  -0.00023   0.00000  -0.00509  -0.00512   3.13155
   D37        1.05330  -0.00089   0.00000  -0.01493  -0.01497   1.03833
   D38        1.07949  -0.00067   0.00000  -0.00901  -0.00923   1.07026
   D39       -1.00585  -0.00087   0.00000  -0.01212  -0.01238  -1.01823
   D40       -3.08922  -0.00152   0.00000  -0.02196  -0.02223  -3.11145
   D41        3.10039   0.00142   0.00000   0.00487   0.00517   3.10556
   D42        1.01505   0.00122   0.00000   0.00177   0.00202   1.01707
   D43       -1.06832   0.00056   0.00000  -0.00808  -0.00782  -1.07615
         Item               Value     Threshold  Converged?
 Maximum Force            0.025175     0.000450     NO 
 RMS     Force            0.005027     0.000300     NO 
 Maximum Displacement     0.338475     0.001800     NO 
 RMS     Displacement     0.127158     0.001200     NO 
 Predicted change in Energy=-5.333559D-03
 GradGradGradGradGradGradGradGradGradGradGradGradGradGradGradGradGradGrad

                          Input orientation:                          
 ---------------------------------------------------------------------
 Center     Atomic      Atomic             Coordinates (Angstroms)
 Number     Number       Type             X           Y           Z
 ---------------------------------------------------------------------
      1          6           0        1.073343   -0.240511   -0.159073
      2          6           0        2.578114   -0.071203   -0.055156
      3          8           0        3.181021   -1.054930   -0.892461
      4          6           0        4.532855   -1.104140   -0.983836
      5          7           0        5.408657   -0.386390   -0.400871
      6          6           0        4.935714   -2.206645   -1.954478
      7          8           0        4.346630   -1.973887   -3.228273
      8          6           0        6.454466   -2.407113   -2.029428
      9          6           0        6.848848   -3.559944   -2.962022
     10          1           0        0.583573    0.500577    0.478165
     11          1           0        0.763816   -1.238201    0.165877
     12          1           0        0.728951   -0.097958   -1.187563
     13          1           0        2.916339   -0.213050    0.979592
     14          1           0        2.882152    0.929332   -0.388930
     15          1           0        4.989637    0.304422    0.216012
     16          1           0        4.463651   -3.131796   -1.605738
     17          1           0        4.747270   -1.168171   -3.575029
     18          1           0        6.844871   -2.582304   -1.022653
     19          1           0        6.908861   -1.468047   -2.365720
     20          1           0        6.434232   -4.516076   -2.622897
     21          1           0        7.937616   -3.665068   -2.997144
     22          1           0        6.493063   -3.387795   -3.981324
 ---------------------------------------------------------------------
                    Distance matrix (angstroms):
                    1          2          3          4          5
     1  C    0.000000
     2  C    1.517826   0.000000
     3  O    2.375593   1.425586   0.000000
     4  C    3.659824   2.398004   1.355813   0.000000
     5  N    4.344501   2.868944   2.377177   1.273594   0.000000
     6  C    4.691170   3.704837   2.352292   1.523141   2.439406
     7  O    4.810301   4.100796   2.767516   2.414257   3.412074
     8  C    6.094987   4.937644   3.719749   2.546289   2.798077
     9  C    7.227144   6.233807   4.900116   3.912545   4.324938
    10  H    1.093232   2.142324   3.323394   4.506594   4.984059
    11  H    1.093977   2.168506   2.645098   3.942774   4.756189
    12  H    1.093947   2.168516   2.648683   3.939999   4.754127
    13  H    2.166551   1.097826   2.069638   2.694850   2.854361
    14  H    2.166369   1.097685   2.068855   2.685841   2.848595
    15  H    3.971775   2.455620   2.519453   1.905868   1.016536
    16  H    4.684715   3.914944   2.543084   2.122013   3.143564
    17  H    5.101671   4.277625   3.108396   2.600837   3.335249
    18  H    6.288108   5.044492   3.971602   2.744429   2.696547
    19  H    6.358412   5.103455   4.029635   2.772622   2.698375
    20  H    7.286290   6.420268   5.055426   4.235925   4.800366
    21  H    8.179272   7.091927   5.819598   4.712129   4.887331
    22  H    7.340869   6.460759   5.094404   4.247637   4.796249
                    6          7          8          9         10
     6  C    0.000000
     7  O    1.422586   0.000000
     8  C    1.533757   2.463307   0.000000
     9  C    2.550812   2.974484   1.534369   0.000000
    10  H    5.673441   5.832774   7.014988   8.220485   0.000000
    11  H    4.778967   4.989795   6.210412   7.225085   1.775770
    12  H    4.767764   4.557544   6.230766   7.251702   1.775958
    13  H    4.081797   4.780420   5.136775   6.496356   2.490479
    14  H    4.062316   4.316857   5.156018   6.519898   2.493822
    15  H    3.319548   4.179384   3.813155   5.337592   4.418212
    16  H    1.095613   1.996764   2.160561   2.777045   5.708922
    17  H    1.933940   0.964329   2.615029   3.242374   6.045615
    18  H    2.157382   3.387645   1.093940   2.171853   7.138659
    19  H    2.146615   2.750436   1.096089   2.176054   7.209191
    20  H    2.832986   3.344740   2.190968   1.095947   8.307442
    21  H    3.496508   3.976015   2.172248   1.094396   9.138508
    22  H    2.815769   2.678319   2.184748   1.093250   8.362328
                   11         12         13         14         15
    11  H    0.000000
    12  H    1.770076   0.000000
    13  H    2.519211   3.081310   0.000000
    14  H    3.081129   2.515833   1.782991   0.000000
    15  H    4.498862   4.503929   2.269228   2.279903   0.000000
    16  H    4.518086   4.829806   4.194900   4.524878   3.924670
    17  H    5.465088   4.795021   5.000913   4.246105   4.074219
    18  H    6.340224   6.603306   5.005569   5.332573   3.648202
    19  H    6.650067   6.438671   5.357832   5.086208   3.672930
    20  H    7.118662   7.357322   6.623408   6.874617   5.777843
    21  H    8.207180   8.244011   7.276269   7.312251   5.896763
    22  H    7.392178   7.200910   6.890765   6.676942   5.788816
                   16         17         18         19         20
    16  H    0.000000
    17  H    2.795420   0.000000
    18  H    2.512397   3.593651   0.000000
    19  H    3.053635   2.494961   1.746280   0.000000
    20  H    2.614199   3.867928   2.543399   3.095464   0.000000
    21  H    3.780056   4.092280   2.503015   2.506778   1.767609
    22  H    3.134877   2.852999   3.086473   2.543324   1.766863
                   21         22
    21  H    0.000000
    22  H    1.769809   0.000000
 Stoichiometry    C6H13NO2
 Framework group  C1[X(C6H13NO2)]
 Deg. of freedom    60
 Full point group                 C1      NOp   1
 Largest Abelian subgroup         C1      NOp   1
 Largest concise Abelian subgroup C1      NOp   1
                         Standard orientation:                         
 ---------------------------------------------------------------------
 Center     Atomic      Atomic             Coordinates (Angstroms)
 Number     Number       Type             X           Y           Z
 ---------------------------------------------------------------------
      1          6           0        3.631136   -0.742178   -0.260788
      2          6           0        2.606507    0.345512    0.005414
      3          8           0        1.313534   -0.228083   -0.172077
      4          6           0        0.216876    0.544976    0.022730
      5          7           0        0.142311    1.775651    0.341978
      6          6           0       -1.037820   -0.291358   -0.192307
      7          8           0       -1.037103   -1.407109    0.690219
      8          6           0       -2.326254    0.535988   -0.103726
      9          6           0       -3.581519   -0.301230   -0.382412
     10          1           0        4.635218   -0.328264   -0.135688
     11          1           0        3.539454   -1.131843   -1.278895
     12          1           0        3.509970   -1.578779    0.433573
     13          1           0        2.735468    1.182631   -0.693029
     14          1           0        2.699852    0.727063    1.030411
     15          1           0        1.059642    2.200244    0.449542
     16          1           0       -0.960572   -0.738268   -1.189639
     17          1           0       -1.115267   -1.052861    1.583711
     18          1           0       -2.265206    1.373972   -0.804269
     19          1           0       -2.377962    0.985640    0.894548
     20          1           0       -3.567030   -0.730889   -1.390521
     21          1           0       -4.478788    0.319932   -0.300148
     22          1           0       -3.675968   -1.126857    0.327951
 ---------------------------------------------------------------------
 Rotational constants (GHZ):           3.7421134           0.7615155           0.6732529
 Standard basis: 6-31G(2df,p) (6D, 7F)
 There are   344 symmetry adapted cartesian basis functions of A   symmetry.
 There are   317 symmetry adapted basis functions of A   symmetry.
   317 basis functions,   487 primitive gaussians,   344 cartesian basis functions
    36 alpha electrons       36 beta electrons
       nuclear repulsion energy       476.2647180647 Hartrees.
 NAtoms=   22 NActive=   22 NUniq=   22 SFac= 1.00D+00 NAtFMM=   60 NAOKFM=F Big=F
 Integral buffers will be    131072 words long.
 Raffenetti 2 integral format.
 Two-electron integral symmetry is turned on.
 One-electron integrals computed using PRISM.
 PrsmSu:  requested number of processors reduced to:  13 ShMem   1 Linda.
 NBasis=   317 RedAO= T EigKep=  3.04D-04  NBF=   317
 NBsUse=   317 1.00D-06 EigRej= -1.00D+00 NBFU=   317
 Initial guess from the checkpoint file:  "CCOCpdNpCpOpCC.chk"
 B after Tr=     0.000000   -0.000000    0.000000
         Rot=    0.999727    0.022886   -0.001711   -0.004424 Ang=   2.68 deg.
 ExpMin= 1.61D-01 ExpMax= 5.48D+03 ExpMxC= 8.25D+02 IAcc=2 IRadAn=         4 AccDes= 0.00D+00
 Harris functional with IExCor=  402 and IRadAn=       4 diagonalized for initial guess.
 HarFok:  IExCor=  402 AccDes= 0.00D+00 IRadAn=         4 IDoV= 1 UseB2=F ITyADJ=14
 ICtDFT=  3500011 ScaDFX=  1.000000  1.000000  1.000000  1.000000
 FoFCou: FMM=F IPFlag=           0 FMFlag=      100000 FMFlg1=           0
         NFxFlg=           0 DoJE=T BraDBF=F KetDBF=T FulRan=T
         wScrn=  0.000000 ICntrl=       500 IOpCl=  0 I1Cent=   200000004 NGrid=           0
         NMat0=    1 NMatS0=      1 NMatT0=    0 NMatD0=    1 NMtDS0=    0 NMtDT0=    0
 Petite list used in FoFCou.
 Requested convergence on RMS density matrix=1.00D-08 within 128 cycles.
 Requested convergence on MAX density matrix=1.00D-06.
 Requested convergence on             energy=1.00D-06.
 No special actions if energy rises.
 Integral accuracy reduced to 1.0D-05 until final iterations.
 Initial convergence to 1.0D-05 achieved.  Increase integral accuracy.
 SCF Done:  E(RB3LYP) =  -441.685375463     A.U. after   11 cycles
            NFock= 11  Conv=0.10D-07     -V/T= 2.0074
 PrsmSu:  requested number of processors reduced to:  13 ShMem   1 Linda.
 Calling FoFJK, ICntrl=      2127 FMM=F ISym2X=0 I1Cent= 0 IOpClX= 0 NMat=1 NMatS=1 NMatT=0.
 ***** Axes restored to original set *****
 -------------------------------------------------------------------
 Center     Atomic                   Forces (Hartrees/Bohr)
 Number     Number              X              Y              Z
 -------------------------------------------------------------------
      1        6          -0.001252776    0.000600855    0.000447343
      2        6          -0.000165290   -0.001725040   -0.001667692
      3        8           0.002498259   -0.000970472    0.000077768
      4        6           0.003827973    0.000719767    0.001334607
      5        7          -0.006445687   -0.002300102   -0.002484508
      6        6           0.002455255   -0.002244084    0.001936026
      7        8           0.001216835    0.001402810   -0.001949842
      8        6          -0.001934974   -0.002047685   -0.002817401
      9        6           0.001018377    0.001521693    0.000420568
     10        1          -0.001327585    0.000078938    0.000133160
     11        1           0.001033164    0.000387110    0.000334046
     12        1           0.001087637    0.000325480    0.000302378
     13        1           0.000512607    0.001048421    0.000521277
     14        1           0.000540513    0.000710086    0.000966491
     15        1          -0.000491701    0.002611159    0.002077915
     16        1          -0.000756890   -0.001052960    0.000429187
     17        1          -0.000456578   -0.000037487   -0.001192223
     18        1          -0.000951437    0.000581838    0.000388081
     19        1           0.000828491    0.000095059    0.000174005
     20        1          -0.000368974    0.000449098    0.000393148
     21        1          -0.000053242   -0.000291704   -0.000132276
     22        1          -0.000813977    0.000137222    0.000307942
 -------------------------------------------------------------------
 Cartesian Forces:  Max     0.006445687 RMS     0.001521376

 GradGradGradGradGradGradGradGradGradGradGradGradGradGradGradGradGradGrad
 Berny optimization.
 Using GEDIIS/GDIIS optimizer.
 FormGI is forming the generalized inverse of G from B-inverse, IUseBI=4.
 Internal  Forces:  Max     0.005917651 RMS     0.001351258
 Search for a local minimum.
 Step number   2 out of a maximum of  110
 All quantities printed in internal units (Hartrees-Bohrs-Radians)
 Mixed Optimization -- RFO/linear search
 Update second derivatives using D2CorX and points    1    2
 DE= -4.61D-03 DEPred=-5.33D-03 R= 8.65D-01
 TightC=F SS=  1.41D+00  RLast= 2.61D-01 DXNew= 5.0454D-01 7.8177D-01
 Trust test= 8.65D-01 RLast= 2.61D-01 DXMaxT set to 5.05D-01
 ITU=  1  0
 Use linear search instead of GDIIS.
     Eigenvalues ---    0.00275   0.00281   0.00526   0.00562   0.01189
     Eigenvalues ---    0.01365   0.01446   0.02258   0.03113   0.03539
     Eigenvalues ---    0.04427   0.04836   0.05136   0.05435   0.05522
     Eigenvalues ---    0.05655   0.05668   0.05835   0.05877   0.08213
     Eigenvalues ---    0.08312   0.11081   0.12271   0.13584   0.15842
     Eigenvalues ---    0.16000   0.16000   0.16000   0.16000   0.16000
     Eigenvalues ---    0.16000   0.16166   0.18484   0.20171   0.21667
     Eigenvalues ---    0.21983   0.24416   0.25000   0.27854   0.28704
     Eigenvalues ---    0.29735   0.30804   0.31935   0.33916   0.33976
     Eigenvalues ---    0.34152   0.34161   0.34189   0.34227   0.34286
     Eigenvalues ---    0.34340   0.34374   0.34387   0.34482   0.40077
     Eigenvalues ---    0.42108   0.45262   0.52716   0.53672   0.66765
 RFO step:  Lambda=-9.28232084D-04 EMin= 2.75108535D-03
 Quartic linear search produced a step of -0.07305.
 Iteration  1 RMS(Cart)=  0.08369752 RMS(Int)=  0.00185774
 Iteration  2 RMS(Cart)=  0.00310470 RMS(Int)=  0.00003888
 Iteration  3 RMS(Cart)=  0.00000234 RMS(Int)=  0.00003884
 Iteration  4 RMS(Cart)=  0.00000000 RMS(Int)=  0.00003884
 Variable       Old X    -DE/DX   Delta X   Delta X   Delta X     New X
                                 (Linear)    (Quad)   (Total)
    R1        2.86828   0.00022  -0.00033   0.00130   0.00097   2.86924
    R2        2.06591   0.00073   0.00027   0.00144   0.00170   2.06761
    R3        2.06732  -0.00055   0.00001  -0.00149  -0.00148   2.06584
    R4        2.06726  -0.00058   0.00003  -0.00163  -0.00160   2.06566
    R5        2.69397   0.00141   0.00172  -0.00008   0.00163   2.69560
    R6        2.07459   0.00051  -0.00034   0.00204   0.00171   2.07630
    R7        2.07432   0.00050  -0.00028   0.00190   0.00162   2.07595
    R8        2.56212  -0.00283   0.00019  -0.00523  -0.00505   2.55707
    R9        2.40674  -0.00478   0.00262  -0.01145  -0.00883   2.39791
   R10        2.87832   0.00243   0.00185   0.00413   0.00598   2.88430
   R11        1.92097   0.00324  -0.00014   0.00690   0.00676   1.92774
   R12        2.68830   0.00272   0.00029   0.00545   0.00574   2.69404
   R13        2.89838  -0.00225   0.00046  -0.00811  -0.00765   2.89073
   R14        2.07041   0.00135   0.00009   0.00349   0.00357   2.07398
   R15        1.82232   0.00021   0.00115  -0.00188  -0.00073   1.82159
   R16        2.89954  -0.00202  -0.00225  -0.00171  -0.00395   2.89559
   R17        2.06725  -0.00008   0.00045  -0.00109  -0.00064   2.06661
   R18        2.07131   0.00037   0.00026   0.00050   0.00076   2.07207
   R19        2.07104  -0.00013  -0.00032   0.00028  -0.00004   2.07100
   R20        2.06811  -0.00002   0.00010  -0.00025  -0.00015   2.06796
   R21        2.06594  -0.00000   0.00006  -0.00013  -0.00006   2.06588
    A1        1.90564   0.00210   0.00119   0.01101   0.01223   1.91788
    A2        1.94110  -0.00143  -0.00030  -0.00838  -0.00870   1.93240
    A3        1.94114  -0.00147  -0.00028  -0.00850  -0.00879   1.93236
    A4        1.89476  -0.00024   0.00008  -0.00043  -0.00032   1.89444
    A5        1.89509  -0.00018   0.00001   0.00036   0.00040   1.89549
    A6        1.88497   0.00124  -0.00073   0.00616   0.00538   1.89035
    A7        1.87769   0.00076   0.00398  -0.00224   0.00170   1.87939
    A8        1.93430   0.00009  -0.00230   0.00528   0.00298   1.93729
    A9        1.93420   0.00014  -0.00233   0.00570   0.00338   1.93758
   A10        1.91149  -0.00008  -0.00070   0.00360   0.00285   1.91433
   A11        1.91054  -0.00011  -0.00035   0.00277   0.00238   1.91292
   A12        1.89551  -0.00079   0.00172  -0.01482  -0.01305   1.88246
   A13        2.07866  -0.00424  -0.00091  -0.01384  -0.01475   2.06391
   A14        2.25795  -0.00592  -0.00629  -0.00947  -0.01576   2.24219
   A15        1.91021   0.00159   0.00547  -0.00487   0.00059   1.91080
   A16        2.11501   0.00432   0.00081   0.01432   0.01513   2.13013
   A17        1.95768   0.00179   0.00047   0.00935   0.00982   1.96750
   A18        1.92054   0.00045   0.00180  -0.00101   0.00100   1.92154
   A19        1.96888   0.00137  -0.00325   0.01219   0.00898   1.97787
   A20        1.86964  -0.00061   0.00122  -0.00367  -0.00238   1.86725
   A21        1.96890  -0.00187  -0.00397  -0.00206  -0.00603   1.96287
   A22        1.81806   0.00067   0.00448  -0.00571  -0.00121   1.81686
   A23        1.90905  -0.00003   0.00030  -0.00134  -0.00113   1.90792
   A24        1.86151   0.00227   0.00026   0.01249   0.01276   1.87427
   A25        1.96321  -0.00085   0.00121  -0.00590  -0.00470   1.95851
   A26        1.90641  -0.00067   0.00077  -0.00995  -0.00917   1.89724
   A27        1.88969   0.00086   0.00165   0.00325   0.00490   1.89459
   A28        1.92551   0.00106  -0.00179   0.00959   0.00779   1.93330
   A29        1.92908  -0.00009  -0.00338   0.00775   0.00439   1.93347
   A30        1.84587  -0.00028   0.00156  -0.00495  -0.00334   1.84254
   A31        1.94999  -0.00106  -0.00119  -0.00549  -0.00670   1.94329
   A32        1.92558   0.00090  -0.00062   0.00873   0.00812   1.93370
   A33        1.94414  -0.00071  -0.00013  -0.00441  -0.00457   1.93958
   A34        1.87811   0.00018   0.00075   0.00056   0.00133   1.87944
   A35        1.87839   0.00044   0.00146  -0.00463  -0.00323   1.87516
   A36        1.88490   0.00030  -0.00018   0.00545   0.00527   1.89017
    D1        3.13746  -0.00000  -0.00020   0.00246   0.00226   3.13971
    D2        1.04816  -0.00042  -0.00039  -0.00361  -0.00402   1.04414
    D3       -1.05765   0.00042   0.00042   0.00775   0.00819  -1.04946
    D4        1.04695  -0.00017  -0.00088   0.00110   0.00024   1.04718
    D5       -1.04234  -0.00060  -0.00108  -0.00497  -0.00605  -1.04839
    D6        3.13502   0.00025  -0.00027   0.00639   0.00617   3.14120
    D7       -1.05478   0.00022   0.00042   0.00472   0.00512  -1.04966
    D8        3.13911  -0.00020   0.00023  -0.00134  -0.00116   3.13795
    D9        1.03330   0.00064   0.00104   0.01002   0.01106   1.04435
   D10        3.13093   0.00003  -0.00007   0.00120   0.00113   3.13206
   D11       -1.04851   0.00055  -0.00089   0.00831   0.00742  -1.04110
   D12        1.02786  -0.00054   0.00056  -0.00593  -0.00536   1.02250
   D13        0.01667   0.00009  -0.00102   0.00430   0.00330   0.01997
   D14       -3.11883   0.00020   0.00020   0.00908   0.00926  -3.10957
   D15        0.00794  -0.00008   0.00086  -0.00177  -0.00090   0.00705
   D16       -3.14036  -0.00020  -0.00045  -0.00711  -0.00759   3.13523
   D17        1.00814   0.00099   0.00164   0.11989   0.12147   1.12961
   D18       -3.05945  -0.00007  -0.00457   0.12575   0.12121  -2.93824
   D19       -0.95784   0.00032  -0.00536   0.12899   0.12365  -0.83419
   D20       -2.12795   0.00113   0.00286   0.12430   0.12710  -2.00085
   D21        0.08765   0.00006  -0.00335   0.13016   0.12684   0.21449
   D22        2.18926   0.00045  -0.00414   0.13340   0.12928   2.31854
   D23        1.15449   0.00042  -0.00354   0.01475   0.01129   1.16578
   D24       -1.06110  -0.00032   0.00225   0.00092   0.00319  -1.05791
   D25       -3.12964   0.00026   0.00134   0.00712   0.00836  -3.12128
   D26        3.09760   0.00006   0.00194  -0.01268  -0.01067   3.08694
   D27        0.95344  -0.00023   0.00284  -0.01379  -0.01091   0.94253
   D28       -1.04872  -0.00001  -0.00039  -0.00446  -0.00477  -1.05349
   D29       -0.99591   0.00026  -0.00107  -0.00580  -0.00692  -1.00283
   D30       -3.14008  -0.00003  -0.00017  -0.00690  -0.00716   3.13595
   D31        1.14095   0.00019  -0.00339   0.00242  -0.00103   1.13992
   D32        1.01872  -0.00003   0.00226  -0.01492  -0.01264   1.00608
   D33       -1.12544  -0.00032   0.00316  -0.01602  -0.01288  -1.13832
   D34       -3.12760  -0.00010  -0.00006  -0.00669  -0.00675  -3.13435
   D35       -1.06314   0.00055   0.00014  -0.00583  -0.00570  -1.06884
   D36        3.13155   0.00041   0.00037  -0.00879  -0.00840   3.12315
   D37        1.03833  -0.00010   0.00109  -0.01857  -0.01746   1.02088
   D38        1.07026  -0.00014   0.00067  -0.01583  -0.01518   1.05508
   D39       -1.01823  -0.00029   0.00090  -0.01880  -0.01789  -1.03611
   D40       -3.11145  -0.00080   0.00162  -0.02858  -0.02694  -3.13839
   D41        3.10556   0.00010  -0.00038  -0.01144  -0.01185   3.09371
   D42        1.01707  -0.00005  -0.00015  -0.01441  -0.01456   1.00251
   D43       -1.07615  -0.00056   0.00057  -0.02419  -0.02361  -1.09976
         Item               Value     Threshold  Converged?
 Maximum Force            0.005918     0.000450     NO 
 RMS     Force            0.001351     0.000300     NO 
 Maximum Displacement     0.275676     0.001800     NO 
 RMS     Displacement     0.083642     0.001200     NO 
 Predicted change in Energy=-5.404731D-04
 GradGradGradGradGradGradGradGradGradGradGradGradGradGradGradGradGradGrad

                          Input orientation:                          
 ---------------------------------------------------------------------
 Center     Atomic      Atomic             Coordinates (Angstroms)
 Number     Number       Type             X           Y           Z
 ---------------------------------------------------------------------
      1          6           0        1.077340   -0.288331   -0.099916
      2          6           0        2.580716   -0.079612   -0.059308
      3          8           0        3.177704   -1.064257   -0.901235
      4          6           0        4.524664   -1.065072   -1.030428
      5          7           0        5.371319   -0.299804   -0.475720
      6          6           0        4.941887   -2.163294   -2.004821
      7          8           0        4.439700   -1.878354   -3.308284
      8          6           0        6.447607   -2.433150   -2.004628
      9          6           0        6.828850   -3.590499   -2.933645
     10          1           0        0.581760    0.449815    0.537788
     11          1           0        0.815864   -1.287862    0.257354
     12          1           0        0.699088   -0.178278   -1.119565
     13          1           0        2.965412   -0.185576    0.964403
     14          1           0        2.849007    0.923521   -0.417836
     15          1           0        4.937370    0.385230    0.143191
     16          1           0        4.409535   -3.075585   -1.706762
     17          1           0        4.893151   -1.089089   -3.625507
     18          1           0        6.767080   -2.637798   -0.978947
     19          1           0        6.967039   -1.512682   -2.296559
     20          1           0        6.352323   -4.526549   -2.620938
     21          1           0        7.911304   -3.751150   -2.930028
     22          1           0        6.514959   -3.390525   -3.961558
 ---------------------------------------------------------------------
                    Distance matrix (angstroms):
                    1          2          3          4          5
     1  C    0.000000
     2  C    1.518338   0.000000
     3  O    2.378172   1.426451   0.000000
     4  C    3.654206   2.386030   1.353142   0.000000
     5  N    4.310408   2.830080   2.361652   1.268921   0.000000
     6  C    4.698816   3.701605   2.353322   1.526305   2.448501
     7  O    4.911950   4.152967   2.837124   2.420180   3.373893
     8  C    6.088345   4.927094   3.712628   2.553118   2.836745
     9  C    7.212087   6.215689   4.882976   3.912709   4.358264
    10  H    1.094133   2.152357   3.331986   4.505627   4.952677
    11  H    1.093195   2.162139   2.640192   3.932329   4.718668
    12  H    1.093101   2.162037   2.641244   3.928026   4.717950
    13  H    2.169827   1.098728   2.073102   2.680323   2.806313
    14  H    2.169898   1.098544   2.071950   2.671629   2.803914
    15  H    3.925890   2.410582   2.507641   1.910781   1.020114
    16  H    4.631874   3.877439   2.492332   2.124345   3.185193
    17  H    5.256559   4.368544   3.219477   2.621220   3.282191
    18  H    6.218186   4.991563   3.919909   2.739443   2.769043
    19  H    6.404126   5.128237   4.062890   2.787228   2.707924
    20  H    7.221044   6.368847   5.002304   4.225148   4.840423
    21  H    8.167233   7.080705   5.808817   4.721527   4.938313
    22  H    7.355513   6.455073   5.090616   4.237986   4.797034
                    6          7          8          9         10
     6  C    0.000000
     7  O    1.425622   0.000000
     8  C    1.529711   2.457440   0.000000
     9  C    2.541704   2.963079   1.532278   0.000000
    10  H    5.683653   5.924216   7.013097   8.209819   0.000000
    11  H    4.786218   5.118070   6.176146   7.186140   1.775660
    12  H    4.767108   4.655419   6.238050   7.246249   1.776256
    13  H    4.078494   4.826476   5.098276   6.458671   2.503501
    14  H    4.053035   4.328452   5.170597   6.522639   2.505598
    15  H    3.333009   4.157423   3.851910   5.371316   4.373925
    16  H    1.097503   1.999786   2.157588   2.761062   5.667302
    17  H    1.944972   0.963944   2.617267   3.237693   6.187838
    18  H    2.146835   3.379240   1.093602   2.175385   7.077572
    19  H    2.147009   2.746770   1.096492   2.177681   7.256494
    20  H    2.820266   3.338189   2.184315   1.095926   8.248705
    21  H    3.492095   3.962635   2.176211   1.094316   9.132145
    22  H    2.794543   2.649553   2.179605   1.093216   8.378256
                   11         12         13         14         15
    11  H    0.000000
    12  H    1.772207   0.000000
    13  H    2.517043   3.078831   0.000000
    14  H    3.078923   2.515658   1.776015   0.000000
    15  H    4.449616   4.458153   2.211070   2.228401   0.000000
    16  H    4.468576   4.744113   4.191988   4.482123   3.959567
    17  H    5.633861   4.969858   5.059624   4.303287   4.047055
    18  H    6.226375   6.549011   4.923686   5.324391   3.707523
    19  H    6.664080   6.515610   5.329926   5.140319   3.697838
    20  H    7.030365   7.288391   6.570379   6.843255   5.811030
    21  H    8.159194   8.249803   7.234760   7.334201   5.949671
    22  H    7.395951   7.226328   6.865571   6.678934   5.796039
                   16         17         18         19         20
    16  H    0.000000
    17  H    2.803860   0.000000
    18  H    2.505871   3.593660   0.000000
    19  H    3.054726   2.499309   1.744124   0.000000
    20  H    2.591416   3.867101   2.536836   3.092974   0.000000
    21  H    3.770299   4.084055   2.521015   2.510708   1.768389
[...]
 .01526744,0.01064291,0.01636403,0.07579286,0.09517858,-0.11412228,-0.0
 7135368,-0.16888302,0.01236286,0.00735474,0.01140436,-0.00175667,0.000
 13801,0.00159518,0.00025097,0.00057658,-0.00005619,-0.00001334,-0.0001
 3690,-0.00023935,-0.00001101,-0.00003421,-0.00001953,-0.00004320,-0.00
 001667,0.00003875,0.00000164,-0.00000277,0.00001064,-0.00000402,-0.000
 00472,-0.00000780,-0.01247897,-0.00603990,-0.01262748,-0.00931747,-0.0
 0760306,-0.01135856,0.12243943,0.07630106,0.17989222,-0.01551924,-0.00
 882464,-0.01542204,-0.16027315,-0.06176782,-0.11112589,0.01165003,0.01
 044647,0.01909715,0.00334551,0.00200614,0.00015156,-0.00044491,-0.0012
 5951,-0.00083689,-0.00042581,0.00040280,-0.00053792,-0.00008513,-0.000
 01551,0.00001843,-0.00005089,0.00004714,0.00019003,-0.00002292,0.00003
 442,-0.00007809,0.00030926,0.00055054,0.00007327,0.00143139,0.00029451
 ,0.00034334,-0.00231804,-0.00260107,0.00325994,0.16975046,-0.01289983,
 -0.00602965,-0.01059509,-0.05838146,-0.08448252,-0.05535775,-0.0045936
 7,-0.01618102,-0.02612614,-0.00423994,-0.00189452,0.00297089,0.0010468
 6,0.00156690,-0.00030909,0.00010556,-0.00003480,0.00002962,0.00028600,
 -0.00010403,-0.00014627,-0.00008560,0.00002042,-0.00011122,0.00003403,
 -0.00001270,0.00007600,0.00011998,0.00055305,0.00018869,0.00069189,0.0
 0041053,-0.00082994,-0.00251862,-0.00086774,0.00161093,0.06626300,0.09
 702912,0.01128733,0.00729867,0.01198208,-0.10694226,-0.05747930,-0.154
 01938,0.00020941,-0.01635156,-0.02289637,-0.00615343,-0.00549767,0.003
 40521,0.00108487,0.00275429,0.00089871,0.00017329,-0.00012218,0.000153
 25,0.00032393,0.00021783,-0.00015530,-0.00006479,-0.00002589,-0.000071
 87,0.00002914,0.00001662,0.00003897,-0.00090358,-0.00059244,0.00052857
 ,-0.00055366,-0.00051357,0.00075101,0.00302494,0.00240246,-0.00089862,
 0.11194363,0.07231350,0.17288826,0.01019055,-0.01902452,0.01476542,-0.
 08818348,0.06701756,-0.05757609,-0.01374975,0.01799367,0.00133696,0.00
 463483,0.00526513,-0.00309235,0.00018506,-0.00276543,0.00013115,0.0001
 5977,-0.00000413,0.00019672,-0.00017125,-0.00019438,0.00017298,0.00003
 563,-0.00001830,-0.00002522,-0.00002529,-0.00006596,0.00001110,0.00080
 908,0.00085357,-0.00059599,-0.00332693,-0.00320874,0.00262751,0.001171
 70,0.00058324,-0.00063230,-0.00727609,0.01426699,-0.01371934,0.0979918
 0,0.00569217,-0.01151648,0.01110892,0.06661515,-0.17449094,0.10056941,
 0.01987288,-0.02389496,-0.00164126,-0.00532969,-0.00278643,0.00327846,
 0.00092465,0.00202562,-0.00046448,0.00010375,0.00015335,0.00009515,0.0
 0020624,0.00001948,-0.00031967,-0.00012086,-0.00012206,-0.00000679,0.0
 0006733,0.00009066,0.00002637,-0.00022555,0.00051947,0.00018701,-0.002
 52250,-0.00057056,0.00143463,0.00064942,0.00035520,-0.00065377,-0.0055
 8938,0.00982216,-0.00568590,-0.08030437,0.19991822,-0.00619288,0.01087
 024,-0.00833144,-0.06084039,0.10514955,-0.13581796,0.01651765,-0.02267
 274,0.01034544,-0.00158070,-0.00255119,0.00278776,-0.00006315,0.001667
 83,-0.00026946,-0.00045932,0.00003928,-0.00045150,0.00002505,-0.000136
 72,-0.00009853,-0.00003398,0.00001401,-0.00011086,0.00004360,0.0000288
 3,0.00003576,-0.00004519,-0.00032564,0.00006835,0.00308000,0.00130288,
 -0.00018463,0.00038487,-0.00057926,0.00106208,-0.00813589,0.01566429,-
 0.01070241,0.05664869,-0.10809612,0.14162393,-0.00070615,-0.00022810,-
 0.00044627,-0.00013908,-0.00209121,0.00067293,-0.00375028,0.00195397,-
 0.00300320,0.00337525,-0.02114093,-0.00603153,-0.12205537,0.14599621,0
 .11746807,0.00400984,-0.00280441,0.00818361,0.00091819,0.00352577,0.00
 083490,0.00078314,-0.00098575,-0.00167846,0.00008457,-0.00030078,0.000
 43668,0.00014439,0.00001076,-0.00004105,0.00016568,0.00014969,-0.00011
 365,-0.00000676,-0.00002005,0.00007411,-0.00002998,-0.00011440,0.00003
 297,-0.00231534,-0.00005171,0.00069482,0.11910708,-0.00019793,0.000583
 29,0.00062324,-0.00099482,0.00013778,0.00056306,0.00416582,0.00444893,
 -0.00027045,0.02217843,-0.03735883,-0.02927219,0.10281140,-0.19799864,
 -0.13177876,-0.00613008,-0.00221427,0.00066288,-0.00081046,0.00276790,
 0.00147320,0.00003866,-0.00005685,-0.00037013,0.00009255,-0.00010371,0
 .00020904,0.00000316,-0.00008538,-0.00005158,0.00015307,0.00014023,-0.
 00009829,0.00021026,0.00018598,-0.00014190,0.00011625,-0.00003196,0.00
 111174,-0.00038076,0.00033562,-0.00043899,-0.12327439,0.23168944,-0.00
 041077,0.00063813,-0.00059595,0.00091335,0.00153923,0.00087992,-0.0022
 9882,0.00155219,-0.00558938,0.00527750,0.00767863,0.00038233,0.1056918
 3,-0.16853843,-0.16269405,0.00710996,-0.00084843,0.00661277,-0.0003495
 9,-0.00266993,0.00032781,0.00077119,-0.00148131,-0.00175419,0.00026921
 ,-0.00030265,0.00068947,-0.00003572,-0.00005378,0.00010982,0.00014677,
 0.00005990,-0.00003850,-0.00013328,-0.00010765,0.00008169,0.00114641,0
 .00043267,-0.00188004,-0.00043596,0.00018702,0.00005390,-0.11430748,0.
 15965793,0.16140108,0.00000881,-0.00001906,-0.00005612,0.00039599,-0.0
 0003627,-0.00037171,0.00034579,0.00061392,-0.00026507,0.00954354,0.004
 64152,0.00781156,0.00031635,0.00188697,0.00087319,-0.15983115,-0.06969
 659,-0.09268546,-0.02095240,-0.02195268,0.00330977,-0.01151381,-0.0056
 5544,-0.01371885,0.00047531,-0.00163009,0.00024147,0.00001643,0.000016
 07,0.00000485,-0.00000390,-0.00000994,-0.00000023,0.00001717,-0.000005
 32,0.00000270,-0.00004490,0.00008397,0.00008324,-0.00003258,-0.0000312
 7,0.00003376,-0.00082381,0.00080407,-0.00113240,0.18659446,-0.00002286
 ,-0.00003455,0.00000102,0.00071955,-0.00014976,0.00038095,0.00047844,0
 .00110708,0.00107541,-0.01813572,-0.01371422,-0.01667561,0.00169776,-0
 .00141022,-0.00185452,-0.07040936,-0.09243957,-0.06176253,-0.01544440,
 -0.00950887,0.00091732,0.01688380,0.00775906,0.01412885,0.00000132,0.0
 0198531,0.00057964,0.00001142,0.00000835,-0.00001000,0.00001297,0.0000
 2045,-0.00000765,0.00004262,0.00002123,-0.00001510,-0.00011506,0.00010
 912,0.00020821,-0.00000799,-0.00000844,-0.00014324,0.00112452,-0.00112
 826,0.00112598,0.08502554,0.10922421,-0.00004288,-0.00001572,-0.000010
 50,0.00037139,-0.00006328,0.00004602,0.00102873,0.00019197,0.00071083,
 -0.01490462,-0.00757703,-0.00868261,0.00091371,-0.00168482,-0.00157998
 ,-0.09476214,-0.06454275,-0.12428463,0.02146893,0.01735356,0.01125259,
 -0.01623368,-0.00713746,-0.01269425,0.00127681,-0.00086339,0.00095349,
 0.00000750,0.00001913,0.00000718,0.00000283,0.00000418,-0.00002106,0.0
 0006069,-0.00000033,-0.00000025,-0.00002574,0.00011098,0.00012402,-0.0
 0003071,0.00005717,-0.00006108,0.00062731,-0.00080763,0.00089270,0.097
 24640,0.06062346,0.13488400,-0.00002423,-0.00007477,0.00002342,-0.0002
 4321,0.00054395,0.00053999,0.00314313,0.00101506,-0.00155026,-0.004878
 50,-0.00643508,0.00497278,-0.00200280,-0.00170072,-0.00197381,-0.00928
 223,-0.03198425,-0.00621153,-0.02108137,-0.00934983,0.02124203,-0.0006
 2794,0.00079959,0.00044494,-0.00054574,0.00043855,-0.00044126,0.000068
 87,0.00001888,-0.00005725,0.00002175,0.00005935,-0.00002801,0.00003912
 ,0.00004095,-0.00000862,-0.00000111,-0.00011273,0.00008644,-0.00005074
 ,-0.00003816,-0.00012515,0.00135601,0.00106752,-0.00209706,-0.00499087
 ,-0.00321020,0.00408556,0.03833910,0.00010858,-0.00011389,-0.00012994,
 0.00060445,-0.00015550,-0.00067251,-0.00294420,-0.00416959,0.00086075,
 0.00370393,0.00802452,-0.00235599,0.00103222,-0.00111250,0.00066629,-0
 .01146327,-0.02501655,0.00483921,-0.04011947,-0.43170269,-0.10277711,-
 0.00089937,-0.00102116,-0.00075792,-0.00008608,-0.00008901,0.00009821,
 0.00000892,0.00002282,0.00000393,-0.00003777,-0.00003723,0.00003728,-0
 .00004134,-0.00002709,0.00002161,-0.00000956,0.00010861,-0.00011011,0.
 00009654,0.00001270,0.00012095,-0.00167708,-0.00124627,0.00128109,0.00
 235276,0.00015134,0.00045346,0.04888402,0.45600272,0.00008179,0.000022
 15,-0.00004996,0.00060422,-0.00064957,-0.00068311,-0.00312636,-0.00241
 069,0.00252230,0.00845078,0.00704013,-0.00267653,-0.00094717,0.0032030
 6,-0.00117934,0.00249103,0.02951876,0.00421364,0.01051196,-0.13669481,
 -0.05911797,0.00391959,0.00243229,-0.00352392,0.00026060,-0.00046132,-
 0.00006185,-0.00006147,-0.00000513,0.00005370,-0.00003865,-0.00005702,
 0.00003110,-0.00005293,-0.00006131,0.00000799,-0.00008918,0.00012129,-
 0.00009190,0.00012436,0.00009157,0.00010648,-0.00312505,-0.00120969,0.
 00130492,0.00028473,-0.00021225,-0.00087331,-0.01831384,0.09844781,0.0
 6178523,0.00000226,-0.00002847,0.00000147,-0.00007437,0.00007950,0.000
 08901,-0.00095347,0.00170818,-0.00038353,0.00009525,-0.00054165,0.0008
 7687,0.00018743,0.00003928,0.00002459,0.00929803,0.00395100,-0.0082483
 7,0.00059556,0.00348418,-0.00183360,-0.17133265,-0.06937010,0.10860363
 ,-0.00951298,-0.00456013,0.00841792,-0.00000007,0.00000086,-0.00000686
 ,0.00001118,0.00002301,0.00000697,-0.00001669,0.00000976,-0.00000601,0
 .00001632,-0.00005852,-0.00002770,-0.00000483,0.00000933,-0.00002461,-
 0.00009541,-0.00002031,-0.00008306,0.00047178,-0.00072231,0.00045579,0
 .00014065,0.00024872,-0.00072607,0.18477424,0.00003413,-0.00003674,0.0
 0005017,0.00050608,-0.00012974,-0.00070155,0.00095139,0.00050270,-0.00
 103270,-0.00269764,-0.00069887,0.00191655,0.00067581,0.00003975,-0.000
 58044,-0.01728001,-0.00785719,0.00988145,0.00156048,-0.00475048,0.0049
 7958,-0.06604579,-0.08325688,0.06007797,0.01882472,0.00915424,-0.01748
 797,-0.00002429,0.00002346,0.00000179,0.00003427,0.00002486,-0.0000695
 6,0.00000113,-0.00000116,-0.00001432,-0.00000426,0.00001214,0.00007514
 ,-0.00015482,0.00019713,0.00010666,0.00013952,-0.00007754,0.00005814,0
 .00040631,0.00079120,-0.00023091,-0.00010093,0.00051718,0.00112147,0.0
 7102515,0.09317262,0.00000536,0.00000244,0.00001879,-0.00019302,-0.000
 08621,0.00041992,0.00021791,-0.00140301,0.00022342,0.00124794,0.000299
 45,-0.00080781,-0.00022169,0.00005276,0.00042765,0.01499604,0.00579947
 ,-0.01091786,-0.00075547,0.00456224,-0.00178729,0.10620374,0.06072036,
 -0.14667360,0.01208416,0.00606612,-0.01136970,-0.00000242,-0.00001787,
 -0.00001045,0.00001673,0.00000891,0.00001973,-0.00003562,0.00001632,-0
 .00000674,0.00000058,-0.00004195,-0.00005045,0.00008007,-0.00011654,-0
 .00005868,-0.00003706,0.00003176,0.00004047,-0.00034940,-0.00075722,0.
 00031969,-0.00012871,-0.00015870,-0.00141282,-0.12166038,-0.06546681,0
 .15963793,-0.00001772,0.00002277,0.00002420,-0.00007603,-0.00001971,-0
 .00028320,-0.00027353,0.00046214,0.00064115,-0.00006887,-0.00212690,-0
 .00132324,0.00057998,0.00092569,0.00063275,-0.01472704,-0.00663512,-0.
 00836682,0.00233929,0.00067890,0.00159298,-0.17165302,-0.08263412,-0.0
 9615282,0.01047938,0.00777131,0.00875948,-0.00000607,0.00000764,0.0000
 1074,-0.00001544,-0.00002309,-0.00001782,0.00004163,-0.00000396,0.0000
 0382,-0.00000219,0.00009325,0.00006610,-0.00002118,0.00004568,0.000058
 02,-0.00011065,0.00010331,-0.00002416,-0.00040272,0.00275957,-0.001670
 36,0.00011373,0.00000358,-0.00038824,-0.01478226,-0.00917721,-0.012197
 06,0.18737569,0.00000251,-0.00001000,-0.00000050,0.00003283,-0.0000032
 6,0.00001649,-0.00015237,-0.00003852,-0.00017612,0.00035928,0.00231819
 ,0.00094478,-0.00051365,0.00004211,-0.00024884,0.01818001,0.00804552,0
 .01372253,-0.00053045,0.00163346,-0.00252409,-0.08398693,-0.10157769,-
 0.06358193,-0.01702084,-0.01300087,-0.01414876,-0.00000023,0.00000838,
 -0.00000268,-0.00001070,-0.00000820,-0.00001166,0.00000606,-0.00000889
 ,0.00000801,-0.00000267,0.00001820,0.00000041,0.00001541,0.00000411,0.
 00001002,-0.00000192,-0.00003069,-0.00000203,0.00234246,-0.00275892,0.
 00329645,0.00011167,0.00002556,-0.00000076,-0.00824626,-0.00592421,-0.
 00703824,0.08635657,0.11265749,-0.00000780,0.00001752,-0.00000082,-0.0
 0004071,-0.00004965,-0.00007725,-0.00003367,0.00009823,0.00014583,0.00
 061274,-0.00159055,-0.00043468,0.00053444,0.00063367,0.00043481,-0.016
 82429,-0.00756108,-0.01213421,0.00211005,-0.00091645,0.00254200,-0.094
 47062,-0.06321409,-0.12273173,-0.01224753,-0.00908272,-0.01026032,-0.0
 0000230,-0.00000744,0.00000555,0.00000422,0.00000036,0.00001071,0.0000
 0101,0.00000560,-0.00000461,0.00000089,0.00000233,0.00001339,-0.000016
 30,-0.00000900,0.00002094,-0.00006758,0.00011476,-0.00008234,-0.002002
 58,0.00292584,-0.00161742,-0.00047313,0.00028401,-0.00033744,0.0140461
 8,0.00895363,0.01189944,0.10716427,0.07142356,0.13266722,-0.00000054,-
 0.00000506,-0.00000663,-0.00003180,0.00003268,0.00004051,0.00007002,-0
 .00006165,-0.00009720,0.00016886,-0.00003418,0.00033885,-0.00003020,-0
 .00008754,-0.00005326,0.00121274,-0.00025387,0.00021058,0.00007783,-0.
 00037114,0.00014001,0.01069796,0.00807326,0.00827280,-0.17316926,-0.08
 890295,-0.09424630,0.00000435,-0.00000070,-0.00000320,-0.00000166,0.00
 000070,0.00000346,-0.00000027,0.00000210,0.00000203,0.00000634,-0.0000
 0679,-0.00000480,0.00000644,-0.00001321,-0.00000560,-0.00002082,-0.000
 00872,-0.00005953,0.00003519,-0.00052985,-0.00012946,-0.00000122,0.000
 07340,0.00005457,0.00097213,-0.00066290,-0.00043514,-0.00026796,0.0030
 6173,0.00180950,0.18580955,-0.00001050,0.00000270,-0.00000527,-0.00006
 319,0.00001317,-0.00001207,0.00006429,-0.00000064,0.00006005,0.0002109
 6,0.00015724,-0.00006165,0.00010345,0.00018694,0.00019085,-0.00228480,
 0.00093765,-0.00080548,0.00043484,-0.00021085,0.00036239,-0.01734929,-
 0.01364489,-0.01309030,-0.08809261,-0.10926390,-0.06532464,0.00000466,
 0.00000032,0.00000182,-0.00000545,-0.00000500,0.00000383,0.00001224,0.
 00000126,0.00000195,0.00000498,0.00001620,0.00000855,0.00000517,-0.000
 00960,0.00000530,-0.00006291,0.00006672,-0.00003373,0.00089497,-0.0000
 9105,0.00073628,0.00004238,0.00001728,0.00000811,0.00029259,0.00111072
 ,0.00052451,0.00278253,-0.00299365,-0.00283962,0.09617117,0.11878301,-
 0.00000855,-0.00001121,-0.00000088,-0.00007861,0.00002826,0.00003971,0
 .00015345,0.00000303,-0.00007353,-0.00003901,0.00023466,0.00018485,0.0
 0005973,0.00005430,0.00004938,-0.00002309,0.00108274,0.00041952,-0.000
 24901,0.00000105,0.00000743,-0.01303806,-0.00957538,-0.01106385,-0.093
 41075,-0.06557278,-0.11721259,0.00000775,0.00000770,-0.00000238,-0.000
 00792,-0.00000339,-0.00000852,0.00001572,-0.00000200,0.00000630,0.0000
 0980,0.00000892,0.00000241,0.00001098,-0.00000709,-0.00000548,-0.00003
 539,0.00002771,-0.00004103,0.00046214,-0.00037628,0.00054209,0.0000262
 3,0.00004307,-0.00004056,-0.00026399,0.00064982,0.00024367,0.00226608,
 -0.00292261,-0.00112009,0.10303168,0.07641066,0.12634285,-0.00000656,0
 .00003547,-0.00000303,0.00011696,-0.00010095,-0.00011503,-0.00024282,0
 .00006030,0.00028428,0.00029668,0.00024606,-0.00113750,-0.00008159,0.0
 0045996,0.00016513,-0.00129296,0.00153134,0.00322787,0.00056717,-0.000
 37682,-0.00030631,-0.00745981,0.00850678,-0.00884237,-0.10246392,0.078
 24474,-0.07345239,-0.00001332,-0.00000717,0.00001322,0.00000019,-0.000
 00882,0.00000795,0.00000079,-0.00000593,-0.00000345,-0.00001690,0.0000
 2621,0.00001657,-0.00000894,0.00001637,0.00001978,0.00005309,0.0000663
 9,0.00008274,0.00039970,-0.00029098,0.00032590,0.00008037,0.00001286,0
 .00001852,-0.00001796,-0.00049436,-0.00032462,0.00073968,-0.00030847,0
 .00029670,-0.01064426,0.01520247,-0.01344788,0.10844250,0.00000214,-0.
 00005035,-0.00000824,-0.00018038,0.00017872,0.00016809,0.00046346,-0.0
 0009633,-0.00050266,-0.00015112,0.00001024,0.00206833,0.00017450,-0.00
 084340,-0.00031527,0.00167851,-0.00282774,-0.00418619,0.00004016,0.000
 15599,-0.00015118,0.01050684,-0.01581685,0.01510994,0.07795469,-0.1568
 7550,0.10343619,0.00002566,0.00000699,-0.00001932,0.00000120,0.0000163
 4,-0.00000207,0.00000002,0.00001155,0.00000310,0.00003008,-0.00004244,
 -0.00002496,0.00000770,-0.00003137,-0.00002821,-0.00010397,-0.00002203
 ,-0.00023060,0.00007821,0.00020543,-0.00004241,0.00017535,0.00013224,-
 0.00003924,-0.00009384,0.00107035,-0.00014221,-0.00076228,0.00050880,0
 .00029777,-0.00745071,0.01129405,-0.01012805,-0.08837428,0.17119662,-0
 .00000347,-0.00001531,0.00000075,-0.00003914,0.00002596,-0.00000333,0.
 00007730,0.00004952,-0.00014966,0.00032833,-0.00020863,0.00122150,-0.0
 0002929,-0.00027155,-0.00005435,0.00245559,-0.00287918,-0.00293309,-0.
 00067619,0.00063261,0.00040012,0.00982987,-0.01398154,0.01195034,-0.07
 410870,0.10471240,-0.14341940,0.00000360,0.00000562,-0.00000213,0.0000
 0345,0.00000352,-0.00000580,0.00000311,0.00000211,-0.00000039,0.000014
 75,-0.00000938,-0.00000545,-0.00000221,-0.00000346,-0.00000272,-0.0001
 4727,-0.00003900,-0.00012334,0.00019302,0.00000831,0.00002256,-0.00001
 341,-0.00010677,-0.00001287,-0.00042569,0.00080642,0.00081656,-0.00044
 243,0.00077583,0.00085012,-0.00634502,0.01087205,-0.01043720,0.0800354
 7,-0.11205817,0.15405725,0.00000339,-0.00001965,0.00000714,0.00005430,
 0.00000057,-0.00004570,0.00017132,0.00020180,-0.00023895,-0.00022592,-
 0.00027451,0.00023850,0.00017642,-0.00003450,-0.00025826,-0.00105762,-
 0.00165807,0.00177222,0.00068443,-0.00062862,-0.00107207,-0.01065817,-
 0.00403800,0.00886965,-0.16715536,-0.06918099,0.11206064,0.00000051,0.
 00001220,-0.00000229,0.00000494,0.00000534,-0.00001963,0.00000704,-0.0
 0000264,-0.00000015,0.00000195,-0.00000617,0.00000768,-0.00001845,0.00
 002371,0.00000062,0.00005641,0.00000659,-0.00004114,-0.00002437,0.0001
 3124,-0.00007197,0.00042725,0.00014814,0.00006679,0.00022586,0.0024832
 3,0.00148804,0.00075530,0.00030599,-0.00039349,-0.01489342,-0.00835795
 ,0.01455870,0.01155190,0.00597808,-0.01071166,0.17991230,-0.00000903,0
 .00002776,-0.00000489,-0.00003437,-0.00003578,0.00006098,-0.00022716,-
 0.00023723,0.00040166,0.00018106,0.00029135,-0.00059002,-0.00018737,0.
 00009541,0.00024765,0.00065096,0.00184090,-0.00032204,-0.00020776,-0.0
 0083958,0.00054166,0.01807051,0.01012991,-0.01689985,-0.07147405,-0.08
 629124,0.06725389,-0.00000445,-0.00000964,0.00000801,-0.00000813,-0.00
 000845,0.00001582,-0.00000102,-0.00000345,0.00000101,-0.00000683,0.000
 01495,-0.00000385,0.00002442,-0.00002289,-0.00000774,-0.00004283,-0.00
 000147,0.00005763,-0.00011011,-0.00013889,0.00011910,-0.00019059,-0.00
 032348,-0.00020484,0.00277003,-0.00388356,-0.00285557,-0.00063056,0.00
 109307,0.00051333,-0.00902575,-0.00636769,0.01004689,-0.01444117,-0.00
 818133,0.01167863,0.07490421,0.09285130,-0.00000697,0.00000293,-0.0000
 1725,-0.00008892,0.00005610,0.00010776,0.00004600,-0.00026485,0.000084
 18,0.00022127,0.00039868,-0.00015857,-0.00016839,-0.00012302,0.0000295
 6,0.00011866,0.00105651,-0.00057344,-0.00144019,0.00079908,0.00035709,
 0.01316244,0.00586165,-0.01220596,0.11286942,0.06541145,-0.15557040,0.
 00000979,-0.00000747,-0.00000243,-0.00000781,-0.00000192,0.00001728,-0
 .00000177,0.00000175,0.00000333,0.00000185,-0.00000327,-0.00001408,0.0
 0002051,-0.00003160,-0.00000990,0.00000858,0.00000328,0.00002193,0.000
 03499,-0.00016060,0.00006991,0.00000065,-0.00008861,0.00003623,0.00116
 744,-0.00309453,-0.00097186,-0.00035344,0.00046013,0.00021089,-0.01251
 787,-0.00701359,0.01216790,0.01313844,0.00679537,-0.01216949,-0.126214
 68,-0.07005747,0.16858732\\0.00000115,0.00000033,0.00000557,0.00002502
 ,-0.00000681,0.00000420,-0.00004871,0.00001254,-0.00000081,0.00002764,
 0.00001620,0.00000197,0.00000147,-0.00001155,-0.00000165,-0.00000488,-
 0.00002755,0.00003180,0.00002421,0.00002110,0.00000177,0.00000053,0.00
 002502,-0.00003582,-0.00000097,-0.00000696,-0.00000543,0.,0.00000113,-
 0.00000200,-0.00000274,-0.00000291,0.00000088,-0.00000033,-0.00000270,
 -0.00000015,-0.00000177,-0.00000009,-0.00000141,-0.00000555,-0.0000032
 9,-0.00000110,-0.00000616,-0.00000055,-0.00000430,-0.00000501,0.000010
 08,-0.00000114,-0.00000958,-0.00001649,-0.00000159,0.00000153,-0.00000
 885,0.00000148,0.00000115,0.00000215,0.00000201,0.00000168,0.00000146,
 0.00000165,0.00000121,0.00000170,0.00000316,0.00000012,-0.00000397,0.0
 0000091\\\@


 ACCORDING TO HEN3RY, LIFE IS MUCH LIKE A SEWER........
 YOU GET OUT OF IT JUST WHAT YOU PUT INTO IT...........
                         TOM LEHRER - (THE 3 IS SILENT)
 Job cpu time:       0 days  2 hours  7 minutes 46.4 seconds.
 Elapsed time:       0 days  0 hours 31 minutes 57.5 seconds.
 File lengths (MBytes):  RWF=    170 Int=      0 D2E=      0 Chk=      9 Scr=      1
 Normal termination of Gaussian 16 at Thu Aug  4 15:16:25 2022.
### All Done ###
