### Starting Gaussian ###
 Entering Gaussian System, Link 0=g16
 Initial command:
 /cluster/software/gaussian/gaussian-16-A.03/avx2/g16/l1.exe "/local/scratch/ks29c/Gau-1719.inp" -scrdir="/local/scratch/ks29c/"
 Entering Link 1 = /cluster/software/gaussian/gaussian-16-A.03/avx2/g16/l1.exe PID=      1720.
  
 Copyright (c) 1988,1990,1992,1993,1995,1998,2003,2009,2016,
            Gaussian, Inc.  All Rights Reserved.
  
 This is part of the Gaussian(R) 16 program.  It is based on
 the Gaussian(R) 09 system (copyright 2009, Gaussian, Inc.),
 the Gaussian(R) 03 system (copyright 2003, Gaussian, Inc.),
 the Gaussian(R) 98 system (copyright 1998, Gaussian, Inc.),
 the Gaussian(R) 94 system (copyright 1995, Gaussian, Inc.),
 the Gaussian 92(TM) system (copyright 1992, Gaussian, Inc.),
 the Gaussian 90(TM) system (copyright 1990, Gaussian, Inc.),
 the Gaussian 88(TM) system (copyright 1988, Gaussian, Inc.),
 the Gaussian 86(TM) system (copyright 1986, Carnegie Mellon
 University), and the Gaussian 82(TM) system (copyright 1983,
 Carnegie Mellon University). Gaussian is a federally registered
 trademark of Gaussian, Inc.
  
 This software contains proprietary and confidential information,
 including trade secrets, belonging to Gaussian, Inc.
  
 This software is provided under written license and may be
 used, copied, transmitted, or stored only in accord with that
 written license.
  
 The following legend is applicable only to US Government
 contracts under FAR:
  
                    RESTRICTED RIGHTS LEGEND
  
 Use, reproduction and disclosure by the US Government is
 subject to restrictions as set forth in subparagraphs (a)
 and (c) of the Commercial Computer Software - Restricted
 Rights clause in FAR 52.227-19.
  
 Gaussian, Inc.
 340 Quinnipiac St., Bldg. 40, Wallingford CT 06492
  
  
 ---------------------------------------------------------------
 Warning -- This program may not be used in any manner that
 competes with the business of Gaussian, Inc. or will provide
 assistance to any competitor of Gaussian, Inc.  The licensee
 of this program is prohibited from giving any competitor of
 Gaussian, Inc. access to this program.  By using this program,
 the user acknowledges that Gaussian, Inc. is engaged in the
 business of creating and licensing software in the field of
 computational chemistry and represents and warrants to the
 licensee that it is not a competitor of Gaussian, Inc. and that
 it will not use this program in any manner prohibited above.
 ---------------------------------------------------------------
  

 Cite this work as:
 Gaussian 16, Revision A.03,
 M. J. Frisch, G. W. Trucks, H. B. Schlegel, G. E. Scuseria, 
 M. A. Robb, J. R. Cheeseman, G. Scalmani, V. Barone, 
 G. A. Petersson, H. Nakatsuji, X. Li, M. Caricato, A. V. Marenich, 
 J. Bloino, B. G. Janesko, R. Gomperts, B. Mennucci, H. P. Hratchian, 
 J. V. Ortiz, A. F. Izmaylov, J. L. Sonnenberg, D. Williams-Young, 
 F. Ding, F. Lipparini, F. Egidi, J. Goings, B. Peng, A. Petrone, 
 T. Henderson, D. Ranasinghe, V. G. Zakrzewski, J. Gao, N. Rega, 
 G. Zheng, W. Liang, M. Hada, M. Ehara, K. Toyota, R. Fukuda, 
 J. Hasegawa, M. Ishida, T. Nakajima, Y. Honda, O. Kitao, H. Nakai, 
 T. Vreven, K. Throssell, J. A. Montgomery, Jr., J. E. Peralta, 
 F. Ogliaro, M. J. Bearpark, J. J. Heyd, E. N. Brothers, K. N. Kudin, 
 V. N. Staroverov, T. A. Keith, R. Kobayashi, J. Normand, 
 K. Raghavachari, A. P. Rendell, J. C. Burant, S. S. Iyengar, 
 J. Tomasi, M. Cossi, J. M. Millam, M. Klene, C. Adamo, R. Cammi, 
 J. W. Ochterski, R. L. Martin, K. Morokuma, O. Farkas, 
 J. B. Foresman, and D. J. Fox, Gaussian, Inc., Wallingford CT, 2016.
 
 ******************************************
 Gaussian 16:  ES64L-G16RevA.03 25-Dec-2016
                 4-Aug-2022 
 ******************************************
 %chk=CCOCCC1dNCO1.chk
 %NProcShared=20
 Will use up to   20 processors via shared memory.
 -----------------------------
 # opt freq b3lyp/6-31g(2df,p)
 -----------------------------
 1/18=20,19=15,26=3,38=1/1,3;
 2/9=110,12=2,17=6,18=5,40=1/2;
 3/5=1,6=6,7=104,11=2,25=1,30=1,71=1,74=-5/1,2,3;
 4//1;
 5/5=2,38=5/2;
 6/7=2,8=2,9=2,10=2,28=1/1;
 7//1,2,3,16;
 1/18=20,19=15,26=3/3(2);
 2/9=110/2;
 99//99;
 2/9=110/2;
 3/5=1,6=6,7=104,11=2,25=1,30=1,71=1,74=-5/1,2,3;
 4/5=5,16=3,69=1/1;
 5/5=2,38=5/2;
 7//1,2,3,16;
 1/18=20,19=15,26=3/3(-5);
 2/9=110/2;
 6/7=2,8=2,9=2,10=2,19=2,28=1/1;
 99/9=1/99;
 -------------------
 Title Card Required
 -------------------
 Symbolic Z-matrix:
 Charge =  0 Multiplicity = 1
 C                     1.06381   0.06258   0.07753 
 C                     2.58116   0.06735   0.06305 
 O                     3.09064  -0.23515   1.36551 
 C                     4.52503  -0.24013   1.36298 
 C                     5.05198  -0.5693    2.75074 
 C                     6.51348  -0.63654   2.74294 
 N                     7.39213  -1.5478    2.49528 
 C                     8.4421   -0.57325   2.71052 
 O                     7.37621   0.34529   2.96079 
 H                     0.67084   0.29939  -0.9168 
 H                     0.67672   0.79821   0.78959 
 H                     0.67792  -0.91593   0.38046 
 H                     2.9376    1.05628  -0.24491 
 H                     2.93943  -0.68079  -0.65261 
 H                     4.88361   0.747     1.0482 
 H                     4.87746  -0.98497   0.63975 
 H                     4.65856  -1.53566   3.08382 
 H                     4.71474   0.17361   3.48133 
 H                     9.02545  -0.32846   1.8188 
 H                     9.08284  -0.75631   3.5775 
 

 GradGradGradGradGradGradGradGradGradGradGradGradGradGradGradGradGradGrad
 Berny optimization.
 Initialization pass.
                           ----------------------------
                           !    Initial Parameters    !
                           ! (Angstroms and Degrees)  !
 --------------------------                            --------------------------
 ! Name  Definition              Value          Derivative Info.                !
 --------------------------------------------------------------------------------
 ! R1    R(1,2)                  1.5174         estimate D2E/DX2                !
 ! R2    R(1,10)                 1.0951         estimate D2E/DX2                !
 ! R3    R(1,11)                 1.0945         estimate D2E/DX2                !
 ! R4    R(1,12)                 1.0946         estimate D2E/DX2                !
 ! R5    R(2,3)                  1.4309         estimate D2E/DX2                !
 ! R6    R(2,13)                 1.0954         estimate D2E/DX2                !
 ! R7    R(2,14)                 1.0956         estimate D2E/DX2                !
 ! R8    R(3,4)                  1.4344         estimate D2E/DX2                !
 ! R9    R(4,5)                  1.5205         estimate D2E/DX2                !
 ! R10   R(4,15)                 1.0964         estimate D2E/DX2                !
 ! R11   R(4,16)                 1.0964         estimate D2E/DX2                !
 ! R12   R(5,6)                  1.4631         estimate D2E/DX2                !
 ! R13   R(5,17)                 1.0953         estimate D2E/DX2                !
 ! R14   R(5,18)                 1.0952         estimate D2E/DX2                !
 ! R15   R(6,7)                  1.2899         estimate D2E/DX2                !
 ! R16   R(6,9)                  1.325          estimate D2E/DX2                !
 ! R17   R(7,8)                  1.4486         estimate D2E/DX2                !
 ! R18   R(8,9)                  1.4292         estimate D2E/DX2                !
 ! R19   R(8,19)                 1.0933         estimate D2E/DX2                !
 ! R20   R(8,20)                 1.0935         estimate D2E/DX2                !
 ! A1    A(2,1,10)             110.456          estimate D2E/DX2                !
 ! A2    A(2,1,11)             110.961          estimate D2E/DX2                !
 ! A3    A(2,1,12)             110.9757         estimate D2E/DX2                !
 ! A4    A(10,1,11)            108.5695         estimate D2E/DX2                !
 ! A5    A(10,1,12)            108.5476         estimate D2E/DX2                !
 ! A6    A(11,1,12)            107.2229         estimate D2E/DX2                !
 ! A7    A(1,2,3)              110.2848         estimate D2E/DX2                !
 ! A8    A(1,2,13)             109.3237         estimate D2E/DX2                !
 ! A9    A(1,2,14)             109.3351         estimate D2E/DX2                !
 ! A10   A(3,2,13)             109.3237         estimate D2E/DX2                !
 ! A11   A(3,2,14)             109.4996         estimate D2E/DX2                !
 ! A12   A(13,2,14)            109.0536         estimate D2E/DX2                !
 ! A13   A(2,3,4)              110.8045         estimate D2E/DX2                !
 ! A14   A(3,4,5)              110.2248         estimate D2E/DX2                !
 ! A15   A(3,4,15)             108.9311         estimate D2E/DX2                !
 ! A16   A(3,4,16)             108.9636         estimate D2E/DX2                !
 ! A17   A(5,4,15)             110.0969         estimate D2E/DX2                !
 ! A18   A(5,4,16)             110.0957         estimate D2E/DX2                !
 ! A19   A(15,4,16)            108.4898         estimate D2E/DX2                !
 ! A20   A(4,5,6)              110.5654         estimate D2E/DX2                !
 ! A21   A(4,5,17)             110.1262         estimate D2E/DX2                !
 ! A22   A(4,5,18)             110.8112         estimate D2E/DX2                !
 ! A23   A(6,5,17)             108.6564         estimate D2E/DX2                !
 ! A24   A(6,5,18)             110.0192         estimate D2E/DX2                !
 ! A25   A(17,5,18)            106.5609         estimate D2E/DX2                !
 ! A26   A(5,6,7)              135.5578         estimate D2E/DX2                !
 ! A27   A(5,6,9)              127.9858         estimate D2E/DX2                !
 ! A28   A(7,6,9)               96.4034         estimate D2E/DX2                !
 ! A29   A(6,7,8)               89.4229         estimate D2E/DX2                !
 ! A30   A(7,8,9)               85.2866         estimate D2E/DX2                !
 ! A31   A(7,8,19)             114.5923         estimate D2E/DX2                !
 ! A32   A(7,8,20)             115.4605         estimate D2E/DX2                !
 ! A33   A(9,8,19)             113.3819         estimate D2E/DX2                !
 ! A34   A(9,8,20)             113.9397         estimate D2E/DX2                !
 ! A35   A(19,8,20)            111.8078         estimate D2E/DX2                !
 ! A36   A(6,9,8)               88.8866         estimate D2E/DX2                !
 ! D1    D(10,1,2,3)           179.6803         estimate D2E/DX2                !
 ! D2    D(10,1,2,13)           59.4516         estimate D2E/DX2                !
 ! D3    D(10,1,2,14)          -59.8667         estimate D2E/DX2                !
 ! D4    D(11,1,2,3)            59.2248         estimate D2E/DX2                !
 ! D5    D(11,1,2,13)          -61.0039         estimate D2E/DX2                !
 ! D6    D(11,1,2,14)          179.6778         estimate D2E/DX2                !
 ! D7    D(12,1,2,3)           -59.8821         estimate D2E/DX2                !
 ! D8    D(12,1,2,13)          179.8891         estimate D2E/DX2                !
 ! D9    D(12,1,2,14)           60.5709         estimate D2E/DX2                !
 ! D10   D(1,2,3,4)            179.7131         estimate D2E/DX2                !
 ! D11   D(13,2,3,4)           -60.0582         estimate D2E/DX2                !
 ! D12   D(14,2,3,4)            59.3589         estimate D2E/DX2                !
 ! D13   D(2,3,4,5)           -179.7292         estimate D2E/DX2                !
 ! D14   D(2,3,4,15)            59.3744         estimate D2E/DX2                !
 ! D15   D(2,3,4,16)           -58.8136         estimate D2E/DX2                !
 ! D16   D(3,4,5,6)            177.4182         estimate D2E/DX2                !
 ! D17   D(3,4,5,17)            57.3269         estimate D2E/DX2                !
 ! D18   D(3,4,5,18)           -60.3219         estimate D2E/DX2                !
 ! D19   D(15,4,5,6)           -62.3856         estimate D2E/DX2                !
 ! D20   D(15,4,5,17)          177.5231         estimate D2E/DX2                !
 ! D21   D(15,4,5,18)           59.8744         estimate D2E/DX2                !
 ! D22   D(16,4,5,6)            57.1823         estimate D2E/DX2                !
 ! D23   D(16,4,5,17)          -62.9091         estimate D2E/DX2                !
 ! D24   D(16,4,5,18)          179.4422         estimate D2E/DX2                !
 ! D25   D(4,5,6,7)            -86.763          estimate D2E/DX2                !
 ! D26   D(4,5,6,9)             89.9294         estimate D2E/DX2                !
 ! D27   D(17,5,6,7)            34.2056         estimate D2E/DX2                !
 ! D28   D(17,5,6,9)          -149.1021         estimate D2E/DX2                !
 ! D29   D(18,5,6,7)           150.5142         estimate D2E/DX2                !
 ! D30   D(18,5,6,9)           -32.7934         estimate D2E/DX2                !
 ! D31   D(5,6,7,8)            177.5403         estimate D2E/DX2                !
 ! D32   D(9,6,7,8)              0.1631         estimate D2E/DX2                !
 ! D33   D(5,6,9,8)           -177.8355         estimate D2E/DX2                !
 ! D34   D(7,6,9,8)             -0.1654         estimate D2E/DX2                !
 ! D35   D(6,7,8,9)             -0.1508         estimate D2E/DX2                !
 ! D36   D(6,7,8,19)          -113.7411         estimate D2E/DX2                !
 ! D37   D(6,7,8,20)           114.1602         estimate D2E/DX2                !
 ! D38   D(7,8,9,6)              0.1468         estimate D2E/DX2                !
 ! D39   D(19,8,9,6)           114.936          estimate D2E/DX2                !
 ! D40   D(20,8,9,6)          -115.6602         estimate D2E/DX2                !
 --------------------------------------------------------------------------------
 Trust Radius=3.00D-01 FncErr=1.00D-07 GrdErr=1.00D-06 EigMax=2.50D+02 EigMin=1.00D-04
 Number of steps in this run=    106 maximum allowed number of steps=    120.
 GradGradGradGradGradGradGradGradGradGradGradGradGradGradGradGradGradGrad

                          Input orientation:                          
 ---------------------------------------------------------------------
 Center     Atomic      Atomic             Coordinates (Angstroms)
 Number     Number       Type             X           Y           Z
 ---------------------------------------------------------------------
      1          6           0        1.063810    0.062580    0.077530
      2          6           0        2.581160    0.067350    0.063050
      3          8           0        3.090640   -0.235150    1.365510
      4          6           0        4.525030   -0.240130    1.362980
      5          6           0        5.051980   -0.569300    2.750740
      6          6           0        6.513480   -0.636540    2.742940
      7          7           0        7.392130   -1.547800    2.495280
      8          6           0        8.442100   -0.573250    2.710520
      9          8           0        7.376210    0.345290    2.960790
     10          1           0        0.670840    0.299390   -0.916800
     11          1           0        0.676720    0.798210    0.789590
     12          1           0        0.677920   -0.915930    0.380460
     13          1           0        2.937600    1.056280   -0.244910
     14          1           0        2.939430   -0.680790   -0.652610
     15          1           0        4.883610    0.747000    1.048200
     16          1           0        4.877460   -0.984970    0.639750
     17          1           0        4.658560   -1.535660    3.083820
     18          1           0        4.714740    0.173610    3.481330
     19          1           0        9.025450   -0.328460    1.818800
     20          1           0        9.082840   -0.756310    3.577500
 ---------------------------------------------------------------------
                    Distance matrix (angstroms):
                    1          2          3          4          5
     1  C    0.000000
     2  C    1.517427   0.000000
     3  O    2.419830   1.430901   0.000000
     4  C    3.704600   2.358600   1.434401   0.000000
     5  C    4.842605   3.705935   2.424329   1.520496   0.000000
     6  C    6.106724   4.810448   3.711369   2.452624   1.463067
     7  N    6.963223   5.627600   4.637051   3.348487   2.549318
     8  C    7.859776   6.462978   5.528245   4.155751   3.390361
     9  O    6.945467   5.609514   4.609549   3.320383   2.506520
    10  H    1.095078   2.159461   3.368992   4.510350   5.779261
    11  H    1.094541   2.165389   2.688220   4.026961   4.985889
    12  H    1.094605   2.165620   2.693511   4.027692   4.987061
    13  H    2.145343   1.095386   2.069943   2.604980   4.010864
    14  H    2.145613   1.095555   2.072262   2.602098   4.007255
    15  H    4.000188   2.594941   2.068827   1.096399   2.158619
    16  H    3.994669   2.590937   2.069223   1.096383   2.158592
    17  H    4.951200   4.001285   2.665012   2.158128   1.095250
    18  H    4.992742   4.030892   2.698422   2.166697   1.095175
    19  H    8.159206   6.690904   5.952827   4.524307   4.088396
    20  H    8.787788   7.436506   6.408664   5.093542   4.119021
                    6          7          8          9         10
     6  C    0.000000
     7  N    1.289867   0.000000
     8  C    1.929931   1.448625   0.000000
     9  O    1.325048   1.949549   1.429151   0.000000
    10  H    6.957450   7.760808   8.620408   7.745954   0.000000
    11  H    6.319957   7.315044   8.116157   7.057082   1.777814
    12  H    6.301836   7.067697   8.113513   7.288063   1.777621
    13  H    4.957802   5.842321   6.456737   5.521166   2.482442
    14  H    4.930066   5.521545   6.449929   5.813305   2.485367
    15  H    2.728150   3.694972   4.143576   3.167401   4.670012
    16  H    2.687261   3.175427   4.142977   3.660679   4.665628
    17  H    2.089341   2.796235   3.921831   3.307375   5.939215
    18  H    2.106426   3.332261   3.878809   2.717326   5.975993
    19  H    2.694242   2.147592   1.093336   2.116146   8.813468
    20  H    2.704153   2.157813   1.093487   2.122838   9.595571
                   11         12         13         14         15
    11  H    0.000000
    12  H    1.762290   0.000000
    13  H    2.499674   3.063797   0.000000
    14  H    3.063860   2.497389   1.784274   0.000000
    15  H    4.215142   4.571547   2.356850   2.951470   0.000000
    16  H    4.566005   4.208103   2.951674   2.349187   1.779491
    17  H    5.154172   4.851568   4.556347   4.200848   3.066746
    18  H    4.892974   5.205613   4.221634   4.579431   2.505477
    19  H    8.487046   8.490889   6.575585   6.578119   4.348020
    20  H    8.991764   8.993844   7.460581   7.459291   5.127459
                   16         17         18         19         20
    16  H    0.000000
    17  H    2.514887   0.000000
    18  H    3.073005   1.755783   0.000000
    19  H    4.361993   4.703970   4.647397   0.000000
    20  H    5.134967   4.519442   4.467023   1.810904   0.000000
 Stoichiometry    C6H11NO2
 Framework group  C1[X(C6H11NO2)]
 Deg. of freedom    54
 Full point group                 C1      NOp   1
 Largest Abelian subgroup         C1      NOp   1
 Largest concise Abelian subgroup C1      NOp   1
                         Standard orientation:                         
 ---------------------------------------------------------------------
 Center     Atomic      Atomic             Coordinates (Angstroms)
 Number     Number       Type             X           Y           Z
 ---------------------------------------------------------------------
      1          6           0       -4.295731    0.008812    0.000293
      2          6           0       -2.914349   -0.619106   -0.009060
      3          8           0       -1.907305    0.397393   -0.000648
      4          6           0       -0.596172   -0.184357   -0.002664
      5          6           0        0.462926    0.906501    0.013074
      6          6           0        1.802558    0.321370    0.072827
      7          7           0        2.593146   -0.075395    1.011605
      8          6           0        3.547519   -0.500556    0.008149
      9          8           0        2.586062   -0.027125   -0.937334
     10          1           0       -5.068755   -0.766741   -0.011840
     11          1           0       -4.437567    0.655985   -0.870952
     12          1           0       -4.438362    0.628677    0.891126
     13          1           0       -2.801598   -1.233602   -0.908812
     14          1           0       -2.799123   -1.255360    0.875328
     15          1           0       -0.483983   -0.805453   -0.899182
     16          1           0       -0.489574   -0.825659    0.880186
     17          1           0        0.324157    1.553935    0.885511
     18          1           0        0.373297    1.548609   -0.869576
     19          1           0        3.706960   -1.581166   -0.039214
     20          1           0        4.491956    0.050407   -0.005671
 ---------------------------------------------------------------------
 Rotational constants (GHZ):           7.2478562           0.5436963           0.5435274
 Standard basis: 6-31G(2df,p) (6D, 7F)
 There are   334 symmetry adapted cartesian basis functions of A   symmetry.
 There are   307 symmetry adapted basis functions of A   symmetry.
   307 basis functions,   473 primitive gaussians,   334 cartesian basis functions
    35 alpha electrons       35 beta electrons
       nuclear repulsion energy       444.6700022728 Hartrees.
 NAtoms=   20 NActive=   20 NUniq=   20 SFac= 1.00D+00 NAtFMM=   60 NAOKFM=F Big=F
 Integral buffers will be    131072 words long.
 Raffenetti 2 integral format.
 Two-electron integral symmetry is turned on.
 One-electron integrals computed using PRISM.
 PrsmSu:  requested number of processors reduced to:  13 ShMem   1 Linda.
 NBasis=   307 RedAO= T EigKep=  3.19D-04  NBF=   307
 NBsUse=   307 1.00D-06 EigRej= -1.00D+00 NBFU=   307
 ExpMin= 1.61D-01 ExpMax= 5.48D+03 ExpMxC= 8.25D+02 IAcc=3 IRadAn=         5 AccDes= 0.00D+00
 Harris functional with IExCor=  402 and IRadAn=       5 diagonalized for initial guess.
 HarFok:  IExCor=  402 AccDes= 0.00D+00 IRadAn=         5 IDoV= 1 UseB2=F ITyADJ=14
 ICtDFT=  3500011 ScaDFX=  1.000000  1.000000  1.000000  1.000000
 FoFCou: FMM=F IPFlag=           0 FMFlag=      100000 FMFlg1=           0
         NFxFlg=           0 DoJE=T BraDBF=F KetDBF=T FulRan=T
         wScrn=  0.000000 ICntrl=       500 IOpCl=  0 I1Cent=   200000004 NGrid=           0
         NMat0=    1 NMatS0=      1 NMatT0=    0 NMatD0=    1 NMtDS0=    0 NMtDT0=    0
 Petite list used in FoFCou.
 Requested convergence on RMS density matrix=1.00D-08 within 128 cycles.
 Requested convergence on MAX density matrix=1.00D-06.
 Requested convergence on             energy=1.00D-06.
 No special actions if energy rises.
 Integral accuracy reduced to 1.0D-05 until final iterations.
 Initial convergence to 1.0D-05 achieved.  Increase integral accuracy.
 SCF Done:  E(RB3LYP) =  -440.415791838     A.U. after   13 cycles
            NFock= 13  Conv=0.74D-08     -V/T= 2.0067

 **********************************************************************

            Population analysis using the SCF density.

 **********************************************************************

 Orbital symmetries:
       Occupied  (A) (A) (A) (A) (A) (A) (A) (A) (A) (A) (A) (A)
                 (A) (A) (A) (A) (A) (A) (A) (A) (A) (A) (A) (A)
                 (A) (A) (A) (A) (A) (A) (A) (A) (A) (A) (A)
       Virtual   (A) (A) (A) (A) (A) (A) (A) (A) (A) (A) (A) (A)
                 (A) (A) (A) (A) (A) (A) (A) (A) (A) (A) (A) (A)
                 (A) (A) (A) (A) (A) (A) (A) (A) (A) (A) (A) (A)
                 (A) (A) (A) (A) (A) (A) (A) (A) (A) (A) (A) (A)
                 (A) (A) (A) (A) (A) (A) (A) (A) (A) (A) (A) (A)
                 (A) (A) (A) (A) (A) (A) (A) (A) (A) (A) (A) (A)
                 (A) (A) (A) (A) (A) (A) (A) (A) (A) (A) (A) (A)
                 (A) (A) (A) (A) (A) (A) (A) (A) (A) (A) (A) (A)
                 (A) (A) (A) (A) (A) (A) (A) (A) (A) (A) (A) (A)
                 (A) (A) (A) (A) (A) (A) (A) (A) (A) (A) (A) (A)
                 (A) (A) (A) (A) (A) (A) (A) (A) (A) (A) (A) (A)
                 (A) (A) (A) (A) (A) (A) (A) (A) (A) (A) (A) (A)
                 (A) (A) (A) (A) (A) (A) (A) (A) (A) (A) (A) (A)
                 (A) (A) (A) (A) (A) (A) (A) (A) (A) (A) (A) (A)
                 (A) (A) (A) (A) (A) (A) (A) (A) (A) (A) (A) (A)
                 (A) (A) (A) (A) (A) (A) (A) (A) (A) (A) (A) (A)
                 (A) (A) (A) (A) (A) (A) (A) (A) (A) (A) (A) (A)
                 (A) (A) (A) (A) (A) (A) (A) (A) (A) (A) (A) (A)
                 (A) (A) (A) (A) (A) (A) (A) (A) (A) (A) (A) (A)
                 (A) (A) (A) (A) (A) (A) (A) (A) (A) (A) (A) (A)
                 (A) (A) (A) (A) (A) (A) (A) (A) (A) (A) (A) (A)
                 (A) (A) (A) (A) (A) (A) (A) (A) (A) (A) (A) (A)
                 (A) (A) (A) (A) (A) (A) (A) (A)
 The electronic state is 1-A.
 Alpha  occ. eigenvalues --  -19.16539 -19.14250 -14.29242 -10.26690 -10.26048
 Alpha  occ. eigenvalues --  -10.23974 -10.23073 -10.20721 -10.17872  -1.13193
 Alpha  occ. eigenvalues --   -1.02740  -0.85141  -0.80787  -0.75359  -0.69615
 Alpha  occ. eigenvalues --   -0.63717  -0.61007  -0.53189  -0.51494  -0.50505
 Alpha  occ. eigenvalues --   -0.48915  -0.47728  -0.44766  -0.44348  -0.43925
 Alpha  occ. eigenvalues --   -0.39665  -0.38378  -0.38134  -0.37068  -0.35131
 Alpha  occ. eigenvalues --   -0.34163  -0.32220  -0.26054  -0.24825  -0.24341
 Alpha virt. eigenvalues --    0.01365   0.08430   0.08546   0.11290   0.11644
 Alpha virt. eigenvalues --    0.12056   0.13063   0.14957   0.15967   0.17017
 Alpha virt. eigenvalues --    0.17548   0.18269   0.18746   0.19433   0.20333
 Alpha virt. eigenvalues --    0.21516   0.22185   0.23689   0.27839   0.32588
 Alpha virt. eigenvalues --    0.35801   0.41144   0.42394   0.45274   0.45924
 Alpha virt. eigenvalues --    0.47403   0.48872   0.51162   0.52001   0.52760
 Alpha virt. eigenvalues --    0.53641   0.54072   0.57981   0.58845   0.60843
 Alpha virt. eigenvalues --    0.62824   0.63314   0.66954   0.68032   0.68553
 Alpha virt. eigenvalues --    0.69243   0.70198   0.70839   0.71934   0.72741
 Alpha virt. eigenvalues --    0.74080   0.74528   0.75342   0.76744   0.78903
 Alpha virt. eigenvalues --    0.79367   0.80203   0.81500   0.82914   0.84477
 Alpha virt. eigenvalues --    0.85774   0.86677   0.87918   0.88818   0.91561
 Alpha virt. eigenvalues --    0.92686   0.94493   0.98049   0.99039   1.01904
 Alpha virt. eigenvalues --    1.05617   1.09234   1.13067   1.15574   1.18807
 Alpha virt. eigenvalues --    1.19904   1.21766   1.23711   1.26571   1.28355
 Alpha virt. eigenvalues --    1.29822   1.32049   1.32647   1.35477   1.36006
 Alpha virt. eigenvalues --    1.37286   1.38741   1.39612   1.40160   1.42564
 Alpha virt. eigenvalues --    1.48202   1.49209   1.50371   1.51410   1.52939
 Alpha virt. eigenvalues --    1.55591   1.58697   1.59884   1.65135   1.68958
 Alpha virt. eigenvalues --    1.70086   1.72463   1.75870   1.76500   1.77676
 Alpha virt. eigenvalues --    1.79599   1.82426   1.83452   1.85182   1.87305
 Alpha virt. eigenvalues --    1.89941   1.91157   1.94244   1.95375   1.98365
 Alpha virt. eigenvalues --    2.01321   2.07528   2.14609   2.16339   2.16478
 Alpha virt. eigenvalues --    2.25331   2.28328   2.30531   2.31462   2.34396
 Alpha virt. eigenvalues --    2.34995   2.36392   2.43209   2.48513   2.52074
 Alpha virt. eigenvalues --    2.54417   2.56282   2.57865   2.60320   2.65923
 Alpha virt. eigenvalues --    2.68333   2.73410   2.73651   2.76729   2.77326
 Alpha virt. eigenvalues --    2.78848   2.80404   2.81251   2.83815   2.84907
 Alpha virt. eigenvalues --    2.86643   2.89046   2.90237   2.91773   2.96124
 Alpha virt. eigenvalues --    2.97196   2.98383   3.01467   3.02194   3.04320
 Alpha virt. eigenvalues --    3.05638   3.12628   3.16489   3.16668   3.19452
 Alpha virt. eigenvalues --    3.20186   3.28303   3.30001   3.32321   3.34510
 Alpha virt. eigenvalues --    3.36068   3.36686   3.38906   3.38997   3.41666
 Alpha virt. eigenvalues --    3.43260   3.47178   3.49686   3.54266   3.57527
 Alpha virt. eigenvalues --    3.58293   3.58572   3.60546   3.65328   3.66921
 Alpha virt. eigenvalues --    3.68579   3.71009   3.73241   3.74964   3.79911
 Alpha virt. eigenvalues --    3.82762   3.84967   3.88577   3.91751   3.93996
 Alpha virt. eigenvalues --    4.02844   4.03723   4.09094   4.09865   4.18060
 Alpha virt. eigenvalues --    4.26413   4.26870   4.28911   4.32429   4.35205
 Alpha virt. eigenvalues --    4.35763   4.37763   4.39139   4.39733   4.42682
 Alpha virt. eigenvalues --    4.43290   4.44170   4.46340   4.48310   4.48983
 Alpha virt. eigenvalues --    4.50535   4.51439   4.51779   4.52316   4.54444
 Alpha virt. eigenvalues --    4.56458   4.57799   4.59653   4.60732   4.61543
 Alpha virt. eigenvalues --    4.64752   4.67421   4.68967   4.69540   4.71296
 Alpha virt. eigenvalues --    4.74418   4.75380   4.76744   4.78724   4.79327
 Alpha virt. eigenvalues --    4.81802   4.85510   4.87230   4.88327   4.89478
 Alpha virt. eigenvalues --    4.90738   4.92239   4.94035   4.98259   4.99944
 Alpha virt. eigenvalues --    5.06081   5.17284   5.29356   5.32494   5.36813
 Alpha virt. eigenvalues --    5.39943   5.44011   5.45864   5.49197   5.49521
 Alpha virt. eigenvalues --    5.52709   5.54419   5.73079   5.78374   5.82507
 Alpha virt. eigenvalues --    5.85286   5.91970   5.95908   5.99425   6.01534
 Alpha virt. eigenvalues --    6.03807   6.17618   6.23585   6.36710   6.46973
 Alpha virt. eigenvalues --    7.03379   7.04318  10.74932  11.11074  11.25743
 Alpha virt. eigenvalues --   11.43926  11.68414  11.85889  12.20485  13.32943
 Alpha virt. eigenvalues --   13.40621  13.73819
          Condensed to atoms (all electrons):
               1          2          3          4          5          6
     1  C    4.951011   0.422681  -0.030497   0.003673  -0.000289   0.000001
     2  C    0.422681   4.675135   0.351698  -0.065298   0.003828  -0.000358
     3  O   -0.030497   0.351698   7.738443   0.348848  -0.022191   0.001023
     4  C    0.003673  -0.065298   0.348848   4.725103   0.413724  -0.036148
     5  C   -0.000289   0.003828  -0.022191   0.413724   5.062990   0.300778
     6  C    0.000001  -0.000358   0.001023  -0.036148   0.300778   4.577391
     7  N    0.000000   0.000001   0.000018  -0.002693  -0.026033   0.595177
     8  C    0.000000  -0.000000   0.000000   0.000207   0.009974  -0.265387
     9  O   -0.000000   0.000001   0.000002   0.000119  -0.018257   0.469210
    10  H    0.367745  -0.021399   0.002029  -0.000195   0.000003   0.000000
    11  H    0.375595  -0.024828   0.001642   0.000083   0.000014   0.000000
    12  H    0.375919  -0.024778   0.001630   0.000083   0.000012   0.000000
    13  H   -0.037941   0.359791  -0.033163  -0.005664   0.000159   0.000064
    14  H   -0.037793   0.360223  -0.033145  -0.004978   0.000163   0.000071
    15  H    0.000176  -0.005115  -0.030937   0.354505  -0.040023   0.004889
    16  H    0.000190  -0.005385  -0.030511   0.357865  -0.039656   0.005843
    17  H    0.000007   0.000171   0.002245  -0.021960   0.352257  -0.010582
    18  H    0.000008   0.000112   0.002177  -0.025688   0.345687  -0.010617
    19  H   -0.000000   0.000000  -0.000000   0.000050  -0.000040   0.003207
    20  H    0.000000   0.000000   0.000000  -0.000015  -0.000556   0.003009
               7          8          9         10         11         12
     1  C    0.000000   0.000000  -0.000000   0.367745   0.375595   0.375919
     2  C    0.000001  -0.000000   0.000001  -0.021399  -0.024828  -0.024778
     3  O    0.000018   0.000000   0.000002   0.002029   0.001642   0.001630
     4  C   -0.002693   0.000207   0.000119  -0.000195   0.000083   0.000083
     5  C   -0.026033   0.009974  -0.018257   0.000003   0.000014   0.000012
     6  C    0.595177  -0.265387   0.469210   0.000000   0.000000   0.000000
     7  N    6.565955   0.432028  -0.208632  -0.000000  -0.000000  -0.000000
     8  C    0.432028   4.845853   0.336322  -0.000000   0.000000   0.000000
     9  O   -0.208632   0.336322   7.669604   0.000000  -0.000000  -0.000000
    10  H   -0.000000  -0.000000   0.000000   0.591115  -0.028816  -0.028797
    11  H   -0.000000   0.000000  -0.000000  -0.028816   0.582725  -0.033376
    12  H   -0.000000   0.000000  -0.000000  -0.028797  -0.033376   0.581597
    13  H    0.000000   0.000000  -0.000001   0.000042  -0.006232   0.006034
    14  H   -0.000002   0.000000   0.000000   0.000121   0.006028  -0.006287
    15  H   -0.000089   0.000012   0.000978   0.000012  -0.000045   0.000041
    16  H    0.002071  -0.000033  -0.000111   0.000010   0.000041  -0.000045
    17  H   -0.004237  -0.000489   0.001626   0.000000  -0.000001   0.000003
    18  H    0.002589  -0.000502  -0.001701   0.000000   0.000002  -0.000000
    19  H   -0.016464   0.360095  -0.013068   0.000000   0.000000   0.000000
    20  H   -0.016696   0.362357  -0.013453  -0.000000  -0.000000  -0.000000
              13         14         15         16         17         18
     1  C   -0.037941  -0.037793   0.000176   0.000190   0.000007   0.000008
     2  C    0.359791   0.360223  -0.005115  -0.005385   0.000171   0.000112
     3  O   -0.033163  -0.033145  -0.030937  -0.030511   0.002245   0.002177
     4  C   -0.005664  -0.004978   0.354505   0.357865  -0.021960  -0.025688
     5  C    0.000159   0.000163  -0.040023  -0.039656   0.352257   0.345687
     6  C    0.000064   0.000071   0.004889   0.005843  -0.010582  -0.010617
     7  N    0.000000  -0.000002  -0.000089   0.002071  -0.004237   0.002589
     8  C    0.000000   0.000000   0.000012  -0.000033  -0.000489  -0.000502
     9  O   -0.000001   0.000000   0.000978  -0.000111   0.001626  -0.001701
    10  H    0.000042   0.000121   0.000012   0.000010   0.000000   0.000000
    11  H   -0.006232   0.006028  -0.000045   0.000041  -0.000001   0.000002
    12  H    0.006034  -0.006287   0.000041  -0.000045   0.000003  -0.000000
    13  H    0.673735  -0.058205   0.014015  -0.002787   0.000040  -0.000048
    14  H   -0.058205   0.670820  -0.002879   0.013794  -0.000057   0.000032
    15  H    0.014015  -0.002879   0.657456  -0.055680   0.006081  -0.006948
    16  H   -0.002787   0.013794  -0.055680   0.640718  -0.006056   0.006072
    17  H    0.000040  -0.000057   0.006081  -0.006056   0.565469  -0.036338
    18  H   -0.000048   0.000032  -0.006948   0.006072  -0.036338   0.586379
    19  H    0.000000   0.000000  -0.000024  -0.000012  -0.000007  -0.000005
    20  H   -0.000000  -0.000000   0.000005   0.000005   0.000050   0.000053
              19         20
     1  C   -0.000000   0.000000
     2  C    0.000000   0.000000
     3  O   -0.000000   0.000000
     4  C    0.000050  -0.000015
     5  C   -0.000040  -0.000556
     6  C    0.003207   0.003009
     7  N   -0.016464  -0.016696
     8  C    0.360095   0.362357
     9  O   -0.013068  -0.013453
    10  H    0.000000  -0.000000
    11  H    0.000000  -0.000000
    12  H    0.000000  -0.000000
    13  H    0.000000  -0.000000
    14  H    0.000000  -0.000000
    15  H   -0.000024   0.000005
    16  H   -0.000012   0.000005
    17  H   -0.000007   0.000050
    18  H   -0.000005   0.000053
    19  H    0.579673  -0.048064
    20  H   -0.048064   0.577155
 Mulliken charges:
               1
     1  C   -0.390484
     2  C   -0.026478
     3  O   -0.269312
     4  C   -0.041621
     5  C   -0.342545
     6  C    0.362432
     7  N   -0.322993
     8  C   -0.080437
     9  O   -0.222639
    10  H    0.118129
    11  H    0.127168
    12  H    0.127964
    13  H    0.090160
    14  H    0.092094
    15  H    0.103570
    16  H    0.113667
    17  H    0.151777
    18  H    0.138739
    19  H    0.134660
    20  H    0.136150
 Sum of Mulliken charges =  -0.00000
 Mulliken charges with hydrogens summed into heavy atoms:
               1
     1  C   -0.017223
     2  C    0.155776
     3  O   -0.269312
     4  C    0.175616
     5  C   -0.052030
     6  C    0.362432
     7  N   -0.322993
     8  C    0.190373
     9  O   -0.222639
 Electronic spatial extent (au):  <R**2>=           2080.7752
 Charge=              0.0000 electrons
 Dipole moment (field-independent basis, Debye):
    X=             -0.6653    Y=             -0.9187    Z=             -1.1229  Tot=              1.5961
 Quadrupole moment (field-independent basis, Debye-Ang):
   XX=            -47.3471   YY=            -51.9197   ZZ=            -59.1102
   XY=              0.8718   XZ=             -3.0871   YZ=              0.2167
 Traceless Quadrupole moment (field-independent basis, Debye-Ang):
   XX=              5.4453   YY=              0.8726   ZZ=             -6.3179
   XY=              0.8718   XZ=             -3.0871   YZ=              0.2167
 Octapole moment (field-independent basis, Debye-Ang**2):
  XXX=             25.1412  YYY=              1.4039  ZZZ=             -7.7885  XYY=              6.7171
  XXY=            -15.2913  XXZ=             -8.9114  XZZ=            -15.0362  YZZ=              1.7686
  YYZ=             -1.4259  XYZ=              0.3457
 Hexadecapole moment (field-independent basis, Debye-Ang**3):
 XXXX=          -2147.6892 YYYY=           -157.2467 ZZZZ=           -154.4058 XXXY=            -17.8847
 XXXZ=            -29.4060 YYYX=            -10.0887 YYYZ=              0.2090 ZZZX=            -20.9602
 ZZZY=              0.8121 XXYY=           -411.4226 XXZZ=           -464.7524 YYZZ=            -48.1721
 XXYZ=              0.4778 YYXZ=             -4.0831 ZZXY=             -1.9044
 N-N= 4.446700022728D+02 E-N=-1.916971021977D+03  KE= 4.374755693027D+02
 PrsmSu:  requested number of processors reduced to:  13 ShMem   1 Linda.
 Calling FoFJK, ICntrl=      2127 FMM=F ISym2X=0 I1Cent= 0 IOpClX= 0 NMat=1 NMatS=1 NMatT=0.
 ***** Axes restored to original set *****
 -------------------------------------------------------------------
 Center     Atomic                   Forces (Hartrees/Bohr)
 Number     Number              X              Y              Z
 -------------------------------------------------------------------
      1        6          -0.002777287   -0.001456115    0.005792427
      2        6          -0.001720995   -0.002034741    0.009652387
      3        8           0.008597764    0.000908811   -0.003357248
      4        6          -0.019970181    0.002054882   -0.006542541
      5        6          -0.011178532   -0.001218290    0.007658389
      6        6           0.041196462   -0.028533301   -0.006698121
      7        7          -0.012696478   -0.073316520   -0.016076504
      8        6          -0.021035203   -0.010916547   -0.003833950
      9        8           0.004959484    0.104990762    0.026096846
     10        1           0.001017375   -0.000137984    0.000586184
     11        1           0.000546568    0.000791692   -0.000777590
     12        1           0.000580664   -0.000295401   -0.001016580
     13        1           0.003483910    0.002196885   -0.003145148
     14        1           0.003541140   -0.000558953   -0.003413377
     15        1           0.003421942    0.001727266   -0.001511728
     16        1           0.003557756   -0.000813502   -0.000788288
     17        1           0.001116858   -0.000382129   -0.002490591
     18        1           0.000591278    0.001781559   -0.001722613
     19        1          -0.001135730    0.002771788    0.000538639
     20        1          -0.002096793    0.002439839    0.001049408
 -------------------------------------------------------------------
 Cartesian Forces:  Max     0.104990762 RMS     0.018990459

 GradGradGradGradGradGradGradGradGradGradGradGradGradGradGradGradGradGrad
 Berny optimization.
 FormGI is forming the generalized inverse of G from B-inverse, IUseBI=4.
 Internal  Forces:  Max     0.050340244 RMS     0.011749400
 Search for a local minimum.
 Step number   1 out of a maximum of  106
 All quantities printed in internal units (Hartrees-Bohrs-Radians)
 Mixed Optimization -- RFO/linear search
 Second derivative matrix not updated -- first step.
 ITU=  0
     Eigenvalues ---    0.00495   0.00535   0.01237   0.01255   0.01283
     Eigenvalues ---    0.01533   0.02179   0.04508   0.05139   0.05204
     Eigenvalues ---    0.05566   0.05669   0.05678   0.05869   0.06007
     Eigenvalues ---    0.08648   0.08697   0.09255   0.09360   0.11158
     Eigenvalues ---    0.11320   0.11393   0.12739   0.13776   0.13782
     Eigenvalues ---    0.16000   0.16000   0.16000   0.21890   0.22037
     Eigenvalues ---    0.22072   0.24221   0.24967   0.25000   0.30319
     Eigenvalues ---    0.30616   0.34083   0.34085   0.34179   0.34198
     Eigenvalues ---    0.34213   0.34221   0.34232   0.34286   0.34293
     Eigenvalues ---    0.34413   0.34430   0.35961   0.36583   0.38452
     Eigenvalues ---    0.40363   0.40860   0.56046   0.64733
 RFO step:  Lambda=-4.17478114D-02 EMin= 4.94829424D-03
 Linear search not attempted -- first point.
 Maximum step size (   0.300) exceeded in Quadratic search.
    -- Step size scaled by   0.817
 Iteration  1 RMS(Cart)=  0.06316616 RMS(Int)=  0.00157484
 Iteration  2 RMS(Cart)=  0.00297943 RMS(Int)=  0.00034663
 Iteration  3 RMS(Cart)=  0.00000222 RMS(Int)=  0.00034663
 Iteration  4 RMS(Cart)=  0.00000000 RMS(Int)=  0.00034663
 Variable       Old X    -DE/DX   Delta X   Delta X   Delta X     New X
                                 (Linear)    (Quad)   (Total)
    R1        2.86752   0.00068   0.00000   0.00160   0.00160   2.86912
    R2        2.06940  -0.00093   0.00000  -0.00197  -0.00197   2.06743
    R3        2.06838  -0.00017   0.00000  -0.00035  -0.00035   2.06803
    R4        2.06850  -0.00022   0.00000  -0.00047  -0.00047   2.06803
    R5        2.70401  -0.00897   0.00000  -0.01627  -0.01627   2.68774
    R6        2.06998   0.00400   0.00000   0.00852   0.00852   2.07850
    R7        2.07030   0.00377   0.00000   0.00803   0.00803   2.07833
    R8        2.71062  -0.01326   0.00000  -0.02434  -0.02434   2.68629
    R9        2.87332   0.00455   0.00000   0.01077   0.01077   2.88409
   R10        2.07189   0.00311   0.00000   0.00664   0.00664   2.07853
   R11        2.07186   0.00222   0.00000   0.00473   0.00473   2.07660
   R12        2.76480   0.00929   0.00000   0.01864   0.01864   2.78343
   R13        2.06972  -0.00082   0.00000  -0.00175  -0.00175   2.06797
   R14        2.06958  -0.00012   0.00000  -0.00026  -0.00026   2.06932
   R15        2.43749   0.01117   0.00000   0.01479   0.01461   2.45210
   R16        2.50398   0.04303   0.00000   0.05969   0.06012   2.56410
   R17        2.73750   0.01844   0.00000   0.02742   0.02696   2.76447
   R18        2.70070   0.01922   0.00000   0.03127   0.03150   2.73220
   R19        2.06611  -0.00042   0.00000  -0.00090  -0.00090   2.06521
   R20        2.06639  -0.00081   0.00000  -0.00171  -0.00171   2.06469
    A1        1.92782  -0.00112   0.00000  -0.00592  -0.00593   1.92189
    A2        1.93663  -0.00032   0.00000  -0.00063  -0.00064   1.93600
    A3        1.93689  -0.00034   0.00000  -0.00068  -0.00069   1.93620
    A4        1.89490   0.00036   0.00000   0.00015   0.00014   1.89503
    A5        1.89451   0.00039   0.00000   0.00028   0.00027   1.89478
    A6        1.87139   0.00113   0.00000   0.00721   0.00721   1.87860
    A7        1.92483  -0.00782   0.00000  -0.02327  -0.02319   1.90164
    A8        1.90806   0.00353   0.00000   0.01389   0.01388   1.92194
    A9        1.90826   0.00367   0.00000   0.01406   0.01403   1.92229
   A10        1.90806   0.00214   0.00000   0.00611   0.00619   1.91425
   A11        1.91113   0.00181   0.00000   0.00395   0.00403   1.91516
   A12        1.90334  -0.00330   0.00000  -0.01469  -0.01478   1.88856
   A13        1.93390   0.00504   0.00000   0.01412   0.01412   1.94803
   A14        1.92379  -0.01062   0.00000  -0.03277  -0.03274   1.89105
   A15        1.90121   0.00455   0.00000   0.01711   0.01702   1.91822
   A16        1.90177   0.00543   0.00000   0.02105   0.02089   1.92267
   A17        1.92155   0.00191   0.00000   0.00331   0.00341   1.92496
   A18        1.92153   0.00062   0.00000  -0.00262  -0.00253   1.91900
   A19        1.89350  -0.00166   0.00000  -0.00522  -0.00537   1.88814
   A20        1.92973   0.00406   0.00000   0.01137   0.01139   1.94112
   A21        1.92206  -0.00157   0.00000  -0.00546  -0.00546   1.91660
   A22        1.93402  -0.00238   0.00000  -0.01063  -0.01062   1.92340
   A23        1.89641  -0.00118   0.00000  -0.00259  -0.00258   1.89383
   A24        1.92020  -0.00120   0.00000  -0.00432  -0.00429   1.91591
   A25        1.85984   0.00217   0.00000   0.01161   0.01159   1.87143
   A26        2.36593  -0.01919   0.00000  -0.05928  -0.05936   2.30657
   A27        2.23377  -0.02572   0.00000  -0.07759  -0.07767   2.15610
   A28        1.68256   0.04490   0.00000   0.13701   0.13718   1.81974
   A29        1.56072  -0.03909   0.00000  -0.12090  -0.12184   1.43889
   A30        1.48853   0.04454   0.00000   0.12085   0.12056   1.60909
   A31        2.00001  -0.00730   0.00000  -0.00721  -0.00711   1.99291
   A32        2.01517  -0.00853   0.00000  -0.01435  -0.01396   2.00120
   A33        1.97889  -0.01190   0.00000  -0.03279  -0.03408   1.94481
   A34        1.98862  -0.01299   0.00000  -0.03840  -0.03931   1.94932
   A35        1.95141   0.00255   0.00000  -0.00681  -0.00823   1.94319
   A36        1.55136  -0.05034   0.00000  -0.13694  -0.13590   1.41546
    D1        3.13601   0.00011   0.00000   0.00100   0.00101   3.13702
    D2        1.03763   0.00010   0.00000  -0.00085  -0.00080   1.03682
    D3       -1.04487  -0.00020   0.00000   0.00028   0.00023  -1.04465
    D4        1.03367   0.00061   0.00000   0.00516   0.00516   1.03883
    D5       -1.06472   0.00060   0.00000   0.00330   0.00335  -1.06137
    D6        3.13597   0.00030   0.00000   0.00443   0.00438   3.14035
    D7       -1.04514  -0.00037   0.00000  -0.00302  -0.00301  -1.04816
    D8        3.13966  -0.00038   0.00000  -0.00488  -0.00482   3.13483
    D9        1.05716  -0.00068   0.00000  -0.00375  -0.00379   1.05337
   D10        3.13659  -0.00002   0.00000  -0.00036  -0.00035   3.13623
   D11       -1.04821   0.00083   0.00000   0.00618   0.00619  -1.04202
   D12        1.03601  -0.00081   0.00000  -0.00567  -0.00568   1.03033
   D13       -3.13687   0.00033   0.00000   0.00134   0.00138  -3.13549
   D14        1.03628   0.00167   0.00000   0.00672   0.00695   1.04322
   D15       -1.02649  -0.00206   0.00000  -0.00888  -0.00914  -1.03563
   D16        3.09653   0.00040   0.00000   0.00487   0.00490   3.10143
   D17        1.00054   0.00028   0.00000   0.00434   0.00437   1.00492
   D18       -1.05282   0.00004   0.00000  -0.00007  -0.00006  -1.05287
   D19       -1.08883   0.00050   0.00000   0.00734   0.00736  -1.08147
   D20        3.09836   0.00038   0.00000   0.00681   0.00684   3.10520
   D21        1.04501   0.00014   0.00000   0.00239   0.00240   1.04741
   D22        0.99802   0.00004   0.00000   0.00131   0.00127   0.99929
   D23       -1.09797  -0.00008   0.00000   0.00078   0.00074  -1.09723
   D24        3.13186  -0.00032   0.00000  -0.00363  -0.00369   3.12817
   D25       -1.51430  -0.00105   0.00000  -0.01030  -0.01031  -1.52461
   D26        1.56956  -0.00004   0.00000  -0.00186  -0.00186   1.56770
   D27        0.59700  -0.00123   0.00000  -0.01166  -0.01166   0.58534
   D28       -2.60232  -0.00022   0.00000  -0.00322  -0.00322  -2.60554
   D29        2.62697   0.00004   0.00000  -0.00161  -0.00161   2.62536
   D30       -0.57235   0.00104   0.00000   0.00683   0.00683  -0.56552
   D31        3.09866  -0.00059   0.00000  -0.00063  -0.00060   3.09807
   D32        0.00285  -0.00024   0.00000  -0.00384  -0.00399  -0.00114
   D33       -3.10382   0.00053   0.00000   0.00103   0.00107  -3.10274
   D34       -0.00289   0.00024   0.00000   0.00389   0.00405   0.00116
   D35       -0.00263   0.00022   0.00000   0.00358   0.00367   0.00104
   D36       -1.98516  -0.00647   0.00000  -0.01539  -0.01585  -2.00101
   D37        1.99247   0.00629   0.00000   0.01763   0.01780   2.01027
   D38        0.00256  -0.00024   0.00000  -0.00353  -0.00356  -0.00100
   D39        2.00601   0.00999   0.00000   0.03796   0.03669   2.04270
   D40       -2.01865  -0.00943   0.00000  -0.03778  -0.03632  -2.05497
         Item               Value     Threshold  Converged?
 Maximum Force            0.050340     0.000450     NO 
 RMS     Force            0.011749     0.000300     NO 
 Maximum Displacement     0.194586     0.001800     NO 
 RMS     Displacement     0.064056     0.001200     NO 
 Predicted change in Energy=-2.211910D-02
 GradGradGradGradGradGradGradGradGradGradGradGradGradGradGradGradGradGrad

                          Input orientation:                          
 ---------------------------------------------------------------------
 Center     Atomic      Atomic             Coordinates (Angstroms)
 Number     Number       Type             X           Y           Z
 ---------------------------------------------------------------------
      1          6           0        1.077371    0.055043    0.145486
      2          6           0        2.592480    0.070620    0.048779
      3          8           0        3.140123   -0.227511    1.327102
      4          6           0        4.561353   -0.234685    1.299148
      5          6           0        5.067757   -0.569437    2.699421
      6          6           0        6.538297   -0.647510    2.729957
      7          7           0        7.363746   -1.621239    2.497063
      8          6           0        8.360273   -0.579750    2.746640
      9          8           0        7.340281    0.416502    2.986423
     10          1           0        0.635784    0.287061   -0.828207
     11          1           0        0.724572    0.792552    0.872962
     12          1           0        0.716113   -0.926713    0.466830
     13          1           0        2.940348    1.060402   -0.281510
     14          1           0        2.932825   -0.675426   -0.684127
     15          1           0        4.934704    0.750742    0.983947
     16          1           0        4.922259   -0.983915    0.580846
     17          1           0        4.661944   -1.533883    3.019902
     18          1           0        4.721724    0.182372    3.416463
     19          1           0        8.969886   -0.325512    1.875963
     20          1           0        8.979870   -0.744293    3.631381
 ---------------------------------------------------------------------
                    Distance matrix (angstroms):
                    1          2          3          4          5
     1  C    0.000000
     2  C    1.518272   0.000000
     3  O    2.393951   1.422289   0.000000
     4  C    3.681441   2.352254   1.421523   0.000000
     5  C    4.778675   3.682741   2.390804   1.526195   0.000000
     6  C    6.082334   4.824304   3.700269   2.475065   1.472928
     7  N    6.917972   5.623297   4.598943   3.348274   2.533535
     8  C    7.759486   6.400693   5.421173   4.079962   3.292870
     9  O    6.886626   5.593837   4.561735   3.315628   2.493755
    10  H    1.094034   2.155135   3.343929   4.495326   5.728886
    11  H    1.094353   2.165535   2.661139   3.994714   4.904511
    12  H    1.094355   2.165685   2.665479   3.994688   4.903970
    13  H    2.159573   1.099896   2.070329   2.608330   4.008515
    14  H    2.159757   1.099805   2.070904   2.603792   4.002195
    15  H    4.008245   2.612110   2.072499   1.099913   2.168739
    16  H    4.006512   2.612090   2.074862   1.098888   2.163636
    17  H    4.861699   3.960390   2.624522   2.158478   1.094325
    18  H    4.898654   3.985908   2.652337   2.163950   1.095037
    19  H    8.088953   6.645813   5.856362   4.447035   3.995521
    20  H    8.674093   7.368709   6.299159   5.022181   4.025388
                    6          7          8          9         10
     6  C    0.000000
     7  N    1.297595   0.000000
     8  C    1.823311   1.462892   0.000000
     9  O    1.356862   2.095809   1.445820   0.000000
    10  H    6.955115   7.743675   8.555619   7.714820   0.000000
    11  H    6.270695   7.248636   7.981090   6.955267   1.776902
    12  H    6.252802   6.985359   7.984428   7.213334   1.776745
    13  H    4.993109   5.871807   6.421477   5.518460   2.491576
    14  H    4.965499   5.536027   6.421566   5.838743   2.494702
    15  H    2.752303   3.716996   4.075760   3.147766   4.688242
    16  H    2.709876   3.168426   4.083375   3.687112   4.687716
    17  H    2.095334   2.753311   3.829187   3.313399   5.859501
    18  H    2.111856   3.328452   3.777371   2.663944   5.892630
    19  H    2.597231   2.155077   1.092860   2.106969   8.783224
    20  H    2.604459   2.160456   1.092584   2.109897   9.517110
                   11         12         13         14         15
    11  H    0.000000
    12  H    1.766604   0.000000
    13  H    2.512810   3.075038   0.000000
    14  H    3.075039   2.510310   1.781925   0.000000
    15  H    4.211802   4.569220   2.382168   2.970513   0.000000
    16  H    4.567466   4.208080   2.975039   2.377640   1.780921
    17  H    5.052183   4.738820   4.538009   4.176916   3.072298
    18  H    4.776917   5.096599   4.197528   4.555306   2.507097
    19  H    8.381007   8.394752   6.552157   6.566780   4.270446
    20  H    8.838592   8.850838   7.419128   7.429340   5.060375
                   16         17         18         19         20
    16  H    0.000000
    17  H    2.513806   0.000000
    18  H    3.072647   1.762488   0.000000
    19  H    4.300477   4.618129   4.547303   0.000000
    20  H    5.082065   4.431911   4.363107   1.804707   0.000000
 Stoichiometry    C6H11NO2
 Framework group  C1[X(C6H11NO2)]
 Deg. of freedom    54
 Full point group                 C1      NOp   1
 Largest Abelian subgroup         C1      NOp   1
 Largest concise Abelian subgroup C1      NOp   1
                         Standard orientation:                         
 ---------------------------------------------------------------------
 Center     Atomic      Atomic             Coordinates (Angstroms)
 Number     Number       Type             X           Y           Z
 ---------------------------------------------------------------------
      1          6           0       -4.254260    0.074152   -0.049111
      2          6           0       -2.911559   -0.546044    0.293908
      3          8           0       -1.875049    0.309086   -0.172253
      4          6           0       -0.588521   -0.216397    0.126810
      5          6           0        0.462328    0.759238   -0.395801
      6          6           0        1.823799    0.301208   -0.070035
      7          7           0        2.575950    0.477796    0.972480
      8          6           0        3.486756   -0.386944    0.222340
      9          8           0        2.557694   -0.503483   -0.879322
     10          1           0       -5.066540   -0.571593    0.297479
     11          1           0       -4.356053    0.212811   -1.129862
     12          1           0       -4.363751    1.055428    0.422822
     13          1           0       -2.818601   -1.533709   -0.181114
     14          1           0       -2.822489   -0.678348    1.382087
     15          1           0       -0.465894   -1.200271   -0.349387
     16          1           0       -0.474576   -0.344223    1.212274
     17          1           0        0.310206    1.744763    0.054916
     18          1           0        0.361212    0.879197   -1.479541
     19          1           0        3.672681   -1.356029    0.692075
     20          1           0        4.419741    0.091300   -0.085170
 ---------------------------------------------------------------------
 Rotational constants (GHZ):           7.0128806           0.5546381           0.5507456
 Standard basis: 6-31G(2df,p) (6D, 7F)
 There are   334 symmetry adapted cartesian basis functions of A   symmetry.
 There are   307 symmetry adapted basis functions of A   symmetry.
   307 basis functions,   473 primitive gaussians,   334 cartesian basis functions
    35 alpha electrons       35 beta electrons
       nuclear repulsion energy       444.9107978307 Hartrees.
 NAtoms=   20 NActive=   20 NUniq=   20 SFac= 1.00D+00 NAtFMM=   60 NAOKFM=F Big=F
 Integral buffers will be    131072 words long.
 Raffenetti 2 integral format.
 Two-electron integral symmetry is turned on.
 One-electron integrals computed using PRISM.
 PrsmSu:  requested number of processors reduced to:  13 ShMem   1 Linda.
 NBasis=   307 RedAO= T EigKep=  3.35D-04  NBF=   307
 NBsUse=   307 1.00D-06 EigRej= -1.00D+00 NBFU=   307
 Initial guess from the checkpoint file:  "CCOCCC1dNCO1.chk"
 B after Tr=     0.000000   -0.000000    0.000000
         Rot=    0.967993    0.250974    0.000048    0.000865 Ang=  29.07 deg.
 ExpMin= 1.61D-01 ExpMax= 5.48D+03 ExpMxC= 8.25D+02 IAcc=2 IRadAn=         4 AccDes= 0.00D+00
 Harris functional with IExCor=  402 and IRadAn=       4 diagonalized for initial guess.
 HarFok:  IExCor=  402 AccDes= 0.00D+00 IRadAn=         4 IDoV= 1 UseB2=F ITyADJ=14
 ICtDFT=  3500011 ScaDFX=  1.000000  1.000000  1.000000  1.000000
 FoFCou: FMM=F IPFlag=           0 FMFlag=      100000 FMFlg1=           0
         NFxFlg=           0 DoJE=T BraDBF=F KetDBF=T FulRan=T
         wScrn=  0.000000 ICntrl=       500 IOpCl=  0 I1Cent=   200000004 NGrid=           0
         NMat0=    1 NMatS0=      1 NMatT0=    0 NMatD0=    1 NMtDS0=    0 NMtDT0=    0
 Petite list used in FoFCou.
 Requested convergence on RMS density matrix=1.00D-08 within 128 cycles.
 Requested convergence on MAX density matrix=1.00D-06.
 Requested convergence on             energy=1.00D-06.
 No special actions if energy rises.
 Integral accuracy reduced to 1.0D-05 until final iterations.
 Initial convergence to 1.0D-05 achieved.  Increase integral accuracy.
 SCF Done:  E(RB3LYP) =  -440.430289019     A.U. after   11 cycles
            NFock= 11  Conv=0.87D-08     -V/T= 2.0071
 PrsmSu:  requested number of processors reduced to:  13 ShMem   1 Linda.
 Calling FoFJK, ICntrl=      2127 FMM=F ISym2X=0 I1Cent= 0 IOpClX= 0 NMat=1 NMatS=1 NMatT=0.
 ***** Axes restored to original set *****
 -------------------------------------------------------------------
 Center     Atomic                   Forces (Hartrees/Bohr)
 Number     Number              X              Y              Z
 -------------------------------------------------------------------
      1        6          -0.001499078   -0.000452565    0.001762142
      2        6          -0.002129717   -0.001319489    0.006329024
      3        8           0.006315701    0.000806117   -0.003527748
      4        6          -0.011596669    0.000822128   -0.000268245
      5        6          -0.007425823   -0.000147900    0.004830920
      6        6          -0.008446295   -0.017250975   -0.003354360
      7        7          -0.006500660    0.013081562    0.003986289
      8        6           0.024712597   -0.008549684   -0.002836168
      9        8          -0.002311594    0.008524308    0.001885094
     10        1          -0.000223458   -0.000016878    0.000073916
     11        1           0.000673896    0.000427898   -0.000574651
     12        1           0.000685906   -0.000105411   -0.000670389
     13        1           0.001375734    0.000603851   -0.001805635
     14        1           0.001383677    0.000236512   -0.001781431
     15        1           0.001828170    0.000453560   -0.000777929
     16        1           0.001611015   -0.000350338   -0.000640921
     17        1           0.000132280   -0.000286899   -0.002135772
     18        1           0.000135857    0.001036422   -0.001398553
     19        1           0.000797801    0.001403343   -0.000046246
     20        1           0.000480659    0.001084438    0.000950662
 -------------------------------------------------------------------
 Cartesian Forces:  Max     0.024712597 RMS     0.005375889

 GradGradGradGradGradGradGradGradGradGradGradGradGradGradGradGradGradGrad
 Berny optimization.
 Using GEDIIS/GDIIS optimizer.
 FormGI is forming the generalized inverse of G from B-inverse, IUseBI=4.
 Internal  Forces:  Max     0.013253744 RMS     0.003313206
 Search for a local minimum.
 Step number   2 out of a maximum of  106
 All quantities printed in internal units (Hartrees-Bohrs-Radians)
 Mixed Optimization -- RFO/linear search
 Update second derivatives using D2CorX and points    1    2
 DE= -1.45D-02 DEPred=-2.21D-02 R= 6.55D-01
 TightC=F SS=  1.41D+00  RLast= 3.07D-01 DXNew= 5.0454D-01 9.2060D-01
 Trust test= 6.55D-01 RLast= 3.07D-01 DXMaxT set to 5.05D-01
 ITU=  1  0
 Use linear search instead of GDIIS.
     Eigenvalues ---    0.00495   0.00535   0.01237   0.01254   0.01283
     Eigenvalues ---    0.01556   0.02221   0.04479   0.05290   0.05324
     Eigenvalues ---    0.05590   0.05676   0.05721   0.05923   0.05932
     Eigenvalues ---    0.08416   0.09403   0.09529   0.09668   0.10906
     Eigenvalues ---    0.11140   0.11235   0.12787   0.13644   0.13698
     Eigenvalues ---    0.15993   0.16000   0.16001   0.21688   0.21956
     Eigenvalues ---    0.21999   0.24797   0.24986   0.30260   0.30615
     Eigenvalues ---    0.33878   0.34084   0.34129   0.34188   0.34212
     Eigenvalues ---    0.34221   0.34231   0.34283   0.34292   0.34373
     Eigenvalues ---    0.34423   0.34645   0.36079   0.37852   0.40133
     Eigenvalues ---    0.40795   0.43333   0.54023   0.65497
 RFO step:  Lambda=-2.42383022D-03 EMin= 4.94827173D-03
 Quartic linear search produced a step of -0.10940.
 Iteration  1 RMS(Cart)=  0.04099282 RMS(Int)=  0.00043927
 Iteration  2 RMS(Cart)=  0.00073657 RMS(Int)=  0.00008273
 Iteration  3 RMS(Cart)=  0.00000014 RMS(Int)=  0.00008273
 Variable       Old X    -DE/DX   Delta X   Delta X   Delta X     New X
                                 (Linear)    (Quad)   (Total)
    R1        2.86912   0.00040  -0.00017   0.00150   0.00132   2.87044
    R2        2.06743   0.00002   0.00022  -0.00036  -0.00015   2.06728
    R3        2.06803  -0.00031   0.00004  -0.00088  -0.00084   2.06719
    R4        2.06803  -0.00033   0.00005  -0.00095  -0.00090   2.06714
    R5        2.68774  -0.00323   0.00178  -0.01043  -0.00865   2.67908
    R6        2.07850   0.00152  -0.00093   0.00574   0.00480   2.08331
    R7        2.07833   0.00145  -0.00088   0.00546   0.00459   2.08292
    R8        2.68629  -0.00658   0.00266  -0.01958  -0.01692   2.66937
    R9        2.88409   0.00249  -0.00118   0.00955   0.00837   2.89246
   R10        2.07853   0.00125  -0.00073   0.00465   0.00392   2.08246
   R11        2.07660   0.00119  -0.00052   0.00408   0.00356   2.08016
   R12        2.78343   0.00882  -0.00204   0.02527   0.02323   2.80666
   R13        2.06797  -0.00042   0.00019  -0.00146  -0.00127   2.06671
   R14        2.06932  -0.00025   0.00003  -0.00069  -0.00067   2.06865
   R15        2.45210  -0.00487  -0.00160  -0.00478  -0.00640   2.44570
   R16        2.56410   0.01085  -0.00658   0.02806   0.02133   2.58543
   R17        2.76447   0.00637  -0.00295   0.02069   0.01789   2.78236
   R18        2.73220   0.01235  -0.00345   0.03614   0.03270   2.76490
   R19        2.06521   0.00081   0.00010   0.00188   0.00198   2.06719
   R20        2.06469   0.00088   0.00019   0.00190   0.00208   2.06677
    A1        1.92189   0.00051   0.00065   0.00055   0.00120   1.92309
    A2        1.93600  -0.00078   0.00007  -0.00394  -0.00388   1.93212
    A3        1.93620  -0.00078   0.00008  -0.00395  -0.00387   1.93233
    A4        1.89503   0.00001  -0.00002  -0.00085  -0.00087   1.89417
    A5        1.89478   0.00003  -0.00003  -0.00065  -0.00068   1.89410
    A6        1.87860   0.00105  -0.00079   0.00911   0.00832   1.88692
    A7        1.90164  -0.00196   0.00254  -0.01063  -0.00809   1.89355
    A8        1.92194   0.00114  -0.00152   0.00929   0.00777   1.92972
    A9        1.92229   0.00117  -0.00154   0.00910   0.00757   1.92987
   A10        1.91425   0.00067  -0.00068   0.00562   0.00495   1.91920
   A11        1.91516   0.00056  -0.00044   0.00386   0.00343   1.91859
   A12        1.88856  -0.00156   0.00162  -0.01709  -0.01547   1.87310
   A13        1.94803   0.00507  -0.00155   0.02089   0.01935   1.96737
   A14        1.89105  -0.00279   0.00358  -0.01678  -0.01318   1.87786
   A15        1.91822   0.00154  -0.00186   0.01380   0.01192   1.93014
   A16        1.92267   0.00170  -0.00229   0.01570   0.01340   1.93607
   A17        1.92496   0.00030  -0.00037  -0.00065  -0.00100   1.92395
   A18        1.91900   0.00006   0.00028  -0.00354  -0.00325   1.91575
   A19        1.88814  -0.00076   0.00059  -0.00821  -0.00768   1.88045
   A20        1.94112   0.00270  -0.00125   0.01151   0.01029   1.95141
   A21        1.91660  -0.00159   0.00060  -0.01005  -0.00948   1.90712
   A22        1.92340  -0.00180   0.00116  -0.01547  -0.01431   1.90909
   A23        1.89383  -0.00023   0.00028   0.00304   0.00335   1.89718
   A24        1.91591  -0.00061   0.00047  -0.00364  -0.00315   1.91276
   A25        1.87143   0.00150  -0.00127   0.01496   0.01364   1.88507
   A26        2.30657   0.00650   0.00649   0.01180   0.01836   2.32493
   A27        2.15610   0.00174   0.00850  -0.00891  -0.00035   2.15575
   A28        1.81974  -0.00823  -0.01501  -0.00283  -0.01796   1.80178
   A29        1.43889   0.01325   0.01333   0.01611   0.02961   1.46850
   A30        1.60909  -0.01115  -0.01319  -0.01391  -0.02693   1.58216
   A31        1.99291   0.00361   0.00078   0.01617   0.01672   2.00962
   A32        2.00120   0.00321   0.00153   0.01056   0.01177   2.01297
   A33        1.94481   0.00191   0.00373  -0.00747  -0.00354   1.94127
   A34        1.94932   0.00165   0.00430  -0.01165  -0.00725   1.94207
   A35        1.94319  -0.00058   0.00090   0.00211   0.00293   1.94611
   A36        1.41546   0.00612   0.01487   0.00063   0.01527   1.43074
    D1        3.13702   0.00004  -0.00011   0.00180   0.00169   3.13871
    D2        1.03682  -0.00025   0.00009  -0.00414  -0.00405   1.03277
    D3       -1.04465   0.00022  -0.00002   0.00547   0.00544  -1.03920
    D4        1.03883   0.00020  -0.00056   0.00505   0.00449   1.04332
    D5       -1.06137  -0.00010  -0.00037  -0.00088  -0.00125  -1.06262
    D6        3.14035   0.00038  -0.00048   0.00872   0.00824  -3.13459
    D7       -1.04816  -0.00010   0.00033  -0.00120  -0.00087  -1.04903
    D8        3.13483  -0.00039   0.00053  -0.00714  -0.00661   3.12822
    D9        1.05337   0.00009   0.00042   0.00247   0.00288   1.05625
   D10        3.13623  -0.00000   0.00004   0.00009   0.00013   3.13637
   D11       -1.04202   0.00060  -0.00068   0.00832   0.00764  -1.03438
   D12        1.03033  -0.00057   0.00062  -0.00683  -0.00621   1.02412
   D13       -3.13549   0.00004  -0.00015  -0.00101  -0.00115  -3.13664
   D14        1.04322   0.00047  -0.00076   0.00186   0.00116   1.04438
   D15       -1.03563  -0.00060   0.00100  -0.00632  -0.00538  -1.04101
   D16        3.10143   0.00035  -0.00054   0.02193   0.02139   3.12282
   D17        1.00492  -0.00004  -0.00048   0.01735   0.01690   1.02182
   D18       -1.05287   0.00017   0.00001   0.01445   0.01444  -1.03843
   D19       -1.08147   0.00068  -0.00081   0.02798   0.02717  -1.05431
   D20        3.10520   0.00028  -0.00075   0.02340   0.02268   3.12788
   D21        1.04741   0.00050  -0.00026   0.02051   0.02022   1.06763
   D22        0.99929  -0.00003  -0.00014   0.01521   0.01507   1.01436
   D23       -1.09723  -0.00043  -0.00008   0.01064   0.01058  -1.08664
   D24        3.12817  -0.00022   0.00040   0.00774   0.00813   3.13629
   D25       -1.52461  -0.00040   0.00113  -0.02167  -0.02055  -1.54515
   D26        1.56770  -0.00044   0.00020  -0.01985  -0.01966   1.54804
   D27        0.58534  -0.00084   0.00128  -0.02498  -0.02369   0.56164
   D28       -2.60554  -0.00088   0.00035  -0.02317  -0.02281  -2.62835
   D29        2.62536   0.00048   0.00018  -0.00732  -0.00714   2.61822
   D30       -0.56552   0.00045  -0.00075  -0.00550  -0.00625  -0.57177
   D31        3.09807  -0.00004   0.00007  -0.00034  -0.00027   3.09780
   D32       -0.00114  -0.00015   0.00044  -0.00167  -0.00120  -0.00235
   D33       -3.10274  -0.00013  -0.00012  -0.00012  -0.00024  -3.10299
   D34        0.00116   0.00015  -0.00044   0.00170   0.00121   0.00237
   D35        0.00104   0.00013  -0.00040   0.00152   0.00110   0.00214
   D36       -2.00101   0.00279   0.00173   0.01302   0.01502  -1.98598
   D37        2.01027  -0.00302  -0.00195  -0.01623  -0.01838   1.99189
   D38       -0.00100  -0.00012   0.00039  -0.00145  -0.00103  -0.00203
   D39        2.04270  -0.00081  -0.00401   0.00814   0.00434   2.04704
   D40       -2.05497   0.00114   0.00397  -0.00366   0.00004  -2.05493
         Item               Value     Threshold  Converged?
 Maximum Force            0.013254     0.000450     NO 
 RMS     Force            0.003313     0.000300     NO 
 Maximum Displacement     0.116871     0.001800     NO 
 RMS     Displacement     0.041112     0.001200     NO 
 Predicted change in Energy=-1.436513D-03
 GradGradGradGradGradGradGradGradGradGradGradGradGradGradGradGradGradGrad

                          Input orientation:                          
 ---------------------------------------------------------------------
 Center     Atomic      Atomic             Coordinates (Angstroms)
 Number     Number       Type             X           Y           Z
 ---------------------------------------------------------------------
      1          6           0        1.064369    0.066209    0.179363
      2          6           0        2.576275    0.074427    0.033264
      3          8           0        3.151490   -0.225575    1.293829
      4          6           0        4.563422   -0.248026    1.257841
      5          6           0        5.056792   -0.587427    2.666457
      6          6           0        6.538861   -0.661023    2.729156
      7          7           0        7.387519   -1.618554    2.534479
      8          6           0        8.394347   -0.574221    2.786502
      9          8           0        7.338562    0.418491    2.987919
     10          1           0        0.591228    0.298012   -0.779357
     11          1           0        0.742842    0.809774    0.914461
     12          1           0        0.713124   -0.914872    0.512051
     13          1           0        2.926303    1.060042   -0.315181
     14          1           0        2.897347   -0.670481   -0.713021
     15          1           0        4.958613    0.730684    0.941094
     16          1           0        4.926598   -1.003333    0.544178
     17          1           0        4.644564   -1.553811    2.970181
     18          1           0        4.696783    0.170173    3.369857
     19          1           0        9.021679   -0.316619    1.928169
     20          1           0        8.990991   -0.708451    3.693226
 ---------------------------------------------------------------------
                    Distance matrix (angstroms):
                    1          2          3          4          5
     1  C    0.000000
     2  C    1.518971   0.000000
     3  O    2.383956   1.417709   0.000000
     4  C    3.674946   2.356336   1.412569   0.000000
     5  C    4.748928   3.677597   2.375967   1.530622   0.000000
     6  C    6.082793   4.848795   3.704600   2.497537   1.485219
     7  N    6.954654   5.680698   4.628557   3.388757   2.552044
     8  C    7.806145   6.469237   5.462342   4.137535   3.339740
     9  O    6.883138   5.614958   4.562492   3.337486   2.514296
    10  H    1.093956   2.156561   3.335744   4.497406   5.709544
    11  H    1.093910   2.163035   2.649047   3.979156   4.861257
    12  H    1.093881   2.163165   2.651780   3.978151   4.859644
    13  H    2.167735   1.102438   2.071819   2.620229   4.017873
    14  H    2.167687   1.102232   2.071226   2.615067   4.011355
    15  H    4.023295   2.632559   2.074740   1.101988   2.173461
    16  H    4.024155   2.635644   2.077954   1.100773   2.166563
    17  H    4.819847   3.943915   2.608378   2.154940   1.093653
    18  H    4.835752   3.954564   2.618098   2.157147   1.094685
    19  H    8.156203   6.729548   5.905065   4.508891   4.042120
    20  H    8.705094   7.426763   6.331670   5.074097   4.067779
                    6          7          8          9         10
     6  C    0.000000
     7  N    1.294211   0.000000
     8  C    1.858400   1.472362   0.000000
     9  O    1.368149   2.087476   1.463123   0.000000
    10  H    6.971639   7.800275   8.623503   7.728739   0.000000
    11  H    6.249016   7.257614   7.997844   6.925017   1.775925
    12  H    6.238526   7.009488   8.018127   7.197514   1.775861
    13  H    5.027985   5.932780   6.495442   5.548882   2.499745
    14  H    5.010918   5.621987   6.517127   5.882789   2.502111
    15  H    2.762462   3.735957   4.112490   3.154538   4.713938
    16  H    2.736913   3.224271   4.151799   3.716319   4.716002
    17  H    2.107967   2.778097   3.879975   3.338849   5.823900
    18  H    2.120056   3.337282   3.816596   2.680772   5.838485
    19  H    2.631459   2.175574   1.093910   2.120457   8.875864
    20  H    2.635265   2.177638   1.093687   2.120844   9.569378
                   11         12         13         14         15
    11  H    0.000000
    12  H    1.771220   0.000000
    13  H    2.518364   3.079409   0.000000
    14  H    3.079244   2.516219   1.775901   0.000000
    15  H    4.216597   4.573414   2.411844   2.991351   0.000000
    16  H    4.574744   4.214525   2.999533   2.410228   1.779153
    17  H    5.003594   4.680477   4.536326   4.171212   3.071602
    18  H    4.698054   5.021346   4.184014   4.540326   2.506315
    19  H    8.416383   8.449579   6.639384   6.678963   4.310413
    20  H    8.835073   8.870489   7.481667   7.519904   5.089736
                   16         17         18         19         20
    16  H    0.000000
    17  H    2.503609   0.000000
    18  H    3.068288   1.770477   0.000000
    19  H    4.376836   4.666429   4.584774   0.000000
    20  H    5.150024   4.486519   4.395085   1.808287   0.000000
 Stoichiometry    C6H11NO2
 Framework group  C1[X(C6H11NO2)]
 Deg. of freedom    54
 Full point group                 C1      NOp   1
 Largest Abelian subgroup         C1      NOp   1
 Largest concise Abelian subgroup C1      NOp   1
                         Standard orientation:                         
 ---------------------------------------------------------------------
 Center     Atomic      Atomic             Coordinates (Angstroms)
 Number     Number       Type             X           Y           Z
 ---------------------------------------------------------------------
      1          6           0       -4.255756    0.065855   -0.111715
      2          6           0       -2.935533   -0.419976    0.461218
      3          8           0       -1.879993    0.217134   -0.238657
      4          6           0       -0.604183   -0.167816    0.229824
      5          6           0        0.439429    0.588869   -0.595468
      6          6           0        1.823392    0.270715   -0.160380
      7          7           0        2.610545    0.779129    0.732306
      8          6           0        3.530700   -0.290811    0.312314
      9          8           0        2.553955   -0.769610   -0.666179
     10          1           0       -5.091421   -0.412007    0.407948
     11          1           0       -4.326401   -0.173151   -1.176855
     12          1           0       -4.350788    1.149795    0.000617
     13          1           0       -2.848320   -1.514200    0.359054
     14          1           0       -2.869634   -0.184452    1.535974
     15          1           0       -0.462483   -1.255027    0.119051
     16          1           0       -0.485890    0.078969    1.296036
     17          1           0        0.275831    1.664603   -0.485425
     18          1           0        0.319717    0.334864   -1.653525
     19          1           0        3.736508   -1.051299    1.071220
     20          1           0        4.449078    0.046794   -0.176312
 ---------------------------------------------------------------------
 Rotational constants (GHZ):           7.0874327           0.5496045           0.5454481
 Standard basis: 6-31G(2df,p) (6D, 7F)
 There are   334 symmetry adapted cartesian basis functions of A   symmetry.
 There are   307 symmetry adapted basis functions of A   symmetry.
   307 basis functions,   473 primitive gaussians,   334 cartesian basis functions
    35 alpha electrons       35 beta electrons
       nuclear repulsion energy       443.4553640537 Hartrees.
 NAtoms=   20 NActive=   20 NUniq=   20 SFac= 1.00D+00 NAtFMM=   60 NAOKFM=F Big=F
 Integral buffers will be    131072 words long.
 Raffenetti 2 integral format.
 Two-electron integral symmetry is turned on.
 One-electron integrals computed using PRISM.
 PrsmSu:  requested number of processors reduced to:  13 ShMem   1 Linda.
 NBasis=   307 RedAO= T EigKep=  3.32D-04  NBF=   307
 NBsUse=   307 1.00D-06 EigRej= -1.00D+00 NBFU=   307
 Initial guess from the checkpoint file:  "CCOCCC1dNCO1.chk"
 B after Tr=    -0.000000   -0.000000    0.000000
         Rot=    0.985688    0.168579   -0.000595   -0.000002 Ang=  19.41 deg.
 ExpMin= 1.61D-01 ExpMax= 5.48D+03 ExpMxC= 8.25D+02 IAcc=2 IRadAn=         4 AccDes= 0.00D+00
 Harris functional with IExCor=  402 and IRadAn=       4 diagonalized for initial guess.
 HarFok:  IExCor=  402 AccDes= 0.00D+00 IRadAn=         4 IDoV= 1 UseB2=F ITyADJ=14
 ICtDFT=  3500011 ScaDFX=  1.000000  1.000000  1.000000  1.000000
 FoFCou: FMM=F IPFlag=           0 FMFlag=      100000 FMFlg1=           0
         NFxFlg=           0 DoJE=T BraDBF=F KetDBF=T FulRan=T
         wScrn=  0.000000 ICntrl=       500 IOpCl=  0 I1Cent=   200000004 NGrid=           0
         NMat0=    1 NMatS0=      1 NMatT0=    0 NMatD0=    1 NMtDS0=    0 NMtDT0=    0
 Petite list used in FoFCou.
 Requested convergence on RMS density matrix=1.00D-08 within 128 cycles.
 Requested convergence on MAX density matrix=1.00D-06.
 Requested convergence on             energy=1.00D-06.
 No special actions if energy rises.
 Integral accuracy reduced to 1.0D-05 until final iterations.
 Initial convergence to 1.0D-05 achieved.  Increase integral accuracy.
 SCF Done:  E(RB3LYP) =  -440.431949182     A.U. after   11 cycles
            NFock= 11  Conv=0.67D-08     -V/T= 2.0073
 PrsmSu:  requested number of processors reduced to:  13 ShMem   1 Linda.
 Calling FoFJK, ICntrl=      2127 FMM=F ISym2X=0 I1Cent= 0 IOpClX= 0 NMat=1 NMatS=1 NMatT=0.
 ***** Axes restored to original set *****
 -------------------------------------------------------------------
 Center     Atomic                   Forces (Hartrees/Bohr)
 Number     Number              X              Y              Z
 -------------------------------------------------------------------
      1        6          -0.000424593    0.000027592   -0.000059139
      2        6          -0.000666487   -0.000587868    0.002500292
      3        8           0.003192011    0.000324361   -0.001638097
      4        6          -0.004167000    0.000590879    0.000406943
      5        6           0.000163190    0.000062107    0.002185888
[...]
 .00055057,-0.00367015,0.00247964,-0.00227585,-0.16400154,-0.03416844,-
 0.00447250,-0.09670411,-0.01851985,0.00413316,0.59766626,0.00001613,-0
 .00002963,0.00007094,0.00023520,0.00012424,-0.00003598,0.00016187,-0.0
 0050936,0.00070402,0.00168209,0.00112588,-0.00079849,-0.00022615,-0.00
 706153,0.00620400,-0.00163488,0.03374231,-0.00282800,-0.07842843,-0.12
 859278,0.00461302,0.05012799,0.31439875,0.00001109,-0.00001870,0.00008
 861,0.00011889,-0.00003080,-0.00016573,0.00067049,-0.00045405,0.000602
 47,0.00148792,0.00023792,-0.00053007,-0.00135545,0.00650991,0.01612919
 ,-0.01263715,-0.00615440,0.02102937,0.01938172,0.00900586,-0.08882079,
 -0.01509398,0.08251886,0.60518494,-0.00001601,0.00003652,-0.00016600,0
 .00055080,-0.00027551,0.00123757,-0.00134394,0.00030586,-0.00154802,0.
 00199110,-0.00021451,0.00241356,-0.01268090,-0.03280586,0.00651730,-0.
 12377055,-0.09394444,0.01962333,0.00580852,0.00315679,-0.00393749,-0.0
 8985758,0.04657481,-0.01203891,0.26087362,-0.00001848,0.00001882,-0.00
 004098,-0.00025656,-0.00026758,-0.00008604,0.00061870,0.00085073,-0.00
 064399,-0.00085487,-0.00169647,0.00159724,0.00009757,0.00227494,0.0001
 8029,-0.06555284,-0.19817788,0.02852412,0.01085195,-0.15776600,0.05403
 829,0.02310222,-0.09603630,0.00444833,0.02914127,0.44162835,0.00002049
 ,-0.00002114,0.00001391,0.00024654,0.00004515,0.00011764,-0.00059669,-
 0.00036252,0.00059503,0.00148943,0.00116535,-0.00068979,-0.00064135,-0
 .00154596,0.00365863,0.01237397,0.02698365,-0.07068246,-0.00605580,0.0
 5338228,0.03998539,-0.00594573,0.00564461,-0.08742057,0.00520409,-0.08
 850648,0.10488109,-0.09828347,0.03071175,-0.09737657,-0.00833550,0.009
 40678,-0.03044662,-0.00947937,-0.00015114,0.00112005,0.00064197,0.0005
 0286,-0.00167602,-0.00082604,-0.00004729,0.00011201,0.00031969,0.00012
 144,-0.00025508,-0.00017125,-0.00000600,-0.00001055,0.00004337,0.00002
 296,0.00003659,-0.00011526,-0.00000825,-0.00000498,0.10632091,0.031534
 21,-0.06535390,0.06165717,-0.00075688,-0.00207260,-0.00098447,-0.00002
 048,0.00076541,-0.00012543,-0.00017997,0.00073539,0.00010080,-0.000017
 55,-0.00001912,-0.00000802,-0.00003967,0.00000755,-0.00001021,0.000018
 95,-0.00000387,0.00000231,-0.00001158,0.00000418,0.00000081,0.00002228
 ,-0.00000460,0.00000508,-0.03463488,0.06681896,-0.10007707,0.06171596,
 -0.24199144,0.00284099,-0.00163083,0.00277551,0.00072881,-0.00012130,0
 .00106728,0.00057831,0.00005216,0.00054919,0.00010870,0.00000202,-0.00
 000810,0.00011099,-0.00000144,0.00004617,-0.00004009,-0.00000285,-0.00
 000802,0.00003125,-0.00000645,-0.00000193,-0.00005246,0.00000485,-0.00
 000996,0.10969127,-0.06798442,0.26142836,-0.06617020,0.04484459,0.0509
 8928,-0.01169103,0.02372093,0.02757308,0.00336996,-0.00111946,-0.00022
 788,-0.00019479,0.00000282,0.00012256,0.00006306,-0.00007367,-0.000091
 76,0.00000145,-0.00000304,0.00001641,0.00001096,-0.00000842,-0.0000069
 4,-0.00000125,0.00000538,0.00000937,0.00000962,-0.00001218,-0.00000942
 ,0.00383105,-0.01047038,-0.00999380,0.07323963,0.04599621,-0.15664444,
 -0.12210469,-0.00032239,0.00053119,0.00125893,0.00003354,-0.00000705,0
 .00020794,0.00008394,0.00005665,0.00023422,0.00003552,-0.00003003,-0.0
 0002351,0.00003140,0.00000929,0.00002125,-0.00001187,0.00000010,0.0000
 0968,0.00000290,-0.00000273,-0.00001172,-0.00001478,-0.00000250,0.0000
 0582,-0.00362200,0.00598990,0.00737839,-0.05033060,0.16568555,0.053293
 63,-0.12171860,-0.18414036,0.00074702,-0.00217142,-0.00431407,0.000200
 68,0.00026434,0.00152748,-0.00041987,0.00008081,0.00018809,0.00008809,
 0.00000243,-0.00000223,-0.00009353,-0.00003248,0.00002052,0.00004764,0
 .00000733,0.00000948,-0.00001975,-0.00000509,-0.00001080,0.00004019,0.
 00000914,0.00001011,0.00815041,-0.01775254,-0.01838969,-0.05982339,0.1
 3442296,0.19779312,-0.07071127,-0.07236339,0.01944079,-0.01281874,-0.0
 3462618,0.00977404,0.00340664,0.00094780,0.00037348,-0.00018512,-0.000
 04105,0.00009026,0.00007725,0.00010943,-0.00003505,-0.00001302,-0.0000
 4065,0.00003330,0.00000870,0.00002316,-0.00000354,0.00000338,-0.000012
 00,0.00000625,0.00001933,0.00003806,-0.00001772,0.00434564,0.01416495,
 -0.00253738,0.00222870,0.00828108,-0.00300629,0.07830745,-0.07461023,-
 0.27321464,0.05905803,0.00025149,-0.00016434,0.00035256,-0.00023944,0.
 00065561,-0.00078182,0.00017654,0.00024114,-0.00020309,-0.00008055,-0.
 00003331,0.00000507,0.00002161,-0.00001231,-0.00002554,-0.00001738,0.0
 0001585,-0.00000890,0.00000810,-0.00000501,0.00001160,-0.00000319,0.00
 002736,-0.00001102,-0.00191006,-0.00683609,0.00078535,-0.00583669,-0.0
 1792753,0.00596118,0.08228014,0.29465960,0.02069833,0.05860254,-0.0630
 9602,0.00105516,0.00447521,-0.00249017,0.00008867,-0.00084218,0.000824
 05,-0.00039154,-0.00002632,0.00000528,0.00005130,-0.00001726,0.0000015
 8,-0.00009394,0.00000177,0.00000674,0.00004578,-0.00000770,0.00000085,
 -0.00001949,0.00000474,-0.00000328,0.00004418,-0.00000653,0.00000814,0
 .00957867,0.02533307,-0.00606862,-0.00785389,-0.02209673,0.00641492,-0
 .02401517,-0.06563554,0.06381399,-0.01167034,-0.03152181,0.00719597,-0
 .07674148,-0.07073684,0.01803174,0.00183182,0.01513158,-0.00971071,0.0
 0450077,0.00341021,-0.00071886,-0.00001243,0.00005865,-0.00006597,0.00
 003220,-0.00003194,-0.00006202,-0.00000792,-0.00000091,-0.00000068,-0.
 00000874,0.00000138,0.00001080,-0.00001301,-0.00001189,0.00001981,0.00
 101956,0.00032562,-0.00056181,0.00177588,0.00052081,0.00012015,-0.0067
 2346,0.00035725,0.00094648,0.08157742,0.00032104,0.00096273,-0.0010622
 8,-0.07053997,-0.24893564,0.04247364,0.00461446,-0.00687653,0.01559233
 ,-0.00344227,0.00095878,-0.00037965,0.00061793,0.00051276,-0.00011594,
 -0.00030438,-0.00019050,0.00017910,0.00015109,0.00006676,-0.00000041,-
 0.00001692,-0.00005060,0.00000388,0.00014159,0.00011440,-0.00003932,-0
 .00085965,0.00008131,-0.00021008,-0.00026434,0.00085513,0.00030838,0.0
 0055406,0.00162057,-0.00022547,0.07516346,0.27158626,0.00234177,0.0028
 6785,0.00046886,0.01626534,0.03914802,-0.05984903,-0.00126461,0.037206
 82,-0.02379104,0.00643123,0.00085542,0.00029928,-0.00033706,-0.0002148
 0,0.00007149,0.00035428,-0.00002938,-0.00011454,-0.00016347,0.00000423
 ,-0.00000830,0.00004054,0.00001122,0.00002245,-0.00018655,-0.00002983,
 -0.00001724,0.00026240,-0.00014669,0.00024625,-0.00041387,0.00063725,-
 0.00000453,0.00023026,0.00036670,0.00089639,-0.01561437,-0.05864981,0.
 07451312,-0.01067018,0.02254789,0.02375709,-0.07217308,0.04458184,0.04
 973938,0.00123233,-0.00693013,-0.01660249,0.00448178,-0.00252595,-0.00
 255181,-0.00002204,0.00000882,-0.00009697,0.00001609,0.00008879,0.0000
 0295,-0.00004010,-0.00000418,-0.00000571,0.00000068,0.00000207,-0.0000
 0912,-0.00001943,-0.00001067,0.00000182,0.00104413,0.00000727,-0.00065
 388,-0.00675849,-0.00053283,0.00069755,0.00176659,-0.00052264,-0.00019
 684,0.00422075,-0.00800094,-0.00606352,0.07674391,-0.00110773,0.000885
 31,0.00101210,0.04538389,-0.15540659,-0.10699351,-0.00265627,0.0126791
 9,0.00933581,-0.00084818,0.00103392,0.00089247,-0.00030038,0.00023468,
 0.00024180,0.00002934,-0.00007609,-0.00010780,-0.00001972,0.00002730,0
 .00002347,0.00001309,-0.00001574,-0.00000621,-0.00003188,0.00003913,0.
 00001469,0.00052868,-0.00005243,0.00004009,-0.00028496,0.00150051,0.00
 058673,0.00042494,0.00102674,0.00038743,0.00891520,-0.02044204,-0.0204
 7200,-0.04951764,0.15934871,0.00180947,-0.00239555,-0.00050701,0.04832
 141,-0.10363419,-0.15782490,-0.00461789,-0.01263076,-0.04271140,0.0072
 6806,-0.00068985,0.00011691,-0.00058741,0.00026499,0.00035655,0.000392
 11,0.00017768,-0.00008280,-0.00025419,0.00002528,-0.00000257,0.0000619
 1,-0.00000516,-0.00000956,-0.00019359,0.00002835,-0.00001749,0.0006866
 0,-0.00006523,0.00036314,-0.00002816,0.00002442,0.00105269,-0.00021555
 ,0.00006787,-0.00017027,-0.00044002,0.00247086,0.00647236,-0.04957648,
 0.11579740,0.19157258,-0.00007664,0.00042006,-0.00034433,0.00305574,-0
 .00428146,0.00668618,-0.03595642,-0.03241810,0.00555244,-0.07172904,-0
 .06618316,0.01512541,0.00471071,0.01016595,-0.00206223,0.00120316,0.00
 088779,0.00032326,-0.00016416,-0.00031450,-0.00003263,-0.00019746,0.00
 030261,-0.00002526,-0.00049584,-0.00046144,-0.00005196,-0.00016245,0.0
 0015389,-0.00004966,0.00003207,-0.00004246,0.00005216,0.00030722,0.000
 14658,-0.00000674,0.00062182,0.00183585,-0.00110966,-0.00027951,0.0003
 0119,-0.00081075,0.09366845,0.00007795,0.00052298,-0.00034987,0.001288
 83,0.00166625,0.00058005,-0.00698750,0.00735531,0.00066081,-0.06791224
 ,-0.25559145,0.04476965,-0.00129625,-0.00817648,0.00177222,-0.00170789
 ,-0.00194911,0.00110691,0.00039088,0.00065870,-0.00008041,0.00038374,-
 0.00050686,-0.00016859,-0.00016408,0.00128074,-0.00084933,-0.00012848,
 -0.00003559,-0.00002021,0.00003200,-0.00002258,0.00002593,0.00027611,-
 0.00005033,0.00006000,-0.00136064,0.00010178,-0.00125291,0.00009692,-0
 .00053183,-0.00017786,0.08214601,0.27280432,-0.00010891,-0.00000470,0.
 00004303,-0.00061970,-0.00252740,0.00121914,0.00194762,0.00289469,0.00
 182047,0.01580952,0.04227407,-0.06310168,0.00759640,0.02897289,-0.0081
 6167,0.00206045,0.00153939,0.00019311,-0.00050384,-0.00034450,0.000148
 16,-0.00034949,0.00036315,0.00010189,-0.00005965,-0.00104946,0.0001121
 8,-0.00000257,0.00000141,0.00000577,0.00001990,0.00000848,-0.00002078,
 -0.00003564,0.00005213,-0.00010912,0.00079560,0.00030145,0.00057631,0.
 00007998,-0.00006587,0.00008414,-0.01912342,-0.05175142,0.06541440,-0.
 00008771,-0.00014091,-0.00052513,0.00316603,-0.00035511,0.00806797,-0.
 03519735,0.02506187,0.02342461,-0.06723535,0.04100935,0.04394328,0.004
 28976,-0.00729753,-0.00760967,0.00157253,-0.00063782,0.00014810,-0.000
 19632,0.00021236,0.00014818,0.00001729,-0.00008577,0.00004619,-0.00019
 754,0.00007002,0.00006019,-0.00017564,-0.00009315,-0.00012797,0.000296
 49,-0.00013044,-0.00009004,0.00003298,0.00000441,0.00006923,-0.0002904
 0,0.00021296,-0.00085544,0.00059880,-0.00094315,-0.00196247,0.00593277
 ,-0.00569557,-0.00616289,0.08799852,0.00001432,0.00020232,0.00049677,-
 0.00087335,0.00072524,-0.00138578,0.00652068,0.00610559,0.00221896,0.0
 4236972,-0.15496838,-0.10762397,-0.00263690,0.00637025,0.00851212,-0.0
 0027537,0.00028578,-0.00041978,-0.00029413,-0.00000555,-0.00003251,0.0
 0001370,-0.00004149,-0.00009753,-0.00026834,0.00017299,0.00008701,0.00
 012006,-0.00003162,0.00000006,-0.00022407,-0.00000290,0.00000766,-0.00
 004189,-0.00000424,-0.00001971,-0.00012296,-0.00047562,-0.00014521,0.0
 0065489,-0.00014949,0.00082415,0.00742186,-0.01995849,-0.02156574,-0.0
 5257588,0.16007334,-0.00011594,0.00012916,0.00038989,-0.00119769,0.002
 15085,0.00203805,0.00620934,0.00020518,0.00146858,0.04619271,-0.105316
 54,-0.16479262,0.00598183,-0.01886948,-0.02217079,0.00295769,-0.000789
 55,-0.00017305,-0.00085284,0.00055924,0.00053170,-0.00009653,-0.000108
 45,-0.00021312,-0.00055617,0.00003728,0.00013048,0.00007682,-0.0000279
 9,0.00000279,-0.00019933,0.00002024,-0.00013662,-0.00000357,0.00000074
 ,-0.00003931,-0.00000285,-0.00030387,0.00002148,0.00137345,-0.00082440
 ,0.00089984,-0.00167496,0.00420479,0.00505144,-0.05653038,0.11698261,0
 .18012330,0.00000934,-0.00003564,0.00003881,-0.00003727,0.00022488,-0.
 00026342,0.00117155,-0.00037447,0.00064371,0.00340506,0.01074722,-0.00
 229877,-0.07655511,-0.07769447,0.01730952,-0.00990418,-0.03716503,0.00
 811994,0.00288341,0.00254684,-0.00039473,0.00074313,-0.00211244,0.0006
 6540,-0.00749494,0.00180173,-0.00093596,0.00001477,-0.00001432,0.00000
 816,-0.00000426,0.00000810,-0.00000285,-0.00004687,-0.00001800,-0.0000
 0997,-0.00012039,-0.00017433,0.00007749,0.00000588,0.00000989,0.000060
 62,-0.00063972,0.00051263,-0.00210663,0.00009916,-0.00043373,0.0006461
 2,0.08213846,0.00000823,-0.00000669,0.00001832,0.00024177,0.00015919,0
 .00004020,0.00017909,0.00080231,-0.00078464,-0.00286099,-0.00831993,0.
 00251835,-0.08199187,-0.27708169,0.04774660,-0.00077827,-0.00156960,-0
 .00056012,0.00012867,0.00021116,-0.00014291,0.00010665,0.00042275,0.00
 000764,0.00172462,0.00170708,0.00002663,0.00000815,0.00000699,-0.00000
 923,0.00000393,-0.00001341,0.00000344,0.00002918,0.00001900,0.00001752
 ,-0.00008991,0.00010393,-0.00016946,-0.00000803,-0.00000915,-0.0000454
 6,0.00058700,0.00120566,0.00148319,0.00027480,0.00106691,0.00004925,0.
 08943646,0.29812942,-0.00001635,-0.00012230,0.00004982,0.00002617,0.00
 009743,-0.00015222,0.00116842,-0.00194383,0.00219379,0.01102500,0.0309
 2175,-0.00841606,0.01712752,0.04703904,-0.05645459,0.00067414,-0.00292
 022,-0.00156817,-0.00001996,0.00009938,-0.00037727,0.00004157,-0.00030
 631,0.00013844,-0.00140426,0.00024632,0.00132489,0.00002189,0.00000224
 ,-0.00000811,-0.00000133,-0.00000662,0.00000009,-0.00007359,0.00000201
 ,0.00001162,0.00003368,-0.00028374,0.00016778,0.00001807,0.00001456,-0
 .00001278,-0.00282986,0.00142104,-0.00506577,0.00068376,-0.00045980,0.
 00155824,-0.01825214,-0.05429971,0.06238724,0.00000183,0.00000092,0.00
 007713,-0.00000518,-0.00010932,-0.00042909,0.00116082,-0.00023462,0.00
 057895,0.00395265,-0.00648782,-0.00773840,-0.08360545,0.06030567,0.069
 40981,-0.01599640,0.02650461,0.02457034,-0.00233798,-0.00233276,-0.000
 14434,-0.00084777,0.00068687,-0.00343103,0.00207067,-0.00174560,-0.001
 15849,0.00002439,0.00000570,0.00001477,-0.00004156,0.00001995,0.000001
 15,-0.00000749,-0.00000432,-0.00000775,0.00001058,-0.00005686,0.000061
 75,-0.00014185,0.00011949,0.00016089,0.00016284,0.00003216,0.00075967,
 -0.00058672,0.00074126,-0.00204151,0.00460823,-0.00687024,-0.00817958,
 0.09184328,0.00000416,-0.00002001,-0.00009296,-0.00019535,0.00009695,0
 .00028545,-0.00084338,-0.00005646,-0.00070600,-0.00333232,0.00616398,0
 .00795852,0.05935075,-0.15030528,-0.11090463,0.00214965,-0.00182649,0.
 00241807,-0.00012067,0.00113343,-0.00084183,0.00030945,0.00022290,0.00
 048378,0.00017703,0.00019247,-0.00034896,-0.00002978,-0.00000169,0.000
 01209,0.00001651,0.00002615,-0.00000565,-0.00000459,-0.00001421,-0.000
 01077,-0.00000181,-0.00001314,0.00003496,0.00006750,-0.00009214,-0.000
 00514,-0.00056629,0.00104148,-0.00039449,0.00109184,0.00063928,0.00192
 495,0.01188648,-0.01689114,-0.01956557,-0.06984838,0.15960428,-0.00002
 305,0.00004590,0.00012565,-0.00013053,0.00013661,-0.00025059,0.0013676
 4,0.00024744,0.00366815,0.01162982,-0.02034921,-0.02747446,0.06682814,
 -0.10995004,-0.15957936,-0.00018364,0.00285139,0.00300136,-0.00128619,
 0.00035648,-0.00026421,0.00016267,-0.00021204,-0.00047125,-0.00004120,
 0.00012552,0.00006837,0.00003465,0.00000244,0.00000041,-0.00007876,0.0
 0001264,0.00000225,-0.00000390,0.00000277,-0.00000650,0.00002221,-0.00
 005584,0.00002882,0.00008698,0.00012033,0.00041395,0.00036860,0.000085
 34,0.00165395,-0.00268550,0.00260810,-0.00467211,-0.00307073,0.0041342
 2,0.00425015,-0.07291305,0.11989391,0.17956038,-0.00000740,0.00001727,
 -0.00006084,0.00002340,-0.00004283,0.00028077,-0.00034729,0.00016845,-
 0.00057490,-0.00026435,-0.00024394,0.00084846,-0.00068938,-0.00059249,
 -0.00302014,0.00045164,0.00178488,0.00118967,-0.01166809,-0.00122486,0
 .01351359,-0.13709197,0.01816821,0.12134838,-0.01869844,0.00586057,0.0
 1510586,-0.00003288,0.00000275,-0.00000833,0.00000378,-0.00000326,0.00
 000743,0.00000228,-0.00000194,0.00000869,-0.00000305,0.00002896,-0.000
 03186,-0.00000182,-0.00001496,-0.00004163,-0.00001835,0.00005401,-0.00
 002971,-0.00004147,-0.00008141,-0.00009679,-0.00014906,-0.00008172,-0.
 00005807,0.00042113,-0.00010683,0.00002084,0.15697238,-0.00000709,0.00
 001324,-0.00004731,-0.00005376,-0.00004232,0.00012911,-0.00020125,0.00
 012181,-0.00039519,-0.00059141,-0.00007804,0.00052931,0.00017751,0.001
 41432,-0.00247602,-0.00235260,-0.01290086,0.00353729,-0.02072968,0.006
 99826,0.01803150,0.01575636,-0.04887863,-0.02601342,0.02397792,-0.0012
 2286,-0.01369476,-0.00001979,0.00000141,-0.00000030,0.00000046,0.00000
 008,0.00000304,-0.00000045,-0.00000279,0.00000357,-0.00000002,0.000007
 72,-0.00001140,0.00000045,-0.00000194,-0.00001780,-0.00000674,0.000063
 87,-0.00006272,0.00002156,-0.00001809,-0.00003116,0.00039546,0.0000677
 0,0.00022073,0.00000219,0.00005094,0.00019005,-0.02102570,0.05132339,-
 0.00000031,-0.00000653,0.00001594,-0.00002393,0.00003632,-0.00009308,0
 .00008011,-0.00003292,0.00010646,-0.00000258,0.00004873,-0.00013512,-0
 .00023900,-0.00070456,-0.00036346,-0.00090842,0.00455588,0.00106383,0.
 00440402,-0.00025243,0.00082885,0.12651672,-0.02964854,-0.22650320,-0.
 00905697,0.00136855,0.00922192,0.00001045,-0.00000107,0.00000446,0.000
 00011,0.00000144,-0.00000389,-0.00000020,0.00000085,-0.00000345,-0.000
 00048,-0.00000726,0.00000770,-0.00000060,-0.00000042,0.00001076,-0.000
 00302,-0.00000484,0.00000903,-0.00003198,-0.00000203,-0.00001467,-0.00
 012032,-0.00003010,-0.00005945,0.00015047,-0.00001499,-0.00004535,-0.1
 3646233,0.02775203,0.23281286,0.00000325,0.00000905,-0.00003037,0.0001
 0142,-0.00007222,0.00020250,-0.00023879,0.00002916,-0.00021747,0.00051
 476,-0.00008665,0.00039224,-0.00096435,0.00082282,0.00274973,0.0003255
 5,0.00090197,-0.00226182,-0.00952380,-0.00786117,-0.01337665,-0.104810
 71,-0.03548790,-0.09920218,-0.01662021,-0.00264930,-0.01910410,-0.0000
 2360,0.00000323,-0.00001080,-0.00000106,-0.00000283,0.00000962,-0.0000
 0018,-0.00000166,0.00000883,0.00000043,0.00001826,-0.00002463,-0.00000
 447,-0.00000084,-0.00003294,0.00002480,-0.00003859,0.00003329,0.000004
 18,-0.00002845,-0.00006939,-0.00012718,-0.00004752,0.00001492,-0.00068
 601,-0.00000396,-0.00010498,0.01113893,0.00465658,0.01568825,0.1208870
 6,-0.00000210,0.00000489,-0.00000462,0.00003774,-0.00002377,0.00005937
 ,-0.00006981,0.00009770,-0.00010168,0.00012964,-0.00027932,0.00011300,
 -0.00031522,0.00223130,0.00111586,-0.00139436,-0.01318473,0.00353766,-
 0.01823970,-0.00272844,-0.01959860,-0.03939862,-0.06831035,-0.07027319
 ,0.02246391,0.00686715,0.01801923,-0.00000535,0.00000040,-0.00000385,0
 .00000121,-0.00000139,0.00000241,0.00000127,-0.00000109,0.00000235,-0.
 00000541,0.00001194,-0.00001096,-0.00000346,0.00000195,-0.00001400,-0.
 00009464,0.00012163,-0.00012455,-0.00000382,0.00001420,0.00000715,0.00
 045275,-0.00001050,-0.00015641,-0.00072887,0.00004869,-0.00024601,-0.0
 0266515,0.00308279,-0.00305813,0.03984000,0.07205695,0.00000118,0.0000
 0485,-0.00001387,0.00002142,-0.00002636,0.00007055,-0.00013339,0.00002
 334,-0.00007600,0.00004779,-0.00003390,0.00004769,0.00014722,-0.000515
 31,-0.00085686,0.00176449,0.00325399,0.00132363,0.00320043,0.00076442,
 0.00860944,-0.10274659,-0.06618004,-0.23914706,-0.00583898,-0.00024497
 ,-0.00129027,-0.00000945,0.00000075,-0.00000346,-0.00000218,-0.0000003
 9,0.00000423,-0.00000079,-0.00000095,0.00000317,0.00000133,0.00000402,
 -0.00000762,0.00000016,0.00000332,-0.00000416,0.00001642,-0.00003131,0
 .00002601,-0.00001003,0.00001460,-0.00000348,-0.00011425,-0.00000374,0
 .00003235,0.00025832,-0.00012075,-0.00000961,-0.01193907,-0.00764654,-
 0.01686012,0.11533596,0.07073498,0.24815544\\-0.00000245,0.00000207,-0
 .00000415,-0.00000115,-0.00000361,0.00000605,0.00000393,0.00000323,-0.
 00000840,-0.00000938,-0.00000127,0.00000730,0.00000966,-0.00000007,-0.
 00000043,0.00000057,0.00000090,0.00000465,-0.00000466,-0.00000329,-0.0
 0000305,0.00000349,0.00001015,0.00000099,0.00000372,-0.00000442,-0.000
 00205,-0.00000076,-0.00000042,0.00000011,-0.00000008,-0.00000009,0.000
 00001,0.00000020,0.00000011,0.00000111,0.,0.00000007,-0.00000010,-0.00
 000024,-0.00000025,-0.00000023,0.00000255,0.00000017,-0.00000042,0.000
 00170,-0.00000039,-0.00000110,-0.00000047,0.00000018,0.00000045,0.0000
 0033,-0.00000007,-0.00000069,-0.00000359,-0.00000177,-0.00000025,-0.00
 000336,-0.00000124,0.00000019\\\@


 ALTHOUGH J.J. COULD DIAGNOSE THE FAULTS OF AN
 APPARATUS WITH UNCANNY ACCURACY, IT WAS JUST AS
 WELL NOT TO LET HIM HANDLE IT.
   -- GEORGE THOMPSON, ABOUT HIS FATHER
 Job cpu time:       0 days  2 hours  0 minutes 33.3 seconds.
 Elapsed time:       0 days  0 hours 30 minutes 21.0 seconds.
 File lengths (MBytes):  RWF=    148 Int=      0 D2E=      0 Chk=      9 Scr=      1
 Normal termination of Gaussian 16 at Thu Aug  4 03:37:01 2022.
### All Done ###
