### Starting Gaussian ###
 Entering Gaussian System, Link 0=g16
 Initial command:
 /cluster/software/gaussian/gaussian-16-A.03/avx2/g16/l1.exe "/local/scratch/ks29c/Gau-11614.inp" -scrdir="/local/scratch/ks29c/"
 Entering Link 1 = /cluster/software/gaussian/gaussian-16-A.03/avx2/g16/l1.exe PID=     11615.
  
 Copyright (c) 1988,1990,1992,1993,1995,1998,2003,2009,2016,
            Gaussian, Inc.  All Rights Reserved.
  
 This is part of the Gaussian(R) 16 program.  It is based on
 the Gaussian(R) 09 system (copyright 2009, Gaussian, Inc.),
 the Gaussian(R) 03 system (copyright 2003, Gaussian, Inc.),
 the Gaussian(R) 98 system (copyright 1998, Gaussian, Inc.),
 the Gaussian(R) 94 system (copyright 1995, Gaussian, Inc.),
 the Gaussian 92(TM) system (copyright 1992, Gaussian, Inc.),
 the Gaussian 90(TM) system (copyright 1990, Gaussian, Inc.),
 the Gaussian 88(TM) system (copyright 1988, Gaussian, Inc.),
 the Gaussian 86(TM) system (copyright 1986, Carnegie Mellon
 University), and the Gaussian 82(TM) system (copyright 1983,
 Carnegie Mellon University). Gaussian is a federally registered
 trademark of Gaussian, Inc.
  
 This software contains proprietary and confidential information,
 including trade secrets, belonging to Gaussian, Inc.
  
 This software is provided under written license and may be
 used, copied, transmitted, or stored only in accord with that
 written license.
  
 The following legend is applicable only to US Government
 contracts under FAR:
  
                    RESTRICTED RIGHTS LEGEND
  
 Use, reproduction and disclosure by the US Government is
 subject to restrictions as set forth in subparagraphs (a)
 and (c) of the Commercial Computer Software - Restricted
 Rights clause in FAR 52.227-19.
  
 Gaussian, Inc.
 340 Quinnipiac St., Bldg. 40, Wallingford CT 06492
  
  
 ---------------------------------------------------------------
 Warning -- This program may not be used in any manner that
 competes with the business of Gaussian, Inc. or will provide
 assistance to any competitor of Gaussian, Inc.  The licensee
 of this program is prohibited from giving any competitor of
 Gaussian, Inc. access to this program.  By using this program,
 the user acknowledges that Gaussian, Inc. is engaged in the
 business of creating and licensing software in the field of
 computational chemistry and represents and warrants to the
 licensee that it is not a competitor of Gaussian, Inc. and that
 it will not use this program in any manner prohibited above.
 ---------------------------------------------------------------
  

 Cite this work as:
 Gaussian 16, Revision A.03,
 M. J. Frisch, G. W. Trucks, H. B. Schlegel, G. E. Scuseria, 
 M. A. Robb, J. R. Cheeseman, G. Scalmani, V. Barone, 
 G. A. Petersson, H. Nakatsuji, X. Li, M. Caricato, A. V. Marenich, 
 J. Bloino, B. G. Janesko, R. Gomperts, B. Mennucci, H. P. Hratchian, 
 J. V. Ortiz, A. F. Izmaylov, J. L. Sonnenberg, D. Williams-Young, 
 F. Ding, F. Lipparini, F. Egidi, J. Goings, B. Peng, A. Petrone, 
 T. Henderson, D. Ranasinghe, V. G. Zakrzewski, J. Gao, N. Rega, 
 G. Zheng, W. Liang, M. Hada, M. Ehara, K. Toyota, R. Fukuda, 
 J. Hasegawa, M. Ishida, T. Nakajima, Y. Honda, O. Kitao, H. Nakai, 
 T. Vreven, K. Throssell, J. A. Montgomery, Jr., J. E. Peralta, 
 F. Ogliaro, M. J. Bearpark, J. J. Heyd, E. N. Brothers, K. N. Kudin, 
 V. N. Staroverov, T. A. Keith, R. Kobayashi, J. Normand, 
 K. Raghavachari, A. P. Rendell, J. C. Burant, S. S. Iyengar, 
 J. Tomasi, M. Cossi, J. M. Millam, M. Klene, C. Adamo, R. Cammi, 
 J. W. Ochterski, R. L. Martin, K. Morokuma, O. Farkas, 
 J. B. Foresman, and D. J. Fox, Gaussian, Inc., Wallingford CT, 2016.
 
 ******************************************
 Gaussian 16:  ES64L-G16RevA.03 25-Dec-2016
                 3-Jul-2022 
 ******************************************
 %chk=CCpCNpCOCCdO.chk
 %NProcShared=20
 Will use up to   20 processors via shared memory.
 -----------------------------
 # opt freq b3lyp/6-31g(2df,p)
 -----------------------------
 1/18=20,19=15,26=3,38=1/1,3;
 2/9=110,12=2,17=6,18=5,40=1/2;
 3/5=1,6=6,7=104,11=2,25=1,30=1,71=1,74=-5/1,2,3;
 4//1;
 5/5=2,38=5/2;
 6/7=2,8=2,9=2,10=2,28=1/1;
 7//1,2,3,16;
 1/18=20,19=15,26=3/3(2);
 2/9=110/2;
 99//99;
 2/9=110/2;
 3/5=1,6=6,7=104,11=2,25=1,30=1,71=1,74=-5/1,2,3;
 4/5=5,16=3,69=1/1;
 5/5=2,38=5/2;
 7//1,2,3,16;
 1/18=20,19=15,26=3/3(-5);
 2/9=110/2;
 6/7=2,8=2,9=2,10=2,19=2,28=1/1;
 99/9=1/99;
 -------------------
 Title Card Required
 -------------------
 Symbolic Z-matrix:
 Charge =  0 Multiplicity = 1
 C                     0.90021  -0.0645   -0.01982 
 C                     2.43123  -0.06279   0.01663 
 C                     2.95289   0.28152   1.42062 
 N                     2.47356   1.59153   1.85362 
 C                     2.94629  -1.43617  -0.4263 
 O                     4.37557  -1.44904  -0.4454 
 C                     4.85639  -2.73105  -0.83532 
 C                     6.36476  -2.75045  -0.83848 
 O                     7.01878  -3.74656  -1.14579 
 H                     0.49051   0.91127   0.25888 
 H                     0.49722  -0.81019   0.67463 
 H                     0.53308  -0.3003   -1.0235 
 H                     2.80688   0.69224  -0.68754 
 H                     4.04829   0.28299   1.43616 
 H                     2.61594  -0.4747    2.13896 
 H                     2.81963   2.30593   1.21405 
 H                     2.85682   1.81057   2.77094 
 H                     2.57701  -1.66316  -1.43375 
 H                     2.58662  -2.21206   0.26061 
 H                     4.50889  -2.9596   -1.84745 
 H                     4.50831  -3.48613  -0.12328 
 H                     6.86584  -1.81422  -0.54357 
 

 GradGradGradGradGradGradGradGradGradGradGradGradGradGradGradGradGradGrad
 Berny optimization.
 Initialization pass.
                           ----------------------------
                           !    Initial Parameters    !
                           ! (Angstroms and Degrees)  !
 --------------------------                            --------------------------
 ! Name  Definition              Value          Derivative Info.                !
 --------------------------------------------------------------------------------
 ! R1    R(1,2)                  1.5315         estimate D2E/DX2                !
 ! R2    R(1,10)                 1.0944         estimate D2E/DX2                !
 ! R3    R(1,11)                 1.0958         estimate D2E/DX2                !
 ! R4    R(1,12)                 1.0944         estimate D2E/DX2                !
 ! R5    R(2,3)                  1.5368         estimate D2E/DX2                !
 ! R6    R(2,5)                  1.5322         estimate D2E/DX2                !
 ! R7    R(2,13)                 1.0987         estimate D2E/DX2                !
 ! R8    R(3,4)                  1.4606         estimate D2E/DX2                !
 ! R9    R(3,14)                 1.0955         estimate D2E/DX2                !
 ! R10   R(3,15)                 1.0961         estimate D2E/DX2                !
 ! R11   R(4,16)                 1.0194         estimate D2E/DX2                !
 ! R12   R(4,17)                 1.018          estimate D2E/DX2                !
 ! R13   R(5,6)                  1.4295         estimate D2E/DX2                !
 ! R14   R(5,18)                 1.0967         estimate D2E/DX2                !
 ! R15   R(5,19)                 1.0969         estimate D2E/DX2                !
 ! R16   R(6,7)                  1.4236         estimate D2E/DX2                !
 ! R17   R(7,8)                  1.5085         estimate D2E/DX2                !
 ! R18   R(7,20)                 1.0943         estimate D2E/DX2                !
 ! R19   R(7,21)                 1.0947         estimate D2E/DX2                !
 ! R20   R(8,9)                  1.2306         estimate D2E/DX2                !
 ! R21   R(8,22)                 1.1021         estimate D2E/DX2                !
 ! A1    A(2,1,10)             111.5434         estimate D2E/DX2                !
 ! A2    A(2,1,11)             110.6917         estimate D2E/DX2                !
 ! A3    A(2,1,12)             110.9424         estimate D2E/DX2                !
 ! A4    A(10,1,11)            107.9199         estimate D2E/DX2                !
 ! A5    A(10,1,12)            107.462          estimate D2E/DX2                !
 ! A6    A(11,1,12)            108.1326         estimate D2E/DX2                !
 ! A7    A(1,2,3)              111.1822         estimate D2E/DX2                !
 ! A8    A(1,2,5)              109.1583         estimate D2E/DX2                !
 ! A9    A(1,2,13)             109.107          estimate D2E/DX2                !
 ! A10   A(3,2,5)              110.5364         estimate D2E/DX2                !
 ! A11   A(3,2,13)             108.3916         estimate D2E/DX2                !
 ! A12   A(5,2,13)             108.4076         estimate D2E/DX2                !
 ! A13   A(2,3,4)              111.123          estimate D2E/DX2                !
 ! A14   A(2,3,14)             110.6503         estimate D2E/DX2                !
 ! A15   A(2,3,15)             109.8646         estimate D2E/DX2                !
 ! A16   A(4,3,14)             108.8281         estimate D2E/DX2                !
 ! A17   A(4,3,15)             108.8821         estimate D2E/DX2                !
 ! A18   A(14,3,15)            107.3981         estimate D2E/DX2                !
 ! A19   A(3,4,16)             109.3382         estimate D2E/DX2                !
 ! A20   A(3,4,17)             109.6675         estimate D2E/DX2                !
 ! A21   A(16,4,17)            106.6632         estimate D2E/DX2                !
 ! A22   A(2,5,6)              110.3678         estimate D2E/DX2                !
 ! A23   A(2,5,18)             109.7473         estimate D2E/DX2                !
 ! A24   A(2,5,19)             110.0456         estimate D2E/DX2                !
 ! A25   A(6,5,18)             108.8157         estimate D2E/DX2                !
 ! A26   A(6,5,19)             109.2597         estimate D2E/DX2                !
 ! A27   A(18,5,19)            108.5684         estimate D2E/DX2                !
 ! A28   A(5,6,7)              110.4544         estimate D2E/DX2                !
 ! A29   A(6,7,8)              110.479          estimate D2E/DX2                !
 ! A30   A(6,7,20)             109.5215         estimate D2E/DX2                !
 ! A31   A(6,7,21)             109.6094         estimate D2E/DX2                !
 ! A32   A(8,7,20)             108.2351         estimate D2E/DX2                !
 ! A33   A(8,7,21)             108.0858         estimate D2E/DX2                !
 ! A34   A(20,7,21)            110.8911         estimate D2E/DX2                !
 ! A35   A(7,8,9)              122.8434         estimate D2E/DX2                !
 ! A36   A(7,8,22)             116.3046         estimate D2E/DX2                !
 ! A37   A(9,8,22)             120.8516         estimate D2E/DX2                !
 ! D1    D(10,1,2,3)            59.666          estimate D2E/DX2                !
 ! D2    D(10,1,2,5)          -178.1316         estimate D2E/DX2                !
 ! D3    D(10,1,2,13)          -59.8287         estimate D2E/DX2                !
 ! D4    D(11,1,2,3)           -60.514          estimate D2E/DX2                !
 ! D5    D(11,1,2,5)            61.6884         estimate D2E/DX2                !
 ! D6    D(11,1,2,13)          179.9913         estimate D2E/DX2                !
 ! D7    D(12,1,2,3)           179.4358         estimate D2E/DX2                !
 ! D8    D(12,1,2,5)           -58.3617         estimate D2E/DX2                !
 ! D9    D(12,1,2,13)           59.9412         estimate D2E/DX2                !
 ! D10   D(1,2,3,4)            -58.8259         estimate D2E/DX2                !
 ! D11   D(1,2,3,14)          -179.8454         estimate D2E/DX2                !
 ! D12   D(1,2,3,15)            61.7354         estimate D2E/DX2                !
 ! D13   D(5,2,3,4)            179.7739         estimate D2E/DX2                !
 ! D14   D(5,2,3,14)            58.7544         estimate D2E/DX2                !
 ! D15   D(5,2,3,15)           -59.6647         estimate D2E/DX2                !
 ! D16   D(13,2,3,4)            61.0944         estimate D2E/DX2                !
 ! D17   D(13,2,3,14)          -59.9251         estimate D2E/DX2                !
 ! D18   D(13,2,3,15)         -178.3443         estimate D2E/DX2                !
 ! D19   D(1,2,5,6)            178.0384         estimate D2E/DX2                !
 ! D20   D(1,2,5,18)            58.1174         estimate D2E/DX2                !
 ! D21   D(1,2,5,19)           -61.2978         estimate D2E/DX2                !
 ! D22   D(3,2,5,6)            -59.3714         estimate D2E/DX2                !
 ! D23   D(3,2,5,18)          -179.2924         estimate D2E/DX2                !
 ! D24   D(3,2,5,19)            61.2924         estimate D2E/DX2                !
 ! D25   D(13,2,5,6)            59.2984         estimate D2E/DX2                !
 ! D26   D(13,2,5,18)          -60.6226         estimate D2E/DX2                !
 ! D27   D(13,2,5,19)          179.9622         estimate D2E/DX2                !
 ! D28   D(2,3,4,16)           -61.4798         estimate D2E/DX2                !
 ! D29   D(2,3,4,17)          -178.1048         estimate D2E/DX2                !
 ! D30   D(14,3,4,16)           60.6046         estimate D2E/DX2                !
 ! D31   D(14,3,4,17)          -56.0204         estimate D2E/DX2                !
 ! D32   D(15,3,4,16)          177.3805         estimate D2E/DX2                !
 ! D33   D(15,3,4,17)           60.7555         estimate D2E/DX2                !
 ! D34   D(2,5,6,7)            179.0365         estimate D2E/DX2                !
 ! D35   D(18,5,6,7)           -60.4825         estimate D2E/DX2                !
 ! D36   D(19,5,6,7)            57.9037         estimate D2E/DX2                !
 ! D37   D(5,6,7,8)           -179.2722         estimate D2E/DX2                !
 ! D38   D(5,6,7,20)            61.5968         estimate D2E/DX2                !
 ! D39   D(5,6,7,21)           -60.2701         estimate D2E/DX2                !
 ! D40   D(6,7,8,9)           -179.7425         estimate D2E/DX2                !
 ! D41   D(6,7,8,22)             0.4772         estimate D2E/DX2                !
 ! D42   D(20,7,8,9)           -59.8346         estimate D2E/DX2                !
 ! D43   D(20,7,8,22)          120.3852         estimate D2E/DX2                !
 ! D44   D(21,7,8,9)            60.3347         estimate D2E/DX2                !
 ! D45   D(21,7,8,22)         -119.4456         estimate D2E/DX2                !
 --------------------------------------------------------------------------------
 Trust Radius=3.00D-01 FncErr=1.00D-07 GrdErr=1.00D-06 EigMax=2.50D+02 EigMin=1.00D-04
 Number of steps in this run=    113 maximum allowed number of steps=    132.
 GradGradGradGradGradGradGradGradGradGradGradGradGradGradGradGradGradGrad

                          Input orientation:                          
 ---------------------------------------------------------------------
 Center     Atomic      Atomic             Coordinates (Angstroms)
 Number     Number       Type             X           Y           Z
 ---------------------------------------------------------------------
      1          6           0        0.900210   -0.064500   -0.019820
      2          6           0        2.431230   -0.062790    0.016630
      3          6           0        2.952890    0.281520    1.420620
      4          7           0        2.473560    1.591530    1.853620
      5          6           0        2.946290   -1.436170   -0.426300
      6          8           0        4.375570   -1.449040   -0.445400
      7          6           0        4.856390   -2.731050   -0.835320
      8          6           0        6.364760   -2.750450   -0.838480
      9          8           0        7.018780   -3.746560   -1.145790
     10          1           0        0.490510    0.911270    0.258880
     11          1           0        0.497220   -0.810190    0.674630
     12          1           0        0.533080   -0.300300   -1.023500
     13          1           0        2.806880    0.692240   -0.687540
     14          1           0        4.048290    0.282990    1.436160
     15          1           0        2.615940   -0.474700    2.138960
     16          1           0        2.819630    2.305930    1.214050
     17          1           0        2.856820    1.810570    2.770940
     18          1           0        2.577010   -1.663160   -1.433750
     19          1           0        2.586620   -2.212060    0.260610
     20          1           0        4.508890   -2.959600   -1.847450
     21          1           0        4.508310   -3.486130   -0.123280
     22          1           0        6.865840   -1.814220   -0.543570
 ---------------------------------------------------------------------
                    Distance matrix (angstroms):
                    1          2          3          4          5
     1  C    0.000000
     2  C    1.531455   0.000000
     3  C    2.531421   1.536837   0.000000
     4  N    2.954258   2.472468   1.460607   0.000000
     5  C    2.496627   1.532203   2.522224   3.819486   0.000000
     6  O    3.765129   2.432205   2.915628   4.260071   1.429466
     7  C    4.840133   3.704974   4.217601   5.620763   2.343607
     8  C    6.143764   4.840185   5.092861   6.421965   3.685534
     9  O    7.229265   5.997249   6.272428   7.625660   4.737166
    10  H    1.094374   2.184919   2.794555   2.634091   3.465660
    11  H    1.095772   2.175308   2.789023   3.326289   2.757144
    12  H    1.094422   2.177442   3.488226   3.952506   2.733209
    13  H    2.157289   1.098653   2.152754   2.716122   2.148909
    14  H    3.485833   2.179338   1.095511   2.089575   2.763815
    15  H    2.787889   2.169809   1.096091   2.090693   2.759369
    16  H    3.290220   2.682444   2.039281   1.019403   4.087799
    17  H    3.890058   3.358099   2.042202   1.018009   4.557595
    18  H    2.714143   2.164726   3.474262   4.627149   1.096744
    19  H    2.744929   2.168648   2.774476   4.125259   1.096911
    20  H    4.974375   4.022807   4.858629   6.209128   2.604271
    21  H    4.973594   4.006631   4.358686   5.816440   2.595007
    22  H    6.238956   4.800739   4.854003   6.052915   3.939486
                    6          7          8          9         10
     6  O    0.000000
     7  C    1.423649   0.000000
     8  C    2.409369   1.508498   0.000000
     9  O    3.571513   2.409063   1.230616   0.000000
    10  H    4.600083   5.790050   7.008509   8.141670   0.000000
    11  H    4.087077   4.997201   6.362557   7.380172   1.770965
    12  H    4.051979   4.963362   6.328188   7.345473   1.764713
    13  H    2.665427   3.992649   4.953121   6.136207   2.511823
    14  H    2.578237   3.859674   4.443172   5.632721   3.799806
    15  H    3.274836   4.353972   5.300739   6.393720   3.158016
    16  H    4.390276   5.806847   6.507519   7.735266   2.877886
    17  H    4.824573   6.134305   6.792382   7.971473   3.566316
    18  H    2.063371   2.587292   3.985423   4.914550   3.721044
    19  H    2.069056   2.573377   3.971423   4.896600   3.761498
    20  H    2.065263   1.094257   2.122738   2.722348   5.963861
    21  H    2.066668   1.094672   2.121118   2.723199   5.968743
    22  H    2.518817   2.227910   1.102080   2.029778   6.979760
                   11         12         13         14         15
    11  H    0.000000
    12  H    1.773392   0.000000
    13  H    3.073651   2.503632   0.000000
    14  H    3.792765   4.329764   2.493729   0.000000
    15  H    2.597266   3.790762   3.063872   1.766253   0.000000
    16  H    3.923616   4.126424   2.494033   2.377230   2.937491
    17  H    4.102513   4.924765   3.635140   2.352603   2.383250
    18  H    3.081939   2.490651   2.481447   3.766769   3.765396
    19  H    2.549950   3.085578   3.063080   3.121485   2.558804
    20  H    5.203302   4.853641   4.192632   4.637740   5.064529
    21  H    4.887347   5.173235   4.546650   4.104843   4.215152
    22  H    6.561357   6.528869   4.772654   4.031899   5.201147
                   16         17         18         19         20
    16  H    0.000000
    17  H    1.634219   0.000000
    18  H    4.777383   5.461182   0.000000
    19  H    4.623373   4.749349   1.781078   0.000000
    20  H    6.320774   6.842031   2.363063   2.949213   0.000000
    21  H    6.179648   6.257712   2.961498   2.337417   1.802775
    22  H    6.036280   6.340136   4.382842   4.372266   2.926980
                   21         22
    21  H    0.000000
    22  H    2.920595   0.000000
 Stoichiometry    C6H13NO2
 Framework group  C1[X(C6H13NO2)]
 Deg. of freedom    60
 Full point group                 C1      NOp   1
 Largest Abelian subgroup         C1      NOp   1
 Largest concise Abelian subgroup C1      NOp   1
                         Standard orientation:                         
 ---------------------------------------------------------------------
 Center     Atomic      Atomic             Coordinates (Angstroms)
 Number     Number       Type             X           Y           Z
 ---------------------------------------------------------------------
      1          6           0        2.642645    1.452288    0.005444
      2          6           0        1.578532    0.402711   -0.328331
      3          6           0        1.882052   -0.935411    0.363890
      4          7           0        3.188709   -1.450759   -0.036655
      5          6           0        0.203393    0.928015    0.096753
      6          8           0       -0.816289   -0.013787   -0.244759
      7          6           0       -2.092374    0.462534    0.169365
      8          6           0       -3.166691   -0.538932   -0.174840
      9          8           0       -4.356854   -0.354378    0.077882
     10          1           0        3.638846    1.129853   -0.312791
     11          1           0        2.677388    1.638801    1.084666
     12          1           0        2.428141    2.400424   -0.497334
     13          1           0        1.565806    0.236198   -1.414218
     14          1           0        1.117471   -1.680187    0.117171
     15          1           0        1.871367   -0.802772    1.451874
     16          1           0        3.191859   -1.617930   -1.042252
     17          1           0        3.353426   -2.350888    0.409416
     18          1           0       -0.005231    1.875944   -0.413889
     19          1           0        0.186101    1.103306    1.179429
     20          1           0       -2.318815    1.399327   -0.348845
     21          1           0       -2.096538    0.605887    1.254602
     22          1           0       -2.830974   -1.464556   -0.669910
 ---------------------------------------------------------------------
 Rotational constants (GHZ):           3.8321766           0.5783670           0.5184557
 Standard basis: 6-31G(2df,p) (6D, 7F)
 There are   344 symmetry adapted cartesian basis functions of A   symmetry.
 There are   317 symmetry adapted basis functions of A   symmetry.
   317 basis functions,   487 primitive gaussians,   344 cartesian basis functions
    36 alpha electrons       36 beta electrons
       nuclear repulsion energy       456.0691303132 Hartrees.
 NAtoms=   22 NActive=   22 NUniq=   22 SFac= 1.00D+00 NAtFMM=   60 NAOKFM=F Big=F
 Integral buffers will be    131072 words long.
 Raffenetti 2 integral format.
 Two-electron integral symmetry is turned on.
 One-electron integrals computed using PRISM.
 PrsmSu:  requested number of processors reduced to:  13 ShMem   1 Linda.
 NBasis=   317 RedAO= T EigKep=  4.89D-04  NBF=   317
 NBsUse=   317 1.00D-06 EigRej= -1.00D+00 NBFU=   317
 ExpMin= 1.61D-01 ExpMax= 5.48D+03 ExpMxC= 8.25D+02 IAcc=3 IRadAn=         5 AccDes= 0.00D+00
 Harris functional with IExCor=  402 and IRadAn=       5 diagonalized for initial guess.
 HarFok:  IExCor=  402 AccDes= 0.00D+00 IRadAn=         5 IDoV= 1 UseB2=F ITyADJ=14
 ICtDFT=  3500011 ScaDFX=  1.000000  1.000000  1.000000  1.000000
 FoFCou: FMM=F IPFlag=           0 FMFlag=      100000 FMFlg1=           0
         NFxFlg=           0 DoJE=T BraDBF=F KetDBF=T FulRan=T
         wScrn=  0.000000 ICntrl=       500 IOpCl=  0 I1Cent=   200000004 NGrid=           0
         NMat0=    1 NMatS0=      1 NMatT0=    0 NMatD0=    1 NMtDS0=    0 NMtDT0=    0
 Petite list used in FoFCou.
 Requested convergence on RMS density matrix=1.00D-08 within 128 cycles.
 Requested convergence on MAX density matrix=1.00D-06.
 Requested convergence on             energy=1.00D-06.
 No special actions if energy rises.
 Integral accuracy reduced to 1.0D-05 until final iterations.
 Initial convergence to 1.0D-05 achieved.  Increase integral accuracy.
 SCF Done:  E(RB3LYP) =  -441.661269194     A.U. after   13 cycles
            NFock= 13  Conv=0.84D-08     -V/T= 2.0076

 **********************************************************************

            Population analysis using the SCF density.

 **********************************************************************

 Orbital symmetries:
       Occupied  (A) (A) (A) (A) (A) (A) (A) (A) (A) (A) (A) (A)
                 (A) (A) (A) (A) (A) (A) (A) (A) (A) (A) (A) (A)
                 (A) (A) (A) (A) (A) (A) (A) (A) (A) (A) (A) (A)
       Virtual   (A) (A) (A) (A) (A) (A) (A) (A) (A) (A) (A) (A)
                 (A) (A) (A) (A) (A) (A) (A) (A) (A) (A) (A) (A)
                 (A) (A) (A) (A) (A) (A) (A) (A) (A) (A) (A) (A)
                 (A) (A) (A) (A) (A) (A) (A) (A) (A) (A) (A) (A)
                 (A) (A) (A) (A) (A) (A) (A) (A) (A) (A) (A) (A)
                 (A) (A) (A) (A) (A) (A) (A) (A) (A) (A) (A) (A)
                 (A) (A) (A) (A) (A) (A) (A) (A) (A) (A) (A) (A)
                 (A) (A) (A) (A) (A) (A) (A) (A) (A) (A) (A) (A)
                 (A) (A) (A) (A) (A) (A) (A) (A) (A) (A) (A) (A)
                 (A) (A) (A) (A) (A) (A) (A) (A) (A) (A) (A) (A)
                 (A) (A) (A) (A) (A) (A) (A) (A) (A) (A) (A) (A)
                 (A) (A) (A) (A) (A) (A) (A) (A) (A) (A) (A) (A)
                 (A) (A) (A) (A) (A) (A) (A) (A) (A) (A) (A) (A)
                 (A) (A) (A) (A) (A) (A) (A) (A) (A) (A) (A) (A)
                 (A) (A) (A) (A) (A) (A) (A) (A) (A) (A) (A) (A)
                 (A) (A) (A) (A) (A) (A) (A) (A) (A) (A) (A) (A)
                 (A) (A) (A) (A) (A) (A) (A) (A) (A) (A) (A) (A)
                 (A) (A) (A) (A) (A) (A) (A) (A) (A) (A) (A) (A)
                 (A) (A) (A) (A) (A) (A) (A) (A) (A) (A) (A) (A)
                 (A) (A) (A) (A) (A) (A) (A) (A) (A) (A) (A) (A)
                 (A) (A) (A) (A) (A) (A) (A) (A) (A) (A) (A) (A)
                 (A) (A) (A) (A) (A) (A) (A) (A) (A) (A) (A) (A)
                 (A) (A) (A) (A) (A) (A) (A) (A) (A) (A) (A) (A)
                 (A) (A) (A) (A) (A)
 The electronic state is 1-A.
 Alpha  occ. eigenvalues --  -19.15354 -19.14481 -14.30519 -10.27905 -10.24569
 Alpha  occ. eigenvalues --  -10.23467 -10.20065 -10.19188 -10.17242  -1.04604
 Alpha  occ. eigenvalues --   -1.03341  -0.87997  -0.79662  -0.73887  -0.66671
 Alpha  occ. eigenvalues --   -0.65266  -0.59327  -0.56835  -0.50298  -0.50115
 Alpha  occ. eigenvalues --   -0.48671  -0.46391  -0.45654  -0.44721  -0.42896
 Alpha  occ. eigenvalues --   -0.41144  -0.39629  -0.38354  -0.36400  -0.35749
 Alpha  occ. eigenvalues --   -0.34947  -0.33072  -0.32352  -0.27122  -0.25854
 Alpha  occ. eigenvalues --   -0.22951
 Alpha virt. eigenvalues --   -0.03552   0.07261   0.07937   0.10617   0.11480
 Alpha virt. eigenvalues --    0.12704   0.13476   0.15237   0.16284   0.17018
 Alpha virt. eigenvalues --    0.17199   0.17961   0.18642   0.19053   0.20501
 Alpha virt. eigenvalues --    0.21626   0.23458   0.24361   0.25200   0.26199
 Alpha virt. eigenvalues --    0.27439   0.31588   0.39597   0.45766   0.47063
 Alpha virt. eigenvalues --    0.48543   0.48997   0.49221   0.50019   0.54660
 Alpha virt. eigenvalues --    0.55790   0.56624   0.57176   0.59687   0.60587
 Alpha virt. eigenvalues --    0.61394   0.61661   0.63342   0.64067   0.66496
 Alpha virt. eigenvalues --    0.67190   0.68417   0.69137   0.72096   0.72401
 Alpha virt. eigenvalues --    0.73328   0.74617   0.75524   0.75823   0.76295
 Alpha virt. eigenvalues --    0.77621   0.79248   0.79312   0.80428   0.81218
 Alpha virt. eigenvalues --    0.82252   0.83076   0.84771   0.85155   0.85937
 Alpha virt. eigenvalues --    0.88917   0.91290   0.92975   0.94918   0.95604
 Alpha virt. eigenvalues --    0.98795   0.99920   1.02624   1.03688   1.05477
 Alpha virt. eigenvalues --    1.06318   1.09639   1.11201   1.12339   1.16009
 Alpha virt. eigenvalues --    1.24215   1.26672   1.29061   1.31002   1.31829
 Alpha virt. eigenvalues --    1.33034   1.35079   1.35851   1.36317   1.37732
 Alpha virt. eigenvalues --    1.38865   1.39969   1.42171   1.44220   1.46826
 Alpha virt. eigenvalues --    1.49966   1.52166   1.53204   1.55095   1.57498
 Alpha virt. eigenvalues --    1.59939   1.60270   1.62670   1.64713   1.65960
 Alpha virt. eigenvalues --    1.69822   1.72619   1.75856   1.77835   1.79594
 Alpha virt. eigenvalues --    1.81974   1.83172   1.86070   1.87296   1.92533
 Alpha virt. eigenvalues --    1.93067   1.96104   1.97886   2.00569   2.06488
 Alpha virt. eigenvalues --    2.11575   2.16325   2.19675   2.21212   2.22985
 Alpha virt. eigenvalues --    2.23746   2.25785   2.29017   2.34464   2.35311
 Alpha virt. eigenvalues --    2.39556   2.41205   2.46269   2.47827   2.51532
 Alpha virt. eigenvalues --    2.54079   2.55792   2.56530   2.60695   2.65265
 Alpha virt. eigenvalues --    2.68826   2.74473   2.74744   2.75367   2.77711
 Alpha virt. eigenvalues --    2.78659   2.79907   2.80641   2.82162   2.85851
 Alpha virt. eigenvalues --    2.86290   2.88871   2.90205   2.91868   2.93117
 Alpha virt. eigenvalues --    2.94296   2.95040   3.00198   3.01089   3.01609
 Alpha virt. eigenvalues --    3.04338   3.05913   3.08374   3.11303   3.13444
 Alpha virt. eigenvalues --    3.16347   3.18336   3.20086   3.23005   3.27706
 Alpha virt. eigenvalues --    3.29476   3.30735   3.34319   3.36669   3.36966
 Alpha virt. eigenvalues --    3.41145   3.43893   3.45185   3.47469   3.51606
 Alpha virt. eigenvalues --    3.53539   3.55507   3.57111   3.59665   3.59991
 Alpha virt. eigenvalues --    3.63670   3.67393   3.69074   3.71409   3.75785
 Alpha virt. eigenvalues --    3.78301   3.78729   3.80191   3.84349   3.92655
 Alpha virt. eigenvalues --    3.94233   3.99911   4.01877   4.05484   4.08154
 Alpha virt. eigenvalues --    4.09630   4.11961   4.21231   4.22433   4.24213
 Alpha virt. eigenvalues --    4.26322   4.27337   4.29760   4.34759   4.35392
 Alpha virt. eigenvalues --    4.37167   4.40600   4.41371   4.42895   4.44314
 Alpha virt. eigenvalues --    4.44995   4.46876   4.48047   4.50139   4.51729
 Alpha virt. eigenvalues --    4.53372   4.54304   4.56222   4.57011   4.57875
 Alpha virt. eigenvalues --    4.59696   4.61275   4.63065   4.63171   4.64234
 Alpha virt. eigenvalues --    4.66461   4.69168   4.71329   4.73693   4.74486
 Alpha virt. eigenvalues --    4.75454   4.76234   4.77852   4.81268   4.83974
 Alpha virt. eigenvalues --    4.86233   4.86875   4.88941   4.90187   4.91582
 Alpha virt. eigenvalues --    4.93933   5.00288   5.05217   5.06301   5.08387
 Alpha virt. eigenvalues --    5.11707   5.13245   5.15623   5.25600   5.31698
 Alpha virt. eigenvalues --    5.34182   5.37489   5.40193   5.42398   5.44718
 Alpha virt. eigenvalues --    5.47742   5.51148   5.55425   5.61480   5.68526
 Alpha virt. eigenvalues --    5.82278   5.84349   5.95466   5.97979   6.00280
 Alpha virt. eigenvalues --    6.11670   6.19570   6.28190   6.45035   6.76420
 Alpha virt. eigenvalues --    7.08121  10.00592  10.55487  11.32693  11.51529
 Alpha virt. eigenvalues --   11.70286  11.98334  12.16820  12.72564  12.90319
 Alpha virt. eigenvalues --   13.46257
          Condensed to atoms (all electrons):
               1          2          3          4          5          6
     1  C    5.020168   0.371728  -0.037956  -0.007950  -0.033809   0.001620
     2  C    0.371728   4.699461   0.404640  -0.035117   0.414492  -0.028304
     3  C   -0.037956   0.404640   4.852039   0.379704  -0.031048  -0.000125
     4  N   -0.007950  -0.035117   0.379704   6.550982   0.001531   0.000179
     5  C   -0.033809   0.414492  -0.031048   0.001531   4.789100   0.338276
     6  O    0.001620  -0.028304  -0.000125   0.000179   0.338276   7.770392
     7  C   -0.000143   0.002816   0.000633  -0.000005  -0.069580   0.291195
     8  C    0.000002  -0.000104  -0.000002   0.000000   0.002866  -0.004750
     9  O   -0.000000   0.000000  -0.000000   0.000000  -0.000019   0.000863
    10  H    0.372263  -0.016526  -0.003842   0.013290   0.003112  -0.000039
    11  H    0.373871  -0.027204  -0.006103   0.000176  -0.005975   0.000010
    12  H    0.369679  -0.026789   0.004698   0.000292  -0.004122   0.000047
    13  H   -0.042020   0.356086  -0.047806  -0.002642  -0.033244   0.001593
    14  H    0.006449  -0.041441   0.380193  -0.046429   0.000326   0.009022
    15  H   -0.008989  -0.019131   0.346760  -0.022283  -0.005374  -0.000151
    16  H   -0.000192  -0.001726  -0.056232   0.341270  -0.000087   0.000002
    17  H    0.000371   0.005016  -0.046259   0.341434  -0.000283   0.000005
    18  H   -0.001139  -0.027133   0.005902  -0.000027   0.350163  -0.027956
    19  H   -0.000449  -0.024299  -0.012906   0.000062   0.344217  -0.032254
    20  H    0.000005  -0.000129   0.000055   0.000000  -0.006471  -0.029863
    21  H    0.000029   0.000436  -0.000190  -0.000000  -0.005278  -0.030482
    22  H    0.000000   0.000039  -0.000022   0.000000  -0.000217   0.014008
               7          8          9         10         11         12
     1  C   -0.000143   0.000002  -0.000000   0.372263   0.373871   0.369679
     2  C    0.002816  -0.000104   0.000000  -0.016526  -0.027204  -0.026789
     3  C    0.000633  -0.000002  -0.000000  -0.003842  -0.006103   0.004698
     4  N   -0.000005   0.000000   0.000000   0.013290   0.000176   0.000292
     5  C   -0.069580   0.002866  -0.000019   0.003112  -0.005975  -0.004122
     6  O    0.291195  -0.004750   0.000863  -0.000039   0.000010   0.000047
     7  C    5.108207   0.301775  -0.056808   0.000001   0.000002   0.000004
     8  C    0.301775   4.512316   0.723419  -0.000000   0.000000   0.000000
     9  O   -0.056808   0.723419   7.642422   0.000000   0.000000  -0.000000
    10  H    0.000001  -0.000000   0.000000   0.559280  -0.029145  -0.031497
    11  H    0.000002   0.000000   0.000000  -0.029145   0.599642  -0.033214
    12  H    0.000004   0.000000  -0.000000  -0.031497  -0.033214   0.614771
    13  H    0.000001   0.000008   0.000000  -0.002772   0.005943  -0.003221
    14  H   -0.000211   0.000013   0.000000   0.000316  -0.000025  -0.000145
    15  H   -0.000085  -0.000001   0.000000  -0.000278   0.005034  -0.000086
    16  H   -0.000000   0.000000  -0.000000  -0.000498   0.000085  -0.000059
    17  H   -0.000000   0.000000   0.000000  -0.000356  -0.000048   0.000001
    18  H   -0.005467   0.000218   0.000002  -0.000187  -0.000371   0.004716
    19  H   -0.006416   0.000169   0.000002  -0.000151   0.005246  -0.000297
    20  H    0.337357  -0.015437   0.000414   0.000000  -0.000000   0.000001
    21  H    0.338165  -0.017171   0.000409   0.000000  -0.000000  -0.000000
    22  H   -0.117006   0.358363  -0.046913   0.000000  -0.000000  -0.000000
              13         14         15         16         17         18
     1  C   -0.042020   0.006449  -0.008989  -0.000192   0.000371  -0.001139
     2  C    0.356086  -0.041441  -0.019131  -0.001726   0.005016  -0.027133
     3  C   -0.047806   0.380193   0.346760  -0.056232  -0.046259   0.005902
     4  N   -0.002642  -0.046429  -0.022283   0.341270   0.341434  -0.000027
     5  C   -0.033244   0.000326  -0.005374  -0.000087  -0.000283   0.350163
     6  O    0.001593   0.009022  -0.000151   0.000002   0.000005  -0.027956
     7  C    0.000001  -0.000211  -0.000085  -0.000000  -0.000000  -0.005467
     8  C    0.000008   0.000013  -0.000001   0.000000   0.000000   0.000218
     9  O    0.000000   0.000000   0.000000  -0.000000   0.000000   0.000002
    10  H   -0.002772   0.000316  -0.000278  -0.000498  -0.000356  -0.000187
    11  H    0.005943  -0.000025   0.005034   0.000085  -0.000048  -0.000371
    12  H   -0.003221  -0.000145  -0.000086  -0.000059   0.000001   0.004716
    13  H    0.682491  -0.005390   0.006683   0.005783  -0.000060  -0.006284
    14  H   -0.005390   0.660090  -0.047652  -0.005071  -0.004064   0.000179
    15  H    0.006683  -0.047652   0.640929   0.006812  -0.002434  -0.000118
    16  H    0.005783  -0.005071   0.006812   0.519351  -0.030913   0.000006
    17  H   -0.000060  -0.004064  -0.002434  -0.030913   0.512390   0.000004
    18  H   -0.006284   0.000179  -0.000118   0.000006   0.000004   0.662190
    19  H    0.007228   0.000047   0.005630   0.000019  -0.000001  -0.056785
    20  H   -0.000052   0.000029   0.000000   0.000000   0.000000   0.013085
    21  H    0.000043   0.000036   0.000019  -0.000000  -0.000000  -0.002710
    22  H    0.000001   0.000151  -0.000001  -0.000000  -0.000000   0.000035
              19         20         21         22
     1  C   -0.000449   0.000005   0.000029   0.000000
     2  C   -0.024299  -0.000129   0.000436   0.000039
     3  C   -0.012906   0.000055  -0.000190  -0.000022
     4  N    0.000062   0.000000  -0.000000   0.000000
     5  C    0.344217  -0.006471  -0.005278  -0.000217
     6  O   -0.032254  -0.029863  -0.030482   0.014008
     7  C   -0.006416   0.337357   0.338165  -0.117006
     8  C    0.000169  -0.015437  -0.017171   0.358363
     9  O    0.000002   0.000414   0.000409  -0.046913
    10  H   -0.000151   0.000000   0.000000   0.000000
    11  H    0.005246  -0.000000  -0.000000  -0.000000
    12  H   -0.000297   0.000001  -0.000000  -0.000000
    13  H    0.007228  -0.000052   0.000043   0.000001
    14  H    0.000047   0.000029   0.000036   0.000151
    15  H    0.005630   0.000000   0.000019  -0.000001
    16  H    0.000019   0.000000  -0.000000  -0.000000
    17  H   -0.000001   0.000000  -0.000000  -0.000000
    18  H   -0.056785   0.013085  -0.002710   0.000035
    19  H    0.668888  -0.002774   0.014033   0.000036
    20  H   -0.002774   0.613971  -0.042232   0.005293
    21  H    0.014033  -0.042232   0.612682   0.005177
    22  H    0.000036   0.005293   0.005177   0.675433
 Mulliken charges:
               1
     1  C   -0.383537
     2  C   -0.006812
     3  C   -0.132133
     4  N   -0.514466
     5  C   -0.048579
     6  O   -0.273285
     7  C   -0.124433
     8  C    0.138314
     9  O   -0.263790
    10  H    0.137031
    11  H    0.112074
    12  H    0.105220
    13  H    0.077630
    14  H    0.093575
    15  H    0.094712
    16  H    0.221449
    17  H    0.225196
    18  H    0.091679
    19  H    0.090755
    20  H    0.126747
    21  H    0.127035
    22  H    0.105620
 Sum of Mulliken charges =  -0.00000
 Mulliken charges with hydrogens summed into heavy atoms:
               1
     1  C   -0.029212
     2  C    0.070818
     3  C    0.056154
     4  N   -0.067821
     5  C    0.133855
     6  O   -0.273285
     7  C    0.129348
     8  C    0.243934
     9  O   -0.263790
 Electronic spatial extent (au):  <R**2>=           2106.1100
 Charge=             -0.0000 electrons
 Dipole moment (field-independent basis, Debye):
    X=              2.0114    Y=              0.0279    Z=             -0.2331  Tot=              2.0251
 Quadrupole moment (field-independent basis, Debye-Ang):
   XX=            -76.2515   YY=            -50.6645   ZZ=            -52.9771
   XY=             -3.8455   XZ=             -0.6479   YZ=              0.2755
 Traceless Quadrupole moment (field-independent basis, Debye-Ang):
   XX=            -16.2871   YY=              9.2998   ZZ=              6.9873
   XY=             -3.8455   XZ=             -0.6479   YZ=              0.2755
 Octapole moment (field-independent basis, Debye-Ang**2):
  XXX=             56.5448  YYY=            -15.9521  ZZZ=             -0.6959  XYY=              3.7274
  XXY=             -3.5644  XXZ=            -11.9933  XZZ=             -2.1156  YZZ=             -3.5600
  YYZ=             -1.7171  XYZ=              0.7975
 Hexadecapole moment (field-independent basis, Debye-Ang**3):
 XXXX=          -2764.8719 YYYY=           -368.9450 ZZZZ=           -104.8453 XXXY=            -55.1555
 XXXZ=             -1.4188 YYYX=            -42.0610 YYYZ=             -5.4269 ZZZX=             -5.4666
 ZZZY=              3.2454 XXYY=           -384.0773 XXZZ=           -355.1612 YYZZ=            -79.5993
 XXYZ=              3.8106 YYXZ=              2.4600 ZZXY=             -8.6736
 N-N= 4.560691303132D+02 E-N=-1.942267900668D+03  KE= 4.383294198774D+02
 PrsmSu:  requested number of processors reduced to:  13 ShMem   1 Linda.
 Calling FoFJK, ICntrl=      2127 FMM=F ISym2X=0 I1Cent= 0 IOpClX= 0 NMat=1 NMatS=1 NMatT=0.
 ***** Axes restored to original set *****
 -------------------------------------------------------------------
 Center     Atomic                   Forces (Hartrees/Bohr)
 Number     Number              X              Y              Z
 -------------------------------------------------------------------
      1        6          -0.002995754    0.002677311   -0.003039618
      2        6           0.000876742   -0.004821901    0.006085732
      3        6           0.008397159    0.007153129   -0.001174048
      4        7          -0.008897344    0.006615907    0.003116930
      5        6           0.009888569    0.009856115   -0.000870188
      6        8          -0.000086060   -0.007977209   -0.001801111
      7        6          -0.001396430    0.017661133    0.005273416
      8        6           0.025055257   -0.033395555   -0.010109837
      9        8          -0.023096517    0.031558747    0.009618654
     10        1           0.002354838   -0.001973731    0.001518896
     11        1          -0.000612820    0.000126747    0.000019001
     12        1          -0.000506290   -0.001373991   -0.000590237
     13        1           0.000902797   -0.000845518   -0.000435980
     14        1           0.003036319   -0.009558269   -0.004373000
     15        1          -0.001791594   -0.000503650    0.000343014
     16        1           0.000361298   -0.001552087    0.002932446
     17        1          -0.000797429    0.000469939   -0.002922458
     18        1          -0.002880307   -0.002171556   -0.001831349
     19        1          -0.002672789   -0.002595418    0.001319317
     20        1          -0.002228200   -0.007077385   -0.002466941
     21        1          -0.002232772   -0.006931680   -0.001967624
     22        1          -0.000678672    0.004658922    0.001354984
 -------------------------------------------------------------------
 Cartesian Forces:  Max     0.033395555 RMS     0.008481491

 GradGradGradGradGradGradGradGradGradGradGradGradGradGradGradGradGradGrad
 Berny optimization.
 FormGI is forming the generalized inverse of G from B-inverse, IUseBI=4.
 Internal  Forces:  Max     0.040222026 RMS     0.004873885
 Search for a local minimum.
 Step number   1 out of a maximum of  113
 All quantities printed in internal units (Hartrees-Bohrs-Radians)
 Mixed Optimization -- RFO/linear search
 Second derivative matrix not updated -- first step.
 ITU=  0
     Eigenvalues ---    0.00279   0.00340   0.00350   0.00654   0.00654
     Eigenvalues ---    0.00890   0.01302   0.01379   0.03721   0.04292
     Eigenvalues ---    0.04514   0.04628   0.04842   0.05053   0.05392
     Eigenvalues ---    0.05471   0.05532   0.05804   0.06423   0.07590
     Eigenvalues ---    0.09275   0.11378   0.11402   0.12707   0.13793
     Eigenvalues ---    0.13947   0.16000   0.16000   0.16000   0.16000
     Eigenvalues ---    0.16000   0.16000   0.16290   0.16632   0.21934
     Eigenvalues ---    0.22000   0.22045   0.22207   0.25000   0.28801
     Eigenvalues ---    0.29221   0.29289   0.31502   0.33453   0.33832
     Eigenvalues ---    0.34026   0.34045   0.34118   0.34154   0.34183
     Eigenvalues ---    0.34278   0.34307   0.34312   0.34325   0.36888
     Eigenvalues ---    0.41066   0.41916   0.44434   0.44657   0.90830
 RFO step:  Lambda=-6.91221721D-03 EMin= 2.78671147D-03
 Linear search not attempted -- first point.
 Iteration  1 RMS(Cart)=  0.06481684 RMS(Int)=  0.00191925
 Iteration  2 RMS(Cart)=  0.00237934 RMS(Int)=  0.00024107
 Iteration  3 RMS(Cart)=  0.00000277 RMS(Int)=  0.00024104
 Iteration  4 RMS(Cart)=  0.00000000 RMS(Int)=  0.00024104
 Variable       Old X    -DE/DX   Delta X   Delta X   Delta X     New X
                                 (Linear)    (Quad)   (Total)
    R1        2.89403   0.00181   0.00000   0.00604   0.00604   2.90007
    R2        2.06807  -0.00226   0.00000  -0.00644  -0.00644   2.06162
    R3        2.07071   0.00015   0.00000   0.00044   0.00044   2.07114
    R4        2.06816   0.00101   0.00000   0.00288   0.00288   2.07104
    R5        2.90420  -0.00121   0.00000  -0.00411  -0.00411   2.90009
    R6        2.89544  -0.00290   0.00000  -0.00968  -0.00968   2.88576
    R7        2.07615   0.00001   0.00000   0.00002   0.00002   2.07617
    R8        2.76015   0.00896   0.00000   0.02383   0.02383   2.78398
    R9        2.07022   0.00296   0.00000   0.00849   0.00849   2.07871
   R10        2.07131   0.00112   0.00000   0.00322   0.00322   2.07454
   R11        1.92639  -0.00280   0.00000  -0.00621  -0.00621   1.92018
   R12        1.92376  -0.00283   0.00000  -0.00625  -0.00625   1.91751
   R13        2.70130  -0.00464   0.00000  -0.01112  -0.01112   2.69018
   R14        2.07255   0.00310   0.00000   0.00893   0.00893   2.08147
   R15        2.07286   0.00354   0.00000   0.01019   0.01019   2.08306
   R16        2.69031  -0.00784   0.00000  -0.01841  -0.01841   2.67190
   R17        2.85065   0.00124   0.00000   0.00386   0.00386   2.85451
   R18        2.06785   0.00447   0.00000   0.01275   0.01275   2.08060
   R19        2.06863   0.00421   0.00000   0.01205   0.01205   2.08068
   R20        2.32553  -0.04022   0.00000  -0.04395  -0.04395   2.28158
   R21        2.08263   0.00401   0.00000   0.01175   0.01175   2.09438
    A1        1.94680  -0.00257   0.00000  -0.01591  -0.01593   1.93087
    A2        1.93194   0.00085   0.00000   0.00184   0.00179   1.93372
    A3        1.93631   0.00084   0.00000   0.00877   0.00879   1.94510
    A4        1.88356   0.00003   0.00000  -0.00681  -0.00690   1.87666
    A5        1.87556   0.00167   0.00000   0.01603   0.01608   1.89164
    A6        1.88727  -0.00077   0.00000  -0.00365  -0.00367   1.88360
    A7        1.94050   0.00071   0.00000   0.01413   0.01397   1.95446
    A8        1.90517   0.00045   0.00000   0.01017   0.00997   1.91515
    A9        1.90428  -0.00004   0.00000  -0.00211  -0.00201   1.90227
   A10        1.92922   0.00024   0.00000   0.00730   0.00705   1.93627
   A11        1.89179  -0.00037   0.00000  -0.00896  -0.00895   1.88284
   A12        1.89207  -0.00105   0.00000  -0.02175  -0.02172   1.87035
   A13        1.93946  -0.00125   0.00000  -0.00162  -0.00203   1.93743
   A14        1.93121  -0.00542   0.00000  -0.03314  -0.03431   1.89690
   A15        1.91750   0.00001   0.00000  -0.02613  -0.02687   1.89062
   A16        1.89941   0.00862   0.00000   0.09405   0.09434   1.99375
   A17        1.90035  -0.00149   0.00000  -0.02161  -0.02188   1.87847
   A18        1.87445  -0.00031   0.00000  -0.01084  -0.01176   1.86269
   A19        1.90831   0.00000   0.00000  -0.00327  -0.00328   1.90504
   A20        1.91406   0.00100   0.00000   0.00272   0.00271   1.91677
   A21        1.86162  -0.00123   0.00000  -0.01421  -0.01422   1.84740
   A22        1.92628  -0.00337   0.00000  -0.01204  -0.01202   1.91426
   A23        1.91545   0.00109   0.00000   0.00535   0.00538   1.92083
   A24        1.92066   0.00019   0.00000  -0.00394  -0.00393   1.91673
   A25        1.89919   0.00181   0.00000   0.01546   0.01547   1.91466
   A26        1.90694   0.00183   0.00000   0.01095   0.01092   1.91786
   A27        1.89488  -0.00150   0.00000  -0.01561  -0.01565   1.87923
   A28        1.92779   0.00943   0.00000   0.03671   0.03671   1.96450
   A29        1.92822  -0.00973   0.00000  -0.03572  -0.03546   1.89277
   A30        1.91151   0.00536   0.00000   0.03689   0.03687   1.94838
   A31        1.91304   0.00514   0.00000   0.03506   0.03505   1.94809
   A32        1.88906   0.00197   0.00000   0.00447   0.00471   1.89377
   A33        1.88645   0.00215   0.00000   0.00539   0.00562   1.89207
   A34        1.93541  -0.00516   0.00000  -0.04781  -0.04810   1.88731
   A35        2.14402  -0.00120   0.00000  -0.00526  -0.00528   2.13875
   A36        2.02990  -0.00233   0.00000  -0.01489  -0.01490   2.01500
   A37        2.10926   0.00352   0.00000   0.02018   0.02017   2.12943
    D1        1.04137  -0.00120   0.00000  -0.03397  -0.03398   1.00739
    D2       -3.10898  -0.00013   0.00000  -0.00867  -0.00859  -3.11757
    D3       -1.04421  -0.00115   0.00000  -0.03025  -0.03022  -1.07443
    D4       -1.05617  -0.00009   0.00000  -0.01599  -0.01605  -1.07222
    D5        1.07667   0.00098   0.00000   0.00931   0.00934   1.08600
    D6        3.14144  -0.00005   0.00000  -0.01227  -0.01229   3.12915
    D7        3.13175  -0.00024   0.00000  -0.01839  -0.01845   3.11330
    D8       -1.01860   0.00083   0.00000   0.00691   0.00694  -1.01166
    D9        1.04617  -0.00019   0.00000  -0.01467  -0.01469   1.03148
   D10       -1.02671   0.00305   0.00000   0.02184   0.02157  -1.00513
   D11       -3.13889  -0.00334   0.00000  -0.07362  -0.07305   3.07124
   D12        1.07749   0.00037   0.00000  -0.02358  -0.02376   1.05373
   D13        3.13765   0.00183   0.00000  -0.00557  -0.00591   3.13174
   D14        1.02546  -0.00455   0.00000  -0.10103  -0.10053   0.92493
   D15       -1.04135  -0.00084   0.00000  -0.05099  -0.05124  -1.09259
   D16        1.06630   0.00319   0.00000   0.02210   0.02178   1.08808
   D17       -1.04589  -0.00320   0.00000  -0.07337  -0.07284  -1.11873
   D18       -3.11269   0.00051   0.00000  -0.02332  -0.02355  -3.13625
   D19        3.10736  -0.00050   0.00000  -0.02058  -0.02062   3.08674
   D20        1.01434  -0.00133   0.00000  -0.03556  -0.03558   0.97876
   D21       -1.06985  -0.00027   0.00000  -0.01724  -0.01726  -1.08711
   D22       -1.03623   0.00084   0.00000   0.00863   0.00862  -1.02760
   D23       -3.12924   0.00002   0.00000  -0.00635  -0.00634  -3.13558
   D24        1.06975   0.00107   0.00000   0.01197   0.01198   1.08174
   D25        1.03495  -0.00010   0.00000  -0.01126  -0.01125   1.02370
   D26       -1.05806  -0.00093   0.00000  -0.02624  -0.02622  -1.08428
   D27        3.14093   0.00013   0.00000  -0.00792  -0.00790   3.13304
   D28       -1.07302  -0.00072   0.00000  -0.04953  -0.04993  -1.12295
   D29       -3.10852   0.00019   0.00000  -0.03207  -0.03247  -3.14099
   D30        1.05775  -0.00254   0.00000  -0.02904  -0.02853   1.02922
   D31       -0.97774  -0.00163   0.00000  -0.01158  -0.01108  -0.98882
   D32        3.09587   0.00104   0.00000  -0.00175  -0.00186   3.09401
   D33        1.06038   0.00195   0.00000   0.01571   0.01559   1.07598
   D34        3.12478  -0.00032   0.00000  -0.00171  -0.00172   3.12305
   D35       -1.05562   0.00010   0.00000   0.00725   0.00720  -1.04842
   D36        1.01061   0.00040   0.00000   0.00372   0.00378   1.01439
   D37       -3.12889  -0.00008   0.00000  -0.00292  -0.00293  -3.13182
   D38        1.07507   0.00011   0.00000  -0.00956  -0.00916   1.06591
   D39       -1.05191  -0.00021   0.00000   0.00367   0.00327  -1.04864
   D40       -3.13710   0.00002   0.00000   0.00432   0.00432  -3.13278
   D41        0.00833  -0.00011   0.00000  -0.00495  -0.00495   0.00337
   D42       -1.04431   0.00200   0.00000   0.03093   0.03092  -1.01339
   D43        2.10112   0.00188   0.00000   0.02166   0.02165   2.12276
   D44        1.05304  -0.00182   0.00000  -0.02067  -0.02066   1.03238
   D45       -2.08472  -0.00195   0.00000  -0.02995  -0.02993  -2.11465
         Item               Value     Threshold  Converged?
 Maximum Force            0.040222     0.000450     NO 
 RMS     Force            0.004874     0.000300     NO 
 Maximum Displacement     0.269568     0.001800     NO 
 RMS     Displacement     0.064802     0.001200     NO 
 Predicted change in Energy=-3.667363D-03
 GradGradGradGradGradGradGradGradGradGradGradGradGradGradGradGradGradGrad

                          Input orientation:                          
 ---------------------------------------------------------------------
 Center     Atomic      Atomic             Coordinates (Angstroms)
 Number     Number       Type             X           Y           Z
 ---------------------------------------------------------------------
      1          6           0        0.895565   -0.037429   -0.025498
      2          6           0        2.428703   -0.087041    0.021228
      3          6           0        2.972628    0.262604    1.413017
      4          7           0        2.516526    1.597329    1.838284
      5          6           0        2.913711   -1.464918   -0.423958
      6          8           0        4.336884   -1.486837   -0.450060
      7          6           0        4.853018   -2.746367   -0.832579
      8          6           0        6.361529   -2.669847   -0.815895
      9          8           0        7.062670   -3.607313   -1.111321
     10          1           0        0.533814    0.949420    0.266852
     11          1           0        0.461354   -0.766829    0.667797
     12          1           0        0.517859   -0.260448   -1.029837
     13          1           0        2.832019    0.644732   -0.692150
     14          1           0        4.065788    0.140341    1.405085
     15          1           0        2.578244   -0.467972    2.131263
     16          1           0        2.906670    2.297545    1.213804
     17          1           0        2.886359    1.810186    2.758901
     18          1           0        2.520297   -1.698290   -1.425954
     19          1           0        2.539539   -2.235139    0.270183
     20          1           0        4.528553   -3.027053   -1.846558
     21          1           0        4.537535   -3.541519   -0.139393
     22          1           0        6.785456   -1.690023   -0.518309
 ---------------------------------------------------------------------
                    Distance matrix (angstroms):
                    1          2          3          4          5
     1  C    0.000000
     2  C    1.534652   0.000000
     3  C    2.544314   1.534661   0.000000
     4  N    2.962031   2.479215   1.473218   0.000000
     5  C    2.503878   1.527079   2.522357   3.827904   0.000000
     6  O    3.758153   2.413026   2.897032   4.249977   1.423581
     7  C    4.863245   3.698419   4.199104   5.608957   2.360083
     8  C    6.118097   4.778994   5.005194   6.327520   3.673271
     9  O    7.208070   5.928628   6.170655   7.513714   4.719766
    10  H    1.090964   2.173750   2.780868   2.611576   3.459791
    11  H    1.096002   2.179593   2.814531   3.344101   2.773682
    12  H    1.095946   2.187723   3.502430   3.958803   2.749171
    13  H    2.158615   1.098664   2.144183   2.722145   2.128197
    14  H    3.482596   2.155646   1.100004   2.170412   2.692496
    15  H    2.769186   2.149353   1.097797   2.086891   2.763258
    16  H    3.321522   2.708678   2.045732   1.016116   4.103467
    17  H    3.889706   3.362108   2.052767   1.014702   4.567017
    18  H    2.712838   2.167682   3.479866   4.638574   1.101468
    19  H    2.760436   2.165315   2.780712   4.140927   1.102305
    20  H    5.045068   4.067144   4.885445   6.245896   2.659280
    21  H    5.055250   4.050480   4.396619   5.865444   2.651424
    22  H    6.137160   4.673536   4.698981   5.880814   3.879431
                    6          7          8          9         10
     6  O    0.000000
     7  C    1.413906   0.000000
     8  C    2.373296   1.510543   0.000000
     9  O    3.516190   2.387779   1.207360   0.000000
    10  H    4.573036   5.789915   6.945048   8.080170   0.000000
    11  H    4.097285   5.045434   6.374549   7.403444   1.763949
    12  H    4.052792   5.001230   6.324512   7.351374   1.773538
    13  H    2.620461   3.950153   4.843468   6.012820   2.508838
    14  H    2.482491   3.736302   4.254449   5.418350   3.798029
    15  H    3.285441   4.376076   5.277048   6.362381   3.108814
    16  H    4.374415   5.780744   6.382062   7.585901   2.888703
    17  H    4.824086   6.126063   6.702736   7.859356   3.533510
    18  H    2.072938   2.625290   4.008885   4.937258   3.717805
    19  H    2.075850   2.613355   3.997017   4.924442   3.763557
    20  H    2.087872   1.101006   2.132994   2.701671   6.019699
    21  H    2.087699   1.101046   2.131765   2.706526   6.030203
    22  H    2.457935   2.224623   1.108299   2.025960   6.831264
                   11         12         13         14         15
    11  H    0.000000
    12  H    1.772449   0.000000
    13  H    3.076038   2.507732   0.000000
    14  H    3.789260   4.321721   2.484953   0.000000
    15  H    2.590805   3.778995   3.045352   1.763566   0.000000
    16  H    3.958292   4.157363   2.523891   2.456353   2.932180
    17  H    4.110276   4.924617   3.642937   2.451989   2.383037
    18  H    3.080691   2.496809   2.474952   3.712665   3.764416
    19  H    2.575438   3.110731   3.050457   3.043081   2.566709
    20  H    5.288922   4.940324   4.206291   4.562863   5.116215
    21  H    4.996569   5.264609   4.554011   4.020453   4.294343
    22  H    6.500261   6.448885   4.594667   3.800825   5.119987
                   16         17         18         19         20
    16  H    0.000000
    17  H    1.620264   0.000000
    18  H    4.804612   5.473245   0.000000
    19  H    4.644397   4.762211   1.779174   0.000000
    20  H    6.351981   6.877930   2.444507   3.010631   0.000000
    21  H    6.211725   6.306126   3.020262   2.422058   1.783023
    22  H    5.826311   6.180171   4.360673   4.352778   2.940324
                   21         22
    21  H    0.000000
    22  H    2.936794   0.000000
 Stoichiometry    C6H13NO2
 Framework group  C1[X(C6H13NO2)]
 Deg. of freedom    60
 Full point group                 C1      NOp   1
 Largest Abelian subgroup         C1      NOp   1
 Largest concise Abelian subgroup C1      NOp   1
                         Standard orientation:                         
 ---------------------------------------------------------------------
 Center     Atomic      Atomic             Coordinates (Angstroms)
 Number     Number       Type             X           Y           Z
 ---------------------------------------------------------------------
      1          6           0        2.669662    1.426572   -0.039535
      2          6           0        1.562658    0.400080   -0.315237
      3          6           0        1.838535   -0.941970    0.376121
      4          7           0        3.134376   -1.498760   -0.049501
      5          6           0        0.212880    0.969071    0.116409
      6          8           0       -0.821777    0.046089   -0.206349
      7          6           0       -2.099615    0.503318    0.190138
      8          6           0       -3.119711   -0.546739   -0.182051
      9          8           0       -4.299761   -0.411344    0.034441
     10          1           0        3.638169    1.044247   -0.365152
     11          1           0        2.743100    1.641085    1.032757
     12          1           0        2.478393    2.371765   -0.560231
     13          1           0        1.506282    0.216899   -1.397054
     14          1           0        0.981659   -1.609859    0.203794
     15          1           0        1.890858   -0.768155    1.458807
     16          1           0        3.095973   -1.711094   -1.042441
     17          1           0        3.298177   -2.384750    0.417202
     18          1           0        0.027053    1.928083   -0.392506
     19          1           0        0.218311    1.161740    1.201732
     20          1           0       -2.367946    1.445075   -0.313159
     21          1           0       -2.151855    0.668839    1.277417
     22          1           0       -2.712953   -1.452498   -0.674468
 ---------------------------------------------------------------------
 Rotational constants (GHZ):           3.7262229           0.5901966           0.5258064
 Standard basis: 6-31G(2df,p) (6D, 7F)
 There are   344 symmetry adapted cartesian basis functions of A   symmetry.
 There are   317 symmetry adapted basis functions of A   symmetry.
   317 basis functions,   487 primitive gaussians,   344 cartesian basis functions
    36 alpha electrons       36 beta electrons
       nuclear repulsion energy       457.3962578493 Hartrees.
 NAtoms=   22 NActive=   22 NUniq=   22 SFac= 1.00D+00 NAtFMM=   60 NAOKFM=F Big=F
 Integral buffers will be    131072 words long.
 Raffenetti 2 integral format.
 Two-electron integral symmetry is turned on.
 One-electron integrals computed using PRISM.
 PrsmSu:  requested number of processors reduced to:  13 ShMem   1 Linda.
 NBasis=   317 RedAO= T EigKep=  5.01D-04  NBF=   317
 NBsUse=   317 1.00D-06 EigRej= -1.00D+00 NBFU=   317
 Initial guess from the checkpoint file:  "CCpCNpCOCCdO.chk"
 B after Tr=     0.000000    0.000000    0.000000
         Rot=    0.999992    0.003161   -0.000072    0.002312 Ang=   0.45 deg.
 ExpMin= 1.61D-01 ExpMax= 5.48D+03 ExpMxC= 8.25D+02 IAcc=2 IRadAn=         4 AccDes= 0.00D+00
 Harris functional with IExCor=  402 and IRadAn=       4 diagonalized for initial guess.
 HarFok:  IExCor=  402 AccDes= 0.00D+00 IRadAn=         4 IDoV= 1 UseB2=F ITyADJ=14
 ICtDFT=  3500011 ScaDFX=  1.000000  1.000000  1.000000  1.000000
 FoFCou: FMM=F IPFlag=           0 FMFlag=      100000 FMFlg1=           0
         NFxFlg=           0 DoJE=T BraDBF=F KetDBF=T FulRan=T
         wScrn=  0.000000 ICntrl=       500 IOpCl=  0 I1Cent=   200000004 NGrid=           0
         NMat0=    1 NMatS0=      1 NMatT0=    0 NMatD0=    1 NMtDS0=    0 NMtDT0=    0
 Petite list used in FoFCou.
 Requested convergence on RMS density matrix=1.00D-08 within 128 cycles.
 Requested convergence on MAX density matrix=1.00D-06.
 Requested convergence on             energy=1.00D-06.
 No special actions if energy rises.
 Integral accuracy reduced to 1.0D-05 until final iterations.
 Initial convergence to 1.0D-05 achieved.  Increase integral accuracy.
 SCF Done:  E(RB3LYP) =  -441.665093097     A.U. after   11 cycles
            NFock= 11  Conv=0.59D-08     -V/T= 2.0075
 PrsmSu:  requested number of processors reduced to:  13 ShMem   1 Linda.
 Calling FoFJK, ICntrl=      2127 FMM=F ISym2X=0 I1Cent= 0 IOpClX= 0 NMat=1 NMatS=1 NMatT=0.
 ***** Axes restored to original set *****
 -------------------------------------------------------------------
 Center     Atomic                   Forces (Hartrees/Bohr)
 Number     Number              X              Y              Z
 -------------------------------------------------------------------
      1        6          -0.000187932    0.000724366   -0.001617782
      2        6          -0.001581797   -0.000509840    0.000260375
      3        6          -0.000813310    0.001581464    0.001525503
      4        7           0.000614844   -0.002625390   -0.001862208
      5        6           0.004406808    0.003021993    0.000553207
      6        8          -0.002072972   -0.006523046   -0.002182075
      7        6          -0.002526159    0.010330206    0.003397859
      8        6           0.007733653   -0.009357292   -0.003819678
      9        8          -0.002782045    0.005235516    0.001927624
     10        1           0.000429841   -0.000110925    0.000697381
     11        1          -0.000141362   -0.000331421    0.000088193
     12        1           0.000352601   -0.000199639    0.000322120
     13        1          -0.000013635    0.000453789   -0.000814709
     14        1          -0.000391074    0.000707276   -0.000130242
     15        1          -0.000232527   -0.000001925    0.001118141
     16        1           0.000824269    0.000654445   -0.000085409
     17        1           0.000261808   -0.000269112    0.000593524
     18        1          -0.000431154   -0.000646011    0.000059749
     19        1          -0.000222345   -0.001141458   -0.000024256
     20        1          -0.000867763   -0.001623607   -0.000239132
     21        1          -0.000990519   -0.001506457   -0.000696612
     22        1          -0.001369231    0.002137067    0.000928425
 -------------------------------------------------------------------
 Cartesian Forces:  Max     0.010330206 RMS     0.002611612

 GradGradGradGradGradGradGradGradGradGradGradGradGradGradGradGradGradGrad
 Berny optimization.
 Using GEDIIS/GDIIS optimizer.
 FormGI is forming the generalized inverse of G from B-inverse, IUseBI=4.
 Internal  Forces:  Max     0.006152587 RMS     0.001213841
 Search for a local minimum.
 Step number   2 out of a maximum of  113
 All quantities printed in internal units (Hartrees-Bohrs-Radians)
 Mixed Optimization -- RFO/linear search
 Update second derivatives using D2CorX and points    1    2
 DE= -3.82D-03 DEPred=-3.67D-03 R= 1.04D+00
 TightC=F SS=  1.41D+00  RLast= 2.56D-01 DXNew= 5.0454D-01 7.6892D-01
 Trust test= 1.04D+00 RLast= 2.56D-01 DXMaxT set to 5.05D-01
 ITU=  1  0
 Use linear search instead of GDIIS.
     Eigenvalues ---    0.00277   0.00339   0.00349   0.00654   0.00655
     Eigenvalues ---    0.00886   0.01302   0.01379   0.03519   0.04494
     Eigenvalues ---    0.04553   0.04632   0.04941   0.05103   0.05455
     Eigenvalues ---    0.05567   0.05602   0.05810   0.06535   0.07336
     Eigenvalues ---    0.09392   0.11164   0.11330   0.12772   0.13767
     Eigenvalues ---    0.13834   0.15575   0.16000   0.16000   0.16000
     Eigenvalues ---    0.16000   0.16081   0.16553   0.16926   0.21240
     Eigenvalues ---    0.21908   0.22003   0.22973   0.24351   0.28851
     Eigenvalues ---    0.29246   0.29340   0.31458   0.33232   0.33807
     Eigenvalues ---    0.33937   0.34046   0.34104   0.34152   0.34207
     Eigenvalues ---    0.34238   0.34303   0.34313   0.34350   0.38059
     Eigenvalues ---    0.40581   0.41464   0.44513   0.44824   0.85741
 RFO step:  Lambda=-9.43789110D-04 EMin= 2.77086106D-03
 Quartic linear search produced a step of  0.11473.
 Iteration  1 RMS(Cart)=  0.06189552 RMS(Int)=  0.00224352
 Iteration  2 RMS(Cart)=  0.00282552 RMS(Int)=  0.00006950
 Iteration  3 RMS(Cart)=  0.00000445 RMS(Int)=  0.00006946
 Iteration  4 RMS(Cart)=  0.00000000 RMS(Int)=  0.00006946
 Variable       Old X    -DE/DX   Delta X   Delta X   Delta X     New X
                                 (Linear)    (Quad)   (Total)
    R1        2.90007  -0.00043   0.00069  -0.00170  -0.00100   2.89907
    R2        2.06162  -0.00006  -0.00074  -0.00012  -0.00086   2.06076
    R3        2.07114   0.00033   0.00005   0.00107   0.00112   2.07227
    R4        2.07104  -0.00038   0.00033  -0.00124  -0.00091   2.07013
    R5        2.90009   0.00115  -0.00047   0.00446   0.00398   2.90407
    R6        2.88576   0.00037  -0.00111   0.00150   0.00039   2.88615
    R7        2.07617   0.00083   0.00000   0.00270   0.00271   2.07888
    R8        2.78398  -0.00294   0.00273  -0.00905  -0.00632   2.77766
    R9        2.07871  -0.00047   0.00097  -0.00159  -0.00061   2.07809
   R10        2.07454   0.00082   0.00037   0.00262   0.00299   2.07752
   R11        1.92018   0.00082  -0.00071   0.00210   0.00139   1.92157
   R12        1.91751   0.00058  -0.00072   0.00148   0.00077   1.91827
   R13        2.69018  -0.00284  -0.00128  -0.00756  -0.00883   2.68135
   R14        2.08147   0.00024   0.00102   0.00069   0.00171   2.08318
   R15        2.08306   0.00086   0.00117   0.00270   0.00387   2.08692
   R16        2.67190  -0.00534  -0.00211  -0.01396  -0.01607   2.65582
   R17        2.85451   0.00347   0.00044   0.01215   0.01259   2.86710
   R18        2.08060   0.00089   0.00146   0.00275   0.00421   2.08481
   R19        2.08068   0.00093   0.00138   0.00291   0.00429   2.08496
   R20        2.28158  -0.00615  -0.00504  -0.00718  -0.01222   2.26936
   R21        2.09438   0.00162   0.00135   0.00524   0.00659   2.10097
    A1        1.93087  -0.00057  -0.00183  -0.00338  -0.00521   1.92566
    A2        1.93372   0.00007   0.00021  -0.00077  -0.00058   1.93315
    A3        1.94510  -0.00018   0.00101  -0.00051   0.00050   1.94560
    A4        1.87666   0.00009  -0.00079  -0.00092  -0.00173   1.87493
    A5        1.89164   0.00063   0.00184   0.00642   0.00827   1.89991
    A6        1.88360  -0.00000  -0.00042  -0.00064  -0.00106   1.88254
    A7        1.95446   0.00009   0.00160   0.00305   0.00461   1.95908
    A8        1.91515   0.00042   0.00114   0.00422   0.00532   1.92047
    A9        1.90227  -0.00029  -0.00023  -0.00487  -0.00507   1.89719
   A10        1.93627  -0.00021   0.00081   0.00087   0.00161   1.93789
   A11        1.88284   0.00020  -0.00103   0.00127   0.00026   1.88310
   A12        1.87035  -0.00023  -0.00249  -0.00514  -0.00762   1.86274
   A13        1.93743   0.00023  -0.00023   0.00039   0.00009   1.93752
   A14        1.89690   0.00012  -0.00394  -0.00128  -0.00535   1.89155
   A15        1.89062   0.00045  -0.00308   0.00982   0.00665   1.89727
   A16        1.99375  -0.00077   0.01082  -0.01380  -0.00296   1.99079
   A17        1.87847  -0.00011  -0.00251   0.00275   0.00020   1.87867
   A18        1.86269   0.00015  -0.00135   0.00358   0.00213   1.86482
   A19        1.90504   0.00010  -0.00038  -0.00072  -0.00111   1.90393
   A20        1.91677  -0.00070   0.00031  -0.00628  -0.00598   1.91079
   A21        1.84740   0.00001  -0.00163  -0.00273  -0.00439   1.84301
   A22        1.91426   0.00027  -0.00138   0.00288   0.00149   1.91575
   A23        1.92083   0.00005   0.00062  -0.00037   0.00025   1.92109
   A24        1.91673   0.00062  -0.00045   0.00666   0.00620   1.92293
   A25        1.91466  -0.00019   0.00177  -0.00255  -0.00077   1.91389
   A26        1.91786  -0.00021   0.00125   0.00089   0.00211   1.91997
   A27        1.87923  -0.00056  -0.00180  -0.00768  -0.00948   1.86975
   A28        1.96450   0.00330   0.00421   0.01422   0.01843   1.98293
   A29        1.89277  -0.00015  -0.00407   0.00266  -0.00139   1.89137
   A30        1.94838   0.00034   0.00423   0.00355   0.00777   1.95616
   A31        1.94809   0.00029   0.00402   0.00381   0.00782   1.95591
   A32        1.89377   0.00036   0.00054   0.00269   0.00325   1.89702
   A33        1.89207   0.00058   0.00064   0.00494   0.00559   1.89766
   A34        1.88731  -0.00139  -0.00552  -0.01751  -0.02304   1.86427
   A35        2.13875   0.00298  -0.00061   0.01508   0.01411   2.15285
   A36        2.01500  -0.00374  -0.00171  -0.02275  -0.02483   1.99017
   A37        2.12943   0.00076   0.00231   0.00791   0.00986   2.13928
    D1        1.00739  -0.00029  -0.00390  -0.03407  -0.03798   0.96941
    D2       -3.11757  -0.00019  -0.00099  -0.02776  -0.02872   3.13689
    D3       -1.07443  -0.00040  -0.00347  -0.03436  -0.03782  -1.11225
    D4       -1.07222  -0.00008  -0.00184  -0.03025  -0.03212  -1.10434
    D5        1.08600   0.00002   0.00107  -0.02394  -0.02286   1.06314
    D6        3.12915  -0.00019  -0.00141  -0.03054  -0.03196   3.09719
    D7        3.11330   0.00000  -0.00212  -0.02859  -0.03072   3.08258
    D8       -1.01166   0.00010   0.00080  -0.02227  -0.02147  -1.03313
    D9        1.03148  -0.00011  -0.00169  -0.02887  -0.03056   1.00092
   D10       -1.00513  -0.00042   0.00247  -0.08324  -0.08079  -1.08592
   D11        3.07124   0.00033  -0.00838  -0.06489  -0.07321   2.99803
   D12        1.05373  -0.00015  -0.00273  -0.07367  -0.07642   0.97731
   D13        3.13174  -0.00087  -0.00068  -0.09153  -0.09225   3.03949
   D14        0.92493  -0.00013  -0.01153  -0.07319  -0.08467   0.84026
   D15       -1.09259  -0.00060  -0.00588  -0.08197  -0.08788  -1.18046
   D16        1.08808  -0.00059   0.00250  -0.08658  -0.08411   1.00397
   D17       -1.11873   0.00015  -0.00836  -0.06823  -0.07653  -1.19527
   D18       -3.13625  -0.00032  -0.00270  -0.07702  -0.07974   3.06720
   D19        3.08674  -0.00046  -0.00237  -0.04951  -0.05189   3.03485
   D20        0.97876  -0.00043  -0.00408  -0.04795  -0.05204   0.92672
   D21       -1.08711  -0.00015  -0.00198  -0.04238  -0.04435  -1.13146
   D22       -1.02760  -0.00019   0.00099  -0.04202  -0.04104  -1.06864
   D23       -3.13558  -0.00016  -0.00073  -0.04047  -0.04119   3.10641
   D24        1.08174   0.00011   0.00137  -0.03489  -0.03350   1.04823
   D25        1.02370  -0.00021  -0.00129  -0.04305  -0.04435   0.97935
   D26       -1.08428  -0.00018  -0.00301  -0.04150  -0.04451  -1.12879
   D27        3.13304   0.00010  -0.00091  -0.03592  -0.03682   3.09622
   D28       -1.12295  -0.00012  -0.00573  -0.02089  -0.02666  -1.14961
   D29       -3.14099   0.00020  -0.00373  -0.01369  -0.01747   3.12472
   D30        1.02922  -0.00037  -0.00327  -0.03271  -0.03591   0.99330
   D31       -0.98882  -0.00005  -0.00127  -0.02551  -0.02673  -1.01555
   D32        3.09401  -0.00073  -0.00021  -0.03468  -0.03490   3.05911
   D33        1.07598  -0.00041   0.00179  -0.02749  -0.02572   1.05026
   D34        3.12305   0.00027  -0.00020   0.00640   0.00621   3.12926
   D35       -1.04842   0.00038   0.00083   0.00616   0.00698  -1.04145
   D36        1.01439  -0.00054   0.00043  -0.00422  -0.00378   1.01061
   D37       -3.13182  -0.00013  -0.00034  -0.00431  -0.00465  -3.13647
   D38        1.06591  -0.00068  -0.00105  -0.01151  -0.01253   1.05338
   D39       -1.04864   0.00067   0.00038   0.00580   0.00615  -1.04249
   D40       -3.13278  -0.00015   0.00050  -0.02563  -0.02513   3.12527
   D41        0.00337   0.00018  -0.00057   0.02489   0.02432   0.02769
   D42       -1.01339   0.00039   0.00355  -0.01814  -0.01458  -1.02798
   D43        2.12276   0.00072   0.00248   0.03238   0.03486   2.15763
   D44        1.03238  -0.00076  -0.00237  -0.03476  -0.03713   0.99525
   D45       -2.11465  -0.00042  -0.00343   0.01577   0.01232  -2.10233
         Item               Value     Threshold  Converged?
 Maximum Force            0.006153     0.000450     NO 
 RMS     Force            0.001214     0.000300     NO 
 Maximum Displacement     0.321867     0.001800     NO 
 RMS     Displacement     0.062114     0.001200     NO 
 Predicted change in Energy=-5.606958D-04
 GradGradGradGradGradGradGradGradGradGradGradGradGradGradGradGradGradGrad

                          Input orientation:                          
 ---------------------------------------------------------------------
 Center     Atomic      Atomic             Coordinates (Angstroms)
 Number     Number       Type             X           Y           Z
 ---------------------------------------------------------------------
      1          6           0        0.884078   -0.036277   -0.047600
      2          6           0        2.414360   -0.104326    0.036877
      3          6           0        2.935784    0.245928    1.439409
      4          7           0        2.583677    1.625862    1.803186
      5          6           0        2.901680   -1.484178   -0.400311
      6          8           0        4.319452   -1.497039   -0.455565
      7          6           0        4.856773   -2.738711   -0.835942
      8          6           0        6.369368   -2.621260   -0.849082
      9          8           0        7.100084   -3.534265   -1.122253
     10          1           0        0.530459    0.945786    0.268171
     11          1           0        0.424754   -0.779435    0.615169
     12          1           0        0.529651   -0.229620   -1.065955
     13          1           0        2.839392    0.621032   -0.672639
     14          1           0        4.014650    0.035318    1.470803
     15          1           0        2.459161   -0.423152    2.170019
     16          1           0        3.076994    2.268048    1.188190
     17          1           0        2.924574    1.827011    2.737943
     18          1           0        2.489636   -1.734311   -1.391714
     19          1           0        2.544029   -2.255415    0.304582
     20          1           0        4.517410   -3.047608   -1.839208
     21          1           0        4.570116   -3.545177   -0.139706
     22          1           0        6.748639   -1.623082   -0.539474
 ---------------------------------------------------------------------
                    Distance matrix (angstroms):
                    1          2          3          4          5
     1  C    0.000000
     2  C    1.534121   0.000000
     3  C    2.549575   1.536769   0.000000
     4  N    3.012765   2.478320   1.469874   0.000000
     5  C    2.508294   1.527287   2.525668   3.824771   0.000000
     6  O    3.755270   2.410710   2.922909   4.226983   1.418907
     7  C    4.868976   3.696914   4.216099   5.584036   2.363475
     8  C    6.116609   4.770950   5.024684   6.277262   3.676848
     9  O    7.213149   5.921492   6.180078   7.455403   4.727648
    10  H    1.090507   2.169174   2.765355   2.652260   3.460388
    11  H    1.096597   2.179156   2.834786   3.443513   2.768216
    12  H    1.095466   2.187250   3.506061   3.986703   2.764691
    13  H    2.155454   1.100096   2.147264   2.684173   2.123665
    14  H    3.480108   2.153270   1.099679   2.165177   2.654927
    15  H    2.747433   2.157302   1.099377   2.085313   2.815705
    16  H    3.412620   2.718964   2.042552   1.016850   4.078391
    17  H    3.923610   3.359485   2.046006   1.015107   4.562142
    18  H    2.695881   2.168730   3.483626   4.637563   1.102373
    19  H    2.793571   2.171557   2.774531   4.160733   1.104352
    20  H    5.047680   4.074975   4.908997   6.232790   2.669330
    21  H    5.089965   4.064225   4.420082   5.870299   2.664454
    22  H    6.095323   4.628690   4.684767   5.778460   3.851981
                    6          7          8          9         10
     6  O    0.000000
     7  C    1.405400   0.000000
     8  C    2.370840   1.517205   0.000000
     9  O    3.510937   2.397358   1.200894   0.000000
    10  H    4.565924   5.788918   6.932888   8.072429   0.000000
    11  H    4.102450   5.058386   6.393339   7.427500   1.762943
    12  H    4.042464   5.007237   6.314211   7.354892   1.778052
    13  H    2.593053   3.922291   4.796281   5.968428   2.514312
    14  H    2.480306   3.704792   4.240751   5.383843   3.796691
    15  H    3.392287   4.488447   5.407066   6.485079   3.034948
    16  H    4.292029   5.686155   6.236628   7.429013   3.013247
    17  H    4.815962   6.111617   6.672366   7.815323   3.550791
    18  H    2.069033   2.630787   4.016646   4.956680   3.711673
    19  H    2.074870   2.623577   4.012232   4.942566   3.781994
    20  H    2.087563   1.103235   2.142865   2.724163   6.023622
    21  H    2.087455   1.103315   2.143395   2.714084   6.054251
    22  H    2.433902   2.216231   1.111784   2.028735   6.776219
                   11         12         13         14         15
    11  H    0.000000
    12  H    1.771857   0.000000
    13  H    3.074123   2.492630   0.000000
    14  H    3.779322   4.318628   2.513690   0.000000
    15  H    2.585208   3.772530   3.052147   1.765968   0.000000
    16  H    4.080426   4.220008   2.496358   2.438063   2.930574
    17  H    4.189132   4.943179   3.618524   2.450321   2.366935
[...]
 0.02742508,0.00779114,0.00270603,0.02264839,0.00970152,0.04950766,-0.0
 7443684,-0.02728096,-0.28162758,0.00087688,-0.00012673,-0.00085432,-0.
 00036426,-0.00013335,0.00098730,-0.00028830,0.00010455,-0.00003446,0.0
 0017196,-0.00040345,-0.00039298,0.00011975,0.00029057,0.00045899,-0.00
 003551,-0.00002983,-0.00005531,0.00001827,-0.00002500,-0.00001169,-0.0
 0003378,0.00003547,0.00002101,-0.00267977,0.00017260,-0.00953703,-0.00
 496775,-0.00280481,-0.01631151,0.08225411,0.03036848,0.30560379,-0.016
 68853,-0.02277545,0.02041263,-0.08487801,-0.06520455,0.06223401,0.0043
 0501,0.00647762,-0.00782152,0.00010969,0.00065879,0.00045141,0.0023266
 3,0.00806056,-0.00585119,0.00146794,-0.00042964,-0.00049504,0.00005840
 ,0.00037414,-0.00004647,-0.00005484,-0.00008791,0.00002864,0.00008692,
 -0.00002717,-0.00002191,0.00127363,0.00039562,0.00010002,-0.00660719,0
 .00069657,-0.00040558,0.00149056,-0.00013125,-0.00047578,0.09672249,0.
 00097938,0.00177518,-0.00169705,-0.06334193,-0.15184929,0.10137841,0.0
 0245559,0.00321223,-0.00521335,0.00056599,0.00156085,-0.00021726,-0.01
 280387,-0.02661353,0.02156454,-0.00070139,0.00315667,-0.00042017,0.000
 22615,0.00014362,-0.00020655,-0.00011542,-0.00003704,-0.00006063,0.000
 04217,0.00001393,0.00000139,-0.00047173,0.00053223,-0.00027848,0.00082
 961,0.00098874,-0.00032885,-0.00046974,0.00014746,-0.00016586,0.070704
 78,0.16951413,-0.00146021,-0.00174223,0.00121484,0.06315674,0.10255708
 ,-0.14899748,0.01253877,0.02061730,-0.02488089,0.00014942,0.00086250,0
 .00283957,-0.00304203,-0.00648754,0.00519977,-0.00065669,0.00038024,0.
 00021894,-0.00027678,-0.00013722,0.00013632,-0.00000530,0.00017866,0.0
 0002313,-0.00000378,-0.00006718,-0.00000980,0.00032378,0.00009672,-0.0
 0007364,-0.00090002,-0.00025053,0.00110865,0.00035027,-0.00038282,0.00
 081675,-0.06732233,-0.11104471,0.16530337,0.00072843,-0.00032250,-0.00
 285923,-0.01196754,-0.00000344,-0.00079196,-0.28145868,0.03993749,-0.0
 1558054,-0.00062930,0.00843092,0.00133023,-0.00225748,0.00072934,-0.00
 047264,0.00081941,0.00160751,0.00250889,0.00057498,-0.00035070,0.00011
 165,0.00014359,-0.00021724,-0.00009506,-0.00008776,0.00012854,0.000060
 83,0.00032525,0.00007717,0.00022068,0.00033866,-0.00001408,0.00006068,
 -0.00084205,0.00024142,-0.00006080,0.00058857,0.00023915,-0.00026800,0
 .30657941,-0.00041701,-0.00009790,-0.00217534,-0.00607012,0.00202346,0
 .00048661,0.04163960,-0.05794575,0.00638496,0.03589751,-0.02191489,-0.
 00256510,-0.00098712,0.00035109,0.00001432,0.00033976,-0.00094813,-0.0
 0116911,0.00019123,-0.00039463,-0.00004806,0.00013871,0.00013701,0.000
 02549,-0.00006974,-0.00003129,-0.00000339,-0.00023184,-0.00015337,-0.0
 0022608,0.00037782,0.00013443,0.00003455,-0.00070816,0.00024694,-0.000
 35519,0.00039011,0.00014168,-0.00018947,-0.05327408,0.07084223,-0.0000
 1686,-0.00148430,-0.00609752,-0.03217409,0.00333915,-0.00280588,-0.011
 70311,0.00452352,-0.05291487,0.00777127,-0.00510921,0.00284776,-0.0018
 1451,0.00064959,0.00101360,0.00059620,-0.00034396,-0.00083939,0.000772
 32,-0.00056847,0.00017075,0.00023180,-0.00021246,-0.00007077,-0.000176
 38,0.00018596,0.00004935,0.00020503,0.00015984,0.00008001,-0.00014541,
 -0.00026270,0.00011477,-0.00212310,0.00000364,-0.00013483,0.00062697,0
 .00066665,0.00107654,0.01615352,0.00032912,0.05509148,0.00112211,0.000
 98779,-0.00059123,0.00459603,0.00607752,-0.00807610,-0.11308844,-0.069
 69296,0.08388657,0.00482846,0.00435702,-0.00586263,-0.00040005,-0.0001
 5210,0.00050559,-0.00004243,0.00070854,0.00025896,0.00021205,-0.000248
 67,0.00014441,0.00001078,-0.00017975,-0.00004090,-0.00005608,0.0001206
 0,0.00001795,0.00000612,0.00007306,-0.00001053,0.00028941,-0.00030248,
 0.00011013,0.00010626,0.00005699,0.00014897,0.00015333,-0.00006998,-0.
 00250202,-0.01533567,-0.01757985,0.02151906,0.11607587,0.00022095,0.00
 024393,0.00008564,0.00327650,0.00382000,-0.00424645,-0.06466594,-0.122
 17232,0.08748533,-0.01508464,-0.02792489,0.02316428,0.00025350,0.00122
 026,-0.00022034,0.00013685,-0.00025076,0.00019969,-0.00001541,0.000024
 40,-0.00001459,-0.00001867,-0.00002581,-0.00000636,0.00000987,0.000010
 30,-0.00000015,-0.00017351,-0.00010883,0.00002187,0.00029710,0.0001055
 1,0.00021916,0.00022671,0.00007782,-0.00011943,-0.00055858,0.00020979,
 -0.00172896,0.00177807,0.00440898,-0.00320874,0.07383491,0.14571845,0.
 00165972,0.00048927,0.00157515,0.01462143,0.01757203,-0.02422475,0.082
 03532,0.09432127,-0.15857912,-0.00411264,-0.00644249,0.00634448,0.0003
 3696,0.00225627,0.00045260,-0.00017605,-0.00044554,0.00016794,-0.00004
 699,0.00012015,-0.00010097,-0.00002620,0.00003972,0.00000395,0.0000436
 7,-0.00004936,-0.00000291,-0.00022536,0.00006905,-0.00004066,-0.001100
 30,-0.00054442,0.00022870,0.00010966,-0.00037421,0.00046749,-0.0022896
 7,-0.00202590,-0.00528500,-0.00106650,-0.00123303,0.00179843,-0.089224
 91,-0.09994695,0.17445302,-0.00030502,-0.00003645,-0.00053968,-0.00023
 454,-0.00088498,0.00061123,0.00066188,0.01330383,-0.00516480,-0.162749
 01,-0.16177976,0.15130196,0.00038080,0.00013781,-0.00040274,-0.0001685
 2,-0.00014965,-0.00015850,-0.00007997,0.00002769,0.00000842,0.00001484
 ,0.00015914,0.00005419,0.00001675,-0.00008681,-0.00003523,-0.00017763,
 -0.00030828,0.00032747,0.00005785,0.00024743,0.00003094,-0.00000200,-0
 .00013248,-0.00009746,0.00023878,-0.00029248,-0.00056064,0.00192834,0.
 00029482,-0.00106288,0.00101595,0.00139819,-0.00004236,0.15906741,-0.0
 0001989,0.00000830,0.00005533,-0.00033021,0.00057123,0.00122444,-0.024
 85007,-0.02694745,0.02197960,-0.12334308,-0.17180720,0.10576667,0.0001
 5298,-0.00006649,-0.00019438,0.00008962,0.00017351,0.00005109,0.000074
 63,-0.00012897,-0.00001537,0.00004515,-0.00012453,-0.00003523,-0.00006
 063,0.00009377,0.00002791,-0.00002033,0.00001130,-0.00009922,0.0002097
 5,0.00003950,-0.00000653,0.00001825,0.00004346,0.00000322,-0.00003620,
 0.00025775,-0.00130963,0.00048486,0.00229553,0.00070072,0.00200365,-0.
 00665902,-0.00270738,0.14198057,0.19723209,-0.00021223,0.00017278,-0.0
 0039985,-0.00074807,-0.00100938,0.00261545,-0.00514973,-0.00445416,0.0
 0513131,0.11282519,0.10311222,-0.15922100,0.00038079,-0.00011606,-0.00
 021627,-0.00014418,0.00004779,-0.00014561,-0.00000970,-0.00006676,-0.0
 0000434,0.00005237,0.00003049,0.00001852,-0.00003552,0.00000338,-0.000
 00881,-0.00001249,-0.00007841,0.00015272,0.00013260,0.00010626,-0.0000
 4182,-0.00006037,-0.00002898,-0.00005513,0.00053902,0.00040958,-0.0006
 2396,0.00016093,-0.00064758,0.00012752,-0.00046824,-0.00217415,0.00092
 705,-0.13434092,-0.12049184,0.17431296,0.00024667,-0.00019707,-0.00024
 028,-0.00047427,-0.00035173,-0.00042641,-0.00364341,0.00808897,0.00997
 730,-0.03687168,-0.03230491,-0.11234734,-0.00006240,0.00022618,-0.0002
 8110,0.00023187,-0.00022161,-0.00014756,-0.00003513,0.00023217,0.00007
 317,-0.00011251,0.00008513,0.00003761,0.00010322,-0.00010166,-0.000037
 80,0.00078042,0.00011640,0.00015986,-0.00005617,-0.00033301,-0.0000531
 1,-0.00007876,-0.00010944,-0.00001365,-0.00006213,0.00014392,-0.000073
 57,0.00048019,-0.00007069,0.00093223,0.00033114,-0.00072793,-0.0003227
 0,0.00043663,0.00356101,0.02710656,0.03874678,0.00056337,0.00009737,0.
 00020093,0.00244082,-0.00743698,0.00069817,-0.00935212,-0.00855176,-0.
 03930690,-0.02082975,-0.06496112,-0.05020053,-0.00126873,0.00015384,-0
 .00223837,0.00016767,-0.00002417,0.00013620,0.00002595,0.00016567,-0.0
 0000042,-0.00009794,-0.00006249,-0.00000946,0.00006690,-0.00000744,0.0
 0000279,-0.00029030,0.00004088,0.00003283,-0.00005838,0.00001619,-0.00
 000638,-0.00006834,0.00005577,0.00000637,0.00031487,0.00025518,0.00005
 345,0.00057568,0.00074967,0.00010762,-0.00077248,0.00107671,0.00054251
 ,0.00609178,0.00448319,0.02499255,0.02224944,0.07464174,0.00026167,0.0
 0003756,0.00021386,0.00093196,-0.00242169,0.00096237,-0.00523684,0.001
 85333,-0.00622933,-0.06159005,-0.06096665,-0.39354083,-0.00084919,0.00
 014326,-0.00041873,0.00017161,0.00003135,0.00011177,0.00002842,0.00006
 977,0.00001900,-0.00005347,-0.00005911,-0.00001464,0.00003175,0.000012
 42,0.00000315,0.00002819,0.00001213,-0.00002934,-0.00004030,-0.0000311
 4,-0.00002585,0.00004526,0.00000319,0.00001164,0.00000130,0.00003458,0
 .00060392,0.00049058,0.00106569,0.00024722,-0.00012590,0.00018594,0.00
 095554,-0.00990922,-0.00486106,-0.02239464,0.07568496,0.06514040,0.419
 56239,0.00088781,0.00046786,0.00096363,0.00382884,0.00179273,0.0082949
 0,-0.00100503,0.00227949,-0.00020269,0.00030713,0.00031545,0.00086922,
 -0.07440034,-0.01921575,-0.07094001,-0.03895915,-0.00579494,-0.0301779
 4,0.00294573,-0.00667994,-0.00369447,0.00001961,-0.00019347,0.00049224
 ,-0.00028421,0.00025445,0.00000876,-0.00002408,-0.00016992,0.00007289,
 0.00001554,-0.00010383,0.00007147,0.00008401,0.00023178,-0.00014567,0.
 00007483,-0.00019088,-0.00043681,0.00012997,0.00011900,0.00022081,0.00
 001041,-0.00004820,-0.00019462,0.00000571,0.00005690,0.00000477,0.0000
 6878,0.00029177,0.00010445,0.09995416,-0.00140960,0.00106767,-0.000378
 47,-0.00945025,-0.00774290,-0.02968645,0.00280595,-0.00451666,0.001843
 86,-0.00012970,-0.00049768,-0.00220242,-0.01954732,-0.06482783,-0.0486
 0594,-0.00159046,0.00167529,-0.00200866,0.00081702,0.00119832,0.002444
 70,0.00005292,0.00014982,-0.00004419,-0.00014454,0.00003756,0.00005609
 ,-0.00026214,-0.00000858,0.00033086,0.00024677,-0.00001857,0.00011061,
 0.00075288,-0.00001596,0.00051689,-0.00064650,0.00121291,0.00059964,-0
 .00014326,0.00008129,0.00020041,0.00022179,0.00017006,-0.00030331,-0.0
 0005993,0.00007321,-0.00001480,-0.00016825,-0.00069108,-0.00016424,0.0
 2283058,0.06705490,-0.00053184,0.00053934,0.00007719,-0.00268785,-0.00
 105643,-0.00840934,0.00092914,-0.00162932,0.00160727,-0.00010696,-0.00
 026382,-0.00059471,-0.07384555,-0.05010414,-0.24578369,-0.00453161,-0.
 00005541,0.00898466,0.00139970,-0.00035251,0.00203497,-0.00000219,0.00
 045264,0.00030594,-0.00021695,-0.00001320,0.00005168,0.00018437,0.0000
 1408,0.00033487,0.00004029,-0.00001390,-0.00014042,0.00073420,-0.00028
 956,0.00052554,-0.00003622,-0.00029237,0.00086914,0.00004713,0.0001774
 2,0.00014599,0.00006755,0.00007166,0.00042747,-0.00007560,-0.00007466,
 -0.00007221,-0.00003676,-0.00025609,-0.00001776,0.08678351,0.05699470,
 0.26112115,0.00124263,-0.00002475,-0.00070129,0.00371250,0.00626588,-0
 .00643039,-0.00013396,-0.00051236,-0.00014865,0.00002542,0.00012349,-0
 .00011768,-0.06211273,-0.03729175,0.03627932,-0.03429569,-0.02214537,0
 .02730471,0.00310987,-0.00762537,-0.00031024,-0.00002458,-0.00003834,-
 0.00051294,-0.00025255,0.00023642,0.00015132,0.00009677,-0.00011639,0.
 00009904,-0.00010585,-0.00016043,0.00031860,0.00001427,0.00010380,0.00
 001990,-0.00046389,0.00236202,0.00091093,0.00005005,0.00006905,0.00026
 829,0.00013491,-0.00014920,-0.00001552,-0.00008671,-0.00002696,-0.0000
 1360,0.00000097,-0.00005795,0.00001981,0.00578979,0.00690687,-0.006878
 82,0.08280752,-0.00153168,0.00030791,0.00021867,-0.00801156,-0.0222502
 0,0.02076380,-0.00038066,0.00109708,0.00210567,0.00023959,0.00036394,-
 0.00038944,-0.03983438,-0.15979685,0.10664100,-0.00462467,0.00156395,-
 0.00029734,0.00126634,0.00209303,-0.00254280,0.00004402,0.00042505,0.0
 0001949,-0.00025632,0.00004485,-0.00001388,0.00022017,0.00032536,-0.00
 040678,0.00102616,0.00051623,-0.00034918,0.00004934,0.00004943,-0.0000
 8845,0.00198441,-0.00503189,-0.00191123,-0.00020168,-0.00001543,-0.000
 17676,0.00032885,0.00007478,-0.00122545,0.00015872,0.00035767,0.000204
 99,-0.00005495,0.00001207,-0.00009786,0.00159482,0.00507060,-0.0050888
 0,0.04935262,0.17416727,-0.00034467,0.00027483,-0.00009846,-0.00197630
 ,-0.00638684,0.00588311,-0.00046010,-0.00068871,0.00103856,-0.00018106
 ,0.00005462,0.00018303,0.03890898,0.10705884,-0.15949192,0.00783240,-0
 .00097335,0.00421388,-0.00107617,0.00137204,0.00106318,0.00005608,-0.0
 0043083,0.00013657,0.00014845,-0.00000304,-0.00000253,-0.00021989,-0.0
 0003566,0.00014613,-0.00038669,0.00019226,0.00019690,0.00015475,-0.000
 05577,0.00009566,0.00030198,-0.00208575,0.00056234,-0.00005929,0.00007
 768,-0.00000955,0.00021613,0.00025920,0.00042710,0.00007692,-0.0000247
 9,-0.00009844,0.00002863,0.00008518,-0.00002457,0.00613380,0.02063283,
 -0.02054320,-0.04954095,-0.11865223,0.16723737,-0.00001514,0.00000525,
 -0.00001576,0.00000394,0.00004945,-0.00008600,0.00002920,0.00003588,0.
 00009396,-0.00006763,0.00000183,-0.00000541,0.00487694,0.00061756,0.00
 331463,0.00340952,0.00952506,0.01509761,-0.07887577,-0.02151641,-0.080
 62635,-0.01158113,-0.00844577,-0.02989791,0.00168818,0.00052356,0.0037
 2783,0.00000321,0.00000077,-0.00001475,-0.00000281,0.00000325,0.000005
 91,-0.00003117,0.00001211,-0.00001805,0.00000867,-0.00004621,0.0000031
 1,-0.00009492,-0.00002437,-0.00011562,-0.00001352,0.00000343,0.0000289
 5,0.00000345,-0.00000950,-0.00000061,-0.00001939,-0.00000241,-0.000005
 36,0.00057930,-0.00094161,-0.00152391,-0.00032691,-0.00002261,-0.00015
 680,0.07895037,-0.00002532,-0.00014706,-0.00005016,0.00013570,0.000161
 93,0.00017058,-0.00033631,0.00013239,-0.00001772,0.00021331,-0.0001836
 0,-0.00005792,-0.00622993,0.00061763,-0.00038421,-0.00137465,-0.024567
 03,-0.03460134,-0.01864159,-0.06103977,-0.05474071,-0.00514333,-0.0010
 5567,-0.00413101,0.00129401,0.00001108,0.00031898,0.00006032,-0.000025
 73,0.00000594,-0.00000290,0.00001229,0.00000719,0.00003278,0.00000991,
 0.00002089,-0.00005211,0.00000528,-0.00002552,0.00024355,0.00009724,0.
 00030336,0.00010659,-0.00001606,-0.00003710,-0.00003391,0.00003551,-0.
 00000816,-0.00002581,-0.00000392,0.00000563,0.00119584,0.00054146,0.00
 116742,0.00080719,-0.00003502,0.00015640,0.02156532,0.07916915,0.00000
 016,-0.00015287,-0.00008186,0.00043667,0.00012488,0.00028588,-0.000298
 50,0.00030144,-0.00002121,0.00014702,-0.00015015,0.00003959,-0.0028327
 9,0.00055900,0.00136895,0.00400723,-0.01459695,-0.00415395,-0.07384072
 ,-0.05551748,-0.23626177,0.00084594,0.00070187,0.00129289,-0.00015647,
 0.00030137,0.00106306,0.00005638,-0.00001156,0.00000327,0.00000167,0.0
 0000556,-0.00000749,0.00002099,-0.00000667,0.00002880,-0.00003362,0.00
 005782,-0.00000579,0.00015482,0.00005199,0.00012818,0.00003608,-0.0000
 2312,0.00000298,-0.00002950,0.00001462,-0.00001046,-0.00003101,0.00002
 235,0.00000872,0.00159161,-0.00034679,-0.00012874,0.00015180,0.0002520
 6,-0.00058166,0.07931176,0.07188911,0.25941130,-0.00000802,-0.00000180
 ,0.00004885,-0.00012163,0.00022357,0.00007485,0.00005914,-0.00004924,-
 0.00000143,-0.00003661,0.00001963,-0.00001268,0.00477297,0.00225075,-0
 .00299375,0.00134168,0.01603837,-0.00779912,-0.06387164,-0.04292483,0.
 04712260,-0.00843317,-0.02225105,0.02323067,0.00132632,0.00220389,-0.0
 0307724,-0.00000743,-0.00000680,0.00001165,-0.00004693,-0.00000321,0.0
 0001474,0.00000441,-0.00000286,-0.00000205,-0.00012507,-0.00012542,0.0
 0008373,-0.00003600,-0.00002703,-0.00004008,0.00000138,0.00000570,0.00
 002118,0.00000451,-0.00000348,-0.00000118,0.00000385,-0.00000755,-0.00
 000162,-0.00031059,-0.00014613,0.00010277,0.00054138,-0.00148724,0.000
 75518,0.00446020,0.00657854,-0.00970234,0.06384823,0.00001562,-0.00016
 157,-0.00020231,0.00036599,0.00031296,-0.00026840,-0.00004393,0.000060
 06,0.00018234,0.00005045,-0.00008408,-0.00013198,-0.00683440,0.0006134
 3,0.00089280,0.00374449,-0.04013102,0.01379417,-0.03723052,-0.15184905
 ,0.10992021,-0.00394901,-0.00275081,0.00348714,0.00098686,0.00063063,-
 0.00082767,0.00009710,-0.00002601,-0.00000334,0.00005530,0.00000632,-0
 .00000333,-0.00002671,0.00000942,0.00000449,-0.00011346,0.00037403,-0.
 00005295,0.00001641,0.00002034,0.00018733,0.00009524,-0.00000830,-0.00
 006899,-0.00000585,0.00004093,0.00002211,-0.00002522,-0.00003075,-0.00
 000856,0.00078633,0.00003978,0.00008401,0.00176571,0.00077668,-0.00083
 342,0.00053171,0.00683703,-0.00405008,0.04008596,0.18544773,-0.0000136
 1,0.00009230,-0.00003645,-0.00023286,-0.00032104,0.00020957,0.00009591
 ,0.00001118,-0.00000142,-0.00004817,0.00002723,0.00000151,-0.00097554,
 -0.00106532,0.00140613,-0.00274973,-0.00755796,0.01326155,0.04254403,0
 .11134405,-0.16037338,-0.00192756,0.00000124,-0.00015369,0.00069273,-0
 .00084363,0.00082278,-0.00001586,-0.00000069,0.00000072,0.00000831,0.0
 0000221,0.00001486,0.00000012,0.00000354,0.00000062,0.00010741,-0.0001
 0495,-0.00009063,-0.00004828,-0.00002066,-0.00001516,-0.00001604,-0.00
 000645,0.00001008,0.00000776,-0.00000559,0.00000255,0.00000801,-0.0000
 0048,-0.00000488,0.00024070,0.00009828,-0.00063706,-0.00094645,0.00093
 639,-0.00024729,0.00807961,0.01927697,-0.02136972,-0.04471387,-0.12182
 374,0.16825510,0.00001508,0.00002553,0.00002120,0.00001353,0.00002198,
 0.00001159,-0.00020997,0.00010278,-0.00004283,0.00008665,-0.00003352,0
 .00004168,-0.00003035,0.00054852,0.00017332,0.00358685,-0.00038123,-0.
 00037275,-0.00973088,-0.02649745,-0.00481457,-0.09782176,-0.07629486,-
 0.01743702,0.01818056,0.02995303,0.00792226,-0.00001554,0.00000266,-0.
 00000267,0.00001097,-0.00000257,-0.00000933,0.00001361,-0.00000665,0.0
 0000984,-0.00002577,0.00008027,-0.00000857,0.00002257,0.00000240,0.000
 07454,0.00004198,0.00000030,-0.00001306,-0.00002951,0.00002297,-0.0000
 0539,-0.00001465,0.00001769,0.00001198,0.00028177,0.00000491,0.0001855
 9,0.00027680,0.00014072,-0.00021137,-0.00298458,-0.00036727,0.00016282
 ,-0.00336698,-0.00036807,-0.00009662,0.09169963,0.00000144,0.00010515,
 0.00005997,-0.00018031,-0.00017384,0.00002463,-0.00018911,0.00004082,-
 0.00007925,0.00007672,0.00000675,0.00006190,0.00039622,0.00063716,0.00
 014899,-0.00047090,0.00294331,0.00092231,0.00066150,-0.00555491,-0.007
 40724,-0.08324110,-0.21457111,-0.03440250,0.01181527,-0.04021765,-0.01
 657401,-0.00005321,0.00001182,-0.00000451,0.00001031,-0.00000222,-0.00
 001153,0.00001806,-0.00001046,0.00000953,0.00000536,0.00003011,-0.0000
 1560,0.00003687,-0.00002849,0.00000969,0.00002572,0.00000500,-0.000006
 14,-0.00002942,0.00001669,-0.00001187,-0.00001093,0.00002143,0.0000150
 5,0.00017991,-0.00005361,-0.00001108,0.00015583,-0.00011649,0.00000649
 ,-0.00186630,-0.00055703,0.00057360,-0.00036978,-0.00012775,-0.0000428
 9,0.07302785,0.25759532,0.00000230,0.00002379,0.00001111,-0.00006406,-
 0.00000741,-0.00009094,0.00001037,-0.00004138,-0.00001334,-0.00000971,
 0.00002326,-0.00000575,0.00009612,0.00011504,0.00003269,-0.00038823,0.
 00093065,-0.00024266,0.00222671,-0.00574104,0.02138027,-0.01923349,-0.
 03477302,-0.06918872,0.00324602,-0.01773838,0.01634358,-0.00001154,0.0
 0000202,0.00000068,0.00000620,-0.00000006,-0.00000395,-0.00000367,-0.0
 0000034,-0.00000275,-0.00000405,0.00002890,-0.00000610,0.00000237,-0.0
 0001482,-0.00000363,0.00000710,0.00000289,-0.00000857,0.00000065,0.000
 00209,0.00000445,0.00000298,-0.00000271,0.00000100,-0.00006054,-0.0000
 7360,-0.00015874,0.00009280,0.00009813,-0.00008621,0.00280317,0.000731
 37,-0.00101096,-0.00312087,-0.00029981,-0.00105579,0.01439937,0.056734
 44,0.03410433\\-0.00000830,0.00000406,0.00000488,0.00000177,-0.0000007
 2,-0.00000385,0.00000316,0.00001786,0.00001311,0.00000573,0.00000105,-
 0.00000223,-0.00002293,0.00000132,0.00000140,0.00000638,0.00003362,0.0
 0000629,0.00002250,-0.00004191,-0.00001999,-0.00000065,0.00000466,0.00
 000147,-0.00001629,0.00001150,0.00000031,0.00000297,-0.00000225,-0.000
 00111,0.00000085,-0.00000047,-0.00000224,-0.00000071,-0.00000265,-0.00
 000172,0.00000261,-0.00000428,-0.00000116,0.00000232,-0.00000858,-0.00
 000974,-0.00000208,-0.00000223,-0.00000016,-0.00000489,-0.00000141,0.0
 0000123,-0.00000348,-0.00000278,-0.00000872,-0.00000091,0.00000049,0.0
 0000074,0.00000315,-0.00000174,0.00000076,0.00000055,-0.00000251,0.000
 00969,-0.00000013,0.00000525,0.00000572,0.00000838,-0.00000825,0.00000
 534\\\@


 NO HUMAN INVESTIGATION CAN BECOME REAL SCIENCE
 WITHOUT GOING THROUGH MATHEMATICAL PEOPLE.
 -- LEONARDO DA VINCI, IN "PENSIERI" CA. 1492
 Job cpu time:       0 days  1 hours 49 minutes 34.7 seconds.
 Elapsed time:       0 days  0 hours 27 minutes 24.4 seconds.
 File lengths (MBytes):  RWF=    171 Int=      0 D2E=      0 Chk=      9 Scr=      1
 Normal termination of Gaussian 16 at Sun Jul  3 18:44:00 2022.
### All Done ###
