### Starting Gaussian ###
 Entering Gaussian System, Link 0=g16
 Initial command:
 /cluster/software/gaussian/gaussian-16-A.03/avx2/g16/l1.exe "/local/scratch/yxie/Gau-32623.inp" -scrdir="/local/scratch/yxie/"
 Entering Link 1 = /cluster/software/gaussian/gaussian-16-A.03/avx2/g16/l1.exe PID=     32633.
  
 Copyright (c) 1988,1990,1992,1993,1995,1998,2003,2009,2016,
            Gaussian, Inc.  All Rights Reserved.
  
 This is part of the Gaussian(R) 16 program.  It is based on
 the Gaussian(R) 09 system (copyright 2009, Gaussian, Inc.),
 the Gaussian(R) 03 system (copyright 2003, Gaussian, Inc.),
 the Gaussian(R) 98 system (copyright 1998, Gaussian, Inc.),
 the Gaussian(R) 94 system (copyright 1995, Gaussian, Inc.),
 the Gaussian 92(TM) system (copyright 1992, Gaussian, Inc.),
 the Gaussian 90(TM) system (copyright 1990, Gaussian, Inc.),
 the Gaussian 88(TM) system (copyright 1988, Gaussian, Inc.),
 the Gaussian 86(TM) system (copyright 1986, Carnegie Mellon
 University), and the Gaussian 82(TM) system (copyright 1983,
 Carnegie Mellon University). Gaussian is a federally registered
 trademark of Gaussian, Inc.
  
 This software contains proprietary and confidential information,
 including trade secrets, belonging to Gaussian, Inc.
  
 This software is provided under written license and may be
 used, copied, transmitted, or stored only in accord with that
 written license.
  
 The following legend is applicable only to US Government
 contracts under FAR:
  
                    RESTRICTED RIGHTS LEGEND
  
 Use, reproduction and disclosure by the US Government is
 subject to restrictions as set forth in subparagraphs (a)
 and (c) of the Commercial Computer Software - Restricted
 Rights clause in FAR 52.227-19.
  
 Gaussian, Inc.
 340 Quinnipiac St., Bldg. 40, Wallingford CT 06492
  
  
 ---------------------------------------------------------------
 Warning -- This program may not be used in any manner that
 competes with the business of Gaussian, Inc. or will provide
 assistance to any competitor of Gaussian, Inc.  The licensee
 of this program is prohibited from giving any competitor of
 Gaussian, Inc. access to this program.  By using this program,
 the user acknowledges that Gaussian, Inc. is engaged in the
 business of creating and licensing software in the field of
 computational chemistry and represents and warrants to the
 licensee that it is not a competitor of Gaussian, Inc. and that
 it will not use this program in any manner prohibited above.
 ---------------------------------------------------------------
  

 Cite this work as:
 Gaussian 16, Revision A.03,
 M. J. Frisch, G. W. Trucks, H. B. Schlegel, G. E. Scuseria, 
 M. A. Robb, J. R. Cheeseman, G. Scalmani, V. Barone, 
 G. A. Petersson, H. Nakatsuji, X. Li, M. Caricato, A. V. Marenich, 
 J. Bloino, B. G. Janesko, R. Gomperts, B. Mennucci, H. P. Hratchian, 
 J. V. Ortiz, A. F. Izmaylov, J. L. Sonnenberg, D. Williams-Young, 
 F. Ding, F. Lipparini, F. Egidi, J. Goings, B. Peng, A. Petrone, 
 T. Henderson, D. Ranasinghe, V. G. Zakrzewski, J. Gao, N. Rega, 
 G. Zheng, W. Liang, M. Hada, M. Ehara, K. Toyota, R. Fukuda, 
 J. Hasegawa, M. Ishida, T. Nakajima, Y. Honda, O. Kitao, H. Nakai, 
 T. Vreven, K. Throssell, J. A. Montgomery, Jr., J. E. Peralta, 
 F. Ogliaro, M. J. Bearpark, J. J. Heyd, E. N. Brothers, K. N. Kudin, 
 V. N. Staroverov, T. A. Keith, R. Kobayashi, J. Normand, 
 K. Raghavachari, A. P. Rendell, J. C. Burant, S. S. Iyengar, 
 J. Tomasi, M. Cossi, J. M. Millam, M. Klene, C. Adamo, R. Cammi, 
 J. W. Ochterski, R. L. Martin, K. Morokuma, O. Farkas, 
 J. B. Foresman, and D. J. Fox, Gaussian, Inc., Wallingford CT, 2016.
 
 ******************************************
 Gaussian 16:  ES64L-G16RevA.03 25-Dec-2016
                 3-Aug-2022 
 ******************************************
 %chk=CCpCpOCpCpNCdN.chk
 %NProcShared=20
 Will use up to   20 processors via shared memory.
 -----------------------------
 # opt freq b3lyp/6-31g(2df,p)
 -----------------------------
 1/18=20,19=15,26=3,38=1/1,3;
 2/9=110,12=2,17=6,18=5,40=1/2;
 3/5=1,6=6,7=104,11=2,25=1,30=1,71=1,74=-5/1,2,3;
 4//1;
 5/5=2,38=5/2;
 6/7=2,8=2,9=2,10=2,28=1/1;
 7//1,2,3,16;
 1/18=20,19=15,26=3/3(2);
 2/9=110/2;
 99//99;
 2/9=110/2;
 3/5=1,6=6,7=104,11=2,25=1,30=1,71=1,74=-5/1,2,3;
 4/5=5,16=3,69=1/1;
 5/5=2,38=5/2;
 7//1,2,3,16;
 1/18=20,19=15,26=3/3(-5);
 2/9=110/2;
 6/7=2,8=2,9=2,10=2,19=2,28=1/1;
 99/9=1/99;
 -------------------
 Title Card Required
 -------------------
 Symbolic Z-matrix:
 Charge =  0 Multiplicity = 1
 C                     1.04257  -0.05702   0.08312 
 C                     2.56906   0.07939   0.08121 
 C                     2.82981   1.55519   0.38692 
 O                     3.1464   -0.82103   1.05545 
 C                     4.58067  -0.93884   1.01307 
 C                     5.2558    0.31921   1.55797 
 N                     5.00604  -2.05732   1.83552 
 C                     6.31978  -2.32      2.09524 
 N                     6.81142  -3.13734   2.94363 
 H                     0.59694   0.66292  -0.61717 
 H                     0.63599   0.15335   1.07906 
 H                     0.71363  -1.0569   -0.20674 
 H                     2.93949  -0.1835   -0.91712 
 H                     2.69924   1.75356   1.45641 
 H                     2.17796   2.21935  -0.18605 
 H                     3.8249    1.86741   0.08702 
 H                     4.88763  -1.14781  -0.01828 
 H                     4.72975   0.68377   2.44619 
 H                     5.28791   1.10021   0.8074 
 H                     6.3091    0.19289   1.80725 
 H                     4.28228  -2.48543   2.3955 
 H                     7.02155  -1.71832   1.48786 
 H                     6.06573  -3.63327   3.43438 
 

 GradGradGradGradGradGradGradGradGradGradGradGradGradGradGradGradGradGrad
 Berny optimization.
 Initialization pass.
                           ----------------------------
                           !    Initial Parameters    !
                           ! (Angstroms and Degrees)  !
 --------------------------                            --------------------------
 ! Name  Definition              Value          Derivative Info.                !
 --------------------------------------------------------------------------------
 ! R1    R(1,2)                  1.5326         estimate D2E/DX2                !
 ! R2    R(1,10)                 1.0988         estimate D2E/DX2                !
 ! R3    R(1,11)                 1.0961         estimate D2E/DX2                !
 ! R4    R(1,12)                 1.0918         estimate D2E/DX2                !
 ! R5    R(2,3)                  1.5295         estimate D2E/DX2                !
 ! R6    R(2,4)                  1.4468         estimate D2E/DX2                !
 ! R7    R(2,13)                 1.0968         estimate D2E/DX2                !
 ! R8    R(3,14)                 1.0955         estimate D2E/DX2                !
 ! R9    R(3,15)                 1.0928         estimate D2E/DX2                !
 ! R10   R(3,16)                 1.0852         estimate D2E/DX2                !
 ! R11   R(4,5)                  1.4397         estimate D2E/DX2                !
 ! R12   R(5,6)                  1.5282         estimate D2E/DX2                !
 ! R13   R(5,7)                  1.452          estimate D2E/DX2                !
 ! R14   R(5,17)                 1.0962         estimate D2E/DX2                !
 ! R15   R(6,18)                 1.0948         estimate D2E/DX2                !
 ! R16   R(6,19)                 1.0837         estimate D2E/DX2                !
 ! R17   R(6,20)                 1.0897         estimate D2E/DX2                !
 ! R18   R(7,8)                  1.3647         estimate D2E/DX2                !
 ! R19   R(7,21)                 1.0103         estimate D2E/DX2                !
 ! R20   R(8,9)                  1.2765         estimate D2E/DX2                !
 ! R21   R(8,22)                 1.1061         estimate D2E/DX2                !
 ! R22   R(9,23)                 1.0212         estimate D2E/DX2                !
 ! A1    A(2,1,10)             110.1724         estimate D2E/DX2                !
 ! A2    A(2,1,11)             110.702          estimate D2E/DX2                !
 ! A3    A(2,1,12)             112.4128         estimate D2E/DX2                !
 ! A4    A(10,1,11)            107.632          estimate D2E/DX2                !
 ! A5    A(10,1,12)            107.9789         estimate D2E/DX2                !
 ! A6    A(11,1,12)            107.7728         estimate D2E/DX2                !
 ! A7    A(1,2,3)              104.7993         estimate D2E/DX2                !
 ! A8    A(1,2,4)              109.9518         estimate D2E/DX2                !
 ! A9    A(1,2,13)             108.4329         estimate D2E/DX2                !
 ! A10   A(3,2,4)              113.4455         estimate D2E/DX2                !
 ! A11   A(3,2,13)             110.8313         estimate D2E/DX2                !
 ! A12   A(4,2,13)             109.2066         estimate D2E/DX2                !
 ! A13   A(2,3,14)             110.4575         estimate D2E/DX2                !
 ! A14   A(2,3,15)             112.3282         estimate D2E/DX2                !
 ! A15   A(2,3,16)             112.2528         estimate D2E/DX2                !
 ! A16   A(14,3,15)            109.3108         estimate D2E/DX2                !
 ! A17   A(14,3,16)            109.0855         estimate D2E/DX2                !
 ! A18   A(15,3,16)            103.1326         estimate D2E/DX2                !
 ! A19   A(2,4,5)              115.3813         estimate D2E/DX2                !
 ! A20   A(4,5,6)              111.2383         estimate D2E/DX2                !
 ! A21   A(4,5,7)              109.7672         estimate D2E/DX2                !
 ! A22   A(4,5,17)             108.8            estimate D2E/DX2                !
 ! A23   A(6,5,7)              107.6221         estimate D2E/DX2                !
 ! A24   A(6,5,17)             111.6357         estimate D2E/DX2                !
 ! A25   A(7,5,17)             107.7007         estimate D2E/DX2                !
 ! A26   A(5,6,18)             110.5568         estimate D2E/DX2                !
 ! A27   A(5,6,19)             111.0647         estimate D2E/DX2                !
 ! A28   A(5,6,20)             114.4026         estimate D2E/DX2                !
 ! A29   A(18,6,19)            109.6443         estimate D2E/DX2                !
 ! A30   A(18,6,20)            108.5085         estimate D2E/DX2                !
 ! A31   A(19,6,20)            102.3181         estimate D2E/DX2                !
 ! A32   A(5,7,8)              122.5531         estimate D2E/DX2                !
 ! A33   A(5,7,21)             115.4991         estimate D2E/DX2                !
 ! A34   A(8,7,21)             120.1717         estimate D2E/DX2                !
 ! A35   A(7,8,9)              128.3519         estimate D2E/DX2                !
 ! A36   A(7,8,22)             113.6762         estimate D2E/DX2                !
 ! A37   A(9,8,22)             117.9627         estimate D2E/DX2                !
 ! A38   A(8,9,23)             110.4323         estimate D2E/DX2                !
 ! D1    D(10,1,2,3)            54.7504         estimate D2E/DX2                !
 ! D2    D(10,1,2,4)           177.0072         estimate D2E/DX2                !
 ! D3    D(10,1,2,13)          -63.6589         estimate D2E/DX2                !
 ! D4    D(11,1,2,3)           -64.1839         estimate D2E/DX2                !
 ! D5    D(11,1,2,4)            58.0728         estimate D2E/DX2                !
 ! D6    D(11,1,2,13)          177.4068         estimate D2E/DX2                !
 ! D7    D(12,1,2,3)           175.2297         estimate D2E/DX2                !
 ! D8    D(12,1,2,4)           -62.5135         estimate D2E/DX2                !
 ! D9    D(12,1,2,13)           56.8204         estimate D2E/DX2                !
 ! D10   D(1,2,3,14)            77.6926         estimate D2E/DX2                !
 ! D11   D(1,2,3,15)           -44.6358         estimate D2E/DX2                !
 ! D12   D(1,2,3,16)          -160.3215         estimate D2E/DX2                !
 ! D13   D(4,2,3,14)           -42.2595         estimate D2E/DX2                !
 ! D14   D(4,2,3,15)          -164.5879         estimate D2E/DX2                !
 ! D15   D(4,2,3,16)            79.7263         estimate D2E/DX2                !
 ! D16   D(13,2,3,14)         -165.5354         estimate D2E/DX2                !
 ! D17   D(13,2,3,15)           72.1362         estimate D2E/DX2                !
 ! D18   D(13,2,3,16)          -43.5495         estimate D2E/DX2                !
 ! D19   D(1,2,4,5)            170.9795         estimate D2E/DX2                !
 ! D20   D(3,2,4,5)            -72.0435         estimate D2E/DX2                !
 ! D21   D(13,2,4,5)            52.1194         estimate D2E/DX2                !
 ! D22   D(2,4,5,6)             72.6434         estimate D2E/DX2                !
 ! D23   D(2,4,5,7)           -168.3569         estimate D2E/DX2                !
 ! D24   D(2,4,5,17)           -50.7352         estimate D2E/DX2                !
 ! D25   D(4,5,6,18)            41.1645         estimate D2E/DX2                !
 ! D26   D(4,5,6,19)           -80.7865         estimate D2E/DX2                !
 ! D27   D(4,5,6,20)           164.0135         estimate D2E/DX2                !
 ! D28   D(7,5,6,18)           -79.111          estimate D2E/DX2                !
 ! D29   D(7,5,6,19)           158.938          estimate D2E/DX2                !
 ! D30   D(7,5,6,20)            43.738          estimate D2E/DX2                !
 ! D31   D(17,5,6,18)          162.9075         estimate D2E/DX2                !
 ! D32   D(17,5,6,19)           40.9565         estimate D2E/DX2                !
 ! D33   D(17,5,6,20)          -74.2436         estimate D2E/DX2                !
 ! D34   D(4,5,7,8)           -172.9284         estimate D2E/DX2                !
 ! D35   D(4,5,7,21)            -8.1107         estimate D2E/DX2                !
 ! D36   D(6,5,7,8)            -51.7277         estimate D2E/DX2                !
 ! D37   D(6,5,7,21)           113.09           estimate D2E/DX2                !
 ! D38   D(17,5,7,8)            68.7671         estimate D2E/DX2                !
 ! D39   D(17,5,7,21)         -126.4152         estimate D2E/DX2                !
 ! D40   D(5,7,8,9)            168.8829         estimate D2E/DX2                !
 ! D41   D(5,7,8,22)            -9.9803         estimate D2E/DX2                !
 ! D42   D(21,7,8,9)             4.7509         estimate D2E/DX2                !
 ! D43   D(21,7,8,22)         -174.1122         estimate D2E/DX2                !
 ! D44   D(7,8,9,23)             1.4785         estimate D2E/DX2                !
 ! D45   D(22,8,9,23)         -179.7003         estimate D2E/DX2                !
 --------------------------------------------------------------------------------
 Trust Radius=3.00D-01 FncErr=1.00D-07 GrdErr=1.00D-06 EigMax=2.50D+02 EigMin=1.00D-04
 Number of steps in this run=    115 maximum allowed number of steps=    138.
 GradGradGradGradGradGradGradGradGradGradGradGradGradGradGradGradGradGrad

                          Input orientation:                          
 ---------------------------------------------------------------------
 Center     Atomic      Atomic             Coordinates (Angstroms)
 Number     Number       Type             X           Y           Z
 ---------------------------------------------------------------------
      1          6           0        1.042570   -0.057020    0.083120
      2          6           0        2.569060    0.079390    0.081210
      3          6           0        2.829810    1.555190    0.386920
      4          8           0        3.146400   -0.821030    1.055450
      5          6           0        4.580670   -0.938840    1.013070
      6          6           0        5.255800    0.319210    1.557970
      7          7           0        5.006040   -2.057320    1.835520
      8          6           0        6.319780   -2.320000    2.095240
      9          7           0        6.811420   -3.137340    2.943630
     10          1           0        0.596940    0.662920   -0.617170
     11          1           0        0.635990    0.153350    1.079060
     12          1           0        0.713630   -1.056900   -0.206740
     13          1           0        2.939490   -0.183500   -0.917120
     14          1           0        2.699240    1.753560    1.456410
     15          1           0        2.177960    2.219350   -0.186050
     16          1           0        3.824900    1.867410    0.087020
     17          1           0        4.887630   -1.147810   -0.018280
     18          1           0        4.729750    0.683770    2.446190
     19          1           0        5.287910    1.100210    0.807400
     20          1           0        6.309100    0.192890    1.807250
     21          1           0        4.282280   -2.485430    2.395500
     22          1           0        7.021550   -1.718320    1.487860
     23          1           0        6.065730   -3.633270    3.434380
 ---------------------------------------------------------------------
                    Distance matrix (angstroms):
                    1          2          3          4          5
     1  C    0.000000
     2  C    1.532574   0.000000
     3  C    2.426055   1.529521   0.000000
     4  O    2.440336   1.446797   2.488691   0.000000
     5  C    3.763053   2.439617   3.110910   1.439724   0.000000
     6  C    4.479736   3.075208   2.963854   2.449947   1.528204
     7  N    4.772966   3.685377   4.459221   2.365414   1.452020
     8  C    6.084295   4.886849   5.487745   3.660385   2.470465
     9  N    7.137963   6.044702   6.664069   4.728941   3.679227
    10  H    1.098775   2.171980   2.605773   3.391093   4.592758
    11  H    1.096111   2.176680   2.693893   2.692978   4.093621
    12  H    1.091779   2.194696   3.413746   2.750841   4.056584
    13  H    2.148205   1.096810   2.176142   2.083336   2.643793
    14  H    2.812238   2.170476   1.095540   2.643716   3.314415
    15  H    2.558012   2.191761   1.092846   3.423903   4.145488
    16  H    3.383017   2.184990   1.085185   2.936993   3.050212
    17  H    3.998073   2.625202   3.421260   2.071609   1.096164
    18  H    4.441640   3.259906   2.934235   2.589513   2.170005
    19  H    4.459448   2.993588   2.534969   2.887691   2.167998
    20  H    5.547199   4.120679   3.997331   3.405277   2.213370
    21  H    4.662617   3.856081   4.740324   2.419956   2.095731
    22  H    6.362501   5.003508   5.431263   4.001112   2.605937
    23  H    7.018023   6.103630   6.832153   4.700052   3.915112
                    6          7          8          9         10
     6  C    0.000000
     7  N    2.405683   0.000000
     8  C    2.895884   1.364686   0.000000
     9  N    4.035808   2.377761   1.276527   0.000000
    10  H    5.153091   5.731977   7.000420   8.108085   0.000000
    11  H    4.647527   4.955465   6.281365   7.241629   1.771548
    12  H    5.063515   4.857618   6.190594   7.171897   1.771962
    13  H    3.426964   3.919038   5.006526   6.214693   2.508772
    14  H    2.933202   4.470778   5.487286   6.560697   3.147840
    15  H    4.015624   5.511324   6.554743   7.743254   2.260080
    16  H    2.570621   4.455990   5.271791   6.490535   3.516590
    17  H    2.184551   2.068285   2.809279   4.053654   4.695469
    18  H    1.094791   2.821848   3.416723   4.379689   5.144388
    19  H    1.083673   3.332638   3.797516   4.984114   4.921973
    20  H    1.089742   2.600425   2.529361   3.554450   6.223143
    21  H    3.084672   1.010289   2.066139   2.668704   5.707015
    22  H    2.697094   2.073178   1.106079   2.043780   7.167780
    23  H    4.449607   2.482522   1.892753   1.021193   8.048600
                   11         12         13         14         15
    11  H    0.000000
    12  H    1.767488   0.000000
    13  H    3.066646   2.494378   0.000000
    14  H    2.638194   3.821963   3.073039   0.000000
    15  H    2.871677   3.588663   2.624515   1.785040   0.000000
    16  H    3.753837   4.279940   2.449179   1.776317   1.706119
    17  H    4.579696   4.179241   2.352245   3.921952   4.325301
    18  H    4.348478   5.118319   3.907562   2.499417   3.974711
    19  H    4.755071   5.158066   3.183859   2.747598   3.451262
    20  H    5.719790   6.076793   4.349498   3.948401   5.014589
    21  H    4.689521   4.641941   4.251519   4.621357   5.764332
    22  H    6.666757   6.564983   4.980242   5.544123   6.462785
    23  H    7.026244   6.967095   6.372585   6.653086   7.904140
                   16         17         18         19         20
    16  H    0.000000
    17  H    3.198755   0.000000
    18  H    2.790240   3.074610   0.000000
    19  H    1.802205   2.428079   1.780617   0.000000
    20  H    3.454629   2.674063   1.773007   1.692855   0.000000
    21  H    4.948282   2.825245   3.201035   4.048477   3.409903
    22  H    5.003837   2.673491   3.455543   3.378261   2.064538
    23  H    6.817890   4.414328   4.625818   5.469174   4.164887
                   21         22         23
    21  H    0.000000
    22  H    2.985945   0.000000
    23  H    2.361674   2.893020   0.000000
 Stoichiometry    C6H14N2O
 Framework group  C1[X(C6H14N2O)]
 Deg. of freedom    63
 Full point group                 C1      NOp   1
 Largest Abelian subgroup         C1      NOp   1
 Largest concise Abelian subgroup C1      NOp   1
                         Standard orientation:                         
 ---------------------------------------------------------------------
 Center     Atomic      Atomic             Coordinates (Angstroms)
 Number     Number       Type             X           Y           Z
 ---------------------------------------------------------------------
      1          6           0        3.096809   -1.217340   -0.112255
      2          6           0        2.023153   -0.227047    0.351819
      3          6           0        2.491671    1.131259   -0.172519
      4          8           0        0.729618   -0.626171   -0.158756
      5          6           0       -0.393977    0.102970    0.369158
      6          6           0       -0.446114    1.522946   -0.193297
      7          7           0       -1.629772   -0.562680   -0.002438
      8          6           0       -2.858039   -0.019906    0.240713
      9          7           0       -3.993781   -0.401049   -0.200128
     10          1           0        4.088259   -0.888629    0.228746
     11          1           0        3.124181   -1.274528   -1.206530
     12          1           0        2.926176   -2.225682    0.269991
     13          1           0        1.995972   -0.233625    1.448273
     14          1           0        2.276505    1.223511   -1.242754
     15          1           0        3.558581    1.296267   -0.002852
     16          1           0        2.027324    1.957937    0.355317
     17          1           0       -0.331898    0.103781    1.463563
     18          1           0       -0.204892    1.522532   -1.261183
     19          1           0        0.238525    2.176363    0.334587
     20          1           0       -1.402173    2.027236   -0.054806
     21          1           0       -1.532663   -1.326649   -0.656353
     22          1           0       -2.827853    0.873095    0.892671
     23          1           0       -3.889128   -1.233434   -0.782380
 ---------------------------------------------------------------------
 Rotational constants (GHZ):           4.1663636           0.7063942           0.6293325
 Standard basis: 6-31G(2df,p) (6D, 7F)
 There are   349 symmetry adapted cartesian basis functions of A   symmetry.
 There are   322 symmetry adapted basis functions of A   symmetry.
   322 basis functions,   494 primitive gaussians,   349 cartesian basis functions
    36 alpha electrons       36 beta electrons
       nuclear repulsion energy       476.2729079538 Hartrees.
 NAtoms=   23 NActive=   23 NUniq=   23 SFac= 1.00D+00 NAtFMM=   60 NAOKFM=F Big=F
 Integral buffers will be    131072 words long.
 Raffenetti 2 integral format.
 Two-electron integral symmetry is turned on.
 One-electron integrals computed using PRISM.
 PrsmSu:  requested number of processors reduced to:  13 ShMem   1 Linda.
 NBasis=   322 RedAO= T EigKep=  2.96D-04  NBF=   322
 NBsUse=   322 1.00D-06 EigRej= -1.00D+00 NBFU=   322
 ExpMin= 1.61D-01 ExpMax= 5.48D+03 ExpMxC= 8.25D+02 IAcc=3 IRadAn=         5 AccDes= 0.00D+00
 Harris functional with IExCor=  402 and IRadAn=       5 diagonalized for initial guess.
 HarFok:  IExCor=  402 AccDes= 0.00D+00 IRadAn=         5 IDoV= 1 UseB2=F ITyADJ=14
 ICtDFT=  3500011 ScaDFX=  1.000000  1.000000  1.000000  1.000000
 FoFCou: FMM=F IPFlag=           0 FMFlag=      100000 FMFlg1=           0
         NFxFlg=           0 DoJE=T BraDBF=F KetDBF=T FulRan=T
         wScrn=  0.000000 ICntrl=       500 IOpCl=  0 I1Cent=   200000004 NGrid=           0
         NMat0=    1 NMatS0=      1 NMatT0=    0 NMatD0=    1 NMtDS0=    0 NMtDT0=    0
 Petite list used in FoFCou.
 Requested convergence on RMS density matrix=1.00D-08 within 128 cycles.
 Requested convergence on MAX density matrix=1.00D-06.
 Requested convergence on             energy=1.00D-06.
 No special actions if energy rises.
 Integral accuracy reduced to 1.0D-05 until final iterations.
 Initial convergence to 1.0D-05 achieved.  Increase integral accuracy.
 SCF Done:  E(RB3LYP) =  -421.791921401     A.U. after   13 cycles
            NFock= 13  Conv=0.88D-08     -V/T= 2.0077

 **********************************************************************

            Population analysis using the SCF density.

 **********************************************************************

 Orbital symmetries:
       Occupied  (A) (A) (A) (A) (A) (A) (A) (A) (A) (A) (A) (A)
                 (A) (A) (A) (A) (A) (A) (A) (A) (A) (A) (A) (A)
                 (A) (A) (A) (A) (A) (A) (A) (A) (A) (A) (A) (A)
       Virtual   (A) (A) (A) (A) (A) (A) (A) (A) (A) (A) (A) (A)
                 (A) (A) (A) (A) (A) (A) (A) (A) (A) (A) (A) (A)
                 (A) (A) (A) (A) (A) (A) (A) (A) (A) (A) (A) (A)
                 (A) (A) (A) (A) (A) (A) (A) (A) (A) (A) (A) (A)
                 (A) (A) (A) (A) (A) (A) (A) (A) (A) (A) (A) (A)
                 (A) (A) (A) (A) (A) (A) (A) (A) (A) (A) (A) (A)
                 (A) (A) (A) (A) (A) (A) (A) (A) (A) (A) (A) (A)
                 (A) (A) (A) (A) (A) (A) (A) (A) (A) (A) (A) (A)
                 (A) (A) (A) (A) (A) (A) (A) (A) (A) (A) (A) (A)
                 (A) (A) (A) (A) (A) (A) (A) (A) (A) (A) (A) (A)
                 (A) (A) (A) (A) (A) (A) (A) (A) (A) (A) (A) (A)
                 (A) (A) (A) (A) (A) (A) (A) (A) (A) (A) (A) (A)
                 (A) (A) (A) (A) (A) (A) (A) (A) (A) (A) (A) (A)
                 (A) (A) (A) (A) (A) (A) (A) (A) (A) (A) (A) (A)
                 (A) (A) (A) (A) (A) (A) (A) (A) (A) (A) (A) (A)
                 (A) (A) (A) (A) (A) (A) (A) (A) (A) (A) (A) (A)
                 (A) (A) (A) (A) (A) (A) (A) (A) (A) (A) (A) (A)
                 (A) (A) (A) (A) (A) (A) (A) (A) (A) (A) (A) (A)
                 (A) (A) (A) (A) (A) (A) (A) (A) (A) (A) (A) (A)
                 (A) (A) (A) (A) (A) (A) (A) (A) (A) (A) (A) (A)
                 (A) (A) (A) (A) (A) (A) (A) (A) (A) (A) (A) (A)
                 (A) (A) (A) (A) (A) (A) (A) (A) (A) (A) (A) (A)
                 (A) (A) (A) (A) (A) (A) (A) (A) (A) (A) (A) (A)
                 (A) (A) (A) (A) (A) (A) (A) (A) (A) (A)
 The electronic state is 1-A.
 Alpha  occ. eigenvalues --  -19.15536 -14.34410 -14.28018 -10.27868 -10.24807
 Alpha  occ. eigenvalues --  -10.24261 -10.18260 -10.17899 -10.17737  -1.04047
 Alpha  occ. eigenvalues --   -0.94561  -0.85228  -0.78789  -0.74316  -0.68986
 Alpha  occ. eigenvalues --   -0.64711  -0.61001  -0.58863  -0.51580  -0.51262
 Alpha  occ. eigenvalues --   -0.48510  -0.47338  -0.44647  -0.42240  -0.41310
 Alpha  occ. eigenvalues --   -0.40179  -0.39467  -0.38905  -0.38359  -0.36268
 Alpha  occ. eigenvalues --   -0.34795  -0.33831  -0.31941  -0.27251  -0.25273
 Alpha  occ. eigenvalues --   -0.22028
 Alpha virt. eigenvalues --    0.04009   0.07367   0.08945   0.09414   0.10398
 Alpha virt. eigenvalues --    0.11785   0.13676   0.14206   0.14845   0.15825
 Alpha virt. eigenvalues --    0.15996   0.17240   0.17832   0.18448   0.19647
 Alpha virt. eigenvalues --    0.21618   0.22426   0.24002   0.24767   0.27305
 Alpha virt. eigenvalues --    0.29799   0.33103   0.35734   0.40022   0.44931
 Alpha virt. eigenvalues --    0.45781   0.47207   0.47722   0.49063   0.50200
 Alpha virt. eigenvalues --    0.52201   0.53015   0.55851   0.56102   0.57795
 Alpha virt. eigenvalues --    0.59009   0.60450   0.60724   0.62429   0.63581
 Alpha virt. eigenvalues --    0.65806   0.66370   0.67908   0.68325   0.71083
 Alpha virt. eigenvalues --    0.71720   0.72848   0.73430   0.74465   0.75002
 Alpha virt. eigenvalues --    0.75270   0.76447   0.77313   0.77979   0.78920
 Alpha virt. eigenvalues --    0.80520   0.81570   0.82002   0.83238   0.84040
 Alpha virt. eigenvalues --    0.87261   0.87563   0.88275   0.88679   0.91766
 Alpha virt. eigenvalues --    0.94374   0.96249   0.98142   1.02224   1.03158
 Alpha virt. eigenvalues --    1.05590   1.07830   1.09771   1.12555   1.16444
 Alpha virt. eigenvalues --    1.19775   1.20998   1.22658   1.23562   1.26511
 Alpha virt. eigenvalues --    1.30134   1.31886   1.33508   1.35587   1.37193
 Alpha virt. eigenvalues --    1.39302   1.42446   1.43823   1.45978   1.47540
 Alpha virt. eigenvalues --    1.48854   1.50591   1.53072   1.54763   1.55928
 Alpha virt. eigenvalues --    1.58089   1.59422   1.61931   1.62436   1.65028
 Alpha virt. eigenvalues --    1.66092   1.66690   1.71664   1.74497   1.76119
 Alpha virt. eigenvalues --    1.79975   1.82358   1.85164   1.88423   1.90811
 Alpha virt. eigenvalues --    1.91253   1.94405   1.96018   1.97548   1.98540
 Alpha virt. eigenvalues --    1.99794   2.00990   2.03921   2.13402   2.14397
 Alpha virt. eigenvalues --    2.20924   2.21928   2.24774   2.26265   2.28379
 Alpha virt. eigenvalues --    2.31679   2.34663   2.38515   2.42029   2.43147
 Alpha virt. eigenvalues --    2.46031   2.47431   2.49499   2.52169   2.55561
 Alpha virt. eigenvalues --    2.58511   2.60748   2.61324   2.66387   2.67302
 Alpha virt. eigenvalues --    2.69777   2.74005   2.75335   2.79897   2.81872
 Alpha virt. eigenvalues --    2.82757   2.86049   2.87067   2.88064   2.89531
 Alpha virt. eigenvalues --    2.92073   2.92205   2.93158   2.94107   2.96113
 Alpha virt. eigenvalues --    2.96694   3.00141   3.00664   3.02701   3.04066
 Alpha virt. eigenvalues --    3.06311   3.08453   3.10917   3.14711   3.16465
 Alpha virt. eigenvalues --    3.17988   3.19489   3.22535   3.24157   3.26526
 Alpha virt. eigenvalues --    3.30544   3.32618   3.35849   3.37455   3.38658
 Alpha virt. eigenvalues --    3.39349   3.40722   3.43501   3.46924   3.48860
 Alpha virt. eigenvalues --    3.52801   3.55751   3.57633   3.58351   3.60523
 Alpha virt. eigenvalues --    3.63433   3.66570   3.69180   3.70577   3.76156
 Alpha virt. eigenvalues --    3.79299   3.83358   3.85202   3.86664   3.90377
 Alpha virt. eigenvalues --    3.91674   3.94078   3.95793   3.97054   3.99481
 Alpha virt. eigenvalues --    4.00856   4.03660   4.06335   4.07697   4.16083
 Alpha virt. eigenvalues --    4.18240   4.21577   4.23179   4.25238   4.27125
 Alpha virt. eigenvalues --    4.29621   4.29775   4.33257   4.35222   4.37887
 Alpha virt. eigenvalues --    4.38807   4.40950   4.42803   4.43830   4.44695
 Alpha virt. eigenvalues --    4.46140   4.46982   4.48580   4.49821   4.53579
 Alpha virt. eigenvalues --    4.55170   4.56436   4.58578   4.59646   4.60245
 Alpha virt. eigenvalues --    4.60669   4.62585   4.65030   4.67949   4.68477
 Alpha virt. eigenvalues --    4.68594   4.71813   4.73023   4.75951   4.76837
 Alpha virt. eigenvalues --    4.79479   4.81096   4.82368   4.85509   4.86327
 Alpha virt. eigenvalues --    4.88418   4.89707   4.92109   4.93264   4.96127
 Alpha virt. eigenvalues --    4.99280   5.00946   5.03230   5.09434   5.16551
 Alpha virt. eigenvalues --    5.18917   5.24748   5.29970   5.31226   5.34448
 Alpha virt. eigenvalues --    5.38870   5.41251   5.48791   5.55022   5.65953
 Alpha virt. eigenvalues --    5.67428   5.73972   5.80059   5.83482   5.89679
 Alpha virt. eigenvalues --    6.03997   6.16667   6.17052   6.55654   7.14395
 Alpha virt. eigenvalues --    9.97784  10.62229  11.21528  11.30144  11.43501
 Alpha virt. eigenvalues --   11.53455  11.83259  12.16574  12.48516  13.55710
 Alpha virt. eigenvalues --   16.31389
          Condensed to atoms (all electrons):
               1          2          3          4          5          6
     1  C    4.991402   0.421014  -0.056295  -0.025951   0.001851   0.000016
     2  C    0.421014   4.534583   0.371673   0.358943  -0.063098  -0.003068
     3  C   -0.056295   0.371673   5.096428  -0.044842  -0.002272  -0.000559
     4  O   -0.025951   0.358943  -0.044842   7.761163   0.372618  -0.041944
     5  C    0.001851  -0.063098  -0.002272   0.372618   4.583333   0.328903
     6  C    0.000016  -0.003068  -0.000559  -0.041944   0.328903   5.198892
     7  N   -0.000107   0.002637   0.000017  -0.020668   0.392453  -0.061889
     8  C   -0.000001  -0.000110   0.000011   0.001243  -0.055301  -0.004652
     9  N   -0.000000  -0.000000   0.000000  -0.000039   0.004769  -0.000299
    10  H    0.371638  -0.021504  -0.003347   0.001870  -0.000130   0.000009
    11  H    0.371196  -0.022733  -0.007074   0.000204   0.000104  -0.000047
    12  H    0.365474  -0.019470   0.006011   0.001311   0.000216   0.000016
    13  H   -0.043291   0.361108  -0.065035  -0.036617  -0.005485  -0.002527
    14  H   -0.003870  -0.016585   0.365416   0.000188  -0.000395  -0.000864
    15  H   -0.008218  -0.018971   0.360754   0.002184   0.000100   0.000289
    16  H    0.005494  -0.022525   0.370143   0.000613  -0.000727  -0.007654
    17  H    0.000092  -0.007826  -0.002282  -0.035739   0.356020  -0.084798
    18  H   -0.000062  -0.000143  -0.001061   0.000286  -0.011426   0.356604
    19  H    0.000037  -0.001131  -0.006510  -0.000005  -0.016093   0.355826
    20  H    0.000003   0.000168   0.000168   0.002319  -0.013936   0.361041
    21  H   -0.000012  -0.000096   0.000023   0.006547  -0.043841   0.004374
    22  H   -0.000000   0.000008  -0.000001  -0.000000  -0.005546  -0.002505
    23  H   -0.000000   0.000000  -0.000000  -0.000009   0.000278  -0.000085
               7          8          9         10         11         12
     1  C   -0.000107  -0.000001  -0.000000   0.371638   0.371196   0.365474
     2  C    0.002637  -0.000110  -0.000000  -0.021504  -0.022733  -0.019470
     3  C    0.000017   0.000011   0.000000  -0.003347  -0.007074   0.006011
     4  O   -0.020668   0.001243  -0.000039   0.001870   0.000204   0.001311
     5  C    0.392453  -0.055301   0.004769  -0.000130   0.000104   0.000216
     6  C   -0.061889  -0.004652  -0.000299   0.000009  -0.000047   0.000016
     7  N    6.371246   0.462071  -0.057096   0.000001   0.000000   0.000001
     8  C    0.462071   4.523393   0.711093   0.000000   0.000000   0.000000
     9  N   -0.057096   0.711093   6.526329   0.000000   0.000000   0.000000
    10  H    0.000001   0.000000   0.000000   0.586535  -0.029645  -0.029743
    11  H    0.000000   0.000000   0.000000  -0.029645   0.582697  -0.031751
    12  H    0.000001   0.000000   0.000000  -0.029743  -0.031751   0.595543
    13  H   -0.000026   0.000009   0.000000  -0.000215   0.006057  -0.004038
    14  H   -0.000042   0.000000   0.000000   0.000278   0.003749  -0.000136
    15  H    0.000001  -0.000000   0.000000   0.001886   0.000714   0.000176
    16  H    0.000008  -0.000002  -0.000000   0.000025  -0.000005  -0.000270
    17  H   -0.038930  -0.001219   0.000018   0.000007   0.000039  -0.000035
    18  H    0.000485   0.000953  -0.000062   0.000002   0.000018  -0.000000
    19  H    0.004602  -0.000082  -0.000007  -0.000000  -0.000001   0.000000
    20  H   -0.009973   0.001676   0.000506  -0.000000   0.000000  -0.000000
    21  H    0.327037  -0.026712   0.001525   0.000000   0.000008   0.000007
    22  H   -0.055946   0.344258  -0.019872   0.000000   0.000000   0.000000
    23  H   -0.018062  -0.094089   0.331841   0.000000  -0.000000  -0.000000
              13         14         15         16         17         18
     1  C   -0.043291  -0.003870  -0.008218   0.005494   0.000092  -0.000062
     2  C    0.361108  -0.016585  -0.018971  -0.022525  -0.007826  -0.000143
     3  C   -0.065035   0.365416   0.360754   0.370143  -0.002282  -0.001061
     4  O   -0.036617   0.000188   0.002184   0.000613  -0.035739   0.000286
     5  C   -0.005485  -0.000395   0.000100  -0.000727   0.356020  -0.011426
     6  C   -0.002527  -0.000864   0.000289  -0.007654  -0.084798   0.356604
     7  N   -0.000026  -0.000042   0.000001   0.000008  -0.038930   0.000485
     8  C    0.000009   0.000000  -0.000000  -0.000002  -0.001219   0.000953
     9  N    0.000000   0.000000   0.000000  -0.000000   0.000018  -0.000062
    10  H   -0.000215   0.000278   0.001886   0.000025   0.000007   0.000002
    11  H    0.006057   0.003749   0.000714  -0.000005   0.000039   0.000018
    12  H   -0.004038  -0.000136   0.000176  -0.000270  -0.000035  -0.000000
    13  H    0.691442   0.005981   0.002613  -0.004642   0.014888   0.000287
    14  H    0.005981   0.577337  -0.026866  -0.032853   0.000250   0.002124
    15  H    0.002613  -0.026866   0.606662  -0.033664   0.000038   0.000080
    16  H   -0.004642  -0.032853  -0.033664   0.603032   0.000130  -0.000066
    17  H    0.014888   0.000250   0.000038   0.000130   0.701589   0.006356
    18  H    0.000287   0.002124   0.000080  -0.000066   0.006356   0.573833
    19  H    0.000212  -0.000060   0.000362   0.004710  -0.000522  -0.029504
    20  H    0.000028   0.000071  -0.000015   0.000444   0.001346  -0.027450
    21  H    0.000070   0.000008  -0.000000  -0.000002   0.005490   0.000685
    22  H    0.000000  -0.000000   0.000000   0.000000   0.001997   0.000099
    23  H   -0.000000  -0.000000   0.000000   0.000000   0.000005   0.000009
              19         20         21         22         23
     1  C    0.000037   0.000003  -0.000012  -0.000000  -0.000000
     2  C   -0.001131   0.000168  -0.000096   0.000008   0.000000
     3  C   -0.006510   0.000168   0.000023  -0.000001  -0.000000
     4  O   -0.000005   0.002319   0.006547  -0.000000  -0.000009
     5  C   -0.016093  -0.013936  -0.043841  -0.005546   0.000278
     6  C    0.355826   0.361041   0.004374  -0.002505  -0.000085
     7  N    0.004602  -0.009973   0.327037  -0.055946  -0.018062
     8  C   -0.000082   0.001676  -0.026712   0.344258  -0.094089
     9  N   -0.000007   0.000506   0.001525  -0.019872   0.331841
    10  H   -0.000000  -0.000000   0.000000   0.000000   0.000000
    11  H   -0.000001   0.000000   0.000008   0.000000  -0.000000
    12  H    0.000000  -0.000000   0.000007   0.000000  -0.000000
    13  H    0.000212   0.000028   0.000070   0.000000  -0.000000
    14  H   -0.000060   0.000071   0.000008  -0.000000  -0.000000
    15  H    0.000362  -0.000015  -0.000000   0.000000   0.000000
    16  H    0.004710   0.000444  -0.000002   0.000000   0.000000
    17  H   -0.000522   0.001346   0.005490   0.001997   0.000005
    18  H   -0.029504  -0.027450   0.000685   0.000099   0.000009
    19  H    0.604082  -0.033760  -0.000157  -0.000037   0.000000
    20  H   -0.033760   0.589621  -0.000031   0.003374   0.000009
    21  H   -0.000157  -0.000031   0.466590   0.006018   0.008257
    22  H   -0.000037   0.003374   0.006018   0.606335   0.009875
    23  H    0.000000   0.000009   0.008257   0.009875   0.567358
 Mulliken charges:
               1
     1  C   -0.390412
     2  C    0.147128
     3  C   -0.381366
     4  O   -0.303674
     5  C    0.177605
     6  C   -0.395080
     7  N   -0.297819
     8  C    0.137460
     9  N   -0.498706
    10  H    0.122334
    11  H    0.126468
    12  H    0.116686
    13  H    0.079183
    14  H    0.126266
    15  H    0.111876
    16  H    0.117809
    17  H    0.083087
    18  H    0.127954
    19  H    0.118039
    20  H    0.124392
    21  H    0.244210
    22  H    0.111945
    23  H    0.194613
 Sum of Mulliken charges =  -0.00000
 Mulliken charges with hydrogens summed into heavy atoms:
               1
     1  C   -0.024923
     2  C    0.226310
     3  C   -0.025415
     4  O   -0.303674
     5  C    0.260692
     6  C   -0.024694
     7  N   -0.053609
     8  C    0.249404
     9  N   -0.304093
 Electronic spatial extent (au):  <R**2>=           1829.9115
 Charge=              0.0000 electrons
 Dipole moment (field-independent basis, Debye):
    X=              4.1255    Y=              0.3642    Z=              0.2440  Tot=              4.1487
 Quadrupole moment (field-independent basis, Debye-Ang):
   XX=            -72.9124   YY=            -54.3196   ZZ=            -54.8908
   XY=              1.5415   XZ=              1.6868   YZ=              2.4198
 Traceless Quadrupole moment (field-independent basis, Debye-Ang):
   XX=            -12.2048   YY=              6.3880   ZZ=              5.8168
   XY=              1.5415   XZ=              1.6868   YZ=              2.4198
 Octapole moment (field-independent basis, Debye-Ang**2):
  XXX=            113.8325  YYY=             -7.8797  ZZZ=             -2.6251  XYY=             -8.7233
  XXY=             -5.9900  XXZ=             -1.9566  XZZ=             -1.9284  YZZ=             -2.2917
  YYZ=             -2.3457  XYZ=             -7.5277
 Hexadecapole moment (field-independent basis, Debye-Ang**3):
 XXXX=          -2424.4328 YYYY=           -366.1934 ZZZZ=           -112.4628 XXXY=             16.7620
 XXXZ=             20.0984 YYYX=              9.5328 YYYZ=              8.0933 ZZZX=              0.8542
 ZZZY=              2.2547 XXYY=           -365.7814 XXZZ=           -338.3873 YYZZ=            -79.1741
 XXYZ=             24.7397 YYXZ=              9.4658 ZZXY=              3.7530
 N-N= 4.762729079538D+02 E-N=-1.933755021658D+03  KE= 4.185705964060D+02
 PrsmSu:  requested number of processors reduced to:  13 ShMem   1 Linda.
 Calling FoFJK, ICntrl=      2127 FMM=F ISym2X=0 I1Cent= 0 IOpClX= 0 NMat=1 NMatS=1 NMatT=0.
 ***** Axes restored to original set *****
 -------------------------------------------------------------------
 Center     Atomic                   Forces (Hartrees/Bohr)
 Number     Number              X              Y              Z
 -------------------------------------------------------------------
      1        6          -0.002439832   -0.012662613    0.002385205
      2        6          -0.010244972    0.005450244    0.004288792
      3        6           0.010818914    0.009349771   -0.004442601
      4        8           0.009476370   -0.003239968   -0.001828250
      5        6          -0.000995890    0.011325406    0.003205662
      6        6           0.007781318    0.013617091   -0.005524874
      7        7          -0.019391139   -0.005407571   -0.002151679
      8        6           0.005590840    0.001187296    0.002727156
      9        7           0.003104852   -0.001930808   -0.003595490
     10        1           0.003531488   -0.003165223    0.001562906
     11        1           0.001394457    0.000149020   -0.000300574
     12        1           0.000007501   -0.002242111    0.000315790
     13        1           0.003332722   -0.000313484   -0.000804799
     14        1          -0.000702654    0.000384267   -0.002425912
     15        1          -0.006351993   -0.003823343    0.001158302
     16        1           0.002929384    0.001795394    0.002714806
     17        1           0.000234552    0.003537532   -0.004925823
     18        1           0.000559268   -0.001881866   -0.001524796
     19        1          -0.003010250    0.004626973   -0.000480080
     20        1          -0.000305064   -0.008007675    0.003513364
     21        1           0.002071677   -0.000955422    0.000023497
     22        1          -0.006398306   -0.007106782    0.003526893
     23        1          -0.000993244   -0.000686130    0.002582505
 -------------------------------------------------------------------
 Cartesian Forces:  Max     0.019391139 RMS     0.005300633

 GradGradGradGradGradGradGradGradGradGradGradGradGradGradGradGradGradGrad
 Berny optimization.
 FormGI is forming the generalized inverse of G from B-inverse, IUseBI=4.
 Internal  Forces:  Max     0.041050053 RMS     0.008320604
 Search for a local minimum.
 Step number   1 out of a maximum of  115
 All quantities printed in internal units (Hartrees-Bohrs-Radians)
 Mixed Optimization -- RFO/linear search
 Second derivative matrix not updated -- first step.
 ITU=  0
     Eigenvalues ---    0.00335   0.00375   0.00393   0.01004   0.01073
     Eigenvalues ---    0.01166   0.01607   0.02159   0.02568   0.03325
     Eigenvalues ---    0.04893   0.05127   0.05192   0.05280   0.05345
     Eigenvalues ---    0.05362   0.05456   0.05505   0.05576   0.05603
     Eigenvalues ---    0.06392   0.07816   0.15341   0.15636   0.15999
     Eigenvalues ---    0.16000   0.16000   0.16000   0.16000   0.16000
     Eigenvalues ---    0.16000   0.16000   0.16000   0.16000   0.16000
     Eigenvalues ---    0.17026   0.19934   0.19984   0.22001   0.22087
     Eigenvalues ---    0.25000   0.29187   0.29468   0.29590   0.33019
     Eigenvalues ---    0.33818   0.34037   0.34110   0.34116   0.34180
     Eigenvalues ---    0.34265   0.34486   0.34608   0.34842   0.35375
     Eigenvalues ---    0.35554   0.37982   0.38668   0.39623   0.44148
     Eigenvalues ---    0.45924   0.52012   0.74158
 RFO step:  Lambda=-3.87214112D-02 EMin= 3.35055994D-03
 Linear search not attempted -- first point.
 Maximum step size (   0.300) exceeded in Quadratic search.
    -- Step size scaled by   0.934
 Iteration  1 RMS(Cart)=  0.27826748 RMS(Int)=  0.01805606
 Iteration  2 RMS(Cart)=  0.07498850 RMS(Int)=  0.00145041
 Iteration  3 RMS(Cart)=  0.00219113 RMS(Int)=  0.00112565
 Iteration  4 RMS(Cart)=  0.00000428 RMS(Int)=  0.00112565
 Iteration  5 RMS(Cart)=  0.00000001 RMS(Int)=  0.00112565
 Variable       Old X    -DE/DX   Delta X   Delta X   Delta X     New X
                                 (Linear)    (Quad)   (Total)
    R1        2.89615  -0.00088   0.00000  -0.00249  -0.00249   2.89365
    R2        2.07638  -0.00450   0.00000  -0.01116  -0.01116   2.06523
    R3        2.07135  -0.00076   0.00000  -0.00187  -0.00187   2.06948
    R4        2.06316   0.00197   0.00000   0.00478   0.00478   2.06794
    R5        2.89038   0.00798   0.00000   0.02235   0.02235   2.91272
    R6        2.73405  -0.00707   0.00000  -0.01552  -0.01552   2.71853
    R7        2.07267   0.00193   0.00000   0.00476   0.00476   2.07743
    R8        2.07027  -0.00222   0.00000  -0.00544  -0.00544   2.06483
    R9        2.06518   0.00086   0.00000   0.00209   0.00209   2.06727
   R10        2.05070   0.00245   0.00000   0.00584   0.00584   2.05654
   R11        2.72068  -0.01231   0.00000  -0.02643  -0.02643   2.69425
   R12        2.88789   0.00767   0.00000   0.02140   0.02140   2.90928
   R13        2.74392   0.00855   0.00000   0.01908   0.01908   2.76300
   R14        2.07145   0.00403   0.00000   0.00990   0.00990   2.08135
   R15        2.06886  -0.00213   0.00000  -0.00522  -0.00522   2.06363
   R16        2.04785   0.00358   0.00000   0.00848   0.00848   2.05632
   R17        2.05931   0.00144   0.00000   0.00347   0.00347   2.06278
   R18        2.57888   0.00390   0.00000   0.00651   0.00651   2.58540
   R19        1.90917  -0.00107   0.00000  -0.00200  -0.00200   1.90717
   R20        2.41229   0.00182   0.00000   0.00217   0.00217   2.41446
   R21        2.09019  -0.00986   0.00000  -0.02497  -0.02497   2.06522
   R22        1.92978   0.00230   0.00000   0.00447   0.00447   1.93425
    A1        1.92287  -0.00212   0.00000  -0.00979  -0.00981   1.91306
    A2        1.93211  -0.00118   0.00000  -0.00535  -0.00537   1.92675
    A3        1.96197  -0.00024   0.00000  -0.00151  -0.00152   1.96046
    A4        1.87853   0.00186   0.00000   0.00946   0.00944   1.88797
    A5        1.88459   0.00119   0.00000   0.00520   0.00518   1.88977
    A6        1.88099   0.00070   0.00000   0.00301   0.00300   1.88399
    A7        1.82909   0.01410   0.00000   0.06028   0.06146   1.89055
    A8        1.91902  -0.02155   0.00000  -0.10160  -0.10374   1.81528
    A9        1.89251   0.00058   0.00000  -0.00671  -0.00844   1.88407
   A10        1.98000   0.01143   0.00000   0.06691   0.06898   2.04898
   A11        1.93437  -0.00660   0.00000  -0.00968  -0.00978   1.92459
   A12        1.90601   0.00157   0.00000  -0.01167  -0.01431   1.89170
   A13        1.92785   0.00058   0.00000  -0.00231  -0.00273   1.92512
   A14        1.96050  -0.00827   0.00000  -0.04109  -0.04123   1.91927
   A15        1.95918   0.00501   0.00000   0.03077   0.03091   1.99009
   A16        1.90783   0.00099   0.00000  -0.00850  -0.00919   1.89864
   A17        1.90390  -0.00209   0.00000  -0.00568  -0.00579   1.89811
   A18        1.80000   0.00397   0.00000   0.02829   0.02869   1.82869
   A19        2.01378   0.04105   0.00000   0.13280   0.13280   2.14658
   A20        1.94147   0.01890   0.00000   0.08700   0.08953   2.03100
   A21        1.91580  -0.03263   0.00000  -0.15572  -0.15759   1.75821
   A22        1.89892   0.00118   0.00000  -0.00686  -0.01039   1.88852
   A23        1.87836   0.01785   0.00000   0.07141   0.07342   1.95179
   A24        1.94841  -0.00903   0.00000  -0.00952  -0.01062   1.93779
   A25        1.87973   0.00248   0.00000   0.00755   0.00464   1.88437
   A26        1.92958  -0.00137   0.00000  -0.01308  -0.01362   1.91596
   A27        1.93845   0.00441   0.00000   0.02843   0.02872   1.96716
   A28        1.99670  -0.00944   0.00000  -0.04548  -0.04580   1.95090
   A29        1.91365  -0.00124   0.00000  -0.00380  -0.00371   1.90994
   A30        1.89383   0.00292   0.00000   0.00062  -0.00048   1.89335
   A31        1.78579   0.00527   0.00000   0.03710   0.03757   1.82336
   A32        2.13895   0.01195   0.00000   0.04446   0.04421   2.18317
   A33        2.01584  -0.00411   0.00000  -0.01073  -0.01095   2.00489
   A34        2.09739  -0.00707   0.00000  -0.02459  -0.02488   2.07251
   A35        2.24016   0.00395   0.00000   0.01440   0.01410   2.25426
   A36        1.98402  -0.00214   0.00000  -0.00771  -0.00801   1.97601
   A37        2.05884  -0.00176   0.00000  -0.00593  -0.00623   2.05261
   A38        1.92741   0.00200   0.00000   0.00939   0.00939   1.93680
    D1        0.95558  -0.00286   0.00000  -0.00277  -0.00190   0.95367
    D2        3.08936   0.00751   0.00000   0.05801   0.05655  -3.13728
    D3       -1.11106  -0.00286   0.00000  -0.01978  -0.01918  -1.13023
    D4       -1.12022  -0.00308   0.00000  -0.00492  -0.00405  -1.12428
    D5        1.01356   0.00729   0.00000   0.05587   0.05440   1.06796
    D6        3.09633  -0.00308   0.00000  -0.02193  -0.02133   3.07500
    D7        3.05834  -0.00299   0.00000  -0.00397  -0.00310   3.05523
    D8       -1.09107   0.00739   0.00000   0.05681   0.05535  -1.03572
    D9        0.99170  -0.00298   0.00000  -0.02099  -0.02038   0.97132
   D10        1.35599  -0.00692   0.00000  -0.03571  -0.03467   1.32132
   D11       -0.77904  -0.00282   0.00000   0.00574   0.00633  -0.77271
   D12       -2.79814  -0.00571   0.00000  -0.02327  -0.02226  -2.82040
   D13       -0.73757   0.00389   0.00000   0.01208   0.01143  -0.72614
   D14       -2.87260   0.00799   0.00000   0.05353   0.05243  -2.82017
   D15        1.39149   0.00510   0.00000   0.02452   0.02384   1.41533
   D16       -2.88914  -0.00157   0.00000  -0.01460  -0.01450  -2.90364
   D17        1.25901   0.00253   0.00000   0.02685   0.02650   1.28551
   D18       -0.76008  -0.00036   0.00000  -0.00216  -0.00209  -0.76217
   D19        2.98416  -0.01420   0.00000  -0.17360  -0.17137   2.81279
   D20       -1.25740  -0.00375   0.00000  -0.12396  -0.12528  -1.38268
   D21        0.90965  -0.00298   0.00000  -0.09760  -0.09850   0.81115
   D22        1.26787   0.00436   0.00000   0.14854   0.15097   1.41883
   D23       -2.93838   0.01738   0.00000   0.19153   0.18749  -2.75089
   D24       -0.88550   0.00240   0.00000   0.10753   0.10915  -0.77635
   D25        0.71846  -0.00727   0.00000  -0.03406  -0.03357   0.68489
   D26       -1.40999  -0.00776   0.00000  -0.03963  -0.03892  -1.44891
   D27        2.86258  -0.01144   0.00000  -0.07710  -0.07587   2.78670
   D28       -1.38075   0.01017   0.00000   0.05983   0.05855  -1.32219
   D29        2.77399   0.00967   0.00000   0.05426   0.05320   2.82719
   D30        0.76337   0.00600   0.00000   0.01679   0.01624   0.77962
   D31        2.84327   0.00127   0.00000   0.01193   0.01177   2.85505
   D32        0.71483   0.00077   0.00000   0.00637   0.00642   0.72125
   D33       -1.29579  -0.00290   0.00000  -0.03110  -0.03053  -1.32633
   D34       -3.01817  -0.01256   0.00000  -0.09707  -0.09460  -3.11277
   D35       -0.14156  -0.01063   0.00000  -0.06321  -0.06054  -0.20210
   D36       -0.90282   0.00212   0.00000  -0.03934  -0.04123  -0.94405
   D37        1.97379   0.00405   0.00000  -0.00548  -0.00717   1.96662
   D38        1.20021   0.00273   0.00000  -0.00664  -0.00751   1.19271
   D39       -2.20636   0.00466   0.00000   0.02723   0.02655  -2.17981
   D40        2.94756   0.00239   0.00000   0.03397   0.03385   2.98141
   D41       -0.17419  -0.00090   0.00000  -0.01358  -0.01370  -0.18788
   D42        0.08292  -0.00025   0.00000  -0.00411  -0.00399   0.07893
   D43       -3.03883  -0.00353   0.00000  -0.05166  -0.05154  -3.09037
   D44        0.02580  -0.00291   0.00000  -0.04026  -0.04026  -0.01446
   D45       -3.13636   0.00050   0.00000   0.00904   0.00904  -3.12732
         Item               Value     Threshold  Converged?
 Maximum Force            0.041050     0.000450     NO 
 RMS     Force            0.008321     0.000300     NO 
 Maximum Displacement     0.976750     0.001800     NO 
 RMS     Displacement     0.337670     0.001200     NO 
 Predicted change in Energy=-2.415013D-02
 GradGradGradGradGradGradGradGradGradGradGradGradGradGradGradGradGradGrad

                          Input orientation:                          
 ---------------------------------------------------------------------
 Center     Atomic      Atomic             Coordinates (Angstroms)
 Number     Number       Type             X           Y           Z
 ---------------------------------------------------------------------
      1          6           0        1.172188   -0.324509    0.221895
      2          6           0        2.606491    0.194099    0.085655
      3          6           0        2.585871    1.726030    0.254510
      4          8           0        3.346229   -0.568882    1.055283
      5          6           0        4.764921   -0.705265    1.017391
      6          6           0        5.579887    0.460843    1.605749
      7          7           0        4.941059   -1.935089    1.788292
      8          6           0        6.146000   -2.509682    2.087868
      9          7           0        6.402706   -3.480743    2.877552
     10          1           0        0.524430    0.197884   -0.486539
     11          1           0        0.793422   -0.138308    1.232416
     12          1           0        1.098268   -1.398734    0.026746
     13          1           0        2.969803   -0.073735   -0.916741
     14          1           0        2.461345    1.989722    1.307539
     15          1           0        1.756279    2.153603   -0.316181
     16          1           0        3.473249    2.225997   -0.128805
     17          1           0        5.063193   -0.910649   -0.022772
     18          1           0        5.088501    0.838396    2.504924
     19          1           0        5.717022    1.276439    0.898581
     20          1           0        6.594029    0.154204    1.868483
     21          1           0        4.117835   -2.249125    2.280462
     22          1           0        6.982064   -2.067895    1.539983
     23          1           0        5.548856   -3.824132    3.325547
 ---------------------------------------------------------------------
                    Distance matrix (angstroms):
                    1          2          3          4          5
     1  C    0.000000
     2  C    1.531254   0.000000
     3  C    2.490837   1.541346   0.000000
     4  O    2.341091   1.438586   2.546762   0.000000
     5  C    3.699394   2.517104   3.352826   1.425736   0.000000
     6  C    4.686112   3.350064   3.520040   2.520432   1.539526
     7  N    4.387705   3.589237   4.615537   2.224255   1.462115
     8  C    5.744183   4.883382   5.828977   3.559727   2.511816
     9  N    6.661279   5.975818   6.968433   4.598005   3.720996
    10  H    1.092870   2.159258   2.670940   3.305706   4.589036
    11  H    1.095120   2.170893   2.764947   2.594917   4.017522
    12  H    1.094306   2.194384   3.468282   2.607656   3.860909
    13  H    2.142614   1.099331   2.181373   2.067787   2.713327
    14  H    2.862903   2.176771   1.092662   2.719027   3.557190
    15  H    2.602254   2.173473   1.093951   3.438135   4.359297
    16  H    3.452963   2.219431   1.088273   3.038016   3.402128
    17  H    3.942504   2.695851   3.628510   2.055960   1.101403
    18  H    4.679966   3.525388   3.480720   2.667846   2.168028
    19  H    4.865846   3.392302   3.228168   3.008392   2.201763
    20  H    5.686543   4.368127   4.597921   3.425252   2.192870
    21  H    4.076601   3.615340   4.717335   2.218030   2.097039
    22  H    6.207366   5.135886   5.947505   3.962483   2.654352
    23  H    6.405875   5.941430   7.001060   4.538978   3.958468
                    6          7          8          9         10
     6  C    0.000000
     7  N    2.486345   0.000000
     8  C    3.062179   1.368132   0.000000
     9  N    4.222630   2.389968   1.277677   0.000000
    10  H    5.477633   5.406574   6.749855   7.707369   0.000000
    11  H    4.838245   4.554154   5.916528   6.733677   1.772058
    12  H    5.102566   4.261193   5.564353   6.371728   1.772552
    13  H    3.668960   3.829842   5.004971   6.147290   2.497739
    14  H    3.485930   4.667360   5.867728   6.922807   3.190774
    15  H    4.602090   5.593660   6.840711   7.970888   2.317608
    16  H    3.249980   4.810859   5.872299   7.084263   3.596769
    17  H    2.190900   2.084309   2.860800   4.100190   4.695135
    18  H    1.092027   2.868365   3.535798   4.530005   5.494529
    19  H    1.088159   3.421639   3.991633   5.197814   5.481318
    20  H    1.091577   2.665311   2.710193   3.777256   6.510612
    21  H    3.152262   1.009231   2.053883   2.663463   5.153320
    22  H    2.892220   2.060338   1.092866   2.029996   7.137337
    23  H    4.617323   2.510190   1.901633   1.023560   7.480205
                   11         12         13         14         15
    11  H    0.000000
    12  H    1.770662   0.000000
    13  H    3.059360   2.479603   0.000000
    14  H    2.704834   3.870406   3.076330   0.000000
    15  H    2.928840   3.629004   2.606597   1.777763   0.000000
    16  H    3.824178   4.336289   2.482553   1.772811   1.728681
    17  H    4.516963   3.995160   2.425260   4.117219   4.517898
    18  H    4.584860   5.202699   4.126579   3.108252   4.559836
    19  H    5.133692   5.408283   3.558873   3.357894   4.234684
    20  H    5.842704   6.000583   4.576510   4.556629   5.672229
    21  H    4.075006   3.862665   4.033906   4.653854   5.630587
    22  H    6.489776   6.112013   5.109833   6.079077   6.969592
    23  H    6.370294   6.047510   6.222057   6.885200   7.961101
                   16         17         18         19         20
    16  H    0.000000
    17  H    3.518197   0.000000
    18  H    3.386887   3.073930   0.000000
    19  H    2.644182   2.461653   1.779679   0.000000
    20  H    4.245086   2.655978   1.771945   1.723155   0.000000
    21  H    5.123160   2.826677   3.244281   4.110546   3.475234
    22  H    5.790867   2.731938   3.600447   3.632670   2.279518
    23  H    7.269439   4.464918   4.756524   5.651041   4.363780
                   21         22         23
    21  H    0.000000
    22  H    2.963943   0.000000
    23  H    2.370795   2.885601   0.000000
 Stoichiometry    C6H14N2O
 Framework group  C1[X(C6H14N2O)]
 Deg. of freedom    63
 Full point group                 C1      NOp   1
 Largest Abelian subgroup         C1      NOp   1
 Largest concise Abelian subgroup C1      NOp   1
                         Standard orientation:                         
 ---------------------------------------------------------------------
 Center     Atomic      Atomic             Coordinates (Angstroms)
 Number     Number       Type             X           Y           Z
 ---------------------------------------------------------------------
      1          6           0        2.696635   -1.552073   -0.085307
      2          6           0        2.026457   -0.245410    0.348551
      3          6           0        2.868224    0.930891   -0.183889
      4          8           0        0.677907   -0.367698   -0.137236
      5          6           0       -0.400752    0.421181    0.359644
      6          6           0       -0.531675    1.842029   -0.218447
      7          7           0       -1.541531   -0.419511   -0.000415
      8          6           0       -2.853366   -0.104390    0.226679
      9          7           0       -3.908256   -0.693406   -0.188923
     10          1           0        3.738170   -1.557603    0.245661
     11          1           0        2.684537   -1.643169   -1.176565
     12          1           0        2.199244   -2.432919    0.332087
     13          1           0        1.998899   -0.227381    1.447388
     14          1           0        2.703114    1.060428   -1.256209
     15          1           0        3.931140    0.737544   -0.011966
     16          1           0        2.673715    1.877307    0.316910
     17          1           0       -0.330825    0.446521    1.458533
     18          1           0       -0.308706    1.828020   -1.287377
     19          1           0        0.119241    2.559091    0.277760
     20          1           0       -1.536796    2.244611   -0.079884
     21          1           0       -1.326704   -1.180825   -0.627150
     22          1           0       -2.981377    0.763972    0.877768
     23          1           0       -3.671538   -1.496960   -0.777090
 ---------------------------------------------------------------------
 Rotational constants (GHZ):           3.4443753           0.7261959           0.6242437
 Standard basis: 6-31G(2df,p) (6D, 7F)
 There are   349 symmetry adapted cartesian basis functions of A   symmetry.
 There are   322 symmetry adapted basis functions of A   symmetry.
   322 basis functions,   494 primitive gaussians,   349 cartesian basis functions
    36 alpha electrons       36 beta electrons
       nuclear repulsion energy       471.6746853023 Hartrees.
 NAtoms=   23 NActive=   23 NUniq=   23 SFac= 1.00D+00 NAtFMM=   60 NAOKFM=F Big=F
 Integral buffers will be    131072 words long.
 Raffenetti 2 integral format.
 Two-electron integral symmetry is turned on.
 One-electron integrals computed using PRISM.
 PrsmSu:  requested number of processors reduced to:  13 ShMem   1 Linda.
 NBasis=   322 RedAO= T EigKep=  3.10D-04  NBF=   322
 NBsUse=   322 1.00D-06 EigRej= -1.00D+00 NBFU=   322
 Initial guess from the checkpoint file:  "CCpCpOCpCpNCdN.chk"
 B after Tr=     0.000000   -0.000000   -0.000000
         Rot=    0.999744    0.014888    0.001352    0.016971 Ang=   2.59 deg.
 ExpMin= 1.61D-01 ExpMax= 5.48D+03 ExpMxC= 8.25D+02 IAcc=2 IRadAn=         4 AccDes= 0.00D+00
 Harris functional with IExCor=  402 and IRadAn=       4 diagonalized for initial guess.
 HarFok:  IExCor=  402 AccDes= 0.00D+00 IRadAn=         4 IDoV= 1 UseB2=F ITyADJ=14
 ICtDFT=  3500011 ScaDFX=  1.000000  1.000000  1.000000  1.000000
 FoFCou: FMM=F IPFlag=           0 FMFlag=      100000 FMFlg1=           0
         NFxFlg=           0 DoJE=T BraDBF=F KetDBF=T FulRan=T
         wScrn=  0.000000 ICntrl=       500 IOpCl=  0 I1Cent=   200000004 NGrid=           0
         NMat0=    1 NMatS0=      1 NMatT0=    0 NMatD0=    1 NMtDS0=    0 NMtDT0=    0
 Petite list used in FoFCou.
 Requested convergence on RMS density matrix=1.00D-08 within 128 cycles.
 Requested convergence on MAX density matrix=1.00D-06.
 Requested convergence on             energy=1.00D-06.
 No special actions if energy rises.
 Integral accuracy reduced to 1.0D-05 until final iterations.
 Initial convergence to 1.0D-05 achieved.  Increase integral accuracy.
 SCF Done:  E(RB3LYP) =  -421.803338214     A.U. after   12 cycles
            NFock= 12  Conv=0.61D-08     -V/T= 2.0079
 PrsmSu:  requested number of processors reduced to:  13 ShMem   1 Linda.
 Calling FoFJK, ICntrl=      2127 FMM=F ISym2X=0 I1Cent= 0 IOpClX= 0 NMat=1 NMatS=1 NMatT=0.
 ***** Axes restored to original set *****
 -------------------------------------------------------------------
 Center     Atomic                   Forces (Hartrees/Bohr)
 Number     Number              X              Y              Z
 -------------------------------------------------------------------
      1        6          -0.001871386   -0.002423349   -0.000905054
      2        6          -0.005135451   -0.007316104   -0.001134289
      3        6           0.006980789   -0.002392961    0.001156907
      4        8           0.003949302    0.016303877    0.005562218
      5        6          -0.007510471   -0.008431694   -0.003522434
      6        6          -0.004311754    0.001354784   -0.001584574
      7        7           0.004911210   -0.000137018    0.002363940
      8        6          -0.001246910   -0.000646649    0.000319620
      9        7           0.000476909   -0.000737546   -0.001214727
     10        1          -0.001052302   -0.000570597   -0.000277663
     11        1           0.000685483    0.000560804   -0.000111407
     12        1           0.002266776    0.000687668    0.000395651
     13        1           0.002717712    0.002042768   -0.000906806
     14        1          -0.000925745    0.000403107    0.000617089
     15        1          -0.002051366   -0.002411048    0.001300866
     16        1           0.006843553   -0.001180878    0.001782385
     17        1           0.002646518    0.003931607   -0.001538512
     18        1          -0.000150309   -0.000085743    0.000954562
     19        1          -0.005557234    0.003687924   -0.003824319
     20        1          -0.000629414   -0.004908385    0.001299970
     21        1          -0.000554793    0.001557370   -0.001166447
     22        1          -0.000125732    0.000342003   -0.000263328
     23        1          -0.000355389    0.000370061    0.000696352
 -------------------------------------------------------------------
 Cartesian Forces:  Max     0.016303877 RMS     0.003525266

 GradGradGradGradGradGradGradGradGradGradGradGradGradGradGradGradGradGrad
 Berny optimization.
 Using GEDIIS/GDIIS optimizer.
 FormGI is forming the generalized inverse of G from B-inverse, IUseBI=4.
 Internal  Forces:  Max     0.025273268 RMS     0.004448243
 Search for a local minimum.
 Step number   2 out of a maximum of  115
 All quantities printed in internal units (Hartrees-Bohrs-Radians)
 Mixed Optimization -- RFO/linear search
 Update second derivatives using D2CorX and points    1    2
 DE= -1.14D-02 DEPred=-2.42D-02 R= 4.73D-01
 Trust test= 4.73D-01 RLast= 5.18D-01 DXMaxT set to 3.00D-01
 ITU=  0  0
 Use linear search instead of GDIIS.
     Eigenvalues ---    0.00335   0.00376   0.00393   0.01005   0.01106
     Eigenvalues ---    0.01383   0.01580   0.02160   0.02581   0.03324
     Eigenvalues ---    0.04511   0.04673   0.04711   0.05206   0.05249
     Eigenvalues ---    0.05372   0.05406   0.05536   0.05639   0.05676
     Eigenvalues ---    0.07302   0.09084   0.14744   0.15750   0.15935
     Eigenvalues ---    0.15998   0.16000   0.16000   0.16000   0.16000
     Eigenvalues ---    0.16000   0.16000   0.16000   0.16000   0.16282
     Eigenvalues ---    0.17883   0.19205   0.20657   0.21958   0.22014
     Eigenvalues ---    0.28942   0.29190   0.29519   0.32828   0.33418
     Eigenvalues ---    0.33826   0.34056   0.34105   0.34116   0.34211
     Eigenvalues ---    0.34315   0.34486   0.34627   0.34854   0.35456
     Eigenvalues ---    0.35989   0.37853   0.39186   0.41195   0.44144
     Eigenvalues ---    0.45922   0.52038   0.74155
 RFO step:  Lambda=-5.89813217D-03 EMin= 3.35238050D-03
 Quartic linear search produced a step of -0.23686.
 Iteration  1 RMS(Cart)=  0.10171525 RMS(Int)=  0.00300879
 Iteration  2 RMS(Cart)=  0.00462258 RMS(Int)=  0.00048078
 Iteration  3 RMS(Cart)=  0.00001122 RMS(Int)=  0.00048073
 Iteration  4 RMS(Cart)=  0.00000001 RMS(Int)=  0.00048073
 Variable       Old X    -DE/DX   Delta X   Delta X   Delta X     New X
                                 (Linear)    (Quad)   (Total)
    R1        2.89365   0.00048   0.00059   0.00018   0.00077   2.89442
    R2        2.06523   0.00053   0.00264  -0.00358  -0.00093   2.06429
    R3        2.06948  -0.00024   0.00044  -0.00133  -0.00089   2.06859
    R4        2.06794  -0.00090  -0.00113   0.00010  -0.00103   2.06690
    R5        2.91272  -0.00516  -0.00529  -0.00355  -0.00884   2.90388
    R6        2.71853  -0.01233   0.00368  -0.03041  -0.02673   2.69180
    R7        2.07743   0.00123  -0.00113   0.00471   0.00358   2.08102
    R8        2.06483   0.00080   0.00129  -0.00058   0.00071   2.06554
    R9        2.06727  -0.00007  -0.00049   0.00075   0.00025   2.06752
   R10        2.05654   0.00441  -0.00138   0.01177   0.01039   2.06693
   R11        2.69425  -0.01179   0.00626  -0.03351  -0.02725   2.66700
   R12        2.90928  -0.00681  -0.00507  -0.00803  -0.01309   2.89619
   R13        2.76300   0.00013  -0.00452   0.00840   0.00388   2.76688
   R14        2.08135   0.00144  -0.00234   0.00735   0.00500   2.08635
   R15        2.06363   0.00082   0.00124  -0.00043   0.00080   2.06444
   R16        2.05632   0.00455  -0.00201   0.01314   0.01114   2.06746
   R17        2.06278   0.00111  -0.00082   0.00384   0.00302   2.06580
   R18        2.58540  -0.00092  -0.00154   0.00148  -0.00006   2.58533
   R19        1.90717  -0.00060   0.00047  -0.00184  -0.00136   1.90581
   R20        2.41446  -0.00002  -0.00051   0.00092   0.00041   2.41487
   R21        2.06522   0.00017   0.00591  -0.01022  -0.00430   2.06091
   R22        1.93425   0.00048  -0.00106   0.00272   0.00167   1.93591
    A1        1.91306   0.00237   0.00232   0.00912   0.01148   1.92454
    A2        1.92675  -0.00091   0.00127  -0.00701  -0.00580   1.92095
    A3        1.96046  -0.00331   0.00036  -0.01746  -0.01714   1.94332
    A4        1.88797  -0.00017  -0.00224   0.00654   0.00431   1.89228
    A5        1.88977   0.00058  -0.00123   0.00583   0.00466   1.89443
    A6        1.88399   0.00154  -0.00071   0.00394   0.00311   1.88710
    A7        1.89055   0.01094  -0.01456   0.07381   0.05913   1.94968
    A8        1.81528   0.00261   0.02457  -0.02018   0.00627   1.82156
    A9        1.88407  -0.00239   0.00200   0.01985   0.02212   1.90619
   A10        2.04898  -0.01269  -0.01634  -0.04116  -0.05871   1.99027
   A11        1.92459  -0.00101   0.00232  -0.01783  -0.01767   1.90692
   A12        1.89170   0.00333   0.00339  -0.00843  -0.00583   1.88588
   A13        1.92512   0.00080   0.00065  -0.00262  -0.00196   1.92316
   A14        1.91927  -0.00220   0.00977  -0.02260  -0.01281   1.90645
   A15        1.99009  -0.00373  -0.00732  -0.00355  -0.01093   1.97915
   A16        1.89864   0.00007   0.00218  -0.00568  -0.00341   1.89523
   A17        1.89811   0.00054   0.00137  -0.00718  -0.00587   1.89224
   A18        1.82869   0.00480  -0.00679   0.04334   0.03650   1.86519
   A19        2.14658  -0.02527  -0.03145  -0.01901  -0.05046   2.09612
   A20        2.03100  -0.01162  -0.02121  -0.02137  -0.04349   1.98751
   A21        1.75821   0.00668   0.03733  -0.03058   0.00764   1.76585
   A22        1.88852   0.00344   0.00246   0.00441   0.00661   1.89513
   A23        1.95179   0.00325  -0.01739   0.04631   0.02860   1.98039
   A24        1.93779  -0.00051   0.00252  -0.02364  -0.02176   1.91603
   A25        1.88437  -0.00006  -0.00110   0.02858   0.02820   1.91257
   A26        1.91596   0.00093   0.00323  -0.00598  -0.00277   1.91319
   A27        1.96716  -0.00390  -0.00680  -0.00490  -0.01180   1.95537
   A28        1.95090  -0.00482   0.01085  -0.03724  -0.02638   1.92452
   A29        1.90994   0.00064   0.00088  -0.00477  -0.00399   1.90595
   A30        1.89335   0.00130   0.00011   0.00310   0.00329   1.89664
   A31        1.82336   0.00623  -0.00890   0.05244   0.04347   1.86683
   A32        2.18317   0.00214  -0.01047   0.02613   0.01564   2.19881
   A33        2.00489  -0.00288   0.00259  -0.01596  -0.01340   1.99149
   A34        2.07251   0.00089   0.00589  -0.00400   0.00190   2.07441
   A35        2.25426   0.00049  -0.00334   0.00744   0.00415   2.25841
   A36        1.97601  -0.00068   0.00190  -0.00631  -0.00436   1.97165
   A37        2.05261   0.00019   0.00148  -0.00164  -0.00011   2.05250
   A38        1.93680  -0.00019  -0.00223   0.00297   0.00074   1.93754
    D1        0.95367   0.00416   0.00045   0.04122   0.04165   0.99533
    D2       -3.13728  -0.00340  -0.01339   0.02075   0.00798  -3.12930
    D3       -1.13023   0.00060   0.00454   0.01010   0.01408  -1.11616
    D4       -1.12428   0.00345   0.00096   0.03179   0.03275  -1.09152
    D5        1.06796  -0.00411  -0.01288   0.01132  -0.00092   1.06704
    D6        3.07500  -0.00012   0.00505   0.00067   0.00518   3.08018
    D7        3.05523   0.00435   0.00074   0.04342   0.04407   3.09930
    D8       -1.03572  -0.00321  -0.01311   0.02295   0.01040  -1.02533
    D9        0.97132   0.00079   0.00483   0.01229   0.01649   0.98781
   D10        1.32132  -0.00027   0.00821  -0.07075  -0.06307   1.25825
   D11       -0.77271   0.00053  -0.00150  -0.04767  -0.04962  -0.82233
   D12       -2.82040  -0.00166   0.00527  -0.08477  -0.07999  -2.90038
   D13       -0.72614  -0.00378  -0.00271  -0.07393  -0.07566  -0.80181
   D14       -2.82017  -0.00298  -0.01242  -0.05084  -0.06221  -2.88239
   D15        1.41533  -0.00517  -0.00565  -0.08795  -0.09258   1.32274
   D16       -2.90364   0.00276   0.00344  -0.01311  -0.01023  -2.91387
   D17        1.28551   0.00356  -0.00628   0.00997   0.00322   1.28873
   D18       -0.76217   0.00137   0.00050  -0.02713  -0.02715  -0.78932
   D19        2.81279  -0.00245   0.04059  -0.01570   0.02442   2.83721
   D20       -1.38268   0.00597   0.02967   0.03903   0.06882  -1.31386
   D21        0.81115  -0.00241   0.02333  -0.02498  -0.00129   0.80987
   D22        1.41883  -0.00294  -0.03576   0.00467  -0.03172   1.38711
   D23       -2.75089  -0.00036  -0.04441   0.02938  -0.01416  -2.76506
   D24       -0.77635   0.00370  -0.02585   0.04918   0.02310  -0.75325
   D25        0.68489   0.00328   0.00795   0.05488   0.06229   0.74718
   D26       -1.44891   0.00448   0.00922   0.06871   0.07732  -1.37159
   D27        2.78670   0.00241   0.01797   0.03048   0.04782   2.83452
   D28       -1.32219   0.00001  -0.01387   0.07514   0.06155  -1.26064
   D29        2.82719   0.00121  -0.01260   0.08897   0.07659   2.90378
   D30        0.77962  -0.00086  -0.00385   0.05074   0.04708   0.82670
   D31        2.85505  -0.00178  -0.00279   0.02337   0.02100   2.87604
   D32        0.72125  -0.00058  -0.00152   0.03719   0.03603   0.75728
   D33       -1.32633  -0.00265   0.00723  -0.00103   0.00652  -1.31981
   D34       -3.11277   0.00405   0.02241  -0.03311  -0.01124  -3.12402
   D35       -0.20210   0.00487   0.01434  -0.00318   0.01050  -0.19160
   D36       -0.94405  -0.00403   0.00977  -0.05401  -0.04399  -0.98805
   D37        1.96662  -0.00321   0.00170  -0.02408  -0.02225   1.94437
   D38        1.19271  -0.00264   0.00178  -0.03459  -0.03235   1.16036
   D39       -2.17981  -0.00182  -0.00629  -0.00466  -0.01060  -2.19041
   D40        2.98141   0.00040  -0.00802   0.02407   0.01613   2.99754
   D41       -0.18788  -0.00001   0.00324   0.00092   0.00425  -0.18363
   D42        0.07893  -0.00000   0.00095  -0.00569  -0.00484   0.07409
   D43       -3.09037  -0.00041   0.01221  -0.02884  -0.01671  -3.10708
   D44       -0.01446  -0.00086   0.00954  -0.02933  -0.01980  -0.03426
   D45       -3.12732  -0.00043  -0.00214  -0.00528  -0.00741  -3.13473
         Item               Value     Threshold  Converged?
 Maximum Force            0.025273     0.000450     NO 
 RMS     Force            0.004448     0.000300     NO 
 Maximum Displacement     0.468894     0.001800     NO 
 RMS     Displacement     0.103481     0.001200     NO 
 Predicted change in Energy=-4.167360D-03
 GradGradGradGradGradGradGradGradGradGradGradGradGradGradGradGradGradGrad

                          Input orientation:                          
 ---------------------------------------------------------------------
 Center     Atomic      Atomic             Coordinates (Angstroms)
 Number     Number       Type             X           Y           Z
 ---------------------------------------------------------------------
      1          6           0        1.155126   -0.316086    0.218488
      2          6           0        2.606941    0.157664    0.101112
      3          6           0        2.725877    1.677894    0.291118
      4          8           0        3.307949   -0.605730    1.078275
      5          6           0        4.713869   -0.713064    1.017551
      6          6           0        5.453846    0.509107    1.572155
      7          7           0        4.939150   -1.933324    1.794732
      8          6           0        6.154661   -2.496165    2.073003
      9          7           0        6.439221   -3.467313    2.853330
     10          1           0        0.526906    0.205975   -0.506824
     11          1           0        0.771769   -0.106652    1.222200
     12          1           0        1.071803   -1.391981    0.040117
     13          1           0        2.998452   -0.116099   -0.891094
     14          1           0        2.562816    1.940935    1.339429
     15          1           0        1.965296    2.177581   -0.316213
     16          1           0        3.694511    2.079960   -0.019411
     17          1           0        5.008687   -0.883520   -0.032665
     18          1           0        4.975065    0.839288    2.496926
     19          1           0        5.468894    1.338429    0.858749
     20          1           0        6.494982    0.255478    1.788351
     21          1           0        4.125941   -2.259656    2.294022
     22          1           0        6.970830   -2.049109    1.504327
     23          1           0        5.601059   -3.813140    3.330161
 ---------------------------------------------------------------------
                    Distance matrix (angstroms):
                    1          2          3          4          5
     1  C    0.000000
     2  C    1.531661   0.000000
     3  C    2.539388   1.536668   0.000000
     4  O    2.336189   1.424440   2.484625   0.000000
     5  C    3.668889   2.457065   3.193195   1.411318   0.000000
     6  C    4.581741   3.223716   3.232481   2.468127   1.532597
     7  N    4.406681   3.560867   4.494477   2.221853   1.464171
[...]
 11,0.00296635,-0.00053605,-0.00011831,-0.00030454,-0.00001734,0.000039
 61,-0.00007979,0.00001845,0.00018541,0.00020244,0.00008745,-0.00015325
 ,0.00009833,-0.00002553,0.00008979,-0.00001732,0.00004626,-0.00003083,
 -0.00002264,0.00006333,-0.00101723,0.00038664,0.00054202,-0.00006701,0
 .00053989,0.00009852,-0.00126525,-0.00171487,0.00406721,-0.08948802,0.
 28318626,-0.00133721,-0.00024194,0.00105331,-0.00869866,0.02476279,0.0
 0560635,0.02514583,-0.06587180,-0.06603699,0.00100296,-0.00127818,0.00
 299775,-0.00049416,0.00026708,-0.00009105,-0.00002190,0.00000821,-0.00
 002386,-0.00016705,-0.00025521,-0.00015498,0.00013546,0.00000141,-0.00
 002513,-0.00003463,-0.00008179,-0.00001483,0.00012287,-0.00010132,-0.0
 0000677,0.00037758,-0.00041957,-0.00000249,-0.00019362,-0.00021111,0.0
 0002630,0.00098977,0.00358223,-0.00335198,-0.02894887,0.06841966,0.068
 98416,-0.00018860,0.00002975,0.00004854,0.00082156,0.00229136,0.004427
 29,-0.10314217,-0.03590229,-0.10372039,0.00109805,-0.00037693,0.001622
 87,-0.00028811,-0.00038965,0.00050772,0.00014646,0.00006340,-0.0000779
 5,0.00013848,0.00015956,-0.00004158,0.00008907,-0.00024545,-0.00017835
 ,-0.00001595,0.00017643,0.00005969,-0.00009507,-0.00029761,0.00050595,
 0.00002245,0.00000251,0.00010098,0.00009416,0.00014932,-0.00011071,0.0
 0010739,0.00028693,-0.00026348,0.00526609,0.00294321,0.01084618,0.1099
 6267,0.00005260,0.00043739,-0.00051762,0.01124520,0.00764768,0.0156496
 3,-0.03634343,-0.07015872,-0.06459216,0.00082698,-0.00195941,0.0065086
 7,-0.00167902,0.00038526,0.00034877,0.00018068,-0.00010710,-0.00000356
 ,0.00011226,-0.00015162,-0.00016971,-0.00004042,0.00012128,0.00016002,
 -0.00001137,-0.00012372,-0.00005398,-0.00031859,0.00010400,0.00028012,
 -0.00012793,0.00000414,-0.00003751,0.00028201,-0.00004163,-0.00016702,
 0.00034661,0.00043508,-0.00107843,-0.01480069,-0.00717099,-0.02360760,
 0.04044859,0.07199222,-0.00059794,-0.00090489,0.00043737,-0.01167196,-
 0.01127974,-0.01658283,-0.10220875,-0.06302848,-0.22985283,-0.00164211
 ,0.00444875,-0.00611529,0.00320069,-0.00079547,-0.00025679,-0.00024750
 ,0.00004858,0.00002810,-0.00062466,0.00070944,0.00044740,0.00016401,-0
 .00045762,-0.00052764,-0.00001268,0.00039623,0.00015456,0.00090840,0.0
 0045952,0.00024424,0.00002478,0.00009015,-0.00002490,0.00001981,0.0001
 5847,0.00045424,-0.00012906,0.00051296,0.00090782,-0.00347846,-0.00149
 825,-0.00652448,0.11321391,0.06909003,0.25053851,0.00111031,-0.0015035
 5,0.00102630,-0.00488975,0.00013360,-0.00032176,-0.29650385,-0.0190844
 3,0.05204616,0.00096819,0.00004432,0.00062925,-0.00140330,0.00034688,-
 0.00002570,0.00028905,0.00001335,-0.00005851,0.00044201,-0.00000094,-0
 .00025923,-0.00012168,-0.00019363,0.00019205,0.00003568,0.00010768,-0.
 00003964,0.00029489,0.00020588,-0.00006583,0.00020343,0.00004870,-0.00
 021696,-0.00041705,0.00002919,0.00010071,0.00047638,-0.00050799,0.0002
 2569,-0.01014786,-0.00132442,0.00118517,-0.01449460,-0.00040351,0.0034
 0919,0.32381751,0.00063777,-0.00287680,0.00359258,-0.02435061,-0.00182
 758,0.00221846,-0.01823768,-0.04889418,0.00460898,0.00114465,0.0006939
 2,-0.00154950,-0.00025697,0.00025458,0.00047276,0.00021982,0.00012519,
 -0.00014514,0.00012212,-0.00010233,-0.00012456,-0.00016731,-0.00024600
 ,0.00038751,0.00001266,0.00017451,-0.00010417,0.00041786,0.00000605,-0
 .00007541,-0.00027353,0.00018179,0.00031036,-0.00148279,0.00023701,0.0
 0072921,0.00012818,0.00082538,-0.00086378,0.02890070,0.00311755,-0.004
 97541,-0.00915715,-0.00156850,0.00223220,0.02164216,0.04995407,-0.0006
 4807,0.00373446,-0.00365354,0.02548693,0.00039608,-0.00481038,0.051330
 80,0.00376391,-0.05675640,-0.00089560,-0.00134140,0.00219724,0.0006622
 5,0.00074823,-0.00133078,-0.00031987,-0.00016527,0.00012460,-0.0002139
 6,-0.00020960,0.00005503,-0.00007359,0.00035871,0.00015878,0.00001859,
 -0.00029471,-0.00005456,0.00014557,0.00012548,0.00030339,-0.00037691,-
 0.00001217,0.00012691,0.00163687,0.00039347,-0.00018306,-0.00081169,-0
 .00053595,0.00076282,0.00874903,0.00100618,-0.00249130,-0.02693753,-0.
 00149197,0.00625800,-0.05655834,-0.00696173,0.05973000,-0.00009795,-0.
 00022690,-0.00062063,0.00327880,0.00116329,0.00566285,-0.00092834,0.00
 004690,-0.00029987,-0.03879003,-0.00267165,0.02441073,-0.09725264,-0.0
 3283097,0.09000847,0.00647073,0.00274431,-0.00976567,0.00454965,-0.000
 50485,-0.00144107,-0.00073416,0.00140984,0.00023070,0.00008620,-0.0000
 1297,-0.00041965,-0.00028938,-0.00002052,-0.00017738,0.00019604,-0.000
 05040,0.00004819,0.00025420,0.00016800,-0.00006829,-0.00024538,-0.0005
 9027,-0.00063899,0.00021513,-0.00004025,0.00008017,0.00052699,0.000141
 49,-0.00030161,0.00034060,0.00061011,-0.00128341,0.12025443,-0.0000177
 7,-0.00010584,0.00003020,-0.00055205,0.00003769,-0.00007795,0.00022901
 ,-0.00010559,-0.00003750,0.00663695,0.00561019,-0.00608176,-0.02957315
 ,-0.06889955,0.04987960,0.00740656,0.00533764,-0.01530854,-0.01401358,
 -0.02125493,0.03319319,-0.00206970,0.00112324,0.00492983,0.00054287,-0
 .00055257,-0.00090289,0.00003197,-0.00000021,0.00003834,0.00000532,0.0
 0000574,-0.00002753,-0.00003446,-0.00002002,-0.00002405,-0.00008796,-0
 .00007942,0.00019569,0.00012005,-0.00005564,0.00002664,-0.00019928,-0.
 00000168,-0.00003697,0.00030366,0.00003277,0.00052373,0.03048919,0.084
 98719,0.00008650,0.00008342,0.00013880,-0.00118702,-0.00160622,0.00014
 564,0.00020007,0.00078035,0.00015959,0.00246958,-0.00125370,0.00684180
 ,0.09277028,0.05804025,-0.22257716,0.01039695,0.00574572,-0.02144209,0
 .00245011,0.00498399,-0.00517348,0.00063150,-0.00281452,-0.00127627,-0
 .00039628,0.00012377,0.00087523,0.00008052,0.00002066,-0.00002506,-0.0
 0003557,-0.00004487,-0.00002978,-0.00005091,-0.00003959,0.00003741,-0.
 00007803,0.00027821,0.00016810,-0.00008360,-0.00006548,0.00002864,0.00
 004971,-0.00033746,0.00036625,-0.00108431,0.00048082,-0.00059972,-0.10
 407780,-0.06206332,0.24164989,-0.00000064,0.00004965,0.00008153,0.0000
 5102,-0.00000921,-0.00018596,-0.00003055,0.00000846,-0.00000543,0.0014
 8834,0.00000641,0.00061252,0.00477980,0.00341516,-0.01077559,-0.108136
 27,-0.03712302,0.10629652,-0.00010061,0.00105908,0.00012857,0.00006935
 ,0.00018495,-0.00020880,-0.00005688,-0.00002435,0.00004247,0.00003763,
 0.00000571,0.00001556,-0.00002760,0.00000434,-0.00001172,-0.00000941,-
 0.00001594,-0.00000471,0.00001773,0.00007404,0.00008128,-0.00000625,0.
 00001091,-0.00001415,-0.00003272,-0.00000094,0.00002374,-0.00002678,-0
 .00003731,0.00004623,-0.00021015,-0.00106821,-0.00183277,0.11297314,-0
 .00000979,0.00004684,0.00003505,0.00018200,-0.00012449,-0.00000592,0.0
 0002142,-0.00000845,-0.00004653,0.00121123,0.00024647,0.00155668,0.009
 33375,0.00414295,-0.01706225,-0.03719597,-0.06898105,0.06289427,0.0003
 6401,0.00224590,0.00037047,0.00043227,-0.00002688,-0.00038755,-0.00014
 706,0.00006043,0.00015201,0.00001823,-0.00000963,-0.00001123,0.0000023
 0,-0.00002020,0.00001454,-0.00000930,0.00001106,0.00000480,0.00000737,
 0.00003013,-0.00002198,-0.00004862,0.00001323,0.00000442,-0.00003187,0
 .00001829,0.00001198,-0.00003941,-0.00005557,0.00003497,-0.00152553,-0
 .00121344,-0.00273323,0.04133443,0.07151300,-0.00001542,0.00001993,-0.
 00003970,-0.00019420,-0.00011794,0.00011579,0.00019761,0.00007166,0.00
 004134,0.00089296,0.00007969,0.00293915,0.01468288,0.00874199,-0.02652
 644,0.10448289,0.06188954,-0.22579024,-0.00073993,0.00156882,0.0021936
 3,0.00014170,-0.00026113,-0.00010626,-0.00005455,-0.00014259,0.0000830
 8,-0.00000892,-0.00000039,0.00002610,-0.00002817,0.00001193,-0.0000151
 7,-0.00003586,-0.00004337,0.00001094,0.00007307,0.00009423,0.00009497,
 -0.00004466,0.00000922,-0.00000994,-0.00008063,-0.00004215,0.00005743,
 -0.00012155,-0.00006541,0.00015079,-0.00254977,-0.00328009,-0.00272089
 ,-0.11579850,-0.06627004,0.24830476,0.00001892,-0.00004070,0.00004675,
 0.00002370,0.00012514,-0.00005342,0.00005814,-0.00005949,-0.00002293,0
 .00007980,0.00007705,-0.00017765,0.00014039,-0.01052482,0.00283689,-0.
 05455643,0.04536167,-0.00678407,0.00111972,-0.00151669,-0.00173667,-0.
 00045657,-0.00034230,0.00003204,0.00024420,-0.00018818,-0.00011047,0.0
 0002112,0.00001407,0.00001062,-0.00002517,0.00001242,-0.00001287,-0.00
 000503,0.00000196,-0.00000430,0.00005051,0.00001201,0.00008696,-0.0000
 3499,0.00002646,-0.00002127,-0.00001592,0.00001762,0.00001239,-0.00002
 607,-0.00000615,0.00001584,0.00010596,0.00048936,0.00023261,0.00218963
 ,-0.01616505,0.00188518,0.05412095,0.00001088,0.00000664,0.00002054,-0
 .00025155,0.00014734,-0.00037598,-0.00000471,-0.00003688,0.00000114,0.
 00056408,0.00202524,0.00069031,0.00458686,-0.01621049,0.00549889,0.042
 57304,-0.30292860,0.03748712,-0.00014547,-0.00269169,-0.00500053,-0.00
 177573,0.00047863,0.00139976,0.00065920,-0.00086007,-0.00037823,0.0000
 0978,0.00000226,0.00000478,-0.00004072,0.00001700,-0.00000589,0.000015
 13,0.00000201,-0.00001510,0.00007735,0.00015639,0.00020810,-0.00005572
 ,0.00005076,-0.00001827,0.00001198,0.00003199,0.00001125,-0.00000267,-
 0.00003950,-0.00002472,0.00009891,0.00068554,-0.00020239,0.00167701,-0
 .00782351,0.00074553,-0.04837249,0.32908055,0.00001047,0.00006312,0.00
 005502,0.00007035,-0.00003063,-0.00019343,0.00000902,0.00000277,0.0000
 5160,0.00116664,0.00079810,0.00085774,0.00512203,-0.02509654,0.0051487
 3,-0.00773852,0.04112056,-0.05330682,-0.00098426,-0.00506388,-0.004835
 35,-0.00165660,-0.00031016,0.00136703,0.00080828,-0.00083454,-0.000350
 88,0.00003240,-0.00001065,-0.00000283,-0.00001138,-0.00000596,0.000007
 13,0.00001094,0.00000176,-0.00001734,0.00003837,0.00004701,0.00008014,
 -0.00006908,0.00003487,-0.00001968,0.00003347,0.00002956,0.00001866,0.
 00002818,-0.00003642,-0.00005950,0.00060445,0.00060882,0.00110260,-0.0
 0541033,0.02632459,-0.00336856,0.00805606,-0.04050652,0.05568727,-0.00
 006421,-0.00007463,-0.00026009,0.00033624,0.00022105,0.00116093,-0.000
 12956,-0.00009092,-0.00011713,-0.00114784,-0.00136523,-0.00388077,-0.0
 1055021,0.00414076,0.00228854,-0.30540335,0.04135444,-0.03143041,0.001
 82137,0.00050999,0.00119809,0.00021016,-0.00059417,-0.00041088,-0.0000
 1027,0.00015859,0.00000998,-0.00010148,-0.00000383,0.00000567,0.000022
 71,0.00000449,0.00002518,0.00001511,0.00001459,0.00002191,-0.00007290,
 -0.00013679,-0.00021505,0.00001164,0.00000400,0.00002148,0.00000500,0.
 00005017,-0.00007661,0.00003660,0.00001011,0.00000522,0.00058417,-0.00
 004042,-0.00042902,-0.01329855,0.00260936,-0.00263603,-0.00302046,-0.0
 0004590,0.00009804,0.33125406,-0.00006952,-0.00008243,-0.00028080,-0.0
 0067688,0.00061458,0.00028540,-0.00008929,-0.00013914,-0.00008599,-0.0
 0206511,-0.00081611,-0.00376774,-0.01667393,0.00121593,0.00029238,0.04
 480899,-0.05471198,0.00509801,0.00022687,0.00083406,0.00073583,0.00032
 955,-0.00030636,-0.00031058,-0.00010667,0.00017642,0.00002014,-0.00010
 676,-0.00000245,0.00002060,-0.00000913,0.00001504,0.00000142,0.0000073
 4,0.00000117,0.00001343,0.00008064,-0.00002812,0.00005038,-0.00002721,
 0.00002358,-0.00000798,0.00000365,0.00006597,-0.00005152,0.00002614,0.
 00000341,-0.00000627,0.00046723,0.00043153,0.00040069,-0.00978473,0.00
 054212,-0.00164574,0.03074265,-0.00265100,0.00314940,-0.04660711,0.054
 98226,-0.00018384,-0.00015479,-0.00062504,-0.00107054,-0.00006255,0.00
 155998,-0.00006057,-0.00006876,0.00001371,-0.00388707,-0.00308364,-0.0
 0588947,-0.02472864,0.00650381,-0.00101234,-0.02826288,0.00354805,-0.0
 5108580,0.00082182,0.00140898,0.00093149,0.00033455,-0.00037313,-0.000
 11760,-0.00009844,0.00017795,-0.00003707,-0.00023303,-0.00000400,0.000
 04164,0.00000935,0.00003371,0.00001031,0.00001990,-0.00001879,0.000014
 45,-0.00002619,-0.00011789,-0.00012842,0.00001587,0.00001556,0.0000069
 8,0.00001078,0.00002760,-0.00005644,0.00004868,0.00003277,-0.00002109,
 0.00057422,0.00074878,0.00056397,0.02637762,-0.00516778,0.00441179,-0.
 00434738,0.00052360,-0.00172381,0.03470607,-0.00383573,0.05320687,-0.0
 0000349,0.00019963,-0.00016380,-0.00045295,0.00013585,-0.00067725,0.00
 001994,-0.00005116,0.00002294,0.00022676,-0.00155181,0.00074117,0.0012
 2162,0.00479496,-0.00664252,-0.00043571,0.00030688,-0.00020050,-0.0688
 3093,-0.05154907,0.13929727,-0.00450027,-0.00863040,0.00740971,-0.0015
 9095,0.00001313,-0.00232143,0.00001702,-0.00003652,0.00007455,-0.00000
 643,-0.00005782,0.00003496,-0.00018365,-0.00004797,0.00006588,0.000158
 34,0.00005120,-0.00015569,-0.00001486,-0.00001711,0.00001075,0.0000025
 7,-0.00000453,0.00005010,-0.00004248,-0.00003501,0.00005699,0.00142270
 ,0.00076640,0.00013797,0.00030474,-0.00029061,0.00008036,-0.00001539,0
 .00046425,-0.00010334,-0.00043762,-0.00045746,-0.00001696,0.06968902,0
 .00001433,0.00003259,0.00006658,0.00006372,-0.00004690,0.00001946,-0.0
 0022685,-0.00004523,0.00008011,0.00123259,0.00209542,-0.00185016,-0.01
 675919,-0.00936058,0.02925361,-0.00023425,0.00146473,0.00126808,-0.048
 07105,-0.13334903,0.13320659,0.00770952,0.01385276,-0.01948371,-0.0004
 6747,0.00121931,-0.00011565,0.00001507,0.00000601,-0.00001811,-0.00000
 764,-0.00001238,0.00001255,0.00002955,0.00003980,-0.00000182,0.0000040
 9,-0.00002669,0.00003807,0.00003462,0.00000240,0.00000236,0.00008650,0
 .00001652,-0.00005213,0.00013407,0.00001117,-0.00011491,0.00110162,-0.
 00600354,0.00062230,0.00032167,-0.00039115,-0.00139048,0.00031397,0.00
 039169,-0.00044301,-0.00008210,-0.00012866,-0.00012953,0.05343064,0.13
 372018,-0.00000642,0.00003486,-0.00000953,-0.00036684,0.00033850,-0.00
 058997,0.00016079,-0.00004647,-0.00003290,-0.00003248,-0.00127439,0.00
 033300,0.00011475,0.00096363,-0.00076736,-0.00065326,-0.00002689,0.001
 79503,0.13102222,0.12875258,-0.31241810,0.00898202,0.01477523,-0.02228
 501,-0.00324035,0.00085954,0.00298906,0.00003982,-0.00000573,0.0000309
 4,0.00003806,-0.00004955,0.00001345,-0.00012426,-0.00000005,0.00005704
 ,0.00005616,-0.00006358,-0.00026493,-0.00005130,-0.00005712,0.00004116
 ,0.00002916,-0.00000115,0.00004380,-0.00005771,-0.00003442,-0.00000335
 ,0.00030407,-0.00050955,0.00081825,0.00053358,0.00011471,-0.00015686,0
 .00009716,0.00009493,-0.00035907,-0.00010562,-0.00009168,-0.00002039,-
 0.13991862,-0.13952740,0.33165842,-0.00001191,-0.00010218,-0.00006152,
 -0.00004399,0.00022834,0.00039124,-0.00009423,-0.00002409,-0.00004699,
 -0.00025774,0.00028598,-0.00010315,-0.00075475,-0.00198323,0.00013399,
 0.00019949,0.00032799,-0.00018320,-0.00027952,-0.00426697,0.01415969,-
 0.07196121,-0.03382304,0.06302906,0.00024874,0.00047993,-0.00529532,-0
 .00001660,0.00000359,-0.00000065,0.00005268,-0.00000918,-0.00001463,0.
 00002668,0.00001637,-0.00001449,-0.00030328,-0.00010090,0.00007796,0.0
 0006053,-0.00003697,-0.00000222,-0.00000457,0.00001003,-0.00001157,0.0
 0005768,0.00012897,-0.00003884,0.00023820,0.00056519,-0.00035041,-0.00
 000104,-0.00008255,-0.00016723,0.00004475,0.00006940,0.00000569,-0.000
 03223,-0.00001846,-0.00000261,0.00335218,0.00185267,0.00288230,0.05770
 218,-0.00000101,-0.00010141,-0.00003567,0.00013719,0.00024733,0.000235
 96,0.00003525,0.00002624,-0.00004117,-0.00032890,0.00001520,0.00002107
 ,0.00125786,0.00099395,-0.00245640,-0.00001921,0.00007264,-0.00024992,
 0.00691402,0.00739487,-0.01634821,-0.03553630,-0.10814773,0.10078455,-
 0.00855234,-0.02832229,0.02734746,-0.00002015,0.00000174,-0.00000328,0
 .00003276,0.00000074,-0.00001297,0.00000822,0.00000740,-0.00000559,-0.
 00000815,-0.00015231,0.00002061,-0.00001436,-0.00001976,-0.00000311,-0
 .00003358,0.00001366,-0.00001759,0.00002647,-0.00001341,0.00004932,-0.
 00008967,-0.00028998,-0.00006396,-0.00009379,-0.00016206,0.00006332,-0
 .00000602,0.00002609,0.00007302,-0.00002227,-0.00001150,0.00000104,0.0
 0157016,-0.00211698,-0.00256184,0.03422656,0.13504733,0.00002788,0.000
 17231,0.00002290,0.00004154,-0.00046351,-0.00038577,0.00006593,-0.0000
 1912,0.00003580,0.00009826,-0.00050179,0.00082529,-0.00041041,0.003864
 74,-0.00137427,-0.00014048,-0.00050989,0.00030063,0.01247714,0.0097977
 6,-0.02616281,0.06273304,0.09609724,-0.22671975,-0.00292933,0.00659965
 ,0.00343188,-0.00000363,-0.00000545,0.00000119,-0.00005837,0.00000146,
 0.00002526,-0.00003293,-0.00001861,0.00002319,-0.00004298,0.00032422,0
 .00002088,-0.00002861,0.00002972,-0.00000835,-0.00004042,0.00000100,-0
 .00000016,-0.00003857,-0.00007899,0.00006745,-0.00037981,-0.00137542,0
 .00105512,0.00000102,0.00015052,0.00027311,-0.00004258,-0.00013368,-0.
 00007533,0.00001676,0.00000773,-0.00002624,0.00248911,-0.00301691,-0.0
 0157913,-0.07812938,-0.11042388,0.24680541,-0.00000126,-0.00005179,-0.
 00005071,0.00007069,0.00048467,0.00027521,-0.00002767,-0.00006026,-0.0
 0007615,-0.00072678,0.00062629,-0.00054891,-0.00119485,-0.00051269,-0.
 00056476,0.00007290,-0.00053804,0.00024606,-0.00541361,0.00053808,-0.0
 0409310,0.00315250,0.00854147,0.00053128,-0.06940676,-0.05542261,0.103
 15435,-0.00001337,0.00000404,-0.00000114,0.00003393,-0.00003426,0.,-0.
 00002433,0.00001372,0.00003123,-0.00002255,-0.00010080,-0.00008296,0.0
 0001756,-0.00003666,0.00001552,-0.00000321,0.00001620,-0.00002410,0.00
 000109,0.00002940,0.00000348,0.00002423,0.00007004,0.00009990,0.000026
 07,0.00002939,0.00003877,-0.00006176,-0.00012290,-0.00012086,-0.000028
 37,-0.00000079,-0.00000071,0.00009982,-0.00049608,0.00029679,0.0117779
 5,0.00051727,0.00432683,0.06164776,-0.00000607,-0.00001045,-0.00003812
 ,0.00026906,0.00007796,0.00046733,-0.00004899,0.00000040,-0.00004357,-
 0.00086255,0.00049506,-0.00052018,0.00060680,-0.00160470,0.00057276,-0
 .00005623,0.00026834,-0.00016736,-0.00218391,0.00622219,0.00093555,-0.
 01492904,-0.03260098,0.04604136,-0.03267975,-0.08441780,0.09328837,-0.
 00004163,0.00000036,-0.00002695,-0.00000626,0.00000874,0.00000573,0.00
 003464,0.00000728,0.00000357,0.00001723,-0.00003969,0.00002287,0.00001
 034,0.00001572,-0.00000151,-0.00001939,0.00000992,-0.00004688,-0.00000
 157,0.00000648,0.00002415,0.00012308,0.00033089,-0.00033545,0.00000567
 ,-0.00005400,-0.00003651,0.00002752,0.00013963,0.00008475,-0.00001417,
 -0.00002833,-0.00000526,0.00099638,-0.00137142,-0.00168415,0.00225257,
 -0.00450975,-0.00049911,0.04650629,0.11705416,0.00000744,0.00001667,-0
 .00001565,0.00012881,0.00016876,0.00005723,0.00002866,-0.00001936,-0.0
 0004516,-0.00037844,0.00015933,-0.00015762,-0.00047149,-0.00040987,0.0
 0012030,-0.00001022,-0.00024064,0.00012549,-0.00379806,-0.00325604,0.0
 0215896,0.00744059,-0.01145583,-0.01027622,0.09698673,0.14834073,-0.30
 840816,-0.00000991,0.00000455,-0.00001036,-0.00000718,-0.00001836,0.00
 001114,-0.00002555,0.00000186,0.00004187,0.00005378,0.00002070,-0.0000
 7194,-0.00002358,0.00000104,0.00001719,-0.00000521,0.00000492,-0.00001
 503,-0.00004326,-0.00005069,0.00002866,0.00010009,-0.00044923,-0.00010
 685,0.00000733,0.00003751,0.00003117,0.00000111,-0.00002464,-0.0000633
 3,0.00000374,0.00000863,-0.00001748,-0.00027164,0.00157412,0.00070645,
 0.00374228,0.00362722,0.00344369,-0.10345603,-0.13804139,0.31244563\\-
 0.00000074,0.00000077,0.00000070,0.00000273,0.00000062,0.00000194,-0.0
 0000020,0.00000106,-0.00000052,-0.00000208,0.00000007,-0.00000090,0.00
 000314,0.00000281,-0.00000003,-0.00000354,-0.00000078,-0.00000267,-0.0
 0000130,-0.00000647,0.00000237,0.00000296,0.00000266,0.00000025,-0.000
 00124,-0.00000133,-0.00000107,0.00000017,0.00000029,0.00000051,-0.0000
 0035,0.00000028,0.00000028,-0.00000005,0.00000038,0.00000085,-0.000001
 09,-0.00000002,0.00000004,0.00000043,-0.00000044,0.00000055,0.00000014
 ,0.00000008,0.00000008,0.00000010,0.00000020,-0.00000095,0.00000015,-0
 .00000016,0.00000076,0.00000256,0.00000009,0.00000061,0.00000037,0.000
 00008,-0.00000120,0.00000058,-0.00000075,0.,0.00000044,0.00000167,-0.0
 0000236,-0.00000236,-0.00000085,0.00000054,-0.00000082,-0.00000026,0.0
 0000021\\\@


 I DON'T PRETEND TO UNDERSTAND THE UNIVERSE --
 IT'S A GREAT DEAL BIGGER THAN I AM.
       -- ATTR. TO WILLIAM ALLINGHAM (1828-89)
 Job cpu time:       0 days  2 hours 23 minutes 36.2 seconds.
 Elapsed time:       0 days  0 hours 35 minutes 54.6 seconds.
 File lengths (MBytes):  RWF=    181 Int=      0 D2E=      0 Chk=     10 Scr=      1
 Normal termination of Gaussian 16 at Thu Aug  4 01:57:20 2022.
### All Done ###
