### Starting Gaussian ###
 Entering Gaussian System, Link 0=g16
 Initial command:
 /cluster/software/gaussian/gaussian-16-A.03/avx2/g16/l1.exe "/local/scratch/ks29c/Gau-5868.inp" -scrdir="/local/scratch/ks29c/"
 Entering Link 1 = /cluster/software/gaussian/gaussian-16-A.03/avx2/g16/l1.exe PID=      5869.
  
 Copyright (c) 1988,1990,1992,1993,1995,1998,2003,2009,2016,
            Gaussian, Inc.  All Rights Reserved.
  
 This is part of the Gaussian(R) 16 program.  It is based on
 the Gaussian(R) 09 system (copyright 2009, Gaussian, Inc.),
 the Gaussian(R) 03 system (copyright 2003, Gaussian, Inc.),
 the Gaussian(R) 98 system (copyright 1998, Gaussian, Inc.),
 the Gaussian(R) 94 system (copyright 1995, Gaussian, Inc.),
 the Gaussian 92(TM) system (copyright 1992, Gaussian, Inc.),
 the Gaussian 90(TM) system (copyright 1990, Gaussian, Inc.),
 the Gaussian 88(TM) system (copyright 1988, Gaussian, Inc.),
 the Gaussian 86(TM) system (copyright 1986, Carnegie Mellon
 University), and the Gaussian 82(TM) system (copyright 1983,
 Carnegie Mellon University). Gaussian is a federally registered
 trademark of Gaussian, Inc.
  
 This software contains proprietary and confidential information,
 including trade secrets, belonging to Gaussian, Inc.
  
 This software is provided under written license and may be
 used, copied, transmitted, or stored only in accord with that
 written license.
  
 The following legend is applicable only to US Government
 contracts under FAR:
  
                    RESTRICTED RIGHTS LEGEND
  
 Use, reproduction and disclosure by the US Government is
 subject to restrictions as set forth in subparagraphs (a)
 and (c) of the Commercial Computer Software - Restricted
 Rights clause in FAR 52.227-19.
  
 Gaussian, Inc.
 340 Quinnipiac St., Bldg. 40, Wallingford CT 06492
  
  
 ---------------------------------------------------------------
 Warning -- This program may not be used in any manner that
 competes with the business of Gaussian, Inc. or will provide
 assistance to any competitor of Gaussian, Inc.  The licensee
 of this program is prohibited from giving any competitor of
 Gaussian, Inc. access to this program.  By using this program,
 the user acknowledges that Gaussian, Inc. is engaged in the
 business of creating and licensing software in the field of
 computational chemistry and represents and warrants to the
 licensee that it is not a competitor of Gaussian, Inc. and that
 it will not use this program in any manner prohibited above.
 ---------------------------------------------------------------
  

 Cite this work as:
 Gaussian 16, Revision A.03,
 M. J. Frisch, G. W. Trucks, H. B. Schlegel, G. E. Scuseria, 
 M. A. Robb, J. R. Cheeseman, G. Scalmani, V. Barone, 
 G. A. Petersson, H. Nakatsuji, X. Li, M. Caricato, A. V. Marenich, 
 J. Bloino, B. G. Janesko, R. Gomperts, B. Mennucci, H. P. Hratchian, 
 J. V. Ortiz, A. F. Izmaylov, J. L. Sonnenberg, D. Williams-Young, 
 F. Ding, F. Lipparini, F. Egidi, J. Goings, B. Peng, A. Petrone, 
 T. Henderson, D. Ranasinghe, V. G. Zakrzewski, J. Gao, N. Rega, 
 G. Zheng, W. Liang, M. Hada, M. Ehara, K. Toyota, R. Fukuda, 
 J. Hasegawa, M. Ishida, T. Nakajima, Y. Honda, O. Kitao, H. Nakai, 
 T. Vreven, K. Throssell, J. A. Montgomery, Jr., J. E. Peralta, 
 F. Ogliaro, M. J. Bearpark, J. J. Heyd, E. N. Brothers, K. N. Kudin, 
 V. N. Staroverov, T. A. Keith, R. Kobayashi, J. Normand, 
 K. Raghavachari, A. P. Rendell, J. C. Burant, S. S. Iyengar, 
 J. Tomasi, M. Cossi, J. M. Millam, M. Klene, C. Adamo, R. Cammi, 
 J. W. Ochterski, R. L. Martin, K. Morokuma, O. Farkas, 
 J. B. Foresman, and D. J. Fox, Gaussian, Inc., Wallingford CT, 2016.
 
 ******************************************
 Gaussian 16:  ES64L-G16RevA.03 25-Dec-2016
                 3-Jul-2022 
 ******************************************
 %chk=CCpdOpNpCdOpCpCpN.chk
 %NProcShared=20
 Will use up to   20 processors via shared memory.
 -----------------------------
 # opt freq b3lyp/6-31g(2df,p)
 -----------------------------
 1/18=20,19=15,26=3,38=1/1,3;
 2/9=110,12=2,17=6,18=5,40=1/2;
 3/5=1,6=6,7=104,11=2,25=1,30=1,71=1,74=-5/1,2,3;
 4//1;
 5/5=2,38=5/2;
 6/7=2,8=2,9=2,10=2,28=1/1;
 7//1,2,3,16;
 1/18=20,19=15,26=3/3(2);
 2/9=110/2;
 99//99;
 2/9=110/2;
 3/5=1,6=6,7=104,11=2,25=1,30=1,71=1,74=-5/1,2,3;
 4/5=5,16=3,69=1/1;
 5/5=2,38=5/2;
 7//1,2,3,16;
 1/18=20,19=15,26=3/3(-5);
 2/9=110/2;
 6/7=2,8=2,9=2,10=2,19=2,28=1/1;
 99/9=1/99;
 -------------------
 Title Card Required
 -------------------
 Symbolic Z-matrix:
 Charge =  0 Multiplicity = 1
 C                     1.09215  -0.06283   0.03709 
 C                     2.60247  -0.02086   0.00389 
 O                     3.22847  -0.44187   0.98124 
 N                     3.23151   0.49814  -1.13678 
 C                     2.51749   1.09454  -2.16659 
 O                     1.29886   1.14191  -2.31726 
 C                     4.70424   0.49561  -1.1219 
 C                     5.29161  -0.92126  -1.06466 
 N                     5.26381   1.15494  -2.30592 
 H                     0.75781  -0.549     0.95871 
 H                     0.70802  -0.65296  -0.79939 
 H                     0.68706   0.95227   0.03325 
 H                     3.14228   1.53914  -2.94906 
 H                     5.03316   1.05301  -0.2347 
 H                     4.95111  -1.52045  -1.91568 
 H                     5.0011   -1.45476  -0.15621 
 H                     6.38752  -0.89845  -1.07143 
 H                     5.05851   0.58908  -3.12977 
 H                     6.28307   1.15007  -2.24386 
 

 GradGradGradGradGradGradGradGradGradGradGradGradGradGradGradGradGradGrad
 Berny optimization.
 Initialization pass.
                           ----------------------------
                           !    Initial Parameters    !
                           ! (Angstroms and Degrees)  !
 --------------------------                            --------------------------
 ! Name  Definition              Value          Derivative Info.                !
 --------------------------------------------------------------------------------
 ! R1    R(1,2)                  1.5113         estimate D2E/DX2                !
 ! R2    R(1,10)                 1.0943         estimate D2E/DX2                !
 ! R3    R(1,11)                 1.0934         estimate D2E/DX2                !
 ! R4    R(1,12)                 1.093          estimate D2E/DX2                !
 ! R5    R(2,3)                  1.2346         estimate D2E/DX2                !
 ! R6    R(2,4)                  1.4022         estimate D2E/DX2                !
 ! R7    R(4,5)                  1.3878         estimate D2E/DX2                !
 ! R8    R(4,7)                  1.4728         estimate D2E/DX2                !
 ! R9    R(5,6)                  1.2288         estimate D2E/DX2                !
 ! R10   R(5,13)                 1.0956         estimate D2E/DX2                !
 ! R11   R(7,8)                  1.5349         estimate D2E/DX2                !
 ! R12   R(7,9)                  1.4662         estimate D2E/DX2                !
 ! R13   R(7,14)                 1.0982         estimate D2E/DX2                !
 ! R14   R(8,15)                 1.0951         estimate D2E/DX2                !
 ! R15   R(8,16)                 1.0928         estimate D2E/DX2                !
 ! R16   R(8,17)                 1.0962         estimate D2E/DX2                !
 ! R17   R(9,18)                 1.0203         estimate D2E/DX2                !
 ! R18   R(9,19)                 1.0212         estimate D2E/DX2                !
 ! A1    A(2,1,10)             109.6438         estimate D2E/DX2                !
 ! A2    A(2,1,11)             110.4434         estimate D2E/DX2                !
 ! A3    A(2,1,12)             110.1535         estimate D2E/DX2                !
 ! A4    A(10,1,11)            107.2884         estimate D2E/DX2                !
 ! A5    A(10,1,12)            107.5984         estimate D2E/DX2                !
 ! A6    A(11,1,12)            111.6157         estimate D2E/DX2                !
 ! A7    A(1,2,3)              118.6757         estimate D2E/DX2                !
 ! A8    A(1,2,4)              118.4555         estimate D2E/DX2                !
 ! A9    A(3,2,4)              122.8686         estimate D2E/DX2                !
 ! A10   A(2,4,5)              122.1332         estimate D2E/DX2                !
 ! A11   A(2,4,7)              116.0866         estimate D2E/DX2                !
 ! A12   A(5,4,7)              121.5136         estimate D2E/DX2                !
 ! A13   A(4,5,6)              128.1538         estimate D2E/DX2                !
 ! A14   A(4,5,13)             114.2649         estimate D2E/DX2                !
 ! A15   A(6,5,13)             117.5381         estimate D2E/DX2                !
 ! A16   A(4,7,8)              112.6207         estimate D2E/DX2                !
 ! A17   A(4,7,9)              111.882          estimate D2E/DX2                !
 ! A18   A(4,7,14)             107.8657         estimate D2E/DX2                !
 ! A19   A(8,7,9)              107.4085         estimate D2E/DX2                !
 ! A20   A(8,7,14)             108.8928         estimate D2E/DX2                !
 ! A21   A(9,7,14)             108.0499         estimate D2E/DX2                !
 ! A22   A(7,8,15)             110.924          estimate D2E/DX2                !
 ! A23   A(7,8,16)             112.3288         estimate D2E/DX2                !
 ! A24   A(7,8,17)             111.2942         estimate D2E/DX2                !
 ! A25   A(15,8,16)            107.2318         estimate D2E/DX2                !
 ! A26   A(15,8,17)            108.5087         estimate D2E/DX2                !
 ! A27   A(16,8,17)            106.3235         estimate D2E/DX2                !
 ! A28   A(7,9,18)             109.0176         estimate D2E/DX2                !
 ! A29   A(7,9,19)             109.2515         estimate D2E/DX2                !
 ! A30   A(18,9,19)            104.3155         estimate D2E/DX2                !
 ! D1    D(10,1,2,3)            -3.6861         estimate D2E/DX2                !
 ! D2    D(10,1,2,4)           176.4445         estimate D2E/DX2                !
 ! D3    D(11,1,2,3)          -121.7081         estimate D2E/DX2                !
 ! D4    D(11,1,2,4)            58.4225         estimate D2E/DX2                !
 ! D5    D(12,1,2,3)           114.5408         estimate D2E/DX2                !
 ! D6    D(12,1,2,4)           -65.3285         estimate D2E/DX2                !
 ! D7    D(1,2,4,5)              6.7368         estimate D2E/DX2                !
 ! D8    D(1,2,4,7)           -179.1127         estimate D2E/DX2                !
 ! D9    D(3,2,4,5)           -173.1267         estimate D2E/DX2                !
 ! D10   D(3,2,4,7)              1.0238         estimate D2E/DX2                !
 ! D11   D(2,4,5,6)             -7.9705         estimate D2E/DX2                !
 ! D12   D(2,4,5,13)           174.5015         estimate D2E/DX2                !
 ! D13   D(7,4,5,6)            178.1932         estimate D2E/DX2                !
 ! D14   D(7,4,5,13)             0.6651         estimate D2E/DX2                !
 ! D15   D(2,4,7,8)             63.5343         estimate D2E/DX2                !
 ! D16   D(2,4,7,9)           -175.359          estimate D2E/DX2                !
 ! D17   D(2,4,7,14)           -56.6556         estimate D2E/DX2                !
 ! D18   D(5,4,7,8)           -122.276          estimate D2E/DX2                !
 ! D19   D(5,4,7,9)             -1.1693         estimate D2E/DX2                !
 ! D20   D(5,4,7,14)           117.5342         estimate D2E/DX2                !
 ! D21   D(4,7,8,15)            58.1334         estimate D2E/DX2                !
 ! D22   D(4,7,8,16)           -61.8597         estimate D2E/DX2                !
 ! D23   D(4,7,8,17)           179.0499         estimate D2E/DX2                !
 ! D24   D(9,7,8,15)           -65.4938         estimate D2E/DX2                !
 ! D25   D(9,7,8,16)           174.5132         estimate D2E/DX2                !
 ! D26   D(9,7,8,17)            55.4227         estimate D2E/DX2                !
 ! D27   D(14,7,8,15)          177.7295         estimate D2E/DX2                !
 ! D28   D(14,7,8,16)           57.7365         estimate D2E/DX2                !
 ! D29   D(14,7,8,17)          -61.354          estimate D2E/DX2                !
 ! D30   D(4,7,9,18)           -67.9151         estimate D2E/DX2                !
 ! D31   D(4,7,9,19)           178.6691         estimate D2E/DX2                !
 ! D32   D(8,7,9,18)            56.1627         estimate D2E/DX2                !
 ! D33   D(8,7,9,19)           -57.2532         estimate D2E/DX2                !
 ! D34   D(14,7,9,18)          173.4907         estimate D2E/DX2                !
 ! D35   D(14,7,9,19)           60.0749         estimate D2E/DX2                !
 --------------------------------------------------------------------------------
 Trust Radius=3.00D-01 FncErr=1.00D-07 GrdErr=1.00D-06 EigMax=2.50D+02 EigMin=1.00D-04
 Number of steps in this run=     93 maximum allowed number of steps=    114.
 GradGradGradGradGradGradGradGradGradGradGradGradGradGradGradGradGradGrad

                          Input orientation:                          
 ---------------------------------------------------------------------
 Center     Atomic      Atomic             Coordinates (Angstroms)
 Number     Number       Type             X           Y           Z
 ---------------------------------------------------------------------
      1          6           0        1.092150   -0.062830    0.037090
      2          6           0        2.602470   -0.020860    0.003890
      3          8           0        3.228470   -0.441870    0.981240
      4          7           0        3.231510    0.498140   -1.136780
      5          6           0        2.517490    1.094540   -2.166590
      6          8           0        1.298860    1.141910   -2.317260
      7          6           0        4.704240    0.495610   -1.121900
      8          6           0        5.291610   -0.921260   -1.064660
      9          7           0        5.263810    1.154940   -2.305920
     10          1           0        0.757810   -0.549000    0.958710
     11          1           0        0.708020   -0.652960   -0.799390
     12          1           0        0.687060    0.952270    0.033250
     13          1           0        3.142280    1.539140   -2.949060
     14          1           0        5.033160    1.053010   -0.234700
     15          1           0        4.951110   -1.520450   -1.915680
     16          1           0        5.001100   -1.454760   -0.156210
     17          1           0        6.387520   -0.898450   -1.071430
     18          1           0        5.058510    0.589080   -3.129770
     19          1           0        6.283070    1.150070   -2.243860
 ---------------------------------------------------------------------
                    Distance matrix (angstroms):
                    1          2          3          4          5
     1  C    0.000000
     2  C    1.511268   0.000000
     3  O    2.366211   1.234641   0.000000
     4  N    2.503901   1.402206   2.317248   0.000000
     5  C    2.868328   2.441787   3.574197   1.387813   0.000000
     6  O    2.652752   2.905025   4.136648   2.354381   1.228822
     7  C    3.834359   2.439586   2.734952   1.472807   2.496391
     8  C    4.425632   3.030510   2.944838   2.502780   3.601866
     9  N    4.937146   3.714897   4.183041   2.434855   2.750515
    10  H    1.094316   2.143218   2.473084   3.406871   3.945275
    11  H    1.093393   2.152615   3.093197   2.794077   2.863071
    12  H    1.092950   2.148637   3.049767   2.837152   2.865312
    13  H    3.960610   3.383032   4.402168   2.091890   1.095578
    14  H    4.104940   2.668028   2.640091   2.089874   3.172147
    15  H    4.563939   3.383730   3.538781   2.763768   3.581010
    16  H    4.153881   2.799130   2.337083   2.811901   4.087649
    17  H    5.474306   4.031511   3.794933   3.451830   4.488710
    18  H    5.117226   4.027901   4.616525   2.705219   2.764053
    19  H    5.798233   4.468811   4.718699   3.310990   3.766782
                    6          7          8          9         10
     6  O    0.000000
     7  C    3.666497   0.000000
     8  C    4.665590   1.534862   0.000000
     9  N    3.964988   1.466198   2.419113   0.000000
    10  H    3.726109   4.581971   4.978749   5.819386   0.000000
    11  H    2.423753   4.170492   4.599092   5.127705   1.761875
    12  H    2.436218   4.204836   5.090914   5.143873   1.765019
    13  H    1.988758   2.620532   3.771492   2.249917   5.031570
    14  H    4.276676   1.098183   2.157168   2.086514   4.719034
    15  H    4.537440   2.180718   1.095082   2.721724   5.175867
    16  H    5.011927   2.196503   1.092840   3.391283   4.479839
    17  H    5.622243   2.186180   1.096168   2.646337   5.994766
    18  H    3.885970   2.041026   2.569074   1.020331   6.042095
    19  H    4.984757   2.044460   2.581456   1.021159   6.608464
                   11         12         13         14         15
    11  H    0.000000
    12  H    1.808450   0.000000
    13  H    3.918164   3.907262   0.000000
    14  H    4.683593   4.355517   3.343576   0.000000
    15  H    4.472410   5.300452   3.701463   3.074918   0.000000
    16  H    4.414420   4.943747   4.496516   2.509203   1.761405
    17  H    5.691308   6.094319   4.472015   2.518453   1.778459
    18  H    5.089214   5.407974   2.146441   2.932116   2.436322
    19  H    6.034782   6.044806   3.242413   2.368210   3.002249
                   16         17         18         19
    16  H    0.000000
    17  H    1.751933   0.000000
    18  H    3.608689   2.866318   0.000000
    19  H    3.575873   2.362612   1.612170   0.000000
 Stoichiometry    C5H10N2O2
 Framework group  C1[X(C5H10N2O2)]
 Deg. of freedom    51
 Full point group                 C1      NOp   1
 Largest Abelian subgroup         C1      NOp   1
 Largest concise Abelian subgroup C1      NOp   1
                         Standard orientation:                         
 ---------------------------------------------------------------------
 Center     Atomic      Atomic             Coordinates (Angstroms)
 Number     Number       Type             X           Y           Z
 ---------------------------------------------------------------------
      1          6           0        2.404142   -0.591365    0.112673
      2          6           0        0.940224   -0.868693   -0.140241
      3          8           0        0.588218   -2.029592   -0.369901
      4          7           0        0.040919    0.206609   -0.106266
      5          6           0        0.467150    1.521847    0.014163
      6          8           0        1.602775    1.934330    0.238254
      7          6           0       -1.374841   -0.125532   -0.339650
      8          6           0       -1.952495   -1.043917    0.746023
      9          7           0       -2.216045    1.074184   -0.392528
     10          1           0        2.961856   -1.532894    0.115153
     11          1           0        2.541364   -0.129830    1.094337
     12          1           0        2.812701    0.032610   -0.686248
     13          1           0       -0.334405    2.264194   -0.067820
     14          1           0       -1.445999   -0.634058   -1.310394
     15          1           0       -1.861359   -0.584611    1.735940
     16          1           0       -1.441416   -2.008948    0.788595
     17          1           0       -3.010282   -1.263420    0.560308
     18          1           0       -2.247401    1.499390    0.534452
     19          1           0       -3.182200    0.800075   -0.577395
 ---------------------------------------------------------------------
 Rotational constants (GHZ):           2.1464351           1.4705052           0.9437368
 Standard basis: 6-31G(2df,p) (6D, 7F)
 There are   329 symmetry adapted cartesian basis functions of A   symmetry.
 There are   302 symmetry adapted basis functions of A   symmetry.
   302 basis functions,   466 primitive gaussians,   329 cartesian basis functions
    35 alpha electrons       35 beta electrons
       nuclear repulsion energy       477.3703576407 Hartrees.
 NAtoms=   19 NActive=   19 NUniq=   19 SFac= 1.00D+00 NAtFMM=   60 NAOKFM=F Big=F
 Integral buffers will be    131072 words long.
 Raffenetti 2 integral format.
 Two-electron integral symmetry is turned on.
 One-electron integrals computed using PRISM.
 PrsmSu:  requested number of processors reduced to:  13 ShMem   1 Linda.
 NBasis=   302 RedAO= T EigKep=  2.15D-04  NBF=   302
 NBsUse=   302 1.00D-06 EigRej= -1.00D+00 NBFU=   302
 ExpMin= 1.61D-01 ExpMax= 5.48D+03 ExpMxC= 8.25D+02 IAcc=3 IRadAn=         5 AccDes= 0.00D+00
 Harris functional with IExCor=  402 and IRadAn=       5 diagonalized for initial guess.
 HarFok:  IExCor=  402 AccDes= 0.00D+00 IRadAn=         5 IDoV= 1 UseB2=F ITyADJ=14
 ICtDFT=  3500011 ScaDFX=  1.000000  1.000000  1.000000  1.000000
 FoFCou: FMM=F IPFlag=           0 FMFlag=      100000 FMFlg1=           0
         NFxFlg=           0 DoJE=T BraDBF=F KetDBF=T FulRan=T
         wScrn=  0.000000 ICntrl=       500 IOpCl=  0 I1Cent=   200000004 NGrid=           0
         NMat0=    1 NMatS0=      1 NMatT0=    0 NMatD0=    1 NMtDS0=    0 NMtDT0=    0
 Petite list used in FoFCou.
 Requested convergence on RMS density matrix=1.00D-08 within 128 cycles.
 Requested convergence on MAX density matrix=1.00D-06.
 Requested convergence on             energy=1.00D-06.
 No special actions if energy rises.
 Integral accuracy reduced to 1.0D-05 until final iterations.
 Initial convergence to 1.0D-05 achieved.  Increase integral accuracy.
 SCF Done:  E(RB3LYP) =  -456.539372704     A.U. after   14 cycles
            NFock= 14  Conv=0.48D-08     -V/T= 2.0073

 **********************************************************************

            Population analysis using the SCF density.

 **********************************************************************

 Orbital symmetries:
       Occupied  (A) (A) (A) (A) (A) (A) (A) (A) (A) (A) (A) (A)
                 (A) (A) (A) (A) (A) (A) (A) (A) (A) (A) (A) (A)
                 (A) (A) (A) (A) (A) (A) (A) (A) (A) (A) (A)
       Virtual   (A) (A) (A) (A) (A) (A) (A) (A) (A) (A) (A) (A)
                 (A) (A) (A) (A) (A) (A) (A) (A) (A) (A) (A) (A)
                 (A) (A) (A) (A) (A) (A) (A) (A) (A) (A) (A) (A)
                 (A) (A) (A) (A) (A) (A) (A) (A) (A) (A) (A) (A)
                 (A) (A) (A) (A) (A) (A) (A) (A) (A) (A) (A) (A)
                 (A) (A) (A) (A) (A) (A) (A) (A) (A) (A) (A) (A)
                 (A) (A) (A) (A) (A) (A) (A) (A) (A) (A) (A) (A)
                 (A) (A) (A) (A) (A) (A) (A) (A) (A) (A) (A) (A)
                 (A) (A) (A) (A) (A) (A) (A) (A) (A) (A) (A) (A)
                 (A) (A) (A) (A) (A) (A) (A) (A) (A) (A) (A) (A)
                 (A) (A) (A) (A) (A) (A) (A) (A) (A) (A) (A) (A)
                 (A) (A) (A) (A) (A) (A) (A) (A) (A) (A) (A) (A)
                 (A) (A) (A) (A) (A) (A) (A) (A) (A) (A) (A) (A)
                 (A) (A) (A) (A) (A) (A) (A) (A) (A) (A) (A) (A)
                 (A) (A) (A) (A) (A) (A) (A) (A) (A) (A) (A) (A)
                 (A) (A) (A) (A) (A) (A) (A) (A) (A) (A) (A) (A)
                 (A) (A) (A) (A) (A) (A) (A) (A) (A) (A) (A) (A)
                 (A) (A) (A) (A) (A) (A) (A) (A) (A) (A) (A) (A)
                 (A) (A) (A) (A) (A) (A) (A) (A) (A) (A) (A) (A)
                 (A) (A) (A) (A) (A) (A) (A) (A) (A) (A) (A) (A)
                 (A) (A) (A) (A) (A) (A) (A) (A) (A) (A) (A) (A)
                 (A) (A) (A) (A) (A) (A) (A) (A) (A) (A) (A) (A)
                 (A) (A) (A)
 The electronic state is 1-A.
 Alpha  occ. eigenvalues --  -19.13003 -19.12739 -14.39558 -14.33734 -10.30272
 Alpha  occ. eigenvalues --  -10.29807 -10.27259 -10.18518 -10.18300  -1.05843
 Alpha  occ. eigenvalues --   -1.03411  -0.96405  -0.89527  -0.75480  -0.73489
 Alpha  occ. eigenvalues --   -0.66847  -0.64641  -0.55034  -0.52953  -0.50093
 Alpha  occ. eigenvalues --   -0.47450  -0.46240  -0.44112  -0.43768  -0.42492
 Alpha  occ. eigenvalues --   -0.41864  -0.40378  -0.39704  -0.38746  -0.38105
 Alpha  occ. eigenvalues --   -0.35501  -0.28713  -0.27235  -0.26408  -0.24979
 Alpha virt. eigenvalues --   -0.03284   0.03373   0.06160   0.10401   0.11671
 Alpha virt. eigenvalues --    0.12830   0.12997   0.15426   0.15766   0.16908
 Alpha virt. eigenvalues --    0.17970   0.18498   0.19625   0.20166   0.22098
 Alpha virt. eigenvalues --    0.23631   0.26748   0.28767   0.34073   0.36639
 Alpha virt. eigenvalues --    0.37935   0.42105   0.45402   0.47272   0.49142
 Alpha virt. eigenvalues --    0.50387   0.51237   0.51819   0.54279   0.55585
 Alpha virt. eigenvalues --    0.56588   0.57499   0.59195   0.60080   0.62141
 Alpha virt. eigenvalues --    0.63830   0.66284   0.67189   0.69957   0.71578
 Alpha virt. eigenvalues --    0.72523   0.73038   0.74453   0.75535   0.75884
 Alpha virt. eigenvalues --    0.76865   0.77232   0.78257   0.80655   0.81142
 Alpha virt. eigenvalues --    0.82944   0.84502   0.86261   0.87896   0.88335
 Alpha virt. eigenvalues --    0.88704   0.89951   0.93475   0.94496   0.96378
 Alpha virt. eigenvalues --    0.98455   0.99138   1.00696   1.03550   1.05754
 Alpha virt. eigenvalues --    1.07140   1.08675   1.12251   1.16247   1.19791
 Alpha virt. eigenvalues --    1.20490   1.22042   1.24343   1.27388   1.29878
 Alpha virt. eigenvalues --    1.31426   1.34678   1.36352   1.37865   1.39923
 Alpha virt. eigenvalues --    1.41777   1.42527   1.43970   1.45301   1.48868
 Alpha virt. eigenvalues --    1.49021   1.50640   1.51792   1.55826   1.58444
 Alpha virt. eigenvalues --    1.60596   1.64530   1.65928   1.67094   1.67406
 Alpha virt. eigenvalues --    1.68820   1.74931   1.77552   1.79609   1.83417
 Alpha virt. eigenvalues --    1.86345   1.87336   1.90817   1.91649   1.93471
 Alpha virt. eigenvalues --    1.96645   1.97815   2.00128   2.04820   2.09888
 Alpha virt. eigenvalues --    2.14473   2.20083   2.22613   2.27666   2.27918
 Alpha virt. eigenvalues --    2.31348   2.33142   2.36203   2.40031   2.44644
 Alpha virt. eigenvalues --    2.45444   2.49482   2.51833   2.60808   2.66183
 Alpha virt. eigenvalues --    2.69113   2.74883   2.75692   2.78022   2.79514
 Alpha virt. eigenvalues --    2.80433   2.82648   2.85243   2.87221   2.88007
 Alpha virt. eigenvalues --    2.90955   2.92945   2.93617   2.96438   2.97069
 Alpha virt. eigenvalues --    2.98840   3.01487   3.04702   3.04855   3.06086
 Alpha virt. eigenvalues --    3.09868   3.13265   3.17318   3.19412   3.20034
 Alpha virt. eigenvalues --    3.21647   3.24806   3.28287   3.30358   3.33123
 Alpha virt. eigenvalues --    3.34365   3.38119   3.40688   3.42953   3.45018
 Alpha virt. eigenvalues --    3.52405   3.53911   3.55739   3.59718   3.61561
 Alpha virt. eigenvalues --    3.65149   3.67486   3.68423   3.77845   3.79633
 Alpha virt. eigenvalues --    3.84647   3.87208   3.89650   3.92488   3.98215
 Alpha virt. eigenvalues --    4.01065   4.04341   4.07574   4.08666   4.10340
 Alpha virt. eigenvalues --    4.11981   4.16185   4.18177   4.19104   4.21464
 Alpha virt. eigenvalues --    4.22338   4.23962   4.26373   4.27314   4.27880
 Alpha virt. eigenvalues --    4.32801   4.33428   4.34027   4.36595   4.38986
 Alpha virt. eigenvalues --    4.41491   4.42090   4.43902   4.45322   4.49127
 Alpha virt. eigenvalues --    4.50030   4.51955   4.52686   4.53754   4.55299
 Alpha virt. eigenvalues --    4.57546   4.61203   4.65124   4.65686   4.67469
 Alpha virt. eigenvalues --    4.68400   4.69366   4.70583   4.73480   4.76967
 Alpha virt. eigenvalues --    4.78627   4.79949   4.82565   4.84464   4.85134
 Alpha virt. eigenvalues --    4.88267   4.89195   4.91601   4.92989   4.94849
 Alpha virt. eigenvalues --    5.01481   5.04602   5.06970   5.09784   5.10264
 Alpha virt. eigenvalues --    5.11337   5.15558   5.21293   5.27238   5.28803
 Alpha virt. eigenvalues --    5.30849   5.33040   5.42568   5.45558   5.49588
 Alpha virt. eigenvalues --    5.56844   5.57451   5.64269   5.65085   5.73840
 Alpha virt. eigenvalues --    5.79387   5.88108   5.97297   6.02610   6.11551
 Alpha virt. eigenvalues --    6.30538   6.45822   6.53367   6.59054   6.80036
 Alpha virt. eigenvalues --    6.93334  10.50427  10.69565  11.06949  11.33483
 Alpha virt. eigenvalues --   11.42088  11.90181  12.14271  12.44048  13.03246
 Alpha virt. eigenvalues --   13.20303  23.01598
          Condensed to atoms (all electrons):
               1          2          3          4          5          6
     1  C    5.141457   0.381249  -0.059704  -0.069970  -0.007228  -0.006824
     2  C    0.381249   4.233042   0.742251   0.334285  -0.040556  -0.009484
     3  O   -0.059704   0.742251   7.729808  -0.071936  -0.000682   0.000045
     4  N   -0.069970   0.334285  -0.071936   6.544435   0.299199  -0.047666
     5  C   -0.007228  -0.040556  -0.000682   0.299199   4.534209   0.721580
     6  O   -0.006824  -0.009484   0.000045  -0.047666   0.721580   7.707355
     7  C    0.006994  -0.049753   0.007568   0.348281  -0.047505   0.001332
     8  C   -0.000443  -0.000196  -0.011962  -0.046081   0.001104  -0.000007
     9  N   -0.000010   0.003440   0.000452  -0.023521  -0.012363   0.000165
    10  H    0.347192  -0.013514   0.000280   0.002641   0.000568   0.001318
    11  H    0.357580  -0.010780   0.001393  -0.001200   0.002172   0.003891
    12  H    0.356966  -0.007818   0.001259  -0.001954   0.002856   0.003777
    13  H    0.000132  -0.000583  -0.000124  -0.081162   0.379708  -0.043551
    14  H    0.000183   0.001508   0.006916  -0.034998   0.001006  -0.000043
    15  H    0.000010   0.001608   0.000031  -0.002633   0.000702  -0.000029
    16  H    0.000449   0.003004   0.016213  -0.004135  -0.000243   0.000001
    17  H    0.000005  -0.000165   0.000344   0.002738  -0.000036   0.000000
    18  H   -0.000004  -0.000059  -0.000004  -0.001069   0.003588  -0.000117
    19  H    0.000004  -0.000048   0.000013   0.003774   0.000414  -0.000003
               7          8          9         10         11         12
     1  C    0.006994  -0.000443  -0.000010   0.347192   0.357580   0.356966
     2  C   -0.049753  -0.000196   0.003440  -0.013514  -0.010780  -0.007818
     3  O    0.007568  -0.011962   0.000452   0.000280   0.001393   0.001259
     4  N    0.348281  -0.046081  -0.023521   0.002641  -0.001200  -0.001954
     5  C   -0.047505   0.001104  -0.012363   0.000568   0.002172   0.002856
     6  O    0.001332  -0.000007   0.000165   0.001318   0.003891   0.003777
     7  C    4.704037   0.393411   0.380188  -0.000138  -0.000021  -0.000322
     8  C    0.393411   5.127104  -0.072292   0.000002   0.000046  -0.000000
     9  N    0.380188  -0.072292   6.576291   0.000000  -0.000003  -0.000004
    10  H   -0.000138   0.000002   0.000000   0.589861  -0.029500  -0.028712
    11  H   -0.000021   0.000046  -0.000003  -0.029500   0.546371  -0.021531
    12  H   -0.000322  -0.000000  -0.000004  -0.028712  -0.021531   0.539951
    13  H   -0.004417   0.000727   0.017269   0.000027   0.000137   0.000118
    14  H    0.361783  -0.058928  -0.024537  -0.000006  -0.000012  -0.000001
    15  H   -0.024674   0.360043  -0.002779  -0.000000  -0.000011   0.000000
    16  H   -0.014998   0.345610   0.006150   0.000002  -0.000043  -0.000003
    17  H   -0.025468   0.365131  -0.000813  -0.000000  -0.000001   0.000000
    18  H   -0.055876  -0.008562   0.333929   0.000000  -0.000001   0.000001
    19  H   -0.052257  -0.000368   0.348362  -0.000000  -0.000000  -0.000000
              13         14         15         16         17         18
     1  C    0.000132   0.000183   0.000010   0.000449   0.000005  -0.000004
     2  C   -0.000583   0.001508   0.001608   0.003004  -0.000165  -0.000059
     3  O   -0.000124   0.006916   0.000031   0.016213   0.000344  -0.000004
     4  N   -0.081162  -0.034998  -0.002633  -0.004135   0.002738  -0.001069
     5  C    0.379708   0.001006   0.000702  -0.000243  -0.000036   0.003588
     6  O   -0.043551  -0.000043  -0.000029   0.000001   0.000000  -0.000117
     7  C   -0.004417   0.361783  -0.024674  -0.014998  -0.025468  -0.055876
     8  C    0.000727  -0.058928   0.360043   0.345610   0.365131  -0.008562
     9  N    0.017269  -0.024537  -0.002779   0.006150  -0.000813   0.333929
    10  H    0.000027  -0.000006  -0.000000   0.000002  -0.000000   0.000000
    11  H    0.000137  -0.000012  -0.000011  -0.000043  -0.000001  -0.000001
    12  H    0.000118  -0.000001   0.000000  -0.000003   0.000000   0.000001
    13  H    0.605034  -0.000275  -0.000093  -0.000057  -0.000005  -0.002869
    14  H   -0.000275   0.615851   0.005590  -0.001748  -0.000417   0.006728
    15  H   -0.000093   0.005590   0.600507  -0.026626  -0.029421   0.006492
    16  H   -0.000057  -0.001748  -0.026626   0.543413  -0.024501   0.000072
    17  H   -0.000005  -0.000417  -0.029421  -0.024501   0.594210   0.000622
    18  H   -0.002869   0.006728   0.006492   0.000072   0.000622   0.512453
    19  H   -0.000038  -0.003250   0.000153   0.000091   0.004424  -0.027597
              19
     1  C    0.000004
     2  C   -0.000048
     3  O    0.000013
     4  N    0.003774
     5  C    0.000414
     6  O   -0.000003
     7  C   -0.052257
     8  C   -0.000368
     9  N    0.348362
    10  H   -0.000000
    11  H   -0.000000
    12  H   -0.000000
    13  H   -0.000038
    14  H   -0.003250
    15  H    0.000153
    16  H    0.000091
    17  H    0.004424
    18  H   -0.027597
    19  H    0.482685
 Mulliken charges:
               1
     1  C   -0.448038
     2  C    0.432569
     3  O   -0.362162
     4  N   -0.149029
     5  C    0.161506
     6  O   -0.331742
     7  C    0.071834
     8  C   -0.394339
     9  N   -0.529923
    10  H    0.129979
    11  H    0.151513
    12  H    0.155416
    13  H    0.130021
    14  H    0.124652
    15  H    0.111129
    16  H    0.157347
    17  H    0.113352
    18  H    0.232273
    19  H    0.243643
 Sum of Mulliken charges =  -0.00000
 Mulliken charges with hydrogens summed into heavy atoms:
               1
     1  C   -0.011131
     2  C    0.432569
     3  O   -0.362162
     4  N   -0.149029
     5  C    0.291528
     6  O   -0.331742
     7  C    0.196486
     8  C   -0.012511
     9  N   -0.054007
 Electronic spatial extent (au):  <R**2>=           1258.9204
 Charge=             -0.0000 electrons
 Dipole moment (field-independent basis, Debye):
    X=             -3.0295    Y=              0.3381    Z=              0.7550  Tot=              3.1404
 Quadrupole moment (field-independent basis, Debye-Ang):
   XX=            -47.6142   YY=            -63.6933   ZZ=            -52.5355
   XY=             -3.6682   XZ=             -1.5068   YZ=             -0.0340
 Traceless Quadrupole moment (field-independent basis, Debye-Ang):
   XX=              7.0001   YY=             -9.0789   ZZ=              2.0788
   XY=             -3.6682   XZ=             -1.5068   YZ=             -0.0340
 Octapole moment (field-independent basis, Debye-Ang**2):
  XXX=            -19.9930  YYY=              8.2581  ZZZ=             -0.5565  XYY=            -12.2087
  XXY=             -9.3533  XXZ=             -1.8319  XZZ=              2.4090  YZZ=              0.2057
  YYZ=              4.9640  XYZ=             -7.3077
 Hexadecapole moment (field-independent basis, Debye-Ang**3):
 XXXX=           -819.0098 YYYY=           -597.3383 ZZZZ=           -113.3028 XXXY=            -29.7200
 XXXZ=              6.0402 YYYX=            -11.0440 YYYZ=             -0.8416 ZZZX=              2.4868
 ZZZY=              8.0391 XXYY=           -261.6281 XXZZ=           -167.8583 YYZZ=           -113.6542
 XXYZ=              6.1919 YYXZ=             -8.8559 ZZXY=              3.0930
 N-N= 4.773703576407D+02 E-N=-2.020592828241D+03  KE= 4.532174503477D+02
 PrsmSu:  requested number of processors reduced to:  13 ShMem   1 Linda.
 Calling FoFJK, ICntrl=      2127 FMM=F ISym2X=0 I1Cent= 0 IOpClX= 0 NMat=1 NMatS=1 NMatT=0.
 ***** Axes restored to original set *****
 -------------------------------------------------------------------
 Center     Atomic                   Forces (Hartrees/Bohr)
 Number     Number              X              Y              Z
 -------------------------------------------------------------------
      1        6          -0.003944413   -0.004370264    0.003942693
      2        6          -0.005131680   -0.017312732    0.039151776
      3        8          -0.002007724    0.015203604   -0.030683533
      4        7          -0.002729289    0.001366223    0.002178817
      5        6          -0.028402897    0.004614837   -0.023774305
      6        8           0.026458426   -0.002687969    0.010865185
      7        6           0.027958099   -0.008027225   -0.006619252
      8        6          -0.006694127   -0.013691856    0.013789031
      9        7          -0.005934665    0.010912530   -0.005929041
     10        1           0.008298650    0.000413241    0.001246357
     11        1          -0.002834366    0.008178126   -0.001830251
     12        1          -0.003013269   -0.002751627   -0.007291088
     13        1           0.007751505   -0.000281685    0.006046479
     14        1          -0.002288072   -0.000496068   -0.002053335
     15        1           0.000273227    0.001807495   -0.002421001
     16        1          -0.001036252    0.001035100   -0.000464749
     17        1          -0.001772524    0.004491813   -0.002224366
     18        1           0.001028660    0.000126356    0.001489832
     19        1          -0.005979287    0.001470103    0.004580750
 -------------------------------------------------------------------
 Cartesian Forces:  Max     0.039151776 RMS     0.011275891

 GradGradGradGradGradGradGradGradGradGradGradGradGradGradGradGradGradGrad
 Berny optimization.
 FormGI is forming the generalized inverse of G from B-inverse, IUseBI=4.
 Internal  Forces:  Max     0.030491796 RMS     0.007429094
 Search for a local minimum.
 Step number   1 out of a maximum of   93
 All quantities printed in internal units (Hartrees-Bohrs-Radians)
 Mixed Optimization -- RFO/linear search
 Second derivative matrix not updated -- first step.
 ITU=  0
     Eigenvalues ---    0.00305   0.00617   0.00729   0.00816   0.01057
     Eigenvalues ---    0.01355   0.01663   0.01853   0.01860   0.04517
     Eigenvalues ---    0.04673   0.05257   0.05362   0.05412   0.06460
     Eigenvalues ---    0.07175   0.07479   0.16000   0.16000   0.16000
     Eigenvalues ---    0.16000   0.16000   0.16000   0.16000   0.16000
     Eigenvalues ---    0.16000   0.17112   0.18717   0.22003   0.24880
     Eigenvalues ---    0.24924   0.25000   0.25000   0.28979   0.31223
     Eigenvalues ---    0.33884   0.34109   0.34176   0.34232   0.34319
     Eigenvalues ---    0.34423   0.34474   0.34486   0.35406   0.36199
     Eigenvalues ---    0.44154   0.44285   0.45257   0.47701   0.89180
     Eigenvalues ---    0.91579
 RFO step:  Lambda=-1.69996064D-02 EMin= 3.04793667D-03
 Linear search not attempted -- first point.
 Iteration  1 RMS(Cart)=  0.09243458 RMS(Int)=  0.00375675
 Iteration  2 RMS(Cart)=  0.00493640 RMS(Int)=  0.00062349
 Iteration  3 RMS(Cart)=  0.00000991 RMS(Int)=  0.00062343
 Iteration  4 RMS(Cart)=  0.00000000 RMS(Int)=  0.00062343
 Variable       Old X    -DE/DX   Delta X   Delta X   Delta X     New X
                                 (Linear)    (Quad)   (Total)
    R1        2.85588   0.00137   0.00000   0.00415   0.00415   2.86003
    R2        2.06796  -0.00167   0.00000  -0.00464  -0.00464   2.06332
    R3        2.06621  -0.00202   0.00000  -0.00558  -0.00558   2.06063
    R4        2.06538  -0.00141   0.00000  -0.00391  -0.00391   2.06147
    R5        2.33313  -0.03049   0.00000  -0.03355  -0.03355   2.29958
    R6        2.64978   0.00780   0.00000   0.01661   0.01661   2.66639
    R7        2.62259   0.00281   0.00000   0.00569   0.00569   2.62828
    R8        2.78320   0.00556   0.00000   0.01499   0.01499   2.79819
    R9        2.32214  -0.02768   0.00000  -0.02967  -0.02967   2.29247
   R10        2.07034  -0.00001   0.00000  -0.00003  -0.00003   2.07031
   R11        2.90047   0.00266   0.00000   0.00868   0.00868   2.90914
   R12        2.77071   0.00136   0.00000   0.00358   0.00358   2.77429
   R13        2.07527  -0.00260   0.00000  -0.00729  -0.00729   2.06797
   R14        2.06940   0.00081   0.00000   0.00225   0.00225   2.07165
   R15        2.06517  -0.00062   0.00000  -0.00170  -0.00170   2.06347
   R16        2.07146  -0.00167   0.00000  -0.00465  -0.00465   2.06681
   R17        1.92815  -0.00148   0.00000  -0.00322  -0.00322   1.92492
   R18        1.92971  -0.00570   0.00000  -0.01242  -0.01242   1.91729
    A1        1.91365  -0.01194   0.00000  -0.06032  -0.05986   1.85379
    A2        1.92760   0.00519   0.00000   0.02656   0.02682   1.95442
    A3        1.92254   0.00506   0.00000   0.02402   0.02425   1.94679
    A4        1.87254   0.00543   0.00000   0.03968   0.04017   1.91270
    A5        1.87795   0.00460   0.00000   0.03135   0.03176   1.90970
    A6        1.94806  -0.00864   0.00000  -0.06203  -0.06196   1.88610
    A7        2.07128   0.01145   0.00000   0.04288   0.04283   2.11411
    A8        2.06744   0.01359   0.00000   0.05089   0.05084   2.11828
    A9        2.14446  -0.02504   0.00000  -0.09381  -0.09384   2.05062
   A10        2.13163   0.01571   0.00000   0.05839   0.05819   2.18982
   A11        2.02609  -0.00731   0.00000  -0.02812  -0.02817   1.99792
   A12        2.12081  -0.00848   0.00000  -0.03257  -0.03260   2.08822
   A13        2.23671  -0.00474   0.00000  -0.01911  -0.02135   2.21536
   A14        1.99430  -0.00732   0.00000  -0.04339  -0.04563   1.94867
   A15        2.05143   0.01220   0.00000   0.06689   0.06464   2.11607
   A16        1.96560  -0.00601   0.00000  -0.02073  -0.02004   1.94556
   A17        1.95271  -0.00898   0.00000  -0.04246  -0.04298   1.90973
   A18        1.88261   0.00252   0.00000  -0.02551  -0.02656   1.85605
   A19        1.87463   0.01778   0.00000   0.10494   0.10482   1.97945
   A20        1.90054  -0.00158   0.00000   0.00555   0.00486   1.90539
   A21        1.88583  -0.00374   0.00000  -0.02168  -0.02414   1.86169
   A22        1.93599  -0.00192   0.00000  -0.01337  -0.01374   1.92225
   A23        1.96051   0.00051   0.00000   0.00954   0.00963   1.97014
   A24        1.94245  -0.00621   0.00000  -0.03920  -0.03952   1.90293
   A25        1.87155   0.00195   0.00000   0.01878   0.01882   1.89037
   A26        1.89383   0.00245   0.00000   0.00135   0.00055   1.89439
   A27        1.85569   0.00380   0.00000   0.02619   0.02634   1.88203
   A28        1.90272   0.00058   0.00000   0.00371   0.00372   1.90643
   A29        1.90680  -0.00591   0.00000  -0.03296  -0.03296   1.87384
   A30        1.82065   0.00252   0.00000   0.01526   0.01527   1.83592
    D1       -0.06434   0.00022   0.00000   0.00004  -0.00026  -0.06460
    D2        3.07954   0.00071   0.00000   0.01742   0.01766   3.09719
    D3       -2.12421  -0.00226   0.00000  -0.02767  -0.02777  -2.15198
    D4        1.01967  -0.00176   0.00000  -0.01030  -0.00985   1.00981
    D5        1.99911   0.00163   0.00000   0.01618   0.01577   2.01488
    D6       -1.14020   0.00213   0.00000   0.03356   0.03369  -1.10651
    D7        0.11758   0.00153   0.00000   0.03561   0.03637   0.15395
    D8       -3.12611   0.00008   0.00000   0.00823   0.00831  -3.11780
    D9       -3.02163   0.00200   0.00000   0.05356   0.05347  -2.96816
   D10        0.01787   0.00054   0.00000   0.02618   0.02542   0.04329
   D11       -0.13911   0.00139   0.00000   0.04448   0.04411  -0.09500
   D12        3.04562  -0.00313   0.00000  -0.08310  -0.08330   2.96232
   D13        3.11006   0.00276   0.00000   0.07267   0.07287  -3.10025
   D14        0.01161  -0.00176   0.00000  -0.05491  -0.05454  -0.04293
   D15        1.10888  -0.00428   0.00000   0.02138   0.02122   1.13010
   D16       -3.06059   0.00798   0.00000   0.11203   0.11115  -2.94944
   D17       -0.98883  -0.00030   0.00000   0.04429   0.04395  -0.94487
   D18       -2.13412  -0.00419   0.00000  -0.00005   0.00071  -2.13341
   D19       -0.02041   0.00806   0.00000   0.09060   0.09064   0.07023
   D20        2.05136  -0.00021   0.00000   0.02286   0.02344   2.07480
   D21        1.01462   0.00113   0.00000   0.04204   0.04205   1.05667
   D22       -1.07966  -0.00038   0.00000   0.02089   0.02109  -1.05856
   D23        3.12501  -0.00129   0.00000   0.00800   0.00850   3.13351
   D24       -1.14308   0.00382   0.00000   0.03491   0.03497  -1.10812
   D25        3.04583   0.00232   0.00000   0.01376   0.01401   3.05984
   D26        0.96731   0.00140   0.00000   0.00088   0.00141   0.96872
   D27        3.10197  -0.00057   0.00000   0.00075   0.00000   3.10197
   D28        1.00769  -0.00207   0.00000  -0.02041  -0.02095   0.98674
   D29       -1.07083  -0.00299   0.00000  -0.03329  -0.03355  -1.10438
   D30       -1.18534  -0.00251   0.00000  -0.08452  -0.08382  -1.26916
   D31        3.11836  -0.00268   0.00000  -0.08717  -0.08647   3.03190
   D32        0.98022  -0.00353   0.00000  -0.06507  -0.06523   0.91500
   D33       -0.99926  -0.00370   0.00000  -0.06772  -0.06787  -1.06713
   D34        3.02798   0.00207   0.00000  -0.01435  -0.01490   3.01309
   D35        1.04850   0.00190   0.00000  -0.01701  -0.01755   1.03096
         Item               Value     Threshold  Converged?
 Maximum Force            0.030492     0.000450     NO 
 RMS     Force            0.007429     0.000300     NO 
 Maximum Displacement     0.254359     0.001800     NO 
 RMS     Displacement     0.092441     0.001200     NO 
 Predicted change in Energy=-9.630080D-03
 GradGradGradGradGradGradGradGradGradGradGradGradGradGradGradGradGradGrad

                          Input orientation:                          
 ---------------------------------------------------------------------
 Center     Atomic      Atomic             Coordinates (Angstroms)
 Number     Number       Type             X           Y           Z
 ---------------------------------------------------------------------
      1          6           0        1.087193   -0.089149    0.094464
      2          6           0        2.594218   -0.007015   -0.018233
      3          8           0        3.313094   -0.335156    0.907160
      4          7           0        3.218071    0.474542   -1.188624
      5          6           0        2.567218    1.073049   -2.262204
      6          8           0        1.369659    1.195759   -2.412076
      7          6           0        4.698101    0.459408   -1.145460
      8          6           0        5.244591   -0.977002   -1.056066
      9          7           0        5.227476    1.214975   -2.287464
     10          1           0        0.878142   -0.532921    1.069928
     11          1           0        0.652445   -0.709285   -0.690062
     12          1           0        0.626957    0.898346    0.039129
     13          1           0        3.276881    1.522294   -2.965630
     14          1           0        4.985544    1.009983   -0.244468
     15          1           0        4.931209   -1.555289   -1.933099
     16          1           0        4.909485   -1.503756   -0.160206
     17          1           0        6.337536   -0.942063   -1.034932
     18          1           0        5.088819    0.675237   -3.140140
     19          1           0        6.233612    1.274314   -2.171049
 ---------------------------------------------------------------------
                    Distance matrix (angstroms):
                    1          2          3          4          5
     1  C    0.000000
     2  C    1.513463   0.000000
     3  O    2.382358   1.216886   0.000000
     4  N    2.550432   1.410994   2.248767   0.000000
     5  C    3.015802   2.490516   3.547428   1.390825   0.000000
     6  O    2.830815   2.945622   4.139803   2.331011   1.213122
     7  C    3.857069   2.431977   2.600544   1.480737   2.482809
     8  C    4.404084   3.007066   2.827880   2.496264   3.581313
     9  N    4.951390   3.684659   4.034029   2.406948   2.664161
    10  H    1.091863   2.098950   2.448386   3.404601   4.066352
    11  H    1.090437   2.171409   3.125722   2.869224   3.051999
    12  H    1.090883   2.166353   3.080639   2.898423   3.015173
    13  H    4.093368   3.389980   4.295339   2.063733   1.095560
    14  H    4.064493   2.608430   2.435721   2.074148   3.150165
    15  H    4.586615   3.394907   3.489140   2.758496   3.550342
    16  H    4.083612   2.760589   2.247968   2.798605   4.067498
    17  H    5.437748   3.990040   3.645176   3.429498   4.447715
    18  H    5.201919   4.053987   4.533733   2.710792   2.699537
    19  H    5.785949   4.418326   4.538193   3.270823   3.673046
                    6          7          8          9         10
     6  O    0.000000
     7  C    3.636627   0.000000
     8  C    4.644862   1.539452   0.000000
     9  N    3.859876   1.468091   2.514239   0.000000
    10  H    3.918452   4.526008   4.876775   5.765754   0.000000
    11  H    2.666256   4.235630   4.614481   5.213960   1.783145
    12  H    2.578462   4.262644   5.102835   5.165081   1.781618
    13  H    2.012596   2.542168   3.710094   2.087864   5.124801
    14  H    4.219912   1.094323   2.161921   2.067459   4.580277
    15  H    4.525740   2.175711   1.096272   2.808507   5.146918
    16  H    4.988854   2.206676   1.091939   3.466676   4.325214
    17  H    5.580914   2.159648   1.093708   2.730180   5.865392
    18  H    3.825333   2.044014   2.664118   1.018626   6.075700
    19  H    4.870554   2.018340   2.699958   1.014585   6.515450
                   11         12         13         14         15
    11  H    0.000000
    12  H    1.765459   0.000000
    13  H    4.128658   4.054626   0.000000
    14  H    4.682967   4.369230   3.253724   0.000000
    15  H    4.535272   5.332598   3.643411   3.071652   0.000000
    16  H    4.362834   4.914252   4.437655   2.516300   1.773775
    17  H    5.700297   6.095197   4.378157   2.502638   1.777781
    18  H    5.253685   5.483224   2.007755   2.916786   2.541070
    19  H    6.105523   6.038279   3.071662   2.310684   3.124024
                   16         17         18         19
    16  H    0.000000
    17  H    1.766345   0.000000
    18  H    3.695968   2.933744   0.000000
    19  H    3.676204   2.492767   1.615110   0.000000
 Stoichiometry    C5H10N2O2
 Framework group  C1[X(C5H10N2O2)]
 Deg. of freedom    51
 Full point group                 C1      NOp   1
 Largest Abelian subgroup         C1      NOp   1
 Largest concise Abelian subgroup C1      NOp   1
                         Standard orientation:                         
 ---------------------------------------------------------------------
 Center     Atomic      Atomic             Coordinates (Angstroms)
 Number     Number       Type             X           Y           Z
 ---------------------------------------------------------------------
      1          6           0        2.448236   -0.644309    0.103457
      2          6           0        0.969580   -0.853044   -0.142664
      3          8           0        0.529700   -1.948053   -0.439770
      4          7           0        0.053115    0.216644   -0.060422
      5          6           0        0.389974    1.559674    0.070686
      6          8           0        1.501237    2.020558    0.226715
      7          6           0       -1.357796   -0.164776   -0.297974
      8          6           0       -1.875436   -1.117997    0.794423
      9          7           0       -2.172386    1.047284   -0.448467
     10          1           0        2.912723   -1.629161    0.022944
     11          1           0        2.642616   -0.228151    1.092438
     12          1           0        2.887047    0.025303   -0.637550
     13          1           0       -0.480684    2.210134   -0.067555
     14          1           0       -1.379314   -0.679286   -1.263562
     15          1           0       -1.822711   -0.631762    1.775548
     16          1           0       -1.312700   -2.052451    0.843984
     17          1           0       -2.919754   -1.366616    0.585173
     18          1           0       -2.280443    1.493912    0.460624
     19          1           0       -3.106719    0.753248   -0.712945
 ---------------------------------------------------------------------
 Rotational constants (GHZ):           2.0920771           1.5099246           0.9564828
 Standard basis: 6-31G(2df,p) (6D, 7F)
 There are   329 symmetry adapted cartesian basis functions of A   symmetry.
 There are   302 symmetry adapted basis functions of A   symmetry.
   302 basis functions,   466 primitive gaussians,   329 cartesian basis functions
    35 alpha electrons       35 beta electrons
       nuclear repulsion energy       478.4890238270 Hartrees.
 NAtoms=   19 NActive=   19 NUniq=   19 SFac= 1.00D+00 NAtFMM=   60 NAOKFM=F Big=F
 Integral buffers will be    131072 words long.
 Raffenetti 2 integral format.
 Two-electron integral symmetry is turned on.
 One-electron integrals computed using PRISM.
 PrsmSu:  requested number of processors reduced to:  13 ShMem   1 Linda.
 NBasis=   302 RedAO= T EigKep=  2.19D-04  NBF=   302
 NBsUse=   302 1.00D-06 EigRej= -1.00D+00 NBFU=   302
 Initial guess from the checkpoint file:  "CCpdOpNpCdOpCpCpN.chk"
 B after Tr=    -0.000000   -0.000000   -0.000000
         Rot=    0.999954   -0.004049   -0.001570   -0.008559 Ang=  -1.10 deg.
 ExpMin= 1.61D-01 ExpMax= 5.48D+03 ExpMxC= 8.25D+02 IAcc=2 IRadAn=         4 AccDes= 0.00D+00
 Harris functional with IExCor=  402 and IRadAn=       4 diagonalized for initial guess.
 HarFok:  IExCor=  402 AccDes= 0.00D+00 IRadAn=         4 IDoV= 1 UseB2=F ITyADJ=14
 ICtDFT=  3500011 ScaDFX=  1.000000  1.000000  1.000000  1.000000
 FoFCou: FMM=F IPFlag=           0 FMFlag=      100000 FMFlg1=           0
         NFxFlg=           0 DoJE=T BraDBF=F KetDBF=T FulRan=T
         wScrn=  0.000000 ICntrl=       500 IOpCl=  0 I1Cent=   200000004 NGrid=           0
         NMat0=    1 NMatS0=      1 NMatT0=    0 NMatD0=    1 NMtDS0=    0 NMtDT0=    0
 Petite list used in FoFCou.
 Requested convergence on RMS density matrix=1.00D-08 within 128 cycles.
 Requested convergence on MAX density matrix=1.00D-06.
 Requested convergence on             energy=1.00D-06.
 No special actions if energy rises.
 Integral accuracy reduced to 1.0D-05 until final iterations.
 Initial convergence to 1.0D-05 achieved.  Increase integral accuracy.
 SCF Done:  E(RB3LYP) =  -456.545871735     A.U. after   12 cycles
            NFock= 12  Conv=0.67D-08     -V/T= 2.0071
 PrsmSu:  requested number of processors reduced to:  13 ShMem   1 Linda.
 Calling FoFJK, ICntrl=      2127 FMM=F ISym2X=0 I1Cent= 0 IOpClX= 0 NMat=1 NMatS=1 NMatT=0.
 ***** Axes restored to original set *****
 -------------------------------------------------------------------
 Center     Atomic                   Forces (Hartrees/Bohr)
 Number     Number              X              Y              Z
 -------------------------------------------------------------------
      1        6           0.002726811   -0.001271093    0.000690480
      2        6           0.002058401    0.001036999    0.007413817
      3        8          -0.005920305    0.000827978    0.001203787
      4        7          -0.005936646   -0.000921794   -0.002826270
      5        6          -0.009614624    0.009627444   -0.001882514
      6        8           0.002670605   -0.006626112    0.005020555
      7        6           0.007810488   -0.000090200   -0.000809379
      8        6          -0.000594615   -0.001783121   -0.001439331
      9        7           0.001073913   -0.004311019    0.001920782
     10        1           0.000835617    0.000233464   -0.000432982
     11        1          -0.000421243    0.001923405   -0.002633765
     12        1          -0.000005759    0.000496850   -0.003149957
     13        1          -0.000875348   -0.002610744   -0.000095882
     14        1           0.000551871   -0.001470985    0.000259513
     15        1           0.000920709    0.000596448   -0.001077857
     16        1           0.000061333    0.003012610   -0.001753867
     17        1           0.000771115    0.000310341   -0.001144459
     18        1           0.002745017   -0.000893237   -0.000425590
     19        1           0.001142661    0.001912765    0.001162919
 -------------------------------------------------------------------
 Cartesian Forces:  Max     0.009627444 RMS     0.003162524

 GradGradGradGradGradGradGradGradGradGradGradGradGradGradGradGradGradGrad
 Berny optimization.
 Using GEDIIS/GDIIS optimizer.
 FormGI is forming the generalized inverse of G from B-inverse, IUseBI=4.
 Internal  Forces:  Max     0.022780112 RMS     0.004909125
 Search for a local minimum.
 Step number   2 out of a maximum of   93
 All quantities printed in internal units (Hartrees-Bohrs-Radians)
 Mixed Optimization -- RFO/linear search
 Update second derivatives using D2CorX and points    1    2
 DE= -6.50D-03 DEPred=-9.63D-03 R= 6.75D-01
 TightC=F SS=  1.41D+00  RLast= 3.68D-01 DXNew= 5.0454D-01 1.1046D+00
 Trust test= 6.75D-01 RLast= 3.68D-01 DXMaxT set to 5.05D-01
 ITU=  1  0
 Use linear search instead of GDIIS.
     Eigenvalues ---    0.00305   0.00617   0.00698   0.00803   0.01018
     Eigenvalues ---    0.01395   0.01647   0.01851   0.02014   0.04140
     Eigenvalues ---    0.04798   0.05077   0.05343   0.05685   0.06715
     Eigenvalues ---    0.06989   0.07647   0.14269   0.16000   0.16000
     Eigenvalues ---    0.16000   0.16000   0.16000   0.16000   0.16000
     Eigenvalues ---    0.16042   0.18403   0.18509   0.21574   0.24334
     Eigenvalues ---    0.24893   0.24942   0.28960   0.31136   0.33628
     Eigenvalues ---    0.33873   0.34103   0.34202   0.34233   0.34315
     Eigenvalues ---    0.34412   0.34469   0.34560   0.36173   0.43498
     Eigenvalues ---    0.44277   0.45014   0.47598   0.47807   0.86199
     Eigenvalues ---    0.90723
 RFO step:  Lambda=-6.72835083D-03 EMin= 3.04965708D-03
 Quartic linear search produced a step of -0.18785.
 Iteration  1 RMS(Cart)=  0.11414689 RMS(Int)=  0.00360320
 Iteration  2 RMS(Cart)=  0.00544513 RMS(Int)=  0.00026891
 Iteration  3 RMS(Cart)=  0.00001445 RMS(Int)=  0.00026876
 Iteration  4 RMS(Cart)=  0.00000000 RMS(Int)=  0.00026876
 Variable       Old X    -DE/DX   Delta X   Delta X   Delta X     New X
                                 (Linear)    (Quad)   (Total)
    R1        2.86003  -0.00361  -0.00078  -0.00662  -0.00740   2.85263
    R2        2.06332  -0.00064   0.00087  -0.00388  -0.00301   2.06031
    R3        2.06063   0.00097   0.00105  -0.00081   0.00024   2.06087
    R4        2.06147   0.00061   0.00073  -0.00071   0.00002   2.06149
    R5        2.29958  -0.00280   0.00630  -0.02021  -0.01390   2.28568
    R6        2.66639   0.00178  -0.00312   0.01181   0.00869   2.67508
    R7        2.62828   0.00148  -0.00107   0.00539   0.00432   2.63260
    R8        2.79819   0.01441  -0.00281   0.03903   0.03622   2.83440
    R9        2.29247  -0.00393   0.00557  -0.01903  -0.01346   2.27901
   R10        2.07031  -0.00158   0.00001  -0.00354  -0.00353   2.06677
   R11        2.90914  -0.00190  -0.00163  -0.00039  -0.00202   2.90712
   R12        2.77429  -0.00197  -0.00067  -0.00227  -0.00294   2.77135
   R13        2.06797  -0.00038   0.00137  -0.00472  -0.00335   2.06462
   R14        2.07165   0.00029  -0.00042   0.00183   0.00140   2.07306
   R15        2.06347  -0.00291   0.00032  -0.00735  -0.00703   2.05643
   R16        2.06681   0.00076   0.00087  -0.00076   0.00011   2.06692
   R17        1.92492   0.00046   0.00060  -0.00092  -0.00031   1.92461
   R18        1.91729   0.00138   0.00233  -0.00418  -0.00185   1.91544
    A1        1.85379   0.00022   0.01124  -0.02444  -0.01327   1.84051
    A2        1.95442  -0.00066  -0.00504   0.00828   0.00314   1.95756
    A3        1.94679  -0.00115  -0.00455   0.00425  -0.00040   1.94639
    A4        1.91270   0.00164  -0.00755   0.03511   0.02749   1.94019
    A5        1.90970   0.00172  -0.00597   0.03046   0.02443   1.93414
    A6        1.88610  -0.00159   0.01164  -0.05046  -0.03894   1.84716
    A7        2.11411   0.00222  -0.00805   0.02930   0.02120   2.13531
    A8        2.11828  -0.01645  -0.00955  -0.02312  -0.03272   2.08557
    A9        2.05062   0.01423   0.01763  -0.00657   0.01100   2.06163
   A10        2.18982  -0.02278  -0.01093  -0.03889  -0.04977   2.14005
   A11        1.99792   0.00798   0.00529   0.00948   0.01477   2.01269
   A12        2.08822   0.01481   0.00612   0.02800   0.03411   2.12233
   A13        2.21536  -0.01060   0.00401  -0.04613  -0.04339   2.17197
   A14        1.94867   0.00539   0.00857  -0.00333   0.00397   1.95264
   A15        2.11607   0.00554  -0.01214   0.05560   0.04218   2.15825
   A16        1.94556   0.00021   0.00377  -0.00610  -0.00268   1.94288
   A17        1.90973   0.00741   0.00807   0.01338   0.02151   1.93124
   A18        1.85605  -0.00258   0.00499  -0.02404  -0.01875   1.83730
   A19        1.97945  -0.00742  -0.01969   0.02646   0.00666   1.98611
   A20        1.90539   0.00269  -0.00091   0.00702   0.00622   1.91161
   A21        1.86169  -0.00009   0.00453  -0.02074  -0.01563   1.84606
   A22        1.92225  -0.00013   0.00258  -0.00819  -0.00560   1.91664
   A23        1.97014  -0.00233  -0.00181  -0.00444  -0.00627   1.96387
   A24        1.90293  -0.00015   0.00742  -0.02275  -0.01536   1.88757
   A25        1.89037   0.00167  -0.00354   0.01971   0.01617   1.90654
   A26        1.89439  -0.00040  -0.00010  -0.00483  -0.00493   1.88945
   A27        1.88203   0.00142  -0.00495   0.02118   0.01618   1.89821
   A28        1.90643   0.00122  -0.00070   0.00742   0.00673   1.91316
   A29        1.87384  -0.00008   0.00619  -0.01803  -0.01183   1.86201
   A30        1.83592  -0.00055  -0.00287   0.00495   0.00211   1.83802
    D1       -0.06460  -0.00007   0.00005  -0.00702  -0.00694  -0.07154
    D2        3.09719   0.00019  -0.00332   0.01654   0.01322   3.11041
    D3       -2.15198  -0.00183   0.00522  -0.03902  -0.03377  -2.18575
    D4        1.00981  -0.00157   0.00185  -0.01546  -0.01361   0.99620
    D5        2.01488   0.00150  -0.00296   0.01715   0.01418   2.02907
    D6       -1.10651   0.00176  -0.00633   0.04071   0.03434  -1.07217
    D7        0.15395   0.00017  -0.00683   0.04649   0.03948   0.19343
    D8       -3.11780   0.00165  -0.00156   0.03638   0.03494  -3.08285
    D9       -2.96816   0.00054  -0.01005   0.06882   0.05865  -2.90951
   D10        0.04329   0.00202  -0.00477   0.05870   0.05411   0.09740
   D11       -0.09500  -0.00245  -0.00829  -0.06646  -0.07466  -0.16966
   D12        2.96232   0.00242   0.01565   0.02028   0.03598   2.99830
   D13       -3.10025  -0.00334  -0.01369  -0.05426  -0.06800   3.11493
   D14       -0.04293   0.00152   0.01025   0.03248   0.04264  -0.00029
   D15        1.13010   0.00462  -0.00399   0.12109   0.11720   1.24731
   D16       -2.94944   0.00069  -0.02088   0.16095   0.14036  -2.80908
   D17       -0.94487   0.00284  -0.00826   0.13066   0.12246  -0.82241
   D18       -2.13341   0.00299  -0.00013   0.10627   0.10594  -2.02748
   D19        0.07023  -0.00095  -0.01703   0.14613   0.12909   0.19932
   D20        2.07480   0.00120  -0.00440   0.11584   0.11120   2.18599
   D21        1.05667   0.00231  -0.00790   0.04021   0.03226   1.08893
   D22       -1.05856   0.00185  -0.00396   0.02382   0.01982  -1.03874
   D23        3.13351   0.00165  -0.00160   0.01554   0.01388  -3.13580
   D24       -1.10812  -0.00204  -0.00657   0.00690   0.00030  -1.10781
   D25        3.05984  -0.00250  -0.00263  -0.00949  -0.01214   3.04770
   D26        0.96872  -0.00270  -0.00027  -0.01777  -0.01808   0.95065
   D27        3.10197   0.00093  -0.00000   0.01146   0.01154   3.11351
   D28        0.98674   0.00047   0.00394  -0.00493  -0.00090   0.98584
   D29       -1.10438   0.00027   0.00630  -0.01321  -0.00684  -1.11122
   D30       -1.26916  -0.00153   0.01574  -0.12412  -0.10862  -1.37778
   D31        3.03190  -0.00144   0.01624  -0.12424  -0.10823   2.92367
   D32        0.91500  -0.00095   0.01225  -0.10227  -0.08990   0.82510
   D33       -1.06713  -0.00086   0.01275  -0.10239  -0.08951  -1.15664
   D34        3.01309  -0.00210   0.00280  -0.09171  -0.08880   2.92428
   D35        1.03096  -0.00202   0.00330  -0.09183  -0.08841   0.94254
         Item               Value     Threshold  Converged?
 Maximum Force            0.022780     0.000450     NO 
 RMS     Force            0.004909     0.000300     NO 
 Maximum Displacement     0.331422     0.001800     NO 
 RMS     Displacement     0.114406     0.001200     NO 
 Predicted change in Energy=-4.510911D-03
 GradGradGradGradGradGradGradGradGradGradGradGradGradGradGradGradGradGrad

                          Input orientation:                          
 ---------------------------------------------------------------------
 Center     Atomic      Atomic             Coordinates (Angstroms)
 Number     Number       Type             X           Y           Z
 ---------------------------------------------------------------------
      1          6           0        1.081712   -0.036986    0.091548
      2          6           0        2.587891    0.046261    0.034706
      3          8           0        3.285412   -0.183418    0.995785
      4          7           0        3.218647    0.452333   -1.165776
      5          6           0        2.514093    0.996542   -2.237319
      6          8           0        1.311248    1.020378   -2.321163
      7          6           0        4.718156    0.426632   -1.142978
      8          6           0        5.252924   -1.015807   -1.146376
      9          7           0        5.266169    1.263398   -2.215464
     10          1           0        0.848299   -0.397618    1.093622
     11          1           0        0.677510   -0.703726   -0.670957
     12          1           0        0.620153    0.935013   -0.087980
     13          1           0        3.183498    1.379506   -3.012814
     14          1           0        5.000200    0.918476   -0.209058
     15          1           0        4.947818   -1.523364   -2.069815
     16          1           0        4.906439   -1.590823   -0.289916
     17          1           0        6.345650   -0.974117   -1.123254
     18          1           0        5.219361    0.760073   -3.099623
     19          1           0        6.255068    1.373515   -2.022198
 ---------------------------------------------------------------------
                    Distance matrix (angstroms):
                    1          2          3          4          5
     1  C    0.000000
     2  C    1.509549   0.000000
     3  O    2.386499   1.209528   0.000000
     4  N    2.527210   1.415593   2.254103   0.000000
     5  C    2.922930   2.463855   3.527066   1.393113   0.000000
     6  O    2.644216   2.851112   4.043338   2.301253   1.205999
     7  C    3.868168   2.463666   2.645605   1.499902   2.525920
     8  C    4.459770   3.102473   3.025364   2.508803   3.569440
     9  N    4.952069   3.703763   4.040890   2.439676   2.765070
    10  H    1.090271   2.084350   2.448463   3.383171   3.976647
    11  H    1.090567   2.170253   3.138455   2.835259   2.952531
    12  H    1.090894   2.162621   3.086914   2.854260   2.865389
    13  H    4.007620   3.379300   4.303717   2.066987   1.093690
    14  H    4.044480   2.576706   2.367766   2.075218   3.209465
    15  H    4.672000   3.530154   3.735900   2.776814   3.507279
    16  H    4.145897   2.856761   2.502308   2.791103   4.026184
    17  H    5.482974   4.062363   3.805337   3.437254   4.450334
    18  H    5.285737   4.154297   4.626305   2.799522   2.849204
    19  H    5.763771   4.409155   4.511222   3.286623   3.766070
                    6          7          8          9         10
     6  O    0.000000
     7  C    3.653447   0.000000
     8  C    4.589442   1.538382   0.000000
     9  N    3.963790   1.466534   2.517519   0.000000
    10  H    3.726364   4.545059   4.980007   5.764252   0.000000
    11  H    2.469278   4.222242   4.610621   5.225980   1.799058
    12  H    2.339232   4.262054   5.136971   5.120498   1.795589
    13  H    2.027973   2.599891   3.674730   2.233107   5.047192
    14  H    4.252027   1.092550   2.164229   2.053138   4.546137
    15  H    4.445046   2.171233   1.097015   2.808665   5.299122
    16  H    4.885665   2.198474   1.088217   3.461750   4.450440
    17  H    5.546007   2.147376   1.093766   2.713793   5.955482
    18  H    3.993383   2.047156   2.640086   1.018462   6.166826
    19  H    4.965425   2.007913   2.735000   1.013607   6.486787
                   11         12         13         14         15
    11  H    0.000000
    12  H    1.740292   0.000000
    13  H    4.012995   3.914456   0.000000
    14  H    4.640101   4.381752   3.372537   0.000000
    15  H    4.567728   5.357236   3.525440   3.070463   0.000000
    16  H    4.337738   4.979244   4.382414   2.512351   1.781657
    17  H    5.692582   6.123552   4.371406   2.495576   1.775270
    18  H    5.354394   5.500302   2.129782   2.903186   2.519589
    19  H    6.103273   5.973756   3.227367   2.251496   3.178534
                   16         17         18         19
    16  H    0.000000
    17  H    1.773727   0.000000
    18  H    3.676831   2.860416   0.000000
    19  H    3.688753   2.515488   1.615501   0.000000
 Stoichiometry    C5H10N2O2
 Framework group  C1[X(C5H10N2O2)]
 Deg. of freedom    51
 Full point group                 C1      NOp   1
 Largest Abelian subgroup         C1      NOp   1
 Largest concise Abelian subgroup C1      NOp   1
                         Standard orientation:                         
 ---------------------------------------------------------------------
 Center     Atomic      Atomic             Coordinates (Angstroms)
 Number     Number       Type             X           Y           Z
 ---------------------------------------------------------------------
      1          6           0        2.437809   -0.591489    0.107766
      2          6           0        0.975834   -0.857089   -0.158358
      3          8           0        0.567137   -1.943003   -0.499994
      4          7           0        0.044575    0.204007   -0.054732
      5          6           0        0.434305    1.536301    0.063032
      6          8           0        1.567557    1.901027    0.255765
      7          6           0       -1.390664   -0.179735   -0.260986
      8          6           0       -1.927325   -0.997001    0.926739
      9          7           0       -2.200588    1.000098   -0.581513
     10          1           0        2.933142   -1.556474   -0.002411
     11          1           0        2.605856   -0.173767    1.101046
     12          1           0        2.846546    0.136523   -0.594362
     13          1           0       -0.417204    2.218337   -0.013886
     14          1           0       -1.396658   -0.797728   -1.161938
     15          1           0       -1.896513   -0.390008    1.840004
     16          1           0       -1.366730   -1.915708    1.087759
     17          1           0       -2.970509   -1.253045    0.720502
     18          1           0       -2.407119    1.515307    0.272401
     19          1           0       -3.096015    0.657716   -0.910732
 ---------------------------------------------------------------------
 Rotational constants (GHZ):           2.1693366           1.4399097           0.9656407
 Standard basis: 6-31G(2df,p) (6D, 7F)
 There are   329 symmetry adapted cartesian basis functions of A   symmetry.
 There are   302 symmetry adapted basis functions of A   symmetry.
   302 basis functions,   466 primitive gaussians,   329 cartesian basis functions
    35 alpha electrons       35 beta electrons
       nuclear repulsion energy       478.0409134549 Hartrees.
 NAtoms=   19 NActive=   19 NUniq=   19 SFac= 1.00D+00 NAtFMM=   60 NAOKFM=F Big=F
 Integral buffers will be    131072 words long.
 Raffenetti 2 integral format.
 Two-electron integral symmetry is turned on.
 One-electron integrals computed using PRISM.
 PrsmSu:  requested number of processors reduced to:  13 ShMem   1 Linda.
 NBasis=   302 RedAO= T EigKep=  2.32D-04  NBF=   302
 NBsUse=   302 1.00D-06 EigRej= -1.00D+00 NBFU=   302
 Initial guess from the checkpoint file:  "CCpdOpNpCdOpCpCpN.chk"
 B after Tr=    -0.000000    0.000000   -0.000000
         Rot=    0.999928    0.011209    0.001904    0.003948 Ang=   1.38 deg.
 ExpMin= 1.61D-01 ExpMax= 5.48D+03 ExpMxC= 8.25D+02 IAcc=2 IRadAn=         4 AccDes= 0.00D+00
 Harris functional with IExCor=  402 and IRadAn=       4 diagonalized for initial guess.
 HarFok:  IExCor=  402 AccDes= 0.00D+00 IRadAn=         4 IDoV= 1 UseB2=F ITyADJ=14
 ICtDFT=  3500011 ScaDFX=  1.000000  1.000000  1.000000  1.000000
 FoFCou: FMM=F IPFlag=           0 FMFlag=      100000 FMFlg1=           0
         NFxFlg=           0 DoJE=T BraDBF=F KetDBF=T FulRan=T
         wScrn=  0.000000 ICntrl=       500 IOpCl=  0 I1Cent=   200000004 NGrid=           0
         NMat0=    1 NMatS0=      1 NMatT0=    0 NMatD0=    1 NMtDS0=    0 NMtDT0=    0
 Petite list used in FoFCou.
 Requested convergence on RMS density matrix=1.00D-08 within 128 cycles.
 Requested convergence on MAX density matrix=1.00D-06.
 Requested convergence on             energy=1.00D-06.
 No special actions if energy rises.
 Integral accuracy reduced to 1.0D-05 until final iterations.
 Initial convergence to 1.0D-05 achieved.  Increase integral accuracy.
 SCF Done:  E(RB3LYP) =  -456.548288476     A.U. after   12 cycles
            NFock= 12  Conv=0.99D-08     -V/T= 2.0070
 PrsmSu:  requested number of processors reduced to:  13 ShMem   1 Linda.
 Calling FoFJK, ICntrl=      2127 FMM=F ISym2X=0 I1Cent= 0 IOpClX= 0 NMat=1 NMatS=1 NMatT=0.
 ***** Axes restored to original set *****
 -------------------------------------------------------------------
 Center     Atomic                   Forces (Hartrees/Bohr)
 Number     Number              X              Y              Z
 -------------------------------------------------------------------
      1        6           0.001276611   -0.002190467    0.004303723
      2        6           0.000091799    0.007820723   -0.003881553
      3        8           0.002034529   -0.005505998    0.006631692
      4        7           0.002856961    0.001462628   -0.003794132
      5        6           0.005357785   -0.009889472    0.003856414
      6        8          -0.005102343    0.005195316   -0.006951901
      7        6          -0.001683984    0.004358267    0.001575106
      8        6          -0.002024463    0.004130084   -0.004701581
      9        7          -0.005043714   -0.005670140    0.000091034
     10        1          -0.001871538   -0.000533640    0.000167256
     11        1           0.000399697   -0.000574118   -0.000046641
     12        1           0.000657008    0.000021117    0.000739525
     13        1           0.000001054    0.002870826   -0.001439590
     14        1          -0.000033757   -0.002623324    0.001276271
     15        1           0.000407231   -0.000417455    0.000609394
     16        1          -0.001246153    0.000369017    0.001435639
     17        1           0.000565136   -0.001342967    0.000521955
     18        1           0.001872838   -0.000279231   -0.000525898
     19        1           0.001485301    0.002798837    0.000133286
 -------------------------------------------------------------------
 Cartesian Forces:  Max     0.009889472 RMS     0.003290369

 GradGradGradGradGradGradGradGradGradGradGradGradGradGradGradGradGradGrad
 Berny optimization.
 Using GEDIIS/GDIIS optimizer.
 FormGI is forming the generalized inverse of G from B-inverse, IUseBI=4.
 Internal  Forces:  Max     0.014176829 RMS     0.003236097
 Search for a local minimum.
 Step number   3 out of a maximum of   93
 All quantities printed in internal units (Hartrees-Bohrs-Radians)
 Mixed Optimization -- RFO/linear search
 Update second derivatives using D2CorX and points    2    3
 DE= -2.42D-03 DEPred=-4.51D-03 R= 5.36D-01
 TightC=F SS=  1.41D+00  RLast= 4.34D-01 DXNew= 8.4853D-01 1.3009D+00
 Trust test= 5.36D-01 RLast= 4.34D-01 DXMaxT set to 8.49D-01
 ITU=  1  1  0
 Use linear search instead of GDIIS.
     Eigenvalues ---    0.00305   0.00615   0.00695   0.00781   0.01069
     Eigenvalues ---    0.01379   0.01711   0.01847   0.02139   0.04101
     Eigenvalues ---    0.04822   0.05094   0.05394   0.05875   0.06900
     Eigenvalues ---    0.06955   0.07638   0.15222   0.15999   0.16000
     Eigenvalues ---    0.16000   0.16000   0.16000   0.16000   0.16009
     Eigenvalues ---    0.16172   0.18417   0.18880   0.22474   0.24694
     Eigenvalues ---    0.24933   0.25255   0.28966   0.31160   0.33682
     Eigenvalues ---    0.33880   0.34112   0.34192   0.34237   0.34330
     Eigenvalues ---    0.34423   0.34467   0.34564   0.36169   0.43547
     Eigenvalues ---    0.44184   0.44287   0.47513   0.58422   0.87057
     Eigenvalues ---    0.90760
 RFO step:  Lambda=-2.62661135D-03 EMin= 3.04701104D-03
 Quartic linear search produced a step of -0.26812.
 Iteration  1 RMS(Cart)=  0.04337398 RMS(Int)=  0.00150947
 Iteration  2 RMS(Cart)=  0.00182879 RMS(Int)=  0.00048291
 Iteration  3 RMS(Cart)=  0.00000249 RMS(Int)=  0.00048291
 Iteration  4 RMS(Cart)=  0.00000000 RMS(Int)=  0.00048291
 Variable       Old X    -DE/DX   Delta X   Delta X   Delta X     New X
                                 (Linear)    (Quad)   (Total)
    R1        2.85263  -0.00009   0.00198  -0.00487  -0.00289   2.84974
    R2        2.06031   0.00073   0.00081   0.00045   0.00126   2.06157
    R3        2.06087   0.00024  -0.00007   0.00138   0.00132   2.06219
    R4        2.06149  -0.00038  -0.00001  -0.00022  -0.00023   2.06126
    R5        2.28568   0.00749   0.00373   0.00283   0.00656   2.29224
    R6        2.67508   0.00584  -0.00233   0.01153   0.00919   2.68428
    R7        2.63260   0.00265  -0.00116   0.00548   0.00433   2.63693
    R8        2.83440  -0.00572  -0.00971   0.00679  -0.00292   2.83149
    R9        2.27901   0.00567   0.00361   0.00100   0.00461   2.28362
   R10        2.06677   0.00203   0.00095   0.00217   0.00312   2.06989
   R11        2.90712  -0.00336   0.00054  -0.01039  -0.00984   2.89728
   R12        2.77135  -0.00221   0.00079  -0.00638  -0.00559   2.76576
   R13        2.06462  -0.00010   0.00090  -0.00106  -0.00016   2.06446
   R14        2.07306  -0.00043  -0.00038  -0.00041  -0.00079   2.07227
   R15        2.05643   0.00133   0.00189  -0.00098   0.00090   2.05734
   R16        2.06692   0.00052  -0.00003   0.00177   0.00174   2.06866
   R17        1.92461   0.00051   0.00008   0.00107   0.00116   1.92577
   R18        1.91544   0.00178   0.00050   0.00350   0.00400   1.91944
    A1        1.84051   0.00275   0.00356   0.01306   0.01663   1.85714
    A2        1.95756  -0.00101  -0.00084  -0.00672  -0.00757   1.94999
    A3        1.94639  -0.00098   0.00011  -0.00793  -0.00783   1.93856
    A4        1.94019  -0.00096  -0.00737   0.00583  -0.00153   1.93866
    A5        1.93414  -0.00077  -0.00655   0.00671   0.00017   1.93431
    A6        1.84716   0.00086   0.01044  -0.01073  -0.00032   1.84684
    A7        2.13531  -0.00661  -0.00568  -0.01115  -0.01901   2.11630
    A8        2.08557   0.00627   0.00877  -0.00635   0.00017   2.08573
    A9        2.06163   0.00042  -0.00295   0.02162   0.01634   2.07796
   A10        2.14005   0.01418   0.01334   0.00450   0.01784   2.15788
[...]
 ,0.00099652,0.00874948,-0.00152899,0.00092067,-0.05934501,0.00556962,0
 .00095303,0.01872013,0.01455695,-0.01864388,0.11493218,0.01058137,0.00
 073368,0.00304292,0.03394964,0.00369971,-0.13986604,-0.01061019,0.0156
 3241,-0.10992741,0.02921246,-0.04603285,0.62545311,-0.00339360,-0.0000
 3518,-0.00031829,0.04456760,0.00068435,-0.01955366,-0.00483576,-0.0021
 6391,0.02157388,-0.15059560,0.00380828,0.00482305,1.03021189,0.0003856
 1,0.00078878,0.00002204,-0.00061405,-0.00638656,0.00495462,-0.00059141
 ,0.00589638,0.00013111,0.00505910,-0.05452780,0.01032810,0.00476641,0.
 19563914,-0.00082260,0.00037605,-0.00205720,0.00212123,0.00271008,-0.0
 5463316,0.00387120,-0.00084227,0.01177298,-0.04177621,0.01219675,-0.22
 554778,-0.02101849,-0.02568244,0.57656038,0.00151280,-0.00032332,0.003
 35987,-0.01977527,-0.00116690,0.02098904,0.00355780,0.00084549,-0.0094
 4352,-0.04591005,0.00329444,-0.07053312,-0.73603097,-0.00003047,-0.041
 70852,0.83001046,-0.00040454,-0.00282283,0.00018615,-0.00000476,-0.002
 24156,-0.00115185,0.00009837,-0.00045631,0.00009330,0.00336921,0.01607
 672,0.00114341,0.00160668,-0.07056067,0.00234400,-0.00344285,0.0292578
 9,0.00246468,0.00034544,-0.00877095,0.00301723,-0.00069578,0.00776567,
 -0.00216494,0.00020847,-0.00170525,-0.06332842,0.00160750,-0.00110811,
 -0.06462533,0.00229014,-0.11453040,0.10013448,-0.00498260,0.11343186,0
 .00269956,-0.00032191,-0.00211428,-0.01630958,-0.00066475,0.03753983,-
 0.01206115,0.00090221,-0.01082584,-0.13627168,0.00971833,-0.00697012,-
 0.02896243,-0.00024869,-0.02633575,0.01117144,0.00062813,0.00574436,0.
 43688190,0.00038338,0.00364242,0.00080786,-0.00164031,-0.00104071,0.00
 033969,-0.00162501,-0.00123561,0.00122884,0.01252924,-0.06446284,0.005
 63304,0.00019312,-0.00527489,-0.00703801,0.00110788,0.00512279,0.00210
 399,-0.00646580,0.48398586,-0.00026549,0.00102192,-0.00460111,0.034460
 45,-0.00196351,0.00895508,-0.00224344,0.00012909,-0.00309721,-0.007798
 57,0.00132367,-0.11483813,-0.03151812,-0.00142413,0.01718348,-0.002967
 42,0.00121182,-0.00996877,0.02544344,0.01749314,0.63487041,-0.00030600
 ,-0.00121747,0.00051357,-0.00198041,0.00292730,-0.00722909,0.00281895,
 0.00011045,0.00201559,-0.03084501,0.03201009,0.01539931,0.00113925,0.0
 0222908,0.00390728,-0.00125964,-0.00088171,-0.00078938,-0.08129175,0.0
 2560303,0.00779830,0.56201322,-0.00007460,-0.00012586,0.00016296,-0.00
 140411,0.00049880,-0.00130494,0.00027640,-0.00070831,0.00074659,0.0076
 4001,0.00087525,-0.00070101,-0.00046549,-0.00034453,0.00172694,-0.0004
 6801,0.00009004,-0.00061776,0.02532588,-0.16012826,-0.03321859,0.03736
 407,0.49635373,-0.00002680,-0.00030520,0.00011019,-0.00051221,-0.00032
 654,-0.00141958,0.00093857,0.00099192,0.00055469,0.00143512,0.00288782
 ,0.00206506,-0.00152593,0.00053880,0.00199292,0.00057984,-0.00007915,-
 0.00054578,0.01274426,-0.04254899,-0.10040273,0.00839483,-0.03613482,0
 .56763484,-0.00015898,0.00118140,0.00143345,-0.00378846,-0.00164582,-0
 .01004737,0.00305136,-0.00075855,0.00254283,-0.03074649,-0.02854417,0.
 03389935,0.00093087,-0.00319965,-0.00257439,-0.00269552,0.00074333,0.0
 0142627,-0.09006386,-0.02862491,0.05083493,0.00523254,0.00605265,-0.00
 656432,0.56780210,-0.00019311,0.00012698,-0.00016038,0.00187762,-0.000
 27807,-0.00055568,-0.00122300,-0.00006521,0.00030999,-0.01097259,0.003
 55525,-0.00196966,0.00045919,-0.00067542,0.00219315,-0.00232404,0.0000
 6768,-0.00051640,-0.00043137,-0.15724144,0.07139702,-0.01135220,-0.037
 12972,0.02379772,-0.02941207,0.59637431,0.00046566,-0.00042898,-0.0002
 2049,-0.00147968,0.00151614,-0.00027142,0.00443274,0.00003824,-0.00125
 932,0.01820513,0.00736142,0.00052248,-0.00285452,-0.00103524,-0.010449
 27,0.00016369,-0.00003252,0.00338977,0.01369125,0.03446364,-0.12889213
 ,-0.00378776,-0.00644979,0.00850931,-0.17352969,0.09486555,0.29162553,
 -0.06235836,-0.00158661,0.05924479,-0.01096638,-0.00112162,0.03855538,
 0.00404887,-0.00060821,-0.00159693,-0.00712663,0.00084263,-0.00131550,
 -0.00163509,0.00000674,-0.00167409,0.00181883,0.00011492,-0.00119417,0
 .00068723,-0.00007680,0.00139972,-0.00025562,-0.00010362,-0.00004210,-
 0.00046170,0.00006692,0.00015402,0.07000721,-0.00189048,-0.05075992,0.
 00873502,0.00022394,-0.00162127,-0.00304473,-0.00014669,-0.00105763,0.
 00002933,0.00066387,0.00175816,0.00035165,0.00004840,-0.00056635,0.000
 07773,-0.00001134,0.00181675,-0.00000115,-0.00013858,0.00048950,-0.000
 06092,-0.00009611,-0.00000597,-0.00001111,0.00015151,-0.00000729,-0.00
 008124,0.00169241,0.04705088,0.06675669,0.00787575,-0.30562711,-0.0005
 3977,0.00045093,-0.00537134,-0.00205190,-0.00002920,0.00264610,0.00045
 652,-0.00011044,0.00204049,-0.00215446,0.00003949,-0.00078292,0.001551
 68,0.00008457,-0.00195036,-0.00081311,-0.00001177,-0.00001194,0.000077
 76,0.00001599,-0.00001135,0.00013767,0.00002374,0.00002386,-0.07058485
 ,-0.00897802,0.32974280,-0.09912313,-0.09452755,-0.05791842,-0.0116597
 8,-0.02872394,-0.02039865,-0.00506043,0.00493560,0.00117876,0.00034782
 ,0.00208970,0.00262451,-0.00247361,-0.00073414,-0.00027649,0.00126195,
 0.00122081,-0.00016650,-0.00034998,0.00082642,0.00009040,-0.00023447,-
 0.00012099,-0.00003087,0.00027250,0.00001181,0.00001944,0.00404172,0.0
 0801639,0.00399865,0.10755241,-0.09211286,-0.19110741,-0.10389388,0.00
 240844,0.00357773,0.00248965,0.00163099,-0.00176704,0.00097704,-0.0004
 0450,0.00035039,0.00113223,-0.00236614,-0.00007541,-0.00151290,0.00235
 030,0.00076917,-0.00152700,-0.00020847,-0.00001389,0.00010694,0.000022
 39,0.00001339,-0.00003860,0.00001544,0.00001162,0.00004041,0.00248127,
 0.00189471,0.00211551,0.09879676,0.20827200,-0.05691407,-0.10616315,-0
 .11038616,-0.00317550,0.00511562,0.00118596,-0.00018500,-0.00064658,0.
 00122818,-0.00037003,0.00012846,-0.00339580,0.00406381,-0.00008685,0.0
 0187527,-0.00164629,0.00070199,-0.00282467,0.00012358,-0.00031842,-0.0
 0007197,0.00009769,0.00001970,0.00006265,-0.00012365,-0.00001068,-0.00
 004070,-0.01341745,-0.02213011,-0.01156569,0.06624559,0.11348208,0.119
 05361,-0.07180896,0.07756136,-0.03200393,-0.00627882,0.03211094,-0.017
 08383,-0.00692374,-0.00380028,-0.00035833,0.00011701,-0.00241981,0.001
 67856,-0.00161225,0.00085096,0.00014116,0.00059903,-0.00084802,0.00023
 969,-0.00014512,-0.00049499,-0.00021348,0.00024066,-0.00005285,0.00006
 996,-0.00019988,-0.00010686,0.00022138,0.00230853,-0.00858558,0.002786
 58,0.00513962,-0.01303669,0.00560334,0.07852471,0.07625371,-0.23891656
 ,0.09986786,-0.00121105,-0.00088667,0.00113540,-0.00059389,-0.00037000
 ,-0.00132609,0.00037388,0.00078683,-0.00123670,0.00229539,-0.00029591,
 0.00124539,-0.00222989,0.00117289,0.00161090,0.00022598,0.00002044,-0.
 00007950,-0.00004586,0.00000078,0.00003894,-0.00008425,-0.00001791,-0.
 00008196,-0.00156540,0.00131046,-0.00146228,0.00822095,-0.02160923,0.0
 1003666,-0.08126859,0.25908032,-0.03161557,0.10222239,-0.09192193,-0.0
 0381677,-0.00470325,0.00009410,-0.00029388,0.00068518,0.00144596,-0.00
 028416,0.00017870,-0.00308394,0.00413788,-0.00048269,0.00161648,-0.001
 86723,-0.00031937,-0.00194545,0.00001225,0.00020546,0.00001386,-0.0000
 3682,-0.00000574,0.00003409,0.00007645,0.00000663,-0.00009841,-0.00982
 008,0.02514326,-0.00911024,0.00476675,-0.01343867,0.00488862,0.0389799
 1,-0.10965176,0.09797497,-0.00011319,-0.00002336,0.00026842,-0.0022866
 6,-0.00038433,-0.00158015,0.00021838,0.00030214,-0.00103642,0.01165555
 ,-0.00065716,-0.01075680,-0.14380581,-0.00654885,0.11815802,-0.0404479
 8,-0.00268725,0.02255481,-0.00022194,0.00066661,-0.00121742,-0.0006402
 2,0.00019838,0.00014030,-0.00396971,-0.00048052,-0.00216371,0.00014143
 ,0.00002207,0.00024467,0.00010618,0.00034605,-0.00019872,-0.00001620,-
 0.00026714,-0.00019155,0.17918668,0.00001787,0.00046505,0.00006027,0.0
 0020614,0.00577915,0.00008879,-0.00000423,-0.00151497,-0.00009519,-0.0
 0105195,0.01342805,0.00368148,-0.00908368,-0.06347932,0.01474350,0.001
 61930,0.02163232,-0.00076196,0.00033977,-0.00010178,0.00010371,0.00020
 374,-0.00024781,0.00010680,-0.00211725,-0.00060062,-0.00065638,-0.0000
 6992,-0.00037188,-0.00000835,-0.00024890,-0.00026164,-0.00009860,0.000
 15744,-0.00028907,0.00011643,0.00941754,0.02644891,0.00005028,0.000100
 16,-0.00003614,-0.00601607,0.00038287,0.00238541,0.00004356,0.00034957
 ,-0.00406334,0.01683783,0.00348780,-0.03611977,0.10664897,0.01131081,-
 0.19965899,0.00250458,0.00065820,0.01764303,0.00278662,0.00104161,-0.0
 0323165,-0.00029963,-0.00026322,-0.00052439,0.00115075,0.00019694,0.00
 161505,0.00010330,-0.00004023,-0.00008139,0.00001572,-0.00001132,0.000
 01801,0.00003956,-0.00006081,0.00005570,-0.12408808,-0.01752601,0.2201
 6947,0.00042067,-0.00003312,0.00060683,-0.00317512,0.00089313,-0.00960
 813,0.00214907,-0.00014607,0.00482710,-0.02558157,-0.00363485,-0.03473
 491,-0.00453035,-0.00125105,0.00608787,-0.00209338,0.00053748,-0.00281
 312,-0.06784019,-0.00647254,-0.06324243,0.00401024,0.00283904,0.010125
 12,0.00567676,-0.00298333,0.01648509,-0.00014071,0.00001870,0.00012349
 ,0.00021585,0.00004364,-0.00008112,0.00019878,-0.00008666,-0.00005792,
 0.00018288,-0.00013062,-0.00013289,0.08887149,0.00023048,0.00017670,0.
 00032285,-0.00036460,0.00110917,-0.00047653,-0.00020627,-0.00130797,0.
 00058781,0.00413069,0.00243290,0.00277990,-0.00001702,0.00004382,-0.00
 032546,0.00026340,0.00014629,0.00022760,-0.00944727,-0.05679760,-0.033
 86887,-0.00731185,-0.00589694,-0.03058937,0.00176693,-0.00453161,0.032
 95443,-0.00006276,0.00000067,0.00000007,0.00010890,-0.00002682,-0.0000
 0017,0.00002663,-0.00000724,-0.00000476,-0.00016393,-0.00028875,0.0000
 2234,0.00810685,0.06583416,-0.00027528,-0.00023055,-0.00034665,0.00062
 023,0.00025027,-0.00042138,0.00716181,0.00084498,-0.00510336,-0.006854
 76,0.00052717,-0.00043271,0.00115459,-0.00050488,0.00034131,0.00000075
 ,0.00004926,-0.00001599,-0.07576120,-0.03315336,-0.28464372,-0.0016283
 3,-0.00388059,-0.00914216,0.00176086,0.00737465,-0.01584797,0.00009677
 ,-0.00000130,0.00005125,-0.00014629,0.00003364,-0.00000933,-0.00003868
 ,-0.00000815,0.00001318,0.00014922,0.00007025,-0.00000066,0.07207093,0
 .02882792,0.31258751,0.00003790,0.00003187,-0.00003403,0.00004804,-0.0
 0029266,0.00101508,-0.00042068,0.00008205,-0.00041732,0.00161188,-0.00
 128010,-0.00063543,-0.00013386,0.00047920,0.00061332,-0.00021078,-0.00
 006846,-0.00019283,0.00193258,0.00222452,0.01233572,-0.06559182,-0.009
 54030,-0.06645255,0.00022818,-0.00096907,-0.00054871,0.00001035,0.0000
 0163,-0.00001777,-0.00001589,-0.00000588,-0.00000369,-0.00001498,0.000
 01317,-0.00000150,-0.00025153,0.00074892,-0.00011922,0.00009086,0.0024
 5670,0.00078653,0.06729110,-0.00001552,-0.00008649,0.00004392,-0.00002
 527,0.00015080,-0.00075653,0.00062657,0.00038230,0.00022125,-0.0014836
 4,0.00135031,0.00254913,0.00063414,0.00035707,-0.00184234,-0.00005164,
 -0.00015252,0.00059893,-0.00894716,-0.00583919,-0.03225336,-0.00882603
 ,-0.05181046,-0.03275072,-0.00011667,0.00316376,0.00099324,0.00000021,
 -0.00000893,0.00001100,0.00000667,0.00001538,0.00001131,0.00003660,-0.
 00001427,-0.00000545,0.00050671,-0.00064751,0.00044439,0.00203451,-0.0
 0547625,-0.00081427,0.00814750,0.05497079,0.00003217,-0.00005758,0.000
 02628,-0.00013203,0.00004600,-0.00093687,0.00065329,0.00001226,0.00041
 641,-0.00006091,0.00024812,0.00181488,0.00056534,0.00039750,-0.0017131
 6,-0.00003857,-0.00008683,0.00058989,-0.00340109,-0.00145196,-0.012802
 41,-0.06562063,-0.03433841,-0.28739691,-0.00017172,0.00055164,0.001549
 90,0.00000745,0.00000644,0.00001783,0.00003495,0.00002197,-0.00002204,
 0.00003429,-0.00001897,-0.00001709,-0.00050738,0.00019862,0.00067925,0
 .00109549,-0.00219146,0.00118003,0.07260640,0.03980902,0.31290242,-0.0
 0000834,0.00002922,0.00000135,-0.00013538,0.00027795,0.00041660,-0.000
 14020,-0.00004312,-0.00009185,0.00123695,-0.00044919,-0.00067154,-0.00
 002292,0.00023712,-0.00049676,0.00001525,-0.00007306,0.00011451,0.0022
 5678,0.00870877,-0.00710436,-0.08706878,-0.07857466,0.05946090,-0.0005
 8479,0.00258660,0.00101262,0.00001167,-0.00000662,-0.00000624,-0.00002
 779,0.00001744,-0.00000348,0.00000098,-0.00000817,-0.00000757,0.000075
 17,-0.00001474,0.00009237,0.00022611,-0.00059247,-0.00011667,0.0029428
 5,0.00761520,-0.00530732,0.09158886,-0.00003479,-0.00013248,-0.0001587
 3,0.00087452,-0.00050665,0.00053904,-0.00030599,0.00070477,-0.00045237
 ,-0.00114573,0.00239413,-0.00041722,0.00047494,-0.00006096,0.00091705,
 -0.00014845,-0.00006268,-0.00017105,-0.01309623,-0.02038538,0.01837072
 ,-0.07541506,-0.19075294,0.10927859,0.00258431,-0.00565988,-0.00346275
 ,0.00002584,0.00000415,0.00000090,-0.00001911,-0.00001009,0.00000707,-
 0.00001562,0.00000896,0.00001427,-0.00005972,-0.00001986,-0.00018136,-
 0.00034175,0.00088445,-0.00002680,0.00268634,0.00413208,-0.00325448,0.
 08300751,0.20886635,-0.00004831,-0.00003063,-0.00003582,0.00024678,-0.
 00006716,0.00092933,-0.00042439,0.00034584,-0.00034953,-0.00056845,-0.
 00013908,0.00019465,0.00034501,0.00038985,-0.00051536,-0.00032127,-0.0
 0012882,0.00010601,-0.00540146,-0.00881063,0.00599339,0.05949645,0.112
 10487,-0.13233451,0.00100504,-0.00243180,0.00013473,0.00000988,-0.0000
 0567,-0.00000710,-0.00004526,0.00001579,0.00000633,-0.00001088,-0.0000
 0469,-0.00000344,0.00003240,-0.00003106,0.00011871,-0.00040944,0.00045
 197,0.00052427,0.01272133,0.02241475,-0.01536906,-0.06510068,-0.120093
 86,0.13925964,-0.00003260,-0.00016363,0.00007422,0.00007058,0.00037551
 ,-0.00188239,0.00042830,-0.00002747,0.00065487,-0.00086386,0.00269741,
 0.00131102,0.00101887,-0.00008371,0.00128039,-0.00065921,-0.00002468,-
 0.00026229,-0.01080625,-0.00249423,-0.00106296,-0.30696360,0.01114028,
 -0.01928430,0.00066646,-0.00064373,0.00002332,-0.00005242,-0.00000677,
 0.00003197,-0.00002499,0.00001419,0.00001526,0.00001999,-0.00000627,-0
 .00001213,-0.00008905,-0.00008408,-0.00000956,0.00046748,0.00018075,0.
 00041256,-0.00721843,-0.00000077,0.00018389,-0.01142536,0.00093802,-0.
 00159609,0.33447824,0.00009015,0.00025492,-0.00020321,0.00061907,-0.00
 089566,0.00214991,-0.00063315,0.00010626,-0.00075126,0.00469899,-0.004
 52998,-0.00245995,-0.00052375,-0.00035597,-0.00182280,0.00066710,0.000
 20808,0.00049671,0.02819162,0.00014820,0.00378799,0.00910511,-0.048052
 78,0.00045609,-0.00017172,0.00140933,-0.00027943,0.00009318,0.00002833
 ,-0.00002203,0.00008726,-0.00001716,-0.00002753,-0.00003871,0.00001444
 ,0.00001260,-0.00005685,0.00003651,0.00017280,-0.00068738,0.00126698,0
 .00023436,-0.00439565,-0.00074421,0.00027678,-0.02384177,0.00166314,-0
 .00315560,-0.01269044,0.05021962,0.00001410,0.00010641,-0.00005302,0.0
 0018398,-0.00004677,0.00078881,-0.00027488,-0.00006694,-0.00023390,0.0
 0200242,-0.00304186,0.00063017,0.00005785,-0.00026488,-0.00167840,0.00
 032563,0.00018433,0.00048184,0.01116768,0.00084714,-0.00031104,-0.0205
 7187,0.00016456,-0.04862678,-0.00022317,0.00067821,-0.00005375,0.00003
 766,0.00000680,-0.00001186,0.00002569,0.00001173,-0.00000331,-0.000011
 17,0.00000061,-0.00000259,-0.00013297,-0.00011333,0.00034838,0.0001092
 8,0.00073634,0.00021792,-0.03126916,0.00128504,-0.00095452,0.01816356,
 -0.00175253,0.00118116,0.02047648,0.00073286,0.04803543,0.00001887,0.0
 0018931,0.00021783,-0.00042907,-0.00038498,-0.00235810,0.00066787,-0.0
 0012594,0.00066581,-0.00230975,-0.00316963,0.00310231,0.00069690,0.000
 06323,0.00142925,-0.00048046,-0.00001121,-0.00031646,-0.01280034,0.006
 13270,-0.00544817,0.00132811,0.00101395,-0.00065028,-0.40232848,0.0566
 4592,0.10643072,-0.00007936,0.00002824,0.00001641,0.00003274,-0.000004
 99,-0.00001914,-0.00005269,-0.00000756,0.00002708,-0.00016407,0.000078
 00,0.00011773,0.00044106,0.00091816,0.00001804,-0.00020234,-0.00035449
 ,-0.00001826,0.00026903,0.00045641,-0.00001451,0.00060688,-0.00026401,
 -0.00014824,0.41826930,-0.00002775,0.00020860,0.00042036,-0.00129604,-
 0.00044458,-0.00169823,0.00038814,-0.00015962,0.00041630,-0.00440840,-
 0.00348480,0.00457263,0.00034392,-0.00013974,0.00126048,-0.00042656,0.
 00006119,-0.00034630,-0.02768246,0.00529821,0.00457492,-0.00129409,0.0
 0051480,-0.00022835,0.05495525,-0.07048478,-0.01369896,-0.00013794,0.0
 0004729,0.00001685,0.00003916,0.00000047,-0.00001911,-0.00006796,0.000
 00014,0.00001576,0.00012087,0.00005570,-0.00009377,0.00026615,-0.00010
 427,0.00032554,-0.00015595,-0.00020179,-0.00026579,0.00046046,0.000293
 01,-0.00014387,0.00076770,-0.00102184,0.00054074,-0.05850387,0.0740175
 6,-0.00010976,0.00015549,-0.00007596,0.00064559,0.00021519,-0.00051049
 ,-0.00009449,-0.00019215,0.00034002,-0.00180355,0.00134518,-0.00102875
 ,0.00010589,-0.00018575,0.00018513,-0.00042184,-0.00002469,-0.00004221
 ,0.02539030,0.00096286,-0.01137611,0.00028651,-0.00102914,0.00189742,0
 .05565291,-0.00816570,-0.02546111,0.00002376,-0.00001021,0.00001860,-0
 .00000268,-0.00000515,-0.00000420,-0.00003300,-0.00001182,0.00001811,-
 0.00002238,0.00010428,0.00053098,0.00003031,0.00027226,-0.00056745,-0.
 00055164,-0.00025731,-0.00019959,-0.00019152,-0.00046360,-0.00062916,-
 0.00040116,0.00050866,0.00033834,-0.09807540,0.01106965,0.04360526,-0.
 00003619,0.00002895,0.00005266,-0.00022351,-0.00041068,0.00116320,-0.0
 0063059,0.00006263,-0.00029427,0.00073308,0.00146770,-0.00035396,-0.00
 053313,-0.00077542,-0.00092643,-0.00038430,0.00012761,0.00015740,0.001
 49479,-0.01048108,-0.00928110,-0.00034566,-0.00104601,0.00120047,-0.04
 886291,-0.00055618,0.02305902,0.00000043,0.00001501,-0.00001400,-0.000
 00072,0.00001262,-0.00001113,-0.00009669,-0.00000836,0.00000488,0.0004
 4009,0.00001664,0.00027418,0.00041005,-0.00002333,0.00058892,-0.000133
 43,0.00021308,0.00004465,0.00078990,-0.00046544,0.00008383,0.00037898,
 -0.00024905,0.00006713,-0.00348418,0.03665936,0.01957214,0.05048401,0.
 00004251,0.00003494,-0.00000416,-0.00064588,-0.00017625,0.00010143,0.0
 0041204,0.00005665,-0.00013642,-0.00015062,0.00094066,0.00058000,-0.00
 065966,0.00001833,-0.00072490,0.00047555,-0.00012524,0.00013033,0.0023
 2078,-0.02618584,-0.01665206,-0.00313489,-0.00314321,0.00491618,0.0272
 2425,-0.32801698,-0.14602581,0.00000874,-0.00000166,-0.00001270,0.0000
 1420,-0.00001616,-0.00000169,-0.00000796,0.00001160,0.00001100,-0.0002
 5130,-0.00002247,0.00000920,0.00102788,0.00254231,0.00008185,-0.000163
 84,0.00045913,0.00009714,0.00066355,-0.00136013,-0.00068020,0.00011194
 ,0.00026179,-0.00000846,-0.00269924,-0.00445555,-0.00428806,-0.0245880
 5,0.35917808,-0.00003990,0.00004460,-0.00005883,0.00040782,-0.00002891
 ,0.00089345,-0.00071128,-0.00018475,-0.00035518,-0.00086309,-0.0005659
 5,-0.00041533,0.00009250,-0.00073561,0.00003868,-0.00066177,0.00014880
 ,-0.00000015,-0.00302073,0.02820588,0.00723269,0.00197624,0.00300239,-
 0.00245697,0.04331379,-0.18758496,-0.12477607,0.00001245,0.00001445,-0
 .00000964,-0.00001529,0.00000055,0.00000522,-0.00004111,0.00000697,0.0
 0002802,0.00034775,0.00001675,0.00015233,-0.00048155,0.00027312,0.0016
 1593,0.00016544,0.00029798,0.00023473,-0.00016392,0.00130712,0.0007957
 4,0.00004690,-0.00010693,-0.00009289,-0.00497663,-0.00671885,-0.007038
 83,-0.03538761,0.16260734,0.12420710\\-0.00000140,0.00001219,0.0000014
 4,0.00000345,-0.00000291,-0.00003932,0.00001005,0.00000178,0.00000894,
 -0.00002866,-0.00001363,0.00003301,-0.00000106,-0.00000512,-0.00001219
 ,0.00000428,0.00000383,0.00000500,0.00001743,0.00001417,-0.00000717,-0
 .00000311,-0.00000302,-0.00000138,0.00000426,0.00000014,0.00000797,0.0
 0000148,-0.00000358,0.00000017,-0.00000052,-0.00000321,0.00000062,-0.0
 0000076,-0.00000415,0.00000155,-0.00000175,0.00000181,0.00000292,-0.00
 000013,0.00000100,-0.00000355,-0.00000003,0.00000018,-0.00000004,-0.00
 000275,0.00000212,0.00000372,-0.00000156,-0.00000129,-0.00000092,0.000
 00198,0.00000217,-0.00000023,-0.00000122,-0.00000248,-0.00000055\\\@


 IN THE WOODS WE RETURN TO REASON AND FAITH.

                                 -- EMERSON
 Job cpu time:       0 days  2 hours  0 minutes 22.4 seconds.
 Elapsed time:       0 days  0 hours 30 minutes  9.2 seconds.
 File lengths (MBytes):  RWF=    139 Int=      0 D2E=      0 Chk=      9 Scr=      1
 Normal termination of Gaussian 16 at Sun Jul  3 22:34:49 2022.
### All Done ###
