### Starting Gaussian ###
 Entering Gaussian System, Link 0=g16
 Initial command:
 /cluster/software/gaussian/gaussian-16-A.03/avx2/g16/l1.exe "/local/scratch/ks29c/Gau-30440.inp" -scrdir="/local/scratch/ks29c/"
 Entering Link 1 = /cluster/software/gaussian/gaussian-16-A.03/avx2/g16/l1.exe PID=     30441.
  
 Copyright (c) 1988,1990,1992,1993,1995,1998,2003,2009,2016,
            Gaussian, Inc.  All Rights Reserved.
  
 This is part of the Gaussian(R) 16 program.  It is based on
 the Gaussian(R) 09 system (copyright 2009, Gaussian, Inc.),
 the Gaussian(R) 03 system (copyright 2003, Gaussian, Inc.),
 the Gaussian(R) 98 system (copyright 1998, Gaussian, Inc.),
 the Gaussian(R) 94 system (copyright 1995, Gaussian, Inc.),
 the Gaussian 92(TM) system (copyright 1992, Gaussian, Inc.),
 the Gaussian 90(TM) system (copyright 1990, Gaussian, Inc.),
 the Gaussian 88(TM) system (copyright 1988, Gaussian, Inc.),
 the Gaussian 86(TM) system (copyright 1986, Carnegie Mellon
 University), and the Gaussian 82(TM) system (copyright 1983,
 Carnegie Mellon University). Gaussian is a federally registered
 trademark of Gaussian, Inc.
  
 This software contains proprietary and confidential information,
 including trade secrets, belonging to Gaussian, Inc.
  
 This software is provided under written license and may be
 used, copied, transmitted, or stored only in accord with that
 written license.
  
 The following legend is applicable only to US Government
 contracts under FAR:
  
                    RESTRICTED RIGHTS LEGEND
  
 Use, reproduction and disclosure by the US Government is
 subject to restrictions as set forth in subparagraphs (a)
 and (c) of the Commercial Computer Software - Restricted
 Rights clause in FAR 52.227-19.
  
 Gaussian, Inc.
 340 Quinnipiac St., Bldg. 40, Wallingford CT 06492
  
  
 ---------------------------------------------------------------
 Warning -- This program may not be used in any manner that
 competes with the business of Gaussian, Inc. or will provide
 assistance to any competitor of Gaussian, Inc.  The licensee
 of this program is prohibited from giving any competitor of
 Gaussian, Inc. access to this program.  By using this program,
 the user acknowledges that Gaussian, Inc. is engaged in the
 business of creating and licensing software in the field of
 computational chemistry and represents and warrants to the
 licensee that it is not a competitor of Gaussian, Inc. and that
 it will not use this program in any manner prohibited above.
 ---------------------------------------------------------------
  

 Cite this work as:
 Gaussian 16, Revision A.03,
 M. J. Frisch, G. W. Trucks, H. B. Schlegel, G. E. Scuseria, 
 M. A. Robb, J. R. Cheeseman, G. Scalmani, V. Barone, 
 G. A. Petersson, H. Nakatsuji, X. Li, M. Caricato, A. V. Marenich, 
 J. Bloino, B. G. Janesko, R. Gomperts, B. Mennucci, H. P. Hratchian, 
 J. V. Ortiz, A. F. Izmaylov, J. L. Sonnenberg, D. Williams-Young, 
 F. Ding, F. Lipparini, F. Egidi, J. Goings, B. Peng, A. Petrone, 
 T. Henderson, D. Ranasinghe, V. G. Zakrzewski, J. Gao, N. Rega, 
 G. Zheng, W. Liang, M. Hada, M. Ehara, K. Toyota, R. Fukuda, 
 J. Hasegawa, M. Ishida, T. Nakajima, Y. Honda, O. Kitao, H. Nakai, 
 T. Vreven, K. Throssell, J. A. Montgomery, Jr., J. E. Peralta, 
 F. Ogliaro, M. J. Bearpark, J. J. Heyd, E. N. Brothers, K. N. Kudin, 
 V. N. Staroverov, T. A. Keith, R. Kobayashi, J. Normand, 
 K. Raghavachari, A. P. Rendell, J. C. Burant, S. S. Iyengar, 
 J. Tomasi, M. Cossi, J. M. Millam, M. Klene, C. Adamo, R. Cammi, 
 J. W. Ochterski, R. L. Martin, K. Morokuma, O. Farkas, 
 J. B. Foresman, and D. J. Fox, Gaussian, Inc., Wallingford CT, 2016.
 
 ******************************************
 Gaussian 16:  ES64L-G16RevA.03 25-Dec-2016
                 4-Aug-2022 
 ******************************************
 %chk=CCpdOpCpNpCpNpdO.chk
 %NProcShared=20
 Will use up to   20 processors via shared memory.
 -----------------------------
 # opt freq b3lyp/6-31g(2df,p)
 -----------------------------
 1/18=20,19=15,26=3,38=1/1,3;
 2/9=110,12=2,17=6,18=5,40=1/2;
 3/5=1,6=6,7=104,11=2,25=1,30=1,71=1,74=-5/1,2,3;
 4//1;
 5/5=2,38=5/2;
 6/7=2,8=2,9=2,10=2,28=1/1;
 7//1,2,3,16;
 1/18=20,19=15,26=3/3(2);
 2/9=110/2;
 99//99;
 2/9=110/2;
 3/5=1,6=6,7=104,11=2,25=1,30=1,71=1,74=-5/1,2,3;
 4/5=5,16=3,69=1/1;
 5/5=2,38=5/2;
 7//1,2,3,16;
 1/18=20,19=15,26=3/3(-5);
 2/9=110/2;
 6/7=2,8=2,9=2,10=2,19=2,28=1/1;
 99/9=1/99;
 -------------------
 Title Card Required
 -------------------
 Symbolic Z-matrix:
 Charge =  0 Multiplicity = 1
 C                     1.03188  -0.06432   0.04818 
 C                     2.53247   0.01265   0.12314 
 O                     3.04215   0.62814   1.06518 
 C                     3.35409  -0.70732  -0.96311 
 N                     2.99724  -0.18151  -2.30325 
 C                     4.89472  -0.62422  -0.78922 
 N                     5.37969   0.09755   0.25955 
 O                     5.69109  -1.16063  -1.56244 
 H                     0.61737   0.48868   0.8978 
 H                     0.70447  -1.10315   0.11286 
 H                     0.6712    0.40775  -0.86701 
 H                     3.09749  -1.77333  -0.9206 
 H                     3.24224   0.80518  -2.36778 
 H                     2.00657  -0.28529  -2.50038 
 H                     4.75199   0.54276   0.9302 
 H                     6.37523   0.17975   0.40168 
 

 GradGradGradGradGradGradGradGradGradGradGradGradGradGradGradGradGradGrad
 Berny optimization.
 Initialization pass.
                           ----------------------------
                           !    Initial Parameters    !
                           ! (Angstroms and Degrees)  !
 --------------------------                            --------------------------
 ! Name  Definition              Value          Derivative Info.                !
 --------------------------------------------------------------------------------
 ! R1    R(1,2)                  1.5044         estimate D2E/DX2                !
 ! R2    R(1,9)                  1.0952         estimate D2E/DX2                !
 ! R3    R(1,10)                 1.0911         estimate D2E/DX2                !
 ! R4    R(1,11)                 1.0911         estimate D2E/DX2                !
 ! R5    R(2,3)                  1.2353         estimate D2E/DX2                !
 ! R6    R(2,4)                  1.5406         estimate D2E/DX2                !
 ! R7    R(4,5)                  1.4832         estimate D2E/DX2                !
 ! R8    R(4,6)                  1.5526         estimate D2E/DX2                !
 ! R9    R(4,12)                 1.0973         estimate D2E/DX2                !
 ! R10   R(5,13)                 1.0187         estimate D2E/DX2                !
 ! R11   R(5,14)                 1.0154         estimate D2E/DX2                !
 ! R12   R(6,7)                  1.3624         estimate D2E/DX2                !
 ! R13   R(6,8)                  1.2328         estimate D2E/DX2                !
 ! R14   R(7,15)                 1.0208         estimate D2E/DX2                !
 ! R15   R(7,16)                 1.009          estimate D2E/DX2                !
 ! A1    A(2,1,9)              108.2415         estimate D2E/DX2                !
 ! A2    A(2,1,10)             110.1853         estimate D2E/DX2                !
 ! A3    A(2,1,11)             110.4492         estimate D2E/DX2                !
 ! A4    A(9,1,10)             108.7339         estimate D2E/DX2                !
 ! A5    A(9,1,11)             107.8857         estimate D2E/DX2                !
 ! A6    A(10,1,11)            111.2506         estimate D2E/DX2                !
 ! A7    A(1,2,3)              118.3607         estimate D2E/DX2                !
 ! A8    A(1,2,4)              118.2239         estimate D2E/DX2                !
 ! A9    A(3,2,4)              123.4013         estimate D2E/DX2                !
 ! A10   A(2,4,5)              110.066          estimate D2E/DX2                !
 ! A11   A(2,4,6)              115.1644         estimate D2E/DX2                !
 ! A12   A(2,4,12)             107.577          estimate D2E/DX2                !
 ! A13   A(5,4,6)              108.721          estimate D2E/DX2                !
 ! A14   A(5,4,12)             108.8538         estimate D2E/DX2                !
 ! A15   A(6,4,12)             106.2423         estimate D2E/DX2                !
 ! A16   A(4,5,13)             110.0445         estimate D2E/DX2                !
 ! A17   A(4,5,14)             111.9576         estimate D2E/DX2                !
 ! A18   A(13,5,14)            108.7439         estimate D2E/DX2                !
 ! A19   A(4,6,7)              117.8911         estimate D2E/DX2                !
 ! A20   A(4,6,8)              123.1925         estimate D2E/DX2                !
 ! A21   A(7,6,8)              118.9072         estimate D2E/DX2                !
 ! A22   A(6,7,15)             121.1937         estimate D2E/DX2                !
 ! A23   A(6,7,16)             120.1873         estimate D2E/DX2                !
 ! A24   A(15,7,16)            118.5971         estimate D2E/DX2                !
 ! D1    D(9,1,2,3)              0.6789         estimate D2E/DX2                !
 ! D2    D(9,1,2,4)            179.3553         estimate D2E/DX2                !
 ! D3    D(10,1,2,3)          -118.1022         estimate D2E/DX2                !
 ! D4    D(10,1,2,4)            60.5742         estimate D2E/DX2                !
 ! D5    D(11,1,2,3)           118.5843         estimate D2E/DX2                !
 ! D6    D(11,1,2,4)           -62.7393         estimate D2E/DX2                !
 ! D7    D(1,2,4,5)             58.7678         estimate D2E/DX2                !
 ! D8    D(1,2,4,6)           -177.924          estimate D2E/DX2                !
 ! D9    D(1,2,4,12)           -59.6957         estimate D2E/DX2                !
 ! D10   D(3,2,4,5)           -122.6273         estimate D2E/DX2                !
 ! D11   D(3,2,4,6)              0.6808         estimate D2E/DX2                !
 ! D12   D(3,2,4,12)           118.9092         estimate D2E/DX2                !
 ! D13   D(2,4,5,13)            63.2386         estimate D2E/DX2                !
 ! D14   D(2,4,5,14)           -57.8195         estimate D2E/DX2                !
 ! D15   D(6,4,5,13)           -63.7584         estimate D2E/DX2                !
 ! D16   D(6,4,5,14)           175.1835         estimate D2E/DX2                !
 ! D17   D(12,4,5,13)         -179.0859         estimate D2E/DX2                !
 ! D18   D(12,4,5,14)           59.856          estimate D2E/DX2                !
 ! D19   D(2,4,6,7)             -2.0453         estimate D2E/DX2                !
 ! D20   D(2,4,6,8)            179.075          estimate D2E/DX2                !
 ! D21   D(5,4,6,7)            121.9738         estimate D2E/DX2                !
 ! D22   D(5,4,6,8)            -56.9059         estimate D2E/DX2                !
 ! D23   D(12,4,6,7)          -121.0179         estimate D2E/DX2                !
 ! D24   D(12,4,6,8)            60.1025         estimate D2E/DX2                !
 ! D25   D(4,6,7,15)             2.141          estimate D2E/DX2                !
 ! D26   D(4,6,7,16)          -179.5871         estimate D2E/DX2                !
 ! D27   D(8,6,7,15)          -178.93           estimate D2E/DX2                !
 ! D28   D(8,6,7,16)            -0.6581         estimate D2E/DX2                !
 --------------------------------------------------------------------------------
 Trust Radius=3.00D-01 FncErr=1.00D-07 GrdErr=1.00D-06 EigMax=2.50D+02 EigMin=1.00D-04
 Number of steps in this run=     77 maximum allowed number of steps=    100.
 GradGradGradGradGradGradGradGradGradGradGradGradGradGradGradGradGradGrad

                          Input orientation:                          
 ---------------------------------------------------------------------
 Center     Atomic      Atomic             Coordinates (Angstroms)
 Number     Number       Type             X           Y           Z
 ---------------------------------------------------------------------
      1          6           0        1.031880   -0.064320    0.048180
      2          6           0        2.532470    0.012650    0.123140
      3          8           0        3.042150    0.628140    1.065180
      4          6           0        3.354090   -0.707320   -0.963110
      5          7           0        2.997240   -0.181510   -2.303250
      6          6           0        4.894720   -0.624220   -0.789220
      7          7           0        5.379690    0.097550    0.259550
      8          8           0        5.691090   -1.160630   -1.562440
      9          1           0        0.617370    0.488680    0.897800
     10          1           0        0.704470   -1.103150    0.112860
     11          1           0        0.671200    0.407750   -0.867010
     12          1           0        3.097490   -1.773330   -0.920600
     13          1           0        3.242240    0.805180   -2.367780
     14          1           0        2.006570   -0.285290   -2.500380
     15          1           0        4.751990    0.542760    0.930200
     16          1           0        6.375230    0.179750    0.401680
 ---------------------------------------------------------------------
                    Distance matrix (angstroms):
                    1          2          3          4          5
     1  C    0.000000
     2  C    1.504431   0.000000
     3  O    2.356900   1.235330   0.000000
     4  C    2.613200   1.540570   2.448412   0.000000
     5  N    3.066854   2.478120   3.464660   1.483170   0.000000
     6  C    3.992025   2.611174   2.905034   1.552638   2.467531
     7  N    4.355954   2.851750   2.528766   2.499154   3.510254
     8  O    5.050171   3.767578   4.137749   2.454843   2.960457
     9  H    1.095209   2.119979   2.434548   3.518954   4.044707
    10  H    1.091123   2.141658   3.060887   2.887019   3.455981
    11  H    1.091106   2.144954   3.066486   2.906977   2.796511
    12  H    2.850613   2.144380   3.116640   1.097282   2.110844
    13  H    3.388006   2.708608   3.443340   2.067188   1.018698
    14  H    2.737518   2.692247   3.823611   2.087371   1.015410
    15  H    3.871140   2.420461   1.717283   2.664854   3.749522
    16  H    5.360590   3.856464   3.427931   3.431739   4.342577
                    6          7          8          9         10
     6  C    0.000000
     7  N    1.362375   0.000000
     8  O    1.232806   2.235986   0.000000
     9  H    4.730783   4.820792   5.875001   0.000000
    10  H    4.312924   4.829170   5.260828   1.776975   0.000000
    11  H    4.348463   4.851313   5.304973   1.767485   1.801130
    12  H    2.137230   3.178267   2.741190   3.817625   2.691417
    13  H    2.695501   3.460101   3.241890   4.201682   4.029339
    14  H    3.374071   4.375125   3.901492   3.751871   3.032059
    15  H    2.082935   1.020779   3.161756   4.135101   4.445164
    16  H    2.063134   1.008988   2.474355   5.787445   5.821234
                   11         12         13         14         15
    11  H    0.000000
    12  H    3.262953   0.000000
    13  H    3.003416   2.960405   0.000000
    14  H    2.220679   2.429007   1.653357   0.000000
    15  H    4.461058   3.395159   3.636603   4.471228   0.000000
    16  H    5.847864   4.038134   4.228084   5.265302   1.745284
                   16
    16  H    0.000000
 Stoichiometry    C4H8N2O2
 Framework group  C1[X(C4H8N2O2)]
 Deg. of freedom    42
 Full point group                 C1      NOp   1
 Largest Abelian subgroup         C1      NOp   1
 Largest concise Abelian subgroup C1      NOp   1
                         Standard orientation:                         
 ---------------------------------------------------------------------
 Center     Atomic      Atomic             Coordinates (Angstroms)
 Number     Number       Type             X           Y           Z
 ---------------------------------------------------------------------
      1          6           0       -2.578310    0.156656   -0.274248
      2          6           0       -1.178421   -0.361166   -0.085873
      3          8           0       -1.028532   -1.546227    0.229092
      4          6           0       -0.004805    0.607398   -0.326430
      5          7           0       -0.118401    1.778671    0.576348
      6          6           0        1.408466   -0.013929   -0.161197
      7          7           0        1.490105   -1.320486    0.216042
      8          8           0        2.449977    0.622342   -0.335046
      9          1           0       -3.276792   -0.662847   -0.074201
     10          1           0       -2.719632    0.494549   -1.302064
     11          1           0       -2.787790    0.956760    0.437414
     12          1           0       -0.068373    0.953337   -1.365812
     13          1           0       -0.046377    1.479333    1.547407
     14          1           0       -0.997681    2.270816    0.450974
     15          1           0        0.650487   -1.884422    0.353918
     16          1           0        2.391092   -1.757491    0.339759
 ---------------------------------------------------------------------
 Rotational constants (GHZ):           3.3119867           1.6038028           1.1659700
 Standard basis: 6-31G(2df,p) (6D, 7F)
 There are   288 symmetry adapted cartesian basis functions of A   symmetry.
 There are   264 symmetry adapted basis functions of A   symmetry.
   264 basis functions,   408 primitive gaussians,   288 cartesian basis functions
    31 alpha electrons       31 beta electrons
       nuclear repulsion energy       383.8803251418 Hartrees.
 NAtoms=   16 NActive=   16 NUniq=   16 SFac= 1.00D+00 NAtFMM=   60 NAOKFM=F Big=F
 Integral buffers will be    131072 words long.
 Raffenetti 2 integral format.
 Two-electron integral symmetry is turned on.
 One-electron integrals computed using PRISM.
 PrsmSu:  requested number of processors reduced to:  13 ShMem   1 Linda.
 NBasis=   264 RedAO= T EigKep=  3.81D-04  NBF=   264
 NBsUse=   264 1.00D-06 EigRej= -1.00D+00 NBFU=   264
 ExpMin= 1.61D-01 ExpMax= 5.48D+03 ExpMxC= 8.25D+02 IAcc=3 IRadAn=         5 AccDes= 0.00D+00
 Harris functional with IExCor=  402 and IRadAn=       5 diagonalized for initial guess.
 HarFok:  IExCor=  402 AccDes= 0.00D+00 IRadAn=         5 IDoV= 1 UseB2=F ITyADJ=14
 ICtDFT=  3500011 ScaDFX=  1.000000  1.000000  1.000000  1.000000
 FoFCou: FMM=F IPFlag=           0 FMFlag=      100000 FMFlg1=           0
         NFxFlg=           0 DoJE=T BraDBF=F KetDBF=T FulRan=T
         wScrn=  0.000000 ICntrl=       500 IOpCl=  0 I1Cent=   200000004 NGrid=           0
         NMat0=    1 NMatS0=      1 NMatT0=    0 NMatD0=    1 NMtDS0=    0 NMtDT0=    0
 Petite list used in FoFCou.
 Requested convergence on RMS density matrix=1.00D-08 within 128 cycles.
 Requested convergence on MAX density matrix=1.00D-06.
 Requested convergence on             energy=1.00D-06.
 No special actions if energy rises.
 Integral accuracy reduced to 1.0D-05 until final iterations.
 Initial convergence to 1.0D-05 achieved.  Increase integral accuracy.
 SCF Done:  E(RB3LYP) =  -417.216825217     A.U. after   14 cycles
            NFock= 14  Conv=0.74D-08     -V/T= 2.0072

 **********************************************************************

            Population analysis using the SCF density.

 **********************************************************************

 Orbital symmetries:
       Occupied  (A) (A) (A) (A) (A) (A) (A) (A) (A) (A) (A) (A)
                 (A) (A) (A) (A) (A) (A) (A) (A) (A) (A) (A) (A)
                 (A) (A) (A) (A) (A) (A) (A)
       Virtual   (A) (A) (A) (A) (A) (A) (A) (A) (A) (A) (A) (A)
                 (A) (A) (A) (A) (A) (A) (A) (A) (A) (A) (A) (A)
                 (A) (A) (A) (A) (A) (A) (A) (A) (A) (A) (A) (A)
                 (A) (A) (A) (A) (A) (A) (A) (A) (A) (A) (A) (A)
                 (A) (A) (A) (A) (A) (A) (A) (A) (A) (A) (A) (A)
                 (A) (A) (A) (A) (A) (A) (A) (A) (A) (A) (A) (A)
                 (A) (A) (A) (A) (A) (A) (A) (A) (A) (A) (A) (A)
                 (A) (A) (A) (A) (A) (A) (A) (A) (A) (A) (A) (A)
                 (A) (A) (A) (A) (A) (A) (A) (A) (A) (A) (A) (A)
                 (A) (A) (A) (A) (A) (A) (A) (A) (A) (A) (A) (A)
                 (A) (A) (A) (A) (A) (A) (A) (A) (A) (A) (A) (A)
                 (A) (A) (A) (A) (A) (A) (A) (A) (A) (A) (A) (A)
                 (A) (A) (A) (A) (A) (A) (A) (A) (A) (A) (A) (A)
                 (A) (A) (A) (A) (A) (A) (A) (A) (A) (A) (A) (A)
                 (A) (A) (A) (A) (A) (A) (A) (A) (A) (A) (A) (A)
                 (A) (A) (A) (A) (A) (A) (A) (A) (A) (A) (A) (A)
                 (A) (A) (A) (A) (A) (A) (A) (A) (A) (A) (A) (A)
                 (A) (A) (A) (A) (A) (A) (A) (A) (A) (A) (A) (A)
                 (A) (A) (A) (A) (A) (A) (A) (A) (A) (A) (A) (A)
                 (A) (A) (A) (A) (A)
 The electronic state is 1-A.
 Alpha  occ. eigenvalues --  -19.15737 -19.08523 -14.33779 -14.32580 -10.29699
 Alpha  occ. eigenvalues --  -10.27506 -10.24537 -10.20934  -1.06106  -1.00910
 Alpha  occ. eigenvalues --   -0.90344  -0.87596  -0.77176  -0.71777  -0.59105
 Alpha  occ. eigenvalues --   -0.56454  -0.52694  -0.51535  -0.47953  -0.47117
 Alpha  occ. eigenvalues --   -0.45826  -0.44284  -0.42123  -0.40140  -0.38270
 Alpha  occ. eigenvalues --   -0.37752  -0.36746  -0.29477  -0.24908  -0.24181
 Alpha  occ. eigenvalues --   -0.23484
 Alpha virt. eigenvalues --   -0.04579   0.02195   0.06914   0.09874   0.11372
 Alpha virt. eigenvalues --    0.12397   0.14107   0.14462   0.17115   0.18683
 Alpha virt. eigenvalues --    0.19465   0.21857   0.23594   0.26871   0.31850
 Alpha virt. eigenvalues --    0.35047   0.39009   0.43558   0.46574   0.47203
 Alpha virt. eigenvalues --    0.47909   0.49666   0.50829   0.52445   0.54076
 Alpha virt. eigenvalues --    0.55721   0.55897   0.58996   0.61332   0.62816
 Alpha virt. eigenvalues --    0.63443   0.66972   0.68817   0.69143   0.71477
 Alpha virt. eigenvalues --    0.72562   0.73675   0.74422   0.75211   0.76322
 Alpha virt. eigenvalues --    0.77615   0.78603   0.80067   0.81967   0.83060
 Alpha virt. eigenvalues --    0.85642   0.87332   0.88067   0.92301   0.93999
 Alpha virt. eigenvalues --    0.96872   0.97494   0.98815   0.99622   1.02366
 Alpha virt. eigenvalues --    1.04788   1.07536   1.09262   1.10487   1.12766
 Alpha virt. eigenvalues --    1.19522   1.22712   1.23948   1.26522   1.28826
 Alpha virt. eigenvalues --    1.30843   1.32367   1.34504   1.37414   1.39242
 Alpha virt. eigenvalues --    1.41181   1.42079   1.44196   1.48158   1.49854
 Alpha virt. eigenvalues --    1.51988   1.54294   1.55239   1.61688   1.63192
 Alpha virt. eigenvalues --    1.64675   1.67905   1.70919   1.75094   1.77241
 Alpha virt. eigenvalues --    1.81807   1.84185   1.85984   1.87356   1.89218
 Alpha virt. eigenvalues --    1.91317   1.92506   1.97702   2.02934   2.07306
 Alpha virt. eigenvalues --    2.10394   2.19911   2.20472   2.24394   2.26500
 Alpha virt. eigenvalues --    2.34969   2.37541   2.38177   2.41786   2.46241
 Alpha virt. eigenvalues --    2.48213   2.55384   2.60907   2.66029   2.70925
 Alpha virt. eigenvalues --    2.71832   2.76936   2.79696   2.85515   2.86486
 Alpha virt. eigenvalues --    2.88203   2.91380   2.93321   2.94456   2.97490
 Alpha virt. eigenvalues --    2.97893   3.00916   3.02849   3.03646   3.08959
 Alpha virt. eigenvalues --    3.09590   3.15563   3.16464   3.18147   3.22658
 Alpha virt. eigenvalues --    3.24827   3.28951   3.29694   3.35808   3.39660
 Alpha virt. eigenvalues --    3.49623   3.50605   3.52924   3.55711   3.59451
 Alpha virt. eigenvalues --    3.62019   3.67301   3.70344   3.73110   3.76212
 Alpha virt. eigenvalues --    3.83899   3.85352   3.88506   3.92495   4.01520
 Alpha virt. eigenvalues --    4.04044   4.05725   4.07065   4.09817   4.13202
 Alpha virt. eigenvalues --    4.14786   4.15956   4.17511   4.19163   4.23265
 Alpha virt. eigenvalues --    4.24470   4.24913   4.27316   4.28187   4.30676
 Alpha virt. eigenvalues --    4.32421   4.33173   4.34289   4.34991   4.39028
 Alpha virt. eigenvalues --    4.40987   4.45559   4.46170   4.47501   4.50924
 Alpha virt. eigenvalues --    4.55563   4.57319   4.59688   4.62218   4.64290
 Alpha virt. eigenvalues --    4.65011   4.66650   4.68893   4.69765   4.72157
 Alpha virt. eigenvalues --    4.73978   4.75092   4.80427   4.82873   4.84291
 Alpha virt. eigenvalues --    4.85191   4.88756   4.89147   4.93138   4.96408
 Alpha virt. eigenvalues --    5.00764   5.02829   5.06774   5.07994   5.13320
 Alpha virt. eigenvalues --    5.13910   5.16217   5.20625   5.27640   5.36898
 Alpha virt. eigenvalues --    5.40328   5.46718   5.48512   5.53762   5.58602
 Alpha virt. eigenvalues --    5.61989   5.63686   5.76228   5.78640   5.96805
 Alpha virt. eigenvalues --    6.04008   6.12867   6.39409   6.40743   6.46805
 Alpha virt. eigenvalues --    6.59911   6.81440   6.86268   9.46118  10.52946
 Alpha virt. eigenvalues --   11.09927  11.34143  11.44046  11.85735  12.74391
 Alpha virt. eigenvalues --   12.79975  13.21127  13.91044
          Condensed to atoms (all electrons):
               1          2          3          4          5          6
     1  C    5.221009   0.318553  -0.050327  -0.095739   0.001309   0.001033
     2  C    0.318553   4.476925   0.700311   0.238883  -0.037124  -0.011557
     3  O   -0.050327   0.700311   7.728986  -0.068472  -0.000011   0.001667
     4  C   -0.095739   0.238883  -0.068472   5.431899   0.347519   0.255621
     5  N    0.001309  -0.037124  -0.000011   0.347519   6.534061  -0.015991
     6  C    0.001033  -0.011557   0.001667   0.255621  -0.015991   4.188645
     7  N   -0.000375   0.009140  -0.050605  -0.082175  -0.002346   0.419936
     8  O   -0.000044   0.001239   0.000031  -0.064379  -0.001683   0.790804
     9  H    0.354741  -0.010337   0.003732   0.003804   0.000187  -0.000030
    10  H    0.360545  -0.017957   0.000595   0.003906  -0.000067   0.000063
    11  H    0.357086  -0.016868   0.000524  -0.000767   0.003747   0.000028
    12  H    0.001254  -0.037218   0.001944   0.343473  -0.022093  -0.015536
    13  H    0.000325   0.001068   0.000492  -0.055115   0.343254  -0.001443
    14  H    0.003332  -0.005116   0.000045  -0.046561   0.347336   0.003252
    15  H    0.001701  -0.016514   0.058153   0.001379   0.000120  -0.015937
    16  H    0.000018  -0.000193   0.001488   0.007454  -0.000055  -0.021008
               7          8          9         10         11         12
     1  C   -0.000375  -0.000044   0.354741   0.360545   0.357086   0.001254
     2  C    0.009140   0.001239  -0.010337  -0.017957  -0.016868  -0.037218
     3  O   -0.050605   0.000031   0.003732   0.000595   0.000524   0.001944
     4  C   -0.082175  -0.064379   0.003804   0.003906  -0.000767   0.343473
     5  N   -0.002346  -0.001683   0.000187  -0.000067   0.003747  -0.022093
     6  C    0.419936   0.790804  -0.000030   0.000063   0.000028  -0.015536
     7  N    6.697046  -0.083666   0.000010   0.000010   0.000005   0.001100
     8  O   -0.083666   7.732708   0.000000   0.000000   0.000000  -0.000281
     9  H    0.000010   0.000000   0.540932  -0.023654  -0.023747  -0.000147
    10  H    0.000010   0.000000  -0.023654   0.549801  -0.024552   0.001353
    11  H    0.000005   0.000000  -0.023747  -0.024552   0.556629   0.000143
    12  H    0.001100  -0.000281  -0.000147   0.001353   0.000143   0.590891
    13  H    0.000727   0.000633  -0.000019   0.000027   0.000909   0.005840
    14  H   -0.000094   0.000012  -0.000123   0.000368   0.005067  -0.003497
    15  H    0.292656   0.003563  -0.000034  -0.000048  -0.000045  -0.000153
    16  H    0.318211   0.005586  -0.000001  -0.000000  -0.000000  -0.000166
              13         14         15         16
     1  C    0.000325   0.003332   0.001701   0.000018
     2  C    0.001068  -0.005116  -0.016514  -0.000193
     3  O    0.000492   0.000045   0.058153   0.001488
     4  C   -0.055115  -0.046561   0.001379   0.007454
     5  N    0.343254   0.347336   0.000120  -0.000055
     6  C   -0.001443   0.003252  -0.015937  -0.021008
     7  N    0.000727  -0.000094   0.292656   0.318211
     8  O    0.000633   0.000012   0.003563   0.005586
     9  H   -0.000019  -0.000123  -0.000034  -0.000001
    10  H    0.000027   0.000368  -0.000048  -0.000000
    11  H    0.000909   0.005067  -0.000045  -0.000000
    12  H    0.005840  -0.003497  -0.000153  -0.000166
    13  H    0.489880  -0.030490   0.000035  -0.000025
    14  H   -0.030490   0.486759   0.000004   0.000006
    15  H    0.000035   0.000004   0.407032  -0.016250
    16  H   -0.000025   0.000006  -0.016250   0.453353
 Mulliken charges:
               1
     1  C   -0.474421
     2  C    0.406765
     3  O   -0.328552
     4  C   -0.220729
     5  N   -0.498163
     6  C    0.420453
     7  N   -0.519580
     8  O   -0.384524
     9  H    0.154686
    10  H    0.149610
    11  H    0.141841
    12  H    0.133093
    13  H    0.243903
    14  H    0.239701
    15  H    0.284337
    16  H    0.251580
 Sum of Mulliken charges =  -0.00000
 Mulliken charges with hydrogens summed into heavy atoms:
               1
     1  C   -0.028284
     2  C    0.406765
     3  O   -0.328552
     4  C   -0.087635
     5  N   -0.014560
     6  C    0.420453
     7  N    0.016336
     8  O   -0.384524
 Electronic spatial extent (au):  <R**2>=           1010.8859
 Charge=             -0.0000 electrons
 Dipole moment (field-independent basis, Debye):
    X=             -4.4253    Y=             -0.4508    Z=              0.4475  Tot=              4.4707
 Quadrupole moment (field-independent basis, Debye-Ang):
   XX=            -50.4187   YY=            -48.5876   ZZ=            -43.7141
   XY=            -10.9611   XZ=              2.6463   YZ=              0.7841
 Traceless Quadrupole moment (field-independent basis, Debye-Ang):
   XX=             -2.8452   YY=             -1.0141   ZZ=              3.8594
   XY=            -10.9611   XZ=              2.6463   YZ=              0.7841
 Octapole moment (field-independent basis, Debye-Ang**2):
  XXX=            -22.2529  YYY=             -9.3394  ZZZ=              2.9261  XYY=              2.4260
  XXY=            -14.1779  XXZ=              5.2579  XZZ=             -0.7469  YZZ=              3.1813
  YYZ=              2.8359  XYZ=             -2.3725
 Hexadecapole moment (field-independent basis, Debye-Ang**3):
 XXXX=           -804.1975 YYYY=           -367.2505 ZZZZ=            -81.0258 XXXY=            -40.8615
 XXXZ=             14.1489 YYYX=            -37.3790 YYYZ=             -3.0271 ZZZX=             -0.6722
 ZZZY=              3.6451 XXYY=           -179.7902 XXZZ=           -144.3959 YYZZ=            -72.3145
 XXYZ=              1.1844 YYXZ=              1.4916 ZZXY=             -0.4211
 N-N= 3.838803251418D+02 E-N=-1.743436696125D+03  KE= 4.142233480522D+02
 PrsmSu:  requested number of processors reduced to:  13 ShMem   1 Linda.
 Calling FoFJK, ICntrl=      2127 FMM=F ISym2X=0 I1Cent= 0 IOpClX= 0 NMat=1 NMatS=1 NMatT=0.
 ***** Axes restored to original set *****
 -------------------------------------------------------------------
 Center     Atomic                   Forces (Hartrees/Bohr)
 Number     Number              X              Y              Z
 -------------------------------------------------------------------
      1        6          -0.002840805    0.007370196    0.004670542
      2        6           0.015263187    0.008444088    0.028794657
      3        8          -0.022339229   -0.008180101   -0.017652125
      4        6          -0.000045833    0.011499197   -0.002296040
      5        7           0.005593920   -0.003619969    0.004367906
      6        6           0.042819239   -0.002183297   -0.005776996
      7        7          -0.008572681    0.006670757    0.009909937
      8        8          -0.028338666    0.002452951    0.004812127
      9        1           0.001334837   -0.001857881   -0.001657415
     10        1          -0.002330928   -0.002262416   -0.004889785
     11        1          -0.003339595   -0.004399094   -0.002458428
     12        1          -0.000563614    0.000349355   -0.002671616
     13        1          -0.001877012   -0.003059158    0.000005455
     14        1           0.002364149    0.000073567    0.001133440
     15        1           0.003839845   -0.005340265   -0.008327715
     16        1          -0.000966812   -0.005957932   -0.007963945
 -------------------------------------------------------------------
 Cartesian Forces:  Max     0.042819239 RMS     0.010738379

 GradGradGradGradGradGradGradGradGradGradGradGradGradGradGradGradGradGrad
 Berny optimization.
 FormGI is forming the generalized inverse of G from B-inverse, IUseBI=4.
 Internal  Forces:  Max     0.034330620 RMS     0.010043168
 Search for a local minimum.
 Step number   1 out of a maximum of   77
 All quantities printed in internal units (Hartrees-Bohrs-Radians)
 Mixed Optimization -- RFO/linear search
 Second derivative matrix not updated -- first step.
 ITU=  0
     Eigenvalues ---    0.00230   0.00230   0.00457   0.00592   0.00707
     Eigenvalues ---    0.00973   0.02189   0.02192   0.03802   0.04580
     Eigenvalues ---    0.05936   0.06622   0.07263   0.07666   0.16000
     Eigenvalues ---    0.16000   0.16000   0.16000   0.16000   0.16000
     Eigenvalues ---    0.16000   0.18249   0.19128   0.24993   0.24996
     Eigenvalues ---    0.25000   0.25000   0.27428   0.28469   0.31917
     Eigenvalues ---    0.33984   0.34209   0.34218   0.34683   0.34685
     Eigenvalues ---    0.44214   0.44546   0.45078   0.46142   0.52470
     Eigenvalues ---    0.88901   0.89927
 RFO step:  Lambda=-2.74226099D-02 EMin= 2.30000000D-03
 Linear search not attempted -- first point.
 Maximum step size (   0.300) exceeded in Quadratic search.
    -- Step size scaled by   0.992
 Iteration  1 RMS(Cart)=  0.21337723 RMS(Int)=  0.01228825
 Iteration  2 RMS(Cart)=  0.01971430 RMS(Int)=  0.00121050
 Iteration  3 RMS(Cart)=  0.00017158 RMS(Int)=  0.00120888
 Iteration  4 RMS(Cart)=  0.00000008 RMS(Int)=  0.00120888
 Variable       Old X    -DE/DX   Delta X   Delta X   Delta X     New X
                                 (Linear)    (Quad)   (Total)
    R1        2.84296   0.00743   0.00000   0.02128   0.02128   2.86425
    R2        2.06964  -0.00273   0.00000  -0.00733  -0.00733   2.06231
    R3        2.06192   0.00256   0.00000   0.00680   0.00680   2.06872
    R4        2.06189   0.00126   0.00000   0.00335   0.00335   2.06524
    R5        2.33444  -0.02675   0.00000  -0.02897  -0.02897   2.30547
    R6        2.91125   0.01198   0.00000   0.03810   0.03810   2.94936
    R7        2.80279  -0.00878   0.00000  -0.02358  -0.02358   2.77920
    R8        2.93406   0.00766   0.00000   0.02518   0.02518   2.95924
    R9        2.07356  -0.00031   0.00000  -0.00084  -0.00084   2.07272
   R10        1.92506  -0.00342   0.00000  -0.00717  -0.00717   1.91789
   R11        1.91885  -0.00253   0.00000  -0.00526  -0.00526   1.91359
   R12        2.57452  -0.00939   0.00000  -0.01688  -0.01688   2.55764
   R13        2.32967  -0.02239   0.00000  -0.02398  -0.02398   2.30569
   R14        1.92899  -0.01016   0.00000  -0.02147  -0.02147   1.90752
   R15        1.90671  -0.00256   0.00000  -0.00520  -0.00520   1.90151
    A1        1.88917  -0.00009   0.00000   0.00584   0.00569   1.89486
    A2        1.92310   0.00101   0.00000   0.00106   0.00106   1.92416
    A3        1.92770   0.00408   0.00000   0.01928   0.01918   1.94688
    A4        1.89777   0.00068   0.00000   0.00794   0.00790   1.90566
    A5        1.88296   0.00045   0.00000   0.01085   0.01061   1.89357
    A6        1.94169  -0.00604   0.00000  -0.04361  -0.04357   1.89812
    A7        2.06578  -0.00600   0.00000  -0.02129  -0.02143   2.04436
    A8        2.06340  -0.01691   0.00000  -0.06029  -0.06043   2.00297
    A9        2.15376   0.02293   0.00000   0.08223   0.08207   2.23583
   A10        1.92101  -0.00663   0.00000  -0.00971  -0.01219   1.90882
   A11        2.01000   0.03433   0.00000   0.19450   0.19515   2.20515
   A12        1.87757  -0.00833   0.00000  -0.04609  -0.04575   1.83182
   A13        1.89754  -0.01714   0.00000  -0.05809  -0.06334   1.83420
   A14        1.89986   0.00368   0.00000  -0.04289  -0.04660   1.85326
   A15        1.85428  -0.00665   0.00000  -0.04938  -0.05142   1.80286
   A16        1.92064   0.00098   0.00000   0.00376   0.00376   1.92440
   A17        1.95403  -0.00139   0.00000  -0.00874  -0.00874   1.94529
   A18        1.89794  -0.00021   0.00000  -0.00371  -0.00371   1.89423
   A19        2.05759   0.01812   0.00000   0.06488   0.06484   2.12243
   A20        2.15011  -0.03020   0.00000  -0.10794  -0.10798   2.04213
   A21        2.07532   0.01209   0.00000   0.04334   0.04330   2.11862
   A22        2.11523   0.00220   0.00000   0.01163   0.01162   2.12685
   A23        2.09766  -0.01031   0.00000  -0.05463  -0.05464   2.04303
   A24        2.06991   0.00809   0.00000   0.04281   0.04280   2.11271
    D1        0.01185  -0.00135   0.00000  -0.02781  -0.02733  -0.01548
    D2        3.13034  -0.00014   0.00000   0.00373   0.00309   3.13343
    D3       -2.06127  -0.00271   0.00000  -0.04155  -0.04102  -2.10229
    D4        1.05722  -0.00149   0.00000  -0.01001  -0.01060   1.04662
    D5        2.06969   0.00146   0.00000  -0.00019   0.00048   2.07017
    D6       -1.09501   0.00268   0.00000   0.03134   0.03090  -1.06411
    D7        1.02569  -0.00038   0.00000  -0.04468  -0.04700   0.97869
    D8       -3.10536  -0.00295   0.00000   0.01516   0.01678  -3.08858
    D9       -1.04189   0.00379   0.00000   0.03937   0.03860  -1.00329
   D10       -2.14025   0.00045   0.00000  -0.01304  -0.01438  -2.15463
   D11        0.01188  -0.00211   0.00000   0.04680   0.04940   0.06129
   D12        2.07536   0.00463   0.00000   0.07101   0.07122   2.14658
   D13        1.10372   0.01236   0.00000   0.08392   0.08223   1.18595
   D14       -1.00914   0.01288   0.00000   0.09187   0.09017  -0.91897
   D15       -1.11279  -0.01452   0.00000  -0.11566  -0.11325  -1.22604
   D16        3.05753  -0.01400   0.00000  -0.10772  -0.10530   2.95223
   D17       -3.12564   0.00062   0.00000  -0.00287  -0.00358  -3.12922
   D18        1.04468   0.00114   0.00000   0.00508   0.00436   1.04905
   D19       -0.03570   0.00101   0.00000  -0.02158  -0.02210  -0.05780
   D20        3.12545   0.00018   0.00000  -0.03946  -0.03933   3.08612
   D21        2.12884   0.00353   0.00000   0.06059   0.05910   2.18794
   D22       -0.99319   0.00270   0.00000   0.04270   0.04187  -0.95133
   D23       -2.11216  -0.00426   0.00000  -0.04466  -0.04363  -2.15579
   D24        1.04899  -0.00509   0.00000  -0.06255  -0.06086   0.98812
   D25        0.03737  -0.00022   0.00000  -0.00914  -0.00961   0.02776
   D26       -3.13439  -0.00054   0.00000  -0.01559  -0.01605   3.13274
   D27       -3.12292   0.00008   0.00000   0.00619   0.00666  -3.11626
   D28       -0.01149  -0.00024   0.00000  -0.00026   0.00021  -0.01127
         Item               Value     Threshold  Converged?
 Maximum Force            0.034331     0.000450     NO 
 RMS     Force            0.010043     0.000300     NO 
 Maximum Displacement     0.745214     0.001800     NO 
 RMS     Displacement     0.218008     0.001200     NO 
 Predicted change in Energy=-1.570765D-02
 GradGradGradGradGradGradGradGradGradGradGradGradGradGradGradGradGradGrad

                          Input orientation:                          
 ---------------------------------------------------------------------
 Center     Atomic      Atomic             Coordinates (Angstroms)
 Number     Number       Type             X           Y           Z
 ---------------------------------------------------------------------
      1          6           0        0.936371   -0.122190   -0.042356
      2          6           0        2.413755    0.093078    0.219036
      3          8           0        2.714336    0.773736    1.185865
      4          6           0        3.366293   -0.590880   -0.810895
      5          7           0        3.027724   -0.133299   -2.166965
      6          6           0        4.931489   -0.601082   -0.762925
      7          7           0        5.616271    0.070957    0.191671
      8          8           0        5.508107   -1.240789   -1.627201
      9          1           0        0.367626    0.388507    0.736565
     10          1           0        0.699272   -1.190671   -0.019003
     11          1           0        0.637123    0.283012   -1.012225
     12          1           0        3.105826   -1.655689   -0.773613
     13          1           0        3.256686    0.849676   -2.273590
     14          1           0        2.042366   -0.257507   -2.364589
     15          1           0        5.146340    0.584668    0.922554
     16          1           0        6.620305    0.011164    0.162472
 ---------------------------------------------------------------------
                    Distance matrix (angstroms):
                    1          2          3          4          5
     1  C    0.000000
     2  C    1.515694   0.000000
     3  O    2.339309   1.220001   0.000000
     4  C    2.591301   1.560732   2.504850   0.000000
     5  N    2.981248   2.474107   3.487462   1.470692   0.000000
     6  C    4.087729   2.790177   3.256328   1.565965   2.411322
     7  N    4.689727   3.202709   3.146990   2.550601   3.507914
     8  O    4.966263   3.842240   4.447112   2.382458   2.769509
     9  H    1.091330   2.131140   2.420190   3.513664   3.972264
    10  H    1.094721   2.155024   3.061223   2.846023   3.339680
    11  H    1.092878   2.169908   3.063857   2.872732   2.687324
    12  H    2.755520   2.126617   3.145620   1.096837   2.065236
    13  H    3.362557   2.737911   3.502533   2.055892   1.014906
    14  H    2.575714   2.633621   3.757756   2.068305   1.012627
    15  H    4.376590   2.864196   2.453513   2.748695   3.814333
    16  H    5.689187   4.207728   4.109191   3.449420   4.284132
                    6          7          8          9         10
     6  C    0.000000
     7  N    1.353445   0.000000
     8  O    1.220118   2.245144   0.000000
     9  H    4.904753   5.286400   5.887830   0.000000
    10  H    4.337361   5.080647   5.070869   1.781762   0.000000
    11  H    4.391509   5.127011   5.140686   1.772575   1.778227
    12  H    2.108402   3.196156   2.582965   3.735923   2.564602
    13  H    2.681749   3.500222   3.139548   4.197663   3.973229
    14  H    3.321206   4.406263   3.677220   3.583189   2.859453
    15  H    2.071955   1.009417   3.156646   4.786354   4.880039
    16  H    2.020718   1.006237   2.450979   6.290308   6.044500
                   11         12         13         14         15
    11  H    0.000000
    12  H    3.148014   0.000000
    13  H    2.962138   2.923961   0.000000
    14  H    2.023798   2.370036   1.645816   0.000000
    15  H    4.916035   3.472733   3.722413   4.598829   0.000000
    16  H    6.103465   4.000777   4.236914   5.236006   1.754766
                   16
    16  H    0.000000
 Stoichiometry    C4H8N2O2
 Framework group  C1[X(C4H8N2O2)]
 Deg. of freedom    42
 Full point group                 C1      NOp   1
 Largest Abelian subgroup         C1      NOp   1
 Largest concise Abelian subgroup C1      NOp   1
                         Standard orientation:                         
 ---------------------------------------------------------------------
 Center     Atomic      Atomic             Coordinates (Angstroms)
 Number     Number       Type             X           Y           Z
 ---------------------------------------------------------------------
      1          6           0       -2.580602    0.332815   -0.308996
      2          6           0       -1.278024   -0.407722   -0.080467
      3          8           0       -1.354174   -1.587451    0.220934
      4          6           0        0.007003    0.460528   -0.255781
      5          7           0       -0.066982    1.626970    0.636896
      6          6           0        1.486972   -0.040308   -0.150430
      7          7           0        1.781114   -1.319421    0.179970
      8          8           0        2.365419    0.775502   -0.377307
      9          1           0       -3.406894   -0.366349   -0.169667
     10          1           0       -2.615442    0.732593   -1.327512
     11          1           0       -2.702207    1.158290    0.396827
     12          1           0       -0.054170    0.853485   -1.277982
     13          1           0       -0.003741    1.332398    1.606052
     14          1           0       -0.933605    2.135416    0.510961
     15          1           0        1.060103   -2.005576    0.348069
     16          1           0        2.754977   -1.569389    0.220214
 ---------------------------------------------------------------------
 Rotational constants (GHZ):           3.3649401           1.4709439           1.1043651
 Standard basis: 6-31G(2df,p) (6D, 7F)
 There are   288 symmetry adapted cartesian basis functions of A   symmetry.
 There are   264 symmetry adapted basis functions of A   symmetry.
   264 basis functions,   408 primitive gaussians,   288 cartesian basis functions
    31 alpha electrons       31 beta electrons
       nuclear repulsion energy       378.7825633620 Hartrees.
 NAtoms=   16 NActive=   16 NUniq=   16 SFac= 1.00D+00 NAtFMM=   60 NAOKFM=F Big=F
 Integral buffers will be    131072 words long.
 Raffenetti 2 integral format.
 Two-electron integral symmetry is turned on.
 One-electron integrals computed using PRISM.
 PrsmSu:  requested number of processors reduced to:  13 ShMem   1 Linda.
 NBasis=   264 RedAO= T EigKep=  3.61D-04  NBF=   264
 NBsUse=   264 1.00D-06 EigRej= -1.00D+00 NBFU=   264
 Initial guess from the checkpoint file:  "CCpdOpCpNpCpNpdO.chk"
 B after Tr=    -0.000000   -0.000000   -0.000000
         Rot=    0.999826   -0.018169   -0.002587    0.003316 Ang=  -2.14 deg.
 ExpMin= 1.61D-01 ExpMax= 5.48D+03 ExpMxC= 8.25D+02 IAcc=2 IRadAn=         4 AccDes= 0.00D+00
 Harris functional with IExCor=  402 and IRadAn=       4 diagonalized for initial guess.
 HarFok:  IExCor=  402 AccDes= 0.00D+00 IRadAn=         4 IDoV= 1 UseB2=F ITyADJ=14
 ICtDFT=  3500011 ScaDFX=  1.000000  1.000000  1.000000  1.000000
 FoFCou: FMM=F IPFlag=           0 FMFlag=      100000 FMFlg1=           0
         NFxFlg=           0 DoJE=T BraDBF=F KetDBF=T FulRan=T
         wScrn=  0.000000 ICntrl=       500 IOpCl=  0 I1Cent=   200000004 NGrid=           0
         NMat0=    1 NMatS0=      1 NMatT0=    0 NMatD0=    1 NMtDS0=    0 NMtDT0=    0
 Petite list used in FoFCou.
 Requested convergence on RMS density matrix=1.00D-08 within 128 cycles.
 Requested convergence on MAX density matrix=1.00D-06.
 Requested convergence on             energy=1.00D-06.
 No special actions if energy rises.
 Integral accuracy reduced to 1.0D-05 until final iterations.
 Initial convergence to 1.0D-05 achieved.  Increase integral accuracy.
 SCF Done:  E(RB3LYP) =  -417.214619666     A.U. after   13 cycles
            NFock= 13  Conv=0.91D-08     -V/T= 2.0072
 PrsmSu:  requested number of processors reduced to:  13 ShMem   1 Linda.
 Calling FoFJK, ICntrl=      2127 FMM=F ISym2X=0 I1Cent= 0 IOpClX= 0 NMat=1 NMatS=1 NMatT=0.
 ***** Axes restored to original set *****
 -------------------------------------------------------------------
 Center     Atomic                   Forces (Hartrees/Bohr)
 Number     Number              X              Y              Z
 -------------------------------------------------------------------
      1        6          -0.004428264   -0.001452876   -0.001237618
      2        6           0.005671461    0.008109775    0.013754693
      3        8           0.016625898   -0.007283283   -0.012272263
      4        6          -0.004160257    0.003851160   -0.000607759
      5        7           0.001048004    0.000473785   -0.001961817
      6        6           0.006791285   -0.008708503   -0.008050702
      7        7          -0.014187560    0.005659340    0.007034880
      8        8          -0.005052645    0.003388283    0.006693198
      9        1           0.001104729   -0.000672423    0.000039422
     10        1          -0.001250469   -0.000792229   -0.002434613
     11        1          -0.001772748   -0.001844857    0.000234486
     12        1           0.000530822   -0.001264315    0.000296970
     13        1          -0.001755728    0.000580680   -0.000384424
     14        1           0.001569165    0.000192773   -0.001088807
     15        1          -0.000864885   -0.000269671   -0.000716537
     16        1           0.000131190    0.000032360    0.000700890
 -------------------------------------------------------------------
 Cartesian Forces:  Max     0.016625898 RMS     0.005414059

 GradGradGradGradGradGradGradGradGradGradGradGradGradGradGradGradGradGrad
 Berny optimization.
 Using GEDIIS/GDIIS optimizer.
 FormGI is forming the generalized inverse of G from B-inverse, IUseBI=4.
 Internal  Forces:  Max     0.032938352 RMS     0.008980413
 Search for a local minimum.
 Step number   2 out of a maximum of   77
 All quantities printed in internal units (Hartrees-Bohrs-Radians)
 Mixed Optimization -- RFO/linear search
 Update second derivatives using D2CorX and points    2    1
 DE=  2.21D-03 DEPred=-1.57D-02 R=-1.40D-01
 Trust test=-1.40D-01 RLast= 3.98D-01 DXMaxT set to 1.50D-01
 ITU= -1  0
 Use linear search instead of GDIIS.
     Eigenvalues ---    0.00229   0.00230   0.00443   0.00591   0.00707
     Eigenvalues ---    0.01054   0.02189   0.02194   0.03450   0.03851
     Eigenvalues ---    0.05986   0.07183   0.07520   0.07580   0.15495
     Eigenvalues ---    0.16000   0.16000   0.16000   0.16000   0.16000
     Eigenvalues ---    0.16021   0.20536   0.20777   0.23308   0.24999
     Eigenvalues ---    0.25000   0.27272   0.28286   0.31627   0.33980
     Eigenvalues ---    0.34072   0.34208   0.34669   0.34684   0.43943
     Eigenvalues ---    0.44526   0.45046   0.46120   0.48625   0.52431
     Eigenvalues ---    0.85692   0.89567
 RFO step:  Lambda=-4.62664886D-03 EMin= 2.29292816D-03
 Quartic linear search produced a step of -0.61648.
 Iteration  1 RMS(Cart)=  0.13881009 RMS(Int)=  0.00867555
 Iteration  2 RMS(Cart)=  0.01373553 RMS(Int)=  0.00189160
 Iteration  3 RMS(Cart)=  0.00011086 RMS(Int)=  0.00188939
 Iteration  4 RMS(Cart)=  0.00000028 RMS(Int)=  0.00188939
 Variable       Old X    -DE/DX   Delta X   Delta X   Delta X     New X
                                 (Linear)    (Quad)   (Total)
    R1        2.86425   0.00745  -0.01312   0.02189   0.00877   2.87302
    R2        2.06231  -0.00086   0.00452  -0.00550  -0.00099   2.06133
    R3        2.06872   0.00099  -0.00419   0.00532   0.00113   2.06985
    R4        2.06524  -0.00041  -0.00206   0.00163  -0.00043   2.06481
    R5        2.30547  -0.00969   0.01786  -0.02460  -0.00674   2.29873
    R6        2.94936  -0.01273  -0.02349   0.00550  -0.01799   2.93136
    R7        2.77920   0.00336   0.01454  -0.01085   0.00369   2.78289
    R8        2.95924  -0.01300  -0.01553  -0.00333  -0.01885   2.94039
    R9        2.07272   0.00111   0.00052   0.00073   0.00125   2.07397
   R10        1.91789   0.00021   0.00442  -0.00449  -0.00007   1.91782
   R11        1.91359  -0.00134   0.00324  -0.00457  -0.00133   1.91226
   R12        2.55764   0.00010   0.01040  -0.01119  -0.00078   2.55686
   R13        2.30569  -0.00891   0.01478  -0.02072  -0.00593   2.29975
   R14        1.90752  -0.00025   0.01324  -0.01418  -0.00095   1.90658
   R15        1.90151   0.00011   0.00321  -0.00331  -0.00011   1.90140
    A1        1.89486  -0.00154  -0.00351  -0.00467  -0.00808   1.88678
    A2        1.92416   0.00154  -0.00065   0.00649   0.00580   1.92996
    A3        1.94688   0.00299  -0.01182   0.01749   0.00570   1.95258
    A4        1.90566   0.00016  -0.00487   0.00123  -0.00361   1.90205
    A5        1.89357  -0.00013  -0.00654  -0.00009  -0.00648   1.88709
    A6        1.89812  -0.00306   0.02686  -0.02065   0.00613   1.90424
    A7        2.04436   0.01778   0.01321   0.01530   0.02105   2.06541
    A8        2.00297   0.00972   0.03725  -0.01919   0.01140   2.01436
    A9        2.23583  -0.02750  -0.05060   0.00524  -0.05113   2.18470
   A10        1.90882   0.01445   0.00752  -0.00536  -0.00237   1.90645
   A11        2.20515  -0.03294  -0.12031  -0.01177  -0.13348   2.07167
   A12        1.83182   0.00682   0.02821   0.01218   0.04054   1.87236
   A13        1.83420   0.01174   0.03905  -0.03754  -0.00075   1.83345
   A14        1.85326  -0.00445   0.02873   0.05087   0.08049   1.93375
   A15        1.80286   0.00642   0.03170   0.00831   0.04182   1.84468
   A16        1.92440   0.00103  -0.00232   0.00607   0.00373   1.92813
   A17        1.94529   0.00172   0.00539   0.00182   0.00719   1.95248
   A18        1.89423  -0.00140   0.00229  -0.00151   0.00075   1.89497
   A19        2.12243  -0.03106  -0.03997  -0.01043  -0.05056   2.07187
   A20        2.04213   0.01447   0.06657  -0.03947   0.02695   2.06908
   A21        2.11862   0.01660  -0.02669   0.04986   0.02299   2.14161
   A22        2.12685  -0.00179  -0.00717   0.00128  -0.00589   2.12096
   A23        2.04303   0.00146   0.03368  -0.02196   0.01171   2.05474
   A24        2.11271   0.00033  -0.02639   0.02080  -0.00559   2.10713
    D1       -0.01548  -0.00024   0.01685   0.09534   0.11431   0.09883
    D2        3.13343  -0.00118  -0.00190  -0.08490  -0.08883   3.04460
    D3       -2.10229  -0.00040   0.02529   0.09285   0.12026  -1.98204
    D4        1.04662  -0.00134   0.00654  -0.08739  -0.08289   0.96373
    D5        2.07017   0.00043  -0.00030   0.10288   0.10457   2.17473
    D6       -1.06411  -0.00051  -0.01905  -0.07736  -0.09858  -1.16269
    D7        0.97869   0.00218   0.02898   0.08535   0.11181   1.09050
    D8       -3.08858   0.00525  -0.01034   0.00760  -0.00454  -3.09312
    D9       -1.00329  -0.00253  -0.02379   0.02317  -0.00327  -1.00656
   D10       -2.15463   0.00087   0.00886  -0.11853  -0.10754  -2.26217
   D11        0.06129   0.00394  -0.03046  -0.19627  -0.22389  -0.16260
   D12        2.14658  -0.00384  -0.04391  -0.18071  -0.22262   1.92396
   D13        1.18595  -0.01220  -0.05069  -0.02252  -0.07361   1.11234
   D14       -0.91897  -0.01226  -0.05559  -0.02592  -0.08193  -1.00090
   D15       -1.22604   0.01024   0.06981   0.02848   0.09829  -1.12775
   D16        2.95223   0.01018   0.06492   0.02508   0.08998   3.04220
   D17       -3.12922   0.00013   0.00221   0.01466   0.01730  -3.11192
   D18        1.04905   0.00007  -0.00269   0.01126   0.00898   1.05803
   D19       -0.05780  -0.00424   0.01362   0.05505   0.06722   0.00942
   D20        3.08612  -0.00490   0.02425   0.07937   0.10178  -3.09529
   D21        2.18794   0.00103  -0.03643  -0.00776  -0.04199   2.14595
   D22       -0.95133   0.00037  -0.02581   0.01656  -0.00743  -0.95876
   D23       -2.15579   0.00279   0.02690   0.03772   0.06444  -2.09135
   D24        0.98812   0.00213   0.03752   0.06204   0.09900   1.08712
   D25        0.02776  -0.00049   0.00592   0.01210   0.01830   0.04606
   D26        3.13274  -0.00067   0.00990   0.01626   0.02643  -3.12401
   D27       -3.11626   0.00019  -0.00410  -0.01340  -0.01778  -3.13404
   D28       -0.01127   0.00001  -0.00013  -0.00924  -0.00965  -0.02092
         Item               Value     Threshold  Converged?
 Maximum Force            0.032938     0.000450     NO 
 RMS     Force            0.008980     0.000300     NO 
 Maximum Displacement     0.501198     0.001800     NO 
 RMS     Displacement     0.139617     0.001200     NO 
 Predicted change in Energy=-5.349403D-04
 GradGradGradGradGradGradGradGradGradGradGradGradGradGradGradGradGradGrad

                          Input orientation:                          
 ---------------------------------------------------------------------
 Center     Atomic      Atomic             Coordinates (Angstroms)
 Number     Number       Type             X           Y           Z
 ---------------------------------------------------------------------
      1          6           0        0.992280   -0.073188    0.007840
      2          6           0        2.497053    0.093326    0.146961
      3          8           0        2.928582    0.626354    1.151638
      4          6           0        3.351252   -0.679937   -0.891625
      5          7           0        3.044614   -0.178284   -2.241808
      6          6           0        4.901897   -0.616402   -0.779541
      7          7           0        5.451933    0.102020    0.226451
      8          8           0        5.569804   -1.183502   -1.624131
      9          1           0        0.516026    0.433644    0.848177
     10          1           0        0.718604   -1.133535    0.029855
     11          1           0        0.616886    0.373947   -0.915757
     12          1           0        3.090439   -1.742228   -0.802086
     13          1           0        3.313369    0.796565   -2.327821
     14          1           0        2.060090   -0.261701   -2.460316
     15          1           0        4.881118    0.559818    0.921076
     16          1           0        6.455944    0.145793    0.275887
 ---------------------------------------------------------------------
                    Distance matrix (angstroms):
                    1          2          3          4          5
     1  C    0.000000
     2  C    1.520336   0.000000
     3  O    2.355185   1.216434   0.000000
     4  C    2.596523   1.551211   2.461701   0.000000
     5  N    3.046971   2.465728   3.489468   1.472643   0.000000
     6  C    4.024942   2.673088   3.027849   1.555988   2.404095
     7  N    4.468444   2.955962   2.738284   2.504878   3.459200
     8  O    4.984962   3.769464   4.237514   2.390003   2.787216
     9  H    1.090809   2.128846   2.439190   3.507917   4.039334
    10  H    1.095317   2.163743   3.039672   2.825901   3.388699
    11  H    1.092649   2.177877   3.111555   2.930531   2.820857
    12  H    2.800704   2.149897   3.074641   1.097498   2.126221
    13  H    3.405765   2.699160   3.504807   2.060134   1.014869
    14  H    2.695839   2.667373   3.819572   2.074322   1.011924
    15  H    4.044472   2.549634   1.967227   2.676447   3.731137
    16  H    5.474616   3.961337   3.666083   3.418190   4.252175
                    6          7          8          9         10
     6  C    0.000000
     7  N    1.353030   0.000000
     8  O    1.216978   2.256350   0.000000
     9  H    4.794573   4.985950   5.853900   0.000000
    10  H    4.292143   4.895881   5.125652   1.779533   0.000000
    11  H    4.400076   4.975567   5.240119   1.767824   1.782423
    12  H    2.132926   3.167932   2.671176   3.753051   2.586162
    13  H    2.630032   3.402963   3.083398   4.247800   4.002091
    14  H    3.320645   4.342305   3.723844   3.716688   2.959837
    15  H    2.067855   1.008917   3.160939   4.367523   4.581292
    16  H    2.027297   1.006180   2.482406   5.974362   5.883390
                   11         12         13         14         15
    11  H    0.000000
    12  H    3.257235   0.000000
    13  H    3.073037   2.970359   0.000000
    14  H    2.207385   2.450164   1.645658   0.000000
    15  H    4.646739   3.387512   3.615138   4.479610   0.000000
    16  H    5.963780   4.006654   4.132624   5.193880   1.751503
                   16
    16  H    0.000000
 Stoichiometry    C4H8N2O2
 Framework group  C1[X(C4H8N2O2)]
 Deg. of freedom    42
 Full point group                 C1      NOp   1
 Largest Abelian subgroup         C1      NOp   1
 Largest concise Abelian subgroup C1      NOp   1
                         Standard orientation:                         
 ---------------------------------------------------------------------
 Center     Atomic      Atomic             Coordinates (Angstroms)
 Number     Number       Type             X           Y           Z
 ---------------------------------------------------------------------
      1          6           0       -2.577851    0.267806   -0.258495
      2          6           0       -1.216646   -0.366014   -0.020131
      3          8           0       -1.164552   -1.565371    0.176182
      4          6           0        0.003190    0.544300   -0.319437
      5          7           0       -0.027946    1.708809    0.581465
      6          6           0        1.433560   -0.048254   -0.164459
      7          7           0        1.564187   -1.340307    0.215312
      8          8           0        2.389012    0.681714   -0.352324
      9          1           0       -3.339489   -0.498661   -0.109171
     10          1           0       -2.651327    0.648196   -1.283006
     11          1           0       -2.775088    1.083751    0.440944
     12          1           0       -0.075262    0.860286   -1.367531
     13          1           0        0.072946    1.413354    1.547118
     14          1           0       -0.890061    2.231162    0.492604
     15          1           0        0.759544   -1.931541    0.359905
     16          1           0        2.495852   -1.703837    0.325962
 ---------------------------------------------------------------------
 Rotational constants (GHZ):           3.3435983           1.5774537           1.1541652
 Standard basis: 6-31G(2df,p) (6D, 7F)
 There are   288 symmetry adapted cartesian basis functions of A   symmetry.
 There are   264 symmetry adapted basis functions of A   symmetry.
   264 basis functions,   408 primitive gaussians,   288 cartesian basis functions
    31 alpha electrons       31 beta electrons
       nuclear repulsion energy       383.4065725749 Hartrees.
 NAtoms=   16 NActive=   16 NUniq=   16 SFac= 1.00D+00 NAtFMM=   60 NAOKFM=F Big=F
 Integral buffers will be    131072 words long.
 Raffenetti 2 integral format.
 Two-electron integral symmetry is turned on.
 One-electron integrals computed using PRISM.
 PrsmSu:  requested number of processors reduced to:  13 ShMem   1 Linda.
 NBasis=   264 RedAO= T EigKep=  3.60D-04  NBF=   264
 NBsUse=   264 1.00D-06 EigRej= -1.00D+00 NBFU=   264
 Lowest energy guess from the checkpoint file:  "CCpdOpCpNpCpNpdO.chk"
 B after Tr=     0.000000   -0.000000   -0.000000
         Rot=    0.999929   -0.007751   -0.003582    0.008268 Ang=  -1.36 deg.
 B after Tr=     0.000000    0.000000    0.000000
         Rot=    0.999942    0.009733   -0.000717    0.004626 Ang=   1.24 deg.
 Requested convergence on RMS density matrix=1.00D-08 within 128 cycles.
 Requested convergence on MAX density matrix=1.00D-06.
 Requested convergence on             energy=1.00D-06.
 No special actions if energy rises.
 Integral accuracy reduced to 1.0D-05 until final iterations.
 Initial convergence to 1.0D-05 achieved.  Increase integral accuracy.
 SCF Done:  E(RB3LYP) =  -417.220117387     A.U. after   12 cycles
            NFock= 12  Conv=0.98D-08     -V/T= 2.0070
 PrsmSu:  requested number of processors reduced to:  13 ShMem   1 Linda.
 Calling FoFJK, ICntrl=      2127 FMM=F ISym2X=0 I1Cent= 0 IOpClX= 0 NMat=1 NMatS=1 NMatT=0.
 ***** Axes restored to original set *****
 -------------------------------------------------------------------
 Center     Atomic                   Forces (Hartrees/Bohr)
 Number     Number              X              Y              Z
 -------------------------------------------------------------------
      1        6          -0.002235574    0.009790070   -0.001948921
      2        6          -0.000590074   -0.027220569    0.018895275
      3        8           0.004944589    0.007941268   -0.007732037
      4        6           0.003281076    0.023794182   -0.000219166
      5        7          -0.000921284   -0.007833894   -0.002491352
      6        6           0.007290367   -0.003594344   -0.005182371
      7        7          -0.003538183    0.002266013    0.003700690
      8        8          -0.002317812   -0.000964222    0.003394739
      9        1          -0.000148461   -0.000435860    0.000435992
     10        1           0.001301895   -0.000092615   -0.002513738
     11        1          -0.001666534   -0.002600123   -0.001344603
     12        1          -0.002248958    0.001237273   -0.003800791
     13        1          -0.000770356   -0.000410486    0.000405937
     14        1          -0.000587057    0.000265090   -0.000340515
     15        1          -0.002407072   -0.000962394   -0.000063188
     16        1           0.000613438   -0.001179388   -0.001195951
 -------------------------------------------------------------------
 Cartesian Forces:  Max     0.027220569 RMS     0.006754574

 GradGradGradGradGradGradGradGradGradGradGradGradGradGradGradGradGradGrad
 Berny optimization.
 Using GEDIIS/GDIIS optimizer.
 FormGI is forming the generalized inverse of G from B-inverse, IUseBI=4.
 Internal  Forces:  Max     0.009992617 RMS     0.003184708
 Search for a local minimum.
 Step number   3 out of a maximum of   77
 All quantities printed in internal units (Hartrees-Bohrs-Radians)
 Mixed Optimization -- RFO/linear search
 Update second derivatives using D2CorX and points    2    1    3
 DE= -3.29D-03 DEPred=-5.35D-04 R= 6.15D+00
 TightC=F SS=  1.41D+00  RLast= 4.05D-01 DXNew= 2.5227D-01 1.2164D+00
 Trust test= 6.15D+00 RLast= 4.05D-01 DXMaxT set to 2.52D-01
 ITU=  1 -1  0
 Use linear search instead of GDIIS.
     Eigenvalues ---    0.00205   0.00230   0.00587   0.00703   0.01023
     Eigenvalues ---    0.01393   0.02184   0.02195   0.03774   0.04326
     Eigenvalues ---    0.05430   0.06885   0.07140   0.07580   0.13522
     Eigenvalues ---    0.16000   0.16000   0.16000   0.16000   0.16016
     Eigenvalues ---    0.16251   0.18305   0.20560   0.20896   0.24664
     Eigenvalues ---    0.25035   0.27512   0.28266   0.31326   0.33907
     Eigenvalues ---    0.34009   0.34224   0.34660   0.34701   0.43280
     Eigenvalues ---    0.44526   0.45068   0.46105   0.51412   0.61460
     Eigenvalues ---    0.79694   0.89538
 RFO step:  Lambda=-7.83391205D-03 EMin= 2.04733708D-03
 Quartic linear search produced a step of -0.32146.
 Iteration  1 RMS(Cart)=  0.04099112 RMS(Int)=  0.00940988
 Iteration  2 RMS(Cart)=  0.01447719 RMS(Int)=  0.00219654
 Iteration  3 RMS(Cart)=  0.00016095 RMS(Int)=  0.00219214
 Iteration  4 RMS(Cart)=  0.00000034 RMS(Int)=  0.00219214
 Variable       Old X    -DE/DX   Delta X   Delta X   Delta X     New X
                                 (Linear)    (Quad)   (Total)
    R1        2.87302   0.00248  -0.00966   0.02700   0.01734   2.89036
    R2        2.06133   0.00020   0.00267  -0.00566  -0.00299   2.05834
    R3        2.06985  -0.00029  -0.00255   0.00536   0.00281   2.07266
    R4        2.06481   0.00065  -0.00094   0.00251   0.00157   2.06638
    R5        2.29873  -0.00115   0.01148  -0.02515  -0.01367   2.28505
    R6        2.93136  -0.00330  -0.00646   0.00151  -0.00495   2.92641
    R7        2.78289  -0.00002   0.00639  -0.01153  -0.00513   2.77776
    R8        2.94039  -0.00049  -0.00204  -0.00400  -0.00603   2.93436
    R9        2.07397  -0.00097  -0.00013  -0.00039  -0.00052   2.07345
   R10        1.91782  -0.00063   0.00233  -0.00522  -0.00289   1.91493
   R11        1.91226   0.00062   0.00212  -0.00421  -0.00209   1.91017
   R12        2.55686  -0.00028   0.00568  -0.01157  -0.00589   2.55096
   R13        2.29975  -0.00318   0.00962  -0.02224  -0.01263   2.28713
   R14        1.90658   0.00088   0.00721  -0.01382  -0.00661   1.89997
   R15        1.90140   0.00050   0.00171  -0.00294  -0.00124   1.90017
    A1        1.88678   0.00087   0.00077   0.00428   0.00495   1.89173
    A2        1.92996  -0.00279  -0.00221  -0.00491  -0.00710   1.92286
    A3        1.95258   0.00293  -0.00800   0.02668   0.01860   1.97118
    A4        1.90205   0.00112  -0.00138   0.00824   0.00687   1.90892
    A5        1.88709   0.00020  -0.00133   0.01104   0.00953   1.89662
    A6        1.90424  -0.00224   0.01204  -0.04452  -0.03246   1.87179
    A7        2.06541   0.00545   0.00012   0.03764   0.02772   2.09313
    A8        2.01436   0.00171   0.01576  -0.00757  -0.00168   2.01268
    A9        2.18470  -0.00599  -0.00995   0.00999  -0.00965   2.17505
   A10        1.90645   0.00647   0.00468   0.03969   0.04358   1.95003
   A11        2.07167  -0.00637  -0.01982   0.02528   0.00439   2.07606
   A12        1.87236  -0.00021   0.00168  -0.01847  -0.01628   1.85608
   A13        1.83345   0.00440   0.02060  -0.00293   0.01656   1.85001
   A14        1.93375  -0.00610  -0.01089  -0.02736  -0.03778   1.89597
   A15        1.84468   0.00111   0.00308  -0.02144  -0.01828   1.82640
   A16        1.92813  -0.00043  -0.00241   0.00351   0.00110   1.92923
   A17        1.95248   0.00044   0.00050  -0.00024   0.00026   1.95274
   A18        1.89497  -0.00030   0.00095  -0.00711  -0.00616   1.88882
   A19        2.07187  -0.00999  -0.00459  -0.02536  -0.03058   2.04128
   A20        2.06908   0.00421   0.02605  -0.03840  -0.01296   2.05612
   A21        2.14161   0.00584  -0.02131   0.06576   0.04378   2.18540
   A22        2.12096  -0.00191  -0.00184  -0.00228  -0.00418   2.11678
   A23        2.05474  -0.00066   0.01380  -0.03183  -0.01809   2.03666
   A24        2.10713   0.00256  -0.01196   0.03368   0.02166   2.12879
    D1        0.09883  -0.00362  -0.02796  -0.13339  -0.16261  -0.06378
    D2        3.04460   0.00171   0.02756   0.07448   0.10315  -3.13543
    D3       -1.98204  -0.00388  -0.02547  -0.14318  -0.16984  -2.15187
    D4        0.96373   0.00145   0.03005   0.06469   0.09592   1.05965
    D5        2.17473  -0.00107  -0.03377  -0.10116  -0.13603   2.03870
    D6       -1.16269   0.00426   0.02176   0.10671   0.12973  -1.03296
    D7        1.09050  -0.00658  -0.02083  -0.05445  -0.07419   1.01631
    D8       -3.09312   0.00017  -0.00393  -0.00685  -0.00919  -3.10231
    D9       -1.00656  -0.00278  -0.01136  -0.03317  -0.04321  -1.04977
   D10       -2.26217   0.00071   0.03919   0.17292   0.21054  -2.05163
   D11       -0.16260   0.00746   0.05609   0.22052   0.27554   0.11294
   D12        1.92396   0.00451   0.04867   0.19421   0.24152   2.16548
   D13        1.11234  -0.00068  -0.00277  -0.00534  -0.00771   1.10462
   D14       -1.00090  -0.00029  -0.00265   0.00143  -0.00082  -1.00171
   D15       -1.12775   0.00024   0.00481  -0.05899  -0.05435  -1.18209
   D16        3.04220   0.00063   0.00493  -0.05221  -0.04745   2.99475
   D17       -3.11192  -0.00060  -0.00441  -0.01988  -0.02452  -3.13644
   D18        1.05803  -0.00021  -0.00429  -0.01310  -0.01762   1.04041
   D19        0.00942  -0.00314  -0.01450  -0.03931  -0.05453  -0.04510
   D20       -3.09529  -0.00484  -0.02007  -0.10012  -0.11967   3.06823
   D21        2.14595   0.00476  -0.00550   0.02753   0.02163   2.16759
   D22       -0.95876   0.00306  -0.01107  -0.03327  -0.04351  -1.00227
   D23       -2.09135   0.00037  -0.00669  -0.01432  -0.02174  -2.11309
   D24        1.08712  -0.00134  -0.01226  -0.07512  -0.08689   1.00023
   D25        0.04606  -0.00028  -0.00279  -0.02469  -0.02833   0.01773
   D26       -3.12401  -0.00112  -0.00334  -0.04174  -0.04592   3.11325
   D27       -3.13404   0.00144   0.00357   0.03636   0.04078  -3.09326
   D28       -0.02092   0.00060   0.00303   0.01931   0.02318   0.00226
         Item               Value     Threshold  Converged?
 Maximum Force            0.009993     0.000450     NO 
 RMS     Force            0.003185     0.000300     NO 
 Maximum Displacement     0.196027     0.001800     NO 
 RMS     Displacement     0.049924     0.001200     NO 
 Predicted change in Energy=-5.283336D-03
 GradGradGradGradGradGradGradGradGradGradGradGradGradGradGradGradGradGrad

                          Input orientation:                          
 ---------------------------------------------------------------------
 Center     Atomic      Atomic             Coordinates (Angstroms)
 Number     Number       Type             X           Y           Z
 ---------------------------------------------------------------------
      1          6           0        1.001822   -0.090384    0.027308
      2          6           0        2.516411    0.048338    0.189128
      3          8           0        2.968015    0.730087    1.079878
      4          6           0        3.365640   -0.649257   -0.901880
      5          7           0        3.042152   -0.149286   -2.245782
      6          6           0        4.913871   -0.606874   -0.790708
      7          7           0        5.434477    0.092756    0.239703
      8          8           0        5.555887   -1.223725   -1.610542
      9          1           0        0.518624    0.443201    0.844756
     10          1           0        0.713018   -1.147908    0.062094
     11          1           0        0.635521    0.314708   -0.920016
     12          1           0        3.113221   -1.716004   -0.854575
     13          1           0        3.269209    0.835266   -2.322982
     14          1           0        2.062390   -0.265865   -2.465401
     15          1           0        4.843046    0.550942    0.911374
     16          1           0        6.436585    0.096697    0.322445
 ---------------------------------------------------------------------
                    Distance matrix (angstroms):
                    1          2          3          4          5
     1  C    0.000000
     2  C    1.529513   0.000000
     3  O    2.376340   1.209199   0.000000
     4  C    2.600648   1.548589   2.447052   0.000000
     5  N    3.055054   2.498849   3.440757   1.469927   0.000000
     6  C    4.029894   2.671553   3.012128   1.552795   2.414530
     7  N    4.441518   2.918842   2.682447   2.476667   3.458242
     8  O    4.970566   3.754380   4.213410   2.372635   2.806566
     9  H    1.089226   2.139373   2.477317   3.514215   4.033691
    10  H    1.096803   2.167803   3.106084   2.866061   3.427594
    11  H    1.093479   2.199750   3.100426   2.895360   2.786542
    12  H    2.806842   2.135041   3.121947   1.097225   2.096452
    13  H    3.394368   2.738003   3.417782   2.057337   1.013340
    14  H    2.714626   2.711343   3.792238   2.071242   1.010819
    15  H    3.993480   2.487465   1.891092   2.628897   3.701509
    16  H    5.445985   3.922738   3.606365   3.389118   4.263622
                    6          7          8          9         10
     6  C    0.000000
     7  N    1.349911   0.000000
     8  O    1.210296   2.274042   0.000000
     9  H    4.805788   4.965331   5.846465   0.000000
    10  H    4.320550   4.884973   5.124143   1.783810   0.000000
    11  H    4.378391   4.942083   5.201308   1.773301   1.763460
    12  H    2.115795   3.139631   2.603928   3.779130   2.631347
    13  H    2.670682   3.436140   3.158466   4.213550   4.019413
    14  H    3.324428   4.337875   3.721935   3.720635   2.997838
    15  H    2.059767   1.005418   3.165066   4.326277   4.545823
    16  H    2.013152   1.005526   2.501116   5.951062   5.863108
                   11         12         13         14         15
    11  H    0.000000
    12  H    3.204227   0.000000
    13  H    3.029127   2.947801   0.000000
    14  H    2.182025   2.408715   1.639873   0.000000
    15  H    4.594895   3.354090   3.608166   4.449924   0.000000
    16  H    5.936630   3.964342   4.192378   5.199722   1.758562
                   16
    16  H    0.000000
 Stoichiometry    C4H8N2O2
 Framework group  C1[X(C4H8N2O2)]
 Deg. of freedom    42
 Full point group                 C1      NOp   1
 Largest Abelian subgroup         C1      NOp   1
 Largest concise Abelian subgroup C1      NOp   1
                         Standard orientation:                         
 ---------------------------------------------------------------------
 Center     Atomic      Atomic             Coordinates (Angstroms)
 Number     Number       Type             X           Y           Z
 ---------------------------------------------------------------------
      1          6           0       -2.572527    0.258330   -0.307775
      2          6           0       -1.204660   -0.393700   -0.099905
      3          8           0       -1.134034   -1.546195    0.259160
      4          6           0        0.012058    0.546088   -0.285714
      5          7           0       -0.044662    1.696734    0.627238
      6          6           0        1.443034   -0.040515   -0.146506
      7          7           0        1.539874   -1.345282    0.185858
      8          8           0        2.378535    0.693518   -0.372003
      9          1           0       -3.341116   -0.496038   -0.144643
     10          1           0       -2.654993    0.646574   -1.330244
     11          1           0       -2.753540    1.095211    0.372344
     12          1           0       -0.037386    0.914838   -1.317935
     13          1           0        0.003966    1.388361    1.591292
     14          1           0       -0.894962    2.230273    0.508566
     15          1           0        0.720342   -1.911872    0.320807
     16          1           0        2.467769   -1.727306    0.250274
 ---------------------------------------------------------------------
 Rotational constants (GHZ):           3.3273542           1.5874327           1.1659719
 Standard basis: 6-31G(2df,p) (6D, 7F)
 There are   288 symmetry adapted cartesian basis functions of A   symmetry.
 There are   264 symmetry adapted basis functions of A   symmetry.
   264 basis functions,   408 primitive gaussians,   288 cartesian basis functions
    31 alpha electrons       31 beta electrons
       nuclear repulsion energy       384.2535403194 Hartrees.
 NAtoms=   16 NActive=   16 NUniq=   16 SFac= 1.00D+00 NAtFMM=   60 NAOKFM=F Big=F
 Integral buffers will be    131072 words long.
 Raffenetti 2 integral format.
 Two-electron integral symmetry is turned on.
 One-electron integrals computed using PRISM.
 PrsmSu:  requested number of processors reduced to:  13 ShMem   1 Linda.
 NBasis=   264 RedAO= T EigKep=  3.49D-04  NBF=   264
 NBsUse=   264 1.00D-06 EigRej= -1.00D+00 NBFU=   264
 Initial guess from the checkpoint file:  "CCpdOpCpNpCpNpdO.chk"
 B after Tr=     0.000000   -0.000000   -0.000000
         Rot=    0.999997   -0.001714    0.001277   -0.001357 Ang=  -0.29 deg.
 ExpMin= 1.61D-01 ExpMax= 5.48D+03 ExpMxC= 8.25D+02 IAcc=2 IRadAn=         4 AccDes= 0.00D+00
 Harris functional with IExCor=  402 and IRadAn=       4 diagonalized for initial guess.
 HarFok:  IExCor=  402 AccDes= 0.00D+00 IRadAn=         4 IDoV= 1 UseB2=F ITyADJ=14
 ICtDFT=  3500011 ScaDFX=  1.000000  1.000000  1.000000  1.000000
 FoFCou: FMM=F IPFlag=           0 FMFlag=      100000 FMFlg1=           0
         NFxFlg=           0 DoJE=T BraDBF=F KetDBF=T FulRan=T
         wScrn=  0.000000 ICntrl=       500 IOpCl=  0 I1Cent=   200000004 NGrid=           0
         NMat0=    1 NMatS0=      1 NMatT0=    0 NMatD0=    1 NMtDS0=    0 NMtDT0=    0
 Petite list used in FoFCou.
 Requested convergence on RMS density matrix=1.00D-08 within 128 cycles.
 Requested convergence on MAX density matrix=1.00D-06.
 Requested convergence on             energy=1.00D-06.
 No special actions if energy rises.
 Integral accuracy reduced to 1.0D-05 until final iterations.
 Initial convergence to 1.0D-05 achieved.  Increase integral accuracy.
 SCF Done:  E(RB3LYP) =  -417.223382685     A.U. after   13 cycles
            NFock= 13  Conv=0.62D-08     -V/T= 2.0068
 PrsmSu:  requested number of processors reduced to:  13 ShMem   1 Linda.
 Calling FoFJK, ICntrl=      2127 FMM=F ISym2X=0 I1Cent= 0 IOpClX= 0 NMat=1 NMatS=1 NMatT=0.
 ***** Axes restored to original set *****
 -------------------------------------------------------------------
 Center     Atomic                   Forces (Hartrees/Bohr)
[...]

 Dipole orientation:
     6          2.41397045          1.32021989         -0.17768726
     6          3.49470698         -0.50808133          1.71450058
     8          3.12766187         -2.76521546          1.63333340
     6          5.12229692          0.58920254          3.88675884
     7          5.59947820         -1.31092147          5.82904687
     6          7.60915633          1.70630458          2.76893336
     7          9.70811772          0.61206568          3.71034220
     8          7.59033340          3.39738336          1.20489777
     1          1.56317962          0.29219681         -1.74853225
     1          3.88752337          2.62165429         -0.81128253
     1          0.96124111          2.47002255          0.75343930
     1          4.12240696          2.23466122          4.64974873
     1          4.98621274         -2.99844857          5.12837074
     1          4.57505404         -0.94380053          7.40356486
     1          9.49221478         -0.66458896          5.11225250
     1         11.41296077          1.25494087          3.17049880

 Electric dipole moment (dipole orientation):
 (Debye = 10**-18 statcoulomb cm , SI units = C m)
                  (au)            (Debye)         (10**-30 SI)
   Tot        0.969563D+00      0.246438D+01      0.822030D+01
   x          0.000000D+00      0.000000D+00      0.000000D+00
   y          0.000000D+00      0.000000D+00      0.000000D+00
   z          0.969563D+00      0.246438D+01      0.822030D+01

 Dipole polarizability, Alpha (dipole orientation).
 (esu units = cm**3 , SI units = C**2 m**2 J**-1)
 Alpha(0;0):
               (au)            (10**-24 esu)      (10**-40 SI)
   iso        0.622718D+02      0.922773D+01      0.102672D+02
   aniso      0.215298D+02      0.319038D+01      0.354978D+01
   xx         0.666608D+02      0.987811D+01      0.109909D+02
   yx         0.186096D+01      0.275765D+00      0.306830D+00
   yy         0.606338D+02      0.898500D+01      0.999716D+01
   zx         0.792722D+01      0.117469D+01      0.130702D+01
   zy        -0.857029D+01     -0.126999D+01     -0.141305D+01
   zz         0.595210D+02      0.882010D+01      0.981368D+01

 ----------------------------------------------------------------------
 1\1\GINC-LEWIS4-R630-HPC4RC-NODE361\Freq\RB3LYP\6-31G(2df,p)\C4H8N2O2\
 KS29C\04-Aug-2022\0\\#N Geom=AllCheck Guess=TCheck SCRF=Check GenChk R
 B3LYP/6-31G(2df,p) Freq\\Title Card Required\\0,1\C,1.193202671,-0.717
 4430488,0.4361943765\C,2.0362379376,0.3106205357,-0.2695690524\O,1.825
 1460584,1.501278156,-0.2063701554\C,3.2172953404,-0.1986032681,-1.1333
 626181\N,3.7644287544,0.8727137666,-1.9604814596\C,4.292034633,-0.8436
 406925,-0.2059751459\N,5.4959710958,-0.2437714872,-0.2946798708\O,4.03
 62605274,-1.7934329436,0.5140194203\H,0.5018956585,-0.2272929255,1.122
 8334082\H,1.8384490254,-1.436183649,0.9478777932\H,0.6214009182,-1.281
 8961559,-0.3110728962\H,2.8486930131,-1.03348493,-1.7402219489\H,3.331
 3048567,1.7414551488,-1.6475293257\H,3.5089510675,0.742470286,-2.93187
 45494\H,5.6094970017,0.4826877781,-0.98690851\H,6.2691214408,-0.612786
 5707,0.2319205342\\Version=ES64L-G16RevA.03\State=1-A\HF=-417.2419544\
 RMSD=2.274e-09\RMSF=1.766e-05\ZeroPoint=0.1294708\Thermal=0.1384256\Di
 pole=0.3000452,0.0670267,-0.9195283\DipoleDeriv=-0.1536062,-0.1539614,
 0.093283,-0.0929106,-0.2222048,0.1344932,0.0897238,0.1488452,-0.033177
 ,0.8570133,-0.0955675,-0.3540433,-0.1619748,1.0595894,-0.0474044,-0.57
 53823,0.0458042,0.3419846,-0.5623176,0.1011211,0.1618797,0.1993072,-0.
 9971776,0.0355569,0.2410554,-0.0242933,-0.39965,-0.3313363,0.2731533,-
 0.0134362,0.2275055,0.1698909,-0.1666259,0.0028779,-0.1176324,0.203741
 ,-0.5680272,-0.1159836,0.1890492,-0.00705,-0.4004147,0.1395909,0.07446
 8,0.1810722,-0.4299932,1.4083545,0.3144149,-0.0070703,0.3490915,0.9792
 147,-0.466762,0.179617,-0.5754654,0.5609321,-1.0727786,-0.2967896,0.15
 536,-0.2101371,-0.5794201,0.0082971,-0.1095719,-0.0564327,-0.4320878,-
 0.7210506,-0.0237989,-0.0164295,-0.1874557,-0.9023162,0.3618179,0.1049
 9,0.4298689,-0.6602328,-0.0272958,0.011767,0.081506,0.0485333,0.027486
 6,-0.0501422,0.0838406,-0.0204731,0.0065136,0.1657522,0.0076564,-0.041
 097,-0.0042825,0.0867463,0.0074299,-0.0164742,0.0269353,0.0720134,0.03
 55355,-0.0582357,-0.010699,-0.0370338,0.0508488,-0.045488,-0.0386415,-
 0.0540975,-0.0288377,0.0499848,-0.0546924,-0.0199294,-0.0577491,-0.052
 9098,0.0079946,-0.0200379,-0.0278986,-0.0021512,0.2603196,0.1307029,-0
 .0979599,0.0019219,0.1585325,0.02929,-0.0551641,-0.0324119,0.1861356,0
 .181636,0.0171046,-0.1432709,-0.0181592,0.1274343,-0.0003884,-0.033481
 1,0.0071068,0.0833749,0.275144,-0.0417073,0.0333912,-0.038021,0.282120
 3,-0.0357451,0.0723186,-0.0167617,0.3001601,0.2026724,-0.0151838,-0.01
 05336,-0.0115854,0.2125796,0.0880854,-0.0001383,0.0858339,0.2312742\Po
 lar=70.6221082,1.2812298,61.839955,-4.13277,-8.3355748,54.3534554\Quad
 rupole=4.329561,-5.9565281,1.6269671,3.5711404,0.7002756,0.840528\PG=C
 01 [X(C4H8N2O2)]\NImag=0\\0.53425079,-0.06540259,0.52595619,-0.0102598
 3,0.03858325,0.52401983,-0.13480331,-0.03188071,0.03827656,0.38953862,
 -0.03930186,-0.11104359,0.03435094,-0.06049390,0.94986501,0.03781078,0
 .03089945,-0.11949454,-0.10939340,-0.01774393,0.32986999,0.02173949,-0
 .02323487,0.00602482,-0.11136785,0.10880922,0.02169688,0.10208612,-0.0
 0031324,-0.05672352,0.00583326,0.10549415,-0.72239223,-0.02499664,-0.1
 3173097,0.81527783,0.00415068,0.02031190,0.02027460,0.02261540,-0.0270
 8536,-0.08547774,-0.04827043,0.03491367,0.06192560,-0.00513074,0.00407
 378,0.01353957,-0.10364917,-0.00813060,0.01153970,-0.00260836,0.035660
 74,0.02080897,0.39557483,-0.01328846,0.01095803,0.01018503,-0.00849191
 ,-0.06819089,0.00820716,0.03988267,-0.04406588,-0.02151810,0.07390854,
 0.55596873,0.01610162,-0.00318433,0.00257595,0.03219822,-0.00871301,-0
 .10616076,0.01735137,-0.01163814,0.00933843,0.00578497,0.03198946,0.45
 908104,-0.00277565,0.00327695,0.00318855,-0.01489044,-0.01705008,0.021
 85344,-0.00142242,-0.00554357,0.00393298,-0.07628435,-0.01649140,0.012
 35733,0.22684681,0.00117764,0.00174413,0.00104277,-0.00539802,0.000393
 56,0.00326991,0.00470139,0.00177500,-0.00718138,-0.05586536,-0.1577959
 8,0.03584161,-0.08147552,0.55751310,0.00233917,-0.00250225,-0.00083622
 ,0.01567571,0.01733209,-0.02036800,0.00221978,0.00435874,-0.00027152,0
 .04410681,0.04617307,-0.13113118,0.00374765,0.05887514,0.65818867,0.00
 083623,-0.00033378,0.00124073,-0.03436278,0.01819305,-0.00716015,0.003
 71749,-0.00842931,0.00043784,-0.11266873,0.01820675,-0.03500956,0.0053
 4466,-0.00635113,0.00880367,0.61436911,-0.00016106,-0.00077988,-0.0011
 2669,0.02512678,-0.00727217,-0.00888029,-0.00423758,0.00296198,0.00226
 738,-0.00476061,-0.07004138,0.00499059,0.00850844,-0.01394254,0.017166
 90,0.17899165,0.67417362,-0.00023063,0.00042316,-0.00200079,-0.0072413
 3,0.00259938,0.03413586,0.00558510,-0.01234326,-0.00946826,0.00488179,
 -0.00548427,-0.09158253,-0.00642368,0.01280214,-0.01565654,-0.02556579
 ,-0.32928904,0.49190655,-0.00046206,0.00003752,0.00047387,0.00486373,-
 0.00487062,-0.00629827,-0.00120324,0.00477623,0.00197900,-0.03761714,-
 0.00714236,-0.00793723,-0.00389519,0.00262905,-0.00617059,-0.32308874,
 -0.09174379,-0.01768928,0.75011894,-0.00038147,0.00063024,-0.00005181,
 -0.00032328,-0.00224071,0.00224183,0.00063798,0.00169150,-0.00056883,0
 .00939584,0.01024881,0.00337193,0.00451546,0.00091315,0.00346340,-0.08
 543589,-0.13185456,0.04049859,0.07306700,0.48720690,-0.00023448,-0.000
 08486,0.00058223,0.00190765,-0.00213309,-0.00700894,-0.00127575,0.0024
 8139,0.00247261,-0.02724106,-0.00019896,0.00524921,-0.00634463,0.00270
 049,-0.00211174,-0.01343652,0.04380806,-0.09291588,0.15335795,-0.40341
 578,0.44324209,-0.00411692,0.00094000,0.00254738,-0.00003068,-0.003383
 92,0.00432479,0.00054073,0.00185018,-0.00117225,0.01771166,0.01056824,
 -0.01144420,-0.00011470,0.00315720,-0.00337022,-0.12759702,-0.08718143
 ,0.05746894,-0.01348109,-0.06493646,0.04425155,0.13346609,0.00108476,0
 .00065746,-0.00041485,-0.00856360,0.00135590,0.00676017,0.00263894,-0.
 00134168,-0.00213413,0.00551712,-0.01613097,0.02177996,0.00217602,-0.0
 0193014,0.00569337,-0.08724146,-0.44625350,0.28313504,-0.04492968,-0.0
 3856095,0.03334561,0.12853299,0.50091366,0.00036500,0.00015450,0.00154
 970,0.00759034,-0.00032001,-0.00988519,-0.00318478,0.00280739,0.003172
 96,-0.00787249,0.03137048,-0.00867421,-0.00264158,0.00474788,-0.002894
 37,0.05935593,0.28142877,-0.29740184,0.02714570,0.02837675,0.00755319,
 -0.08269367,-0.34844659,0.30310164,-0.15514528,0.07868848,0.10797844,-
 0.01562342,0.01061277,0.01385089,0.00235057,0.00097533,-0.00364749,0.0
 0050349,-0.00323722,0.00102425,-0.00108654,-0.00015508,0.00079721,0.00
 096756,0.00070480,-0.00015854,-0.00045241,-0.00042413,-0.00010647,-0.0
 0133719,0.00006837,0.00014636,0.16652514,0.08218788,-0.10553691,-0.079
 87096,-0.01727334,0.01137674,0.01726723,0.00175442,0.00243282,-0.00204
 249,-0.00172306,-0.00333018,0.00067786,-0.00114231,-0.00014067,0.00092
 934,-0.00025164,-0.00122129,0.00116483,0.00023749,0.00045477,-0.000275
 76,0.00136868,0.00065368,-0.00062773,-0.08453264,0.10940094,0.10770325
 ,-0.07578255,-0.15550196,0.01078970,-0.00963711,-0.01135077,-0.0032341
 2,-0.00031838,0.00167970,0.00145854,0.00189236,0.00075848,0.00088939,0
 .00034748,-0.00031477,0.00021776,0.00123392,-0.00146331,0.00003078,-0.
 00038687,0.00033824,-0.00118334,-0.00061505,0.00082210,-0.12062195,0.0
 8514530,0.16507762,-0.13822964,0.10590654,-0.07040709,0.01945823,-0.00
 874867,0.00843842,-0.00515748,-0.00643256,-0.00034287,-0.00075250,0.00
 073579,-0.00137050,-0.00040520,0.00046176,-0.00060743,-0.00280495,-0.0
 0517324,0.00475004,0.00147777,0.00234960,-0.00085758,-0.00290316,0.003
 10048,-0.00328764,-0.00899720,0.00862472,-0.00944667,0.14773037,0.1076
 3316,-0.15880521,0.08690441,0.01468403,-0.01889455,0.01015190,-0.00474
 597,-0.00186834,0.00183196,-0.00161137,0.00057122,-0.00091923,0.000204
 65,-0.00009769,-0.00008132,-0.00139507,-0.00041510,0.00082655,-0.00012
 266,-0.00016582,0.00021658,0.00313552,-0.00142481,-0.00060058,0.004880
 02,-0.00710834,0.00614087,-0.11263239,0.17635911,-0.07037467,0.0852744
 4,-0.10850758,-0.01299261,0.00756188,-0.00717642,0.00224631,0.00175814
 ,0.00021776,0.00168916,-0.00065718,0.00078248,-0.00014036,-0.00033495,
 0.00020946,0.00185156,0.00269113,-0.00231244,-0.00054133,-0.00088557,0
 .00049302,-0.00268779,-0.00105257,0.00041641,0.01201410,-0.01452152,0.
 01256542,0.08180038,-0.09458431,0.11455114,-0.11568389,-0.07278617,-0.
 09126328,-0.00922819,-0.00725815,-0.01589911,-0.00008631,-0.00111155,0
 .00218074,0.00044477,-0.00011133,0.00127310,0.00010634,0.00058554,0.00
 041027,0.00037451,0.00002689,-0.00031491,0.00000015,-0.00002041,0.0000
 3998,-0.00010791,0.00019377,0.00059827,0.01205463,0.01078049,0.0137848
 5,-0.01002378,-0.01006118,-0.01252840,0.12254136,-0.07271621,-0.106931
 08,-0.09601242,-0.01178855,-0.01636332,-0.01837120,-0.00071858,-0.0012
 9352,0.00544778,0.00093100,-0.00008417,0.00163538,0.00007074,0.0004158
 1,0.00024655,0.00048457,-0.00005262,-0.00025394,0.00006975,-0.00012491
 ,0.00012149,0.00003317,-0.00016249,-0.00029480,-0.00784003,-0.00711439
 ,-0.00833562,0.01188866,0.01184001,0.01458764,0.07958110,0.11939918,-0
 .08873433,-0.09250910,-0.16361229,0.00874485,0.00714935,0.01342216,-0.
 00096620,0.00230270,-0.00250013,-0.00026624,-0.00121581,-0.00130938,-0
 .00022557,-0.00024634,-0.00013090,-0.00034018,0.00107634,-0.00048130,0
 .00006792,-0.00014162,0.00005075,-0.00040879,-0.00004709,0.00068381,-0
 .01153432,-0.00826494,-0.01272623,-0.00811953,-0.00957777,-0.01138065,
 0.10113422,0.10110085,0.17816510,-0.00101896,-0.00129968,-0.00172604,0
 .01102810,0.02056943,0.01540542,-0.00595278,0.00173171,-0.00007327,-0.
 06517186,-0.06865806,-0.04549207,-0.00357067,-0.01015480,-0.00330537,-
 0.01253402,-0.01908506,-0.02142492,-0.00145096,0.00302916,-0.00101998,
 0.00127692,0.00142997,0.00388006,0.00033550,0.00018212,-0.00041946,0.0
 0012305,0.00009883,-0.00006808,-0.00071687,-0.00025023,0.00078852,0.07
 865209,-0.00045066,0.00042235,0.00079854,-0.00252684,-0.01040747,-0.00
 739754,0.00211869,0.00092641,-0.00084285,-0.06804698,-0.18802065,-0.10
 818457,-0.00741280,-0.02107424,-0.00819835,0.00339236,0.00673005,0.008
 27360,0.00102829,-0.00028118,0.00007575,0.00081214,0.00049093,-0.00093
 114,0.00014517,0.00001732,0.00033399,0.00003357,0.00004219,0.00002951,
 0.00033146,0.00055278,0.00023486,0.07226362,0.21284485,0.00060606,0.00
 055576,0.00100472,-0.00944880,-0.01405975,-0.00922898,0.00414258,-0.00
 118518,-0.00015944,-0.04887827,-0.11498419,-0.13437892,0.00752275,0.02
 191970,0.00903569,-0.00803075,-0.01433114,-0.01224602,-0.00123536,0.00
 153738,-0.00090672,0.00044149,0.00192896,0.00200148,-0.00007052,0.0000
 5150,0.00034464,-0.00021669,-0.00010437,-0.00020039,0.00077197,0.00032
 399,-0.00020200,0.05197736,0.11511226,0.14315400,0.00083801,0.00146418
 ,0.00031052,0.00093434,-0.00540156,0.00144175,-0.00252041,0.00213918,-
 0.00208288,0.00118829,-0.01702692,-0.00758199,-0.09035444,0.16665319,0
 .06375505,0.00092522,0.00122538,0.00095123,-0.00114433,-0.00080535,-0.
 00146302,-0.00040239,0.00004823,-0.00022738,0.00000067,-0.00007775,0.0
 0004401,0.00034381,0.00001818,-0.00018183,0.00036764,0.00033345,-0.000
 15148,-0.00214696,-0.00380861,0.00320100,0.09104379,0.00046701,-0.0008
 5677,-0.00034519,0.00147792,-0.00277359,-0.00135543,0.00219924,0.00173
 925,-0.00284702,0.00754870,-0.03253123,-0.00114759,0.11923419,-0.29933
 623,-0.09012656,-0.00238007,-0.00268721,-0.00033091,0.00002589,0.00064
 488,-0.00093669,0.00076999,0.00018402,0.00076143,0.00021506,0.00029290
 ,-0.00012748,-0.00007180,-0.00011403,0.00004945,-0.00002704,-0.0000625
 3,0.00009341,0.00007747,-0.00231750,0.00254420,-0.13434688,0.34061103,
 0.00047113,-0.00192974,0.00011150,0.00143650,0.00887277,0.00013850,-0.
 00269722,-0.00424397,-0.00118449,-0.00992885,0.01677488,0.00942791,0.0
 4293626,-0.08226484,-0.09227800,0.00145762,0.00196167,-0.00120853,-0.0
 0022942,0.00008500,-0.00083309,-0.00065823,0.00089990,-0.00157906,0.00
 024661,0.00022343,-0.00018786,-0.00048975,-0.00020850,0.00027083,-0.00
 022753,-0.00019320,0.00007584,0.00096052,0.00142677,-0.00143346,-0.051
 96867,0.09265703,0.09929627,-0.00062935,0.00051402,0.00023655,-0.00174
 206,-0.00277089,0.00338187,-0.00071353,-0.00012966,-0.00014860,-0.0038
 5534,-0.00168228,0.02045338,-0.03952695,-0.01974323,-0.13210126,-0.001
 29273,0.00008211,-0.00092400,-0.00171138,0.00185697,-0.00079899,0.0002
 2475,0.00099315,-0.00074097,-0.00018595,-0.00021971,0.00005192,-0.0000
 2424,0.00004338,-0.00002226,-0.00008766,-0.00009715,-0.00000955,0.0017
 8618,0.00124466,-0.00010147,0.00144767,0.00384971,0.01808591,0.0435775
 7,-0.00053162,0.00035630,-0.00009607,0.00077562,-0.00383802,0.00053544
 ,0.00196668,0.00151050,-0.00052191,0.00692206,0.00130701,0.03115521,-0
 .01157713,-0.06453455,-0.05376098,-0.00411740,-0.00190411,0.00294746,0
 .00043555,0.00030876,-0.00021878,0.00139010,-0.00168427,0.00095041,-0.
 00012790,-0.00009476,0.00003298,0.00016551,0.00006048,-0.00005359,-0.0
 0010851,-0.00005558,0.00007406,0.00015837,0.00052430,0.00036103,-0.012
 44259,-0.00274672,-0.03448231,0.01706130,0.07098485,-0.00002179,-0.000
 17343,-0.00003287,0.00002184,0.00080716,-0.00085264,0.00019828,0.00010
 472,0.00031598,-0.00833549,-0.00379315,-0.01725718,-0.07988129,-0.0508
 9662,-0.39758392,0.00286985,0.00112201,-0.00036486,0.00011212,-0.00072
 012,0.00066801,-0.00062724,0.00062519,-0.00062636,0.00000669,0.0000471
 3,0.00004904,-0.00009954,0.00002877,0.00002166,0.00003863,0.00002207,0
 .00000165,-0.00021186,-0.00076096,0.00316516,-0.00702501,0.00009575,-0
 .01167093,0.09340322,0.05303845,0.42477090,0.00027231,0.00009286,-0.00
 017066,-0.00041493,-0.00048455,0.00011918,0.00060756,0.00073065,-0.000
 57783,-0.00406315,-0.00316407,0.00183246,-0.00011307,0.00075478,0.0020
 4826,0.01139751,-0.01940523,0.02639811,-0.07528269,-0.04366148,0.02126
 221,-0.00926470,-0.00618217,-0.00063235,0.00004691,0.00013335,-0.00012
 300,0.00039954,-0.00011196,-0.00015494,0.00002235,-0.00001693,-0.00001
 589,0.00036391,0.00043299,-0.00009203,-0.00051720,0.00089532,0.0005407
 9,0.00238948,0.00004967,-0.00051207,0.06639462,-0.00016624,-0.00001203
 ,0.00006184,-0.00062684,0.00045427,0.00125061,0.00010082,-0.00115215,-
 0.00036181,0.00089817,0.00036906,-0.00186443,0.00063470,-0.00423423,-0
 .00087864,-0.00977072,-0.01809550,0.00782790,-0.03954039,-0.23064795,0
 .21300229,-0.00060869,0.00622713,0.00148977,-0.00000060,-0.00005884,0.
 00002990,-0.00015073,0.00003309,0.00002922,-0.00002852,0.00001537,-0.0
 0000703,-0.00054155,-0.00018054,0.00012725,0.00221803,-0.00012920,0.00
 033254,-0.00141751,-0.00026432,0.00048327,0.05127388,0.25099761,0.0001
 4680,-0.00012361,-0.00017655,0.00058911,0.00026301,-0.00004121,0.00024
 031,0.00036643,-0.00058880,-0.00106301,-0.00326267,0.00091742,0.001276
 97,-0.00046885,-0.00354324,0.01246644,0.00117146,-0.00340189,0.0211560
 1,0.21882556,-0.21299931,-0.00592476,-0.00089826,0.00617274,0.00002768
 ,0.00012386,-0.00011290,0.00032298,0.00003577,-0.00004929,-0.00003318,
 -0.00000122,-0.00001133,-0.00023862,0.00060018,-0.00063908,0.00113221,
 0.00108425,0.00114166,-0.00064934,-0.00000916,-0.00068363,-0.03533720,
 -0.21820919,0.22025456,0.00005896,-0.00005654,0.00000990,0.00028980,-0
 .00028967,-0.00111220,-0.00000960,0.00033270,0.00021001,-0.00362172,-0
 .00400798,0.00045886,0.00214180,-0.00097741,0.00165130,-0.02358331,0.0
 1708196,-0.02006214,-0.29667135,0.10113645,-0.16804086,0.00613559,0.00
 113309,0.00219920,0.00004350,-0.00004869,0.00005832,-0.00023462,-0.000
 01715,0.00009075,0.00002285,0.00003522,0.00003658,-0.00100269,0.000442
 96,-0.00058933,-0.00000374,0.00006529,0.00006432,0.00034354,-0.0000197
 0,0.00006363,0.00776156,-0.00227379,0.00588761,0.30832941,0.00016297,-
 0.00003570,0.00015796,-0.00019150,-0.00002893,-0.00183865,-0.00014209,
 0.00052202,0.00033116,-0.00471797,0.00076846,0.00420931,0.00207167,0.0
 0033151,0.00130951,-0.01356191,0.01065422,-0.01279724,0.10604275,-0.09
 822292,0.11151226,0.00355229,-0.00299396,-0.00086654,0.00002760,-0.000
 02379,0.00004627,-0.00005723,-0.00001220,0.00010829,0.00001361,0.00002
 146,-0.00002187,0.00044871,-0.00026959,0.00020260,-0.00019016,0.000082
 93,0.00008857,0.00041513,0.00007013,-0.00003023,0.01866289,-0.00332177
 ,0.00050244,-0.11253676,0.09245812,0.00016123,0.00008741,0.00004428,-0
 .00076974,0.00075568,-0.00052132,-0.00007694,-0.00020087,0.00025273,-0
 .00022409,0.00452191,0.00236323,-0.00204823,-0.00015414,-0.00031342,0.
 00084154,-0.00529108,0.00446176,-0.16422188,0.10777015,-0.14387368,0.0
 0113635,-0.00055964,-0.00441300,0.00004706,-0.00002707,0.00002255,-0.0
 0006655,-0.00006071,0.00009858,0.00003438,-0.00002334,-0.00004510,0.00
 096780,-0.00057004,0.00068931,-0.00015353,-0.00006865,-0.00008708,-0.0
 0011640,0.00004776,0.00007998,-0.01458503,-0.00331348,-0.00623916,0.17
 907404,-0.10291386,0.14748034\\-0.00001047,-0.00002024,-0.00000086,0.0
 0001447,0.00003307,-0.00000066,0.00001730,-0.00001271,-0.00000673,-0.0
 0000017,-0.00002837,-0.00000329,-0.00000160,0.00002342,-0.00000388,-0.
 00006943,-0.00004356,0.00004559,0.00001621,0.00002191,-0.00001784,0.00
 000961,0.00001545,-0.00002170,0.00000420,-0.00000364,0.00000312,0.0000
 0105,-0.00000023,0.00000427,0.00000009,0.00000039,0.00000074,-0.000000
 11,0.00000799,0.00000544,-0.00000435,0.00000264,0.00000005,0.00000097,
 -0.00000190,-0.00000452,0.00001168,-0.00000155,-0.00000635,0.00001053,
 0.00000733,0.00000664\\\@


     "IF I COULD JUST GET IT ON PAPER"
 LIFE AND INK, THEY RUN OUT AT THE SAME TIME,
 OR SO SAID MY OLD FRIEND THE SQUID.
     -- JIMMY BUFFETT, 1981
 Job cpu time:       0 days  1 hours 36 minutes 27.9 seconds.
 Elapsed time:       0 days  0 hours 24 minutes 25.8 seconds.
 File lengths (MBytes):  RWF=     95 Int=      0 D2E=      0 Chk=      7 Scr=      1
 Normal termination of Gaussian 16 at Thu Aug  4 09:09:21 2022.
### All Done ###
