### Starting Gaussian ###
 Entering Gaussian System, Link 0=g16
 Initial command:
 /cluster/software/gaussian/gaussian-16-A.03/avx2/g16/l1.exe "/local/scratch/ks29c/Gau-5680.inp" -scrdir="/local/scratch/ks29c/"
 Entering Link 1 = /cluster/software/gaussian/gaussian-16-A.03/avx2/g16/l1.exe PID=      5682.
  
 Copyright (c) 1988,1990,1992,1993,1995,1998,2003,2009,2016,
            Gaussian, Inc.  All Rights Reserved.
  
 This is part of the Gaussian(R) 16 program.  It is based on
 the Gaussian(R) 09 system (copyright 2009, Gaussian, Inc.),
 the Gaussian(R) 03 system (copyright 2003, Gaussian, Inc.),
 the Gaussian(R) 98 system (copyright 1998, Gaussian, Inc.),
 the Gaussian(R) 94 system (copyright 1995, Gaussian, Inc.),
 the Gaussian 92(TM) system (copyright 1992, Gaussian, Inc.),
 the Gaussian 90(TM) system (copyright 1990, Gaussian, Inc.),
 the Gaussian 88(TM) system (copyright 1988, Gaussian, Inc.),
 the Gaussian 86(TM) system (copyright 1986, Carnegie Mellon
 University), and the Gaussian 82(TM) system (copyright 1983,
 Carnegie Mellon University). Gaussian is a federally registered
 trademark of Gaussian, Inc.
  
 This software contains proprietary and confidential information,
 including trade secrets, belonging to Gaussian, Inc.
  
 This software is provided under written license and may be
 used, copied, transmitted, or stored only in accord with that
 written license.
  
 The following legend is applicable only to US Government
 contracts under FAR:
  
                    RESTRICTED RIGHTS LEGEND
  
 Use, reproduction and disclosure by the US Government is
 subject to restrictions as set forth in subparagraphs (a)
 and (c) of the Commercial Computer Software - Restricted
 Rights clause in FAR 52.227-19.
  
 Gaussian, Inc.
 340 Quinnipiac St., Bldg. 40, Wallingford CT 06492
  
  
 ---------------------------------------------------------------
 Warning -- This program may not be used in any manner that
 competes with the business of Gaussian, Inc. or will provide
 assistance to any competitor of Gaussian, Inc.  The licensee
 of this program is prohibited from giving any competitor of
 Gaussian, Inc. access to this program.  By using this program,
 the user acknowledges that Gaussian, Inc. is engaged in the
 business of creating and licensing software in the field of
 computational chemistry and represents and warrants to the
 licensee that it is not a competitor of Gaussian, Inc. and that
 it will not use this program in any manner prohibited above.
 ---------------------------------------------------------------
  

 Cite this work as:
 Gaussian 16, Revision A.03,
 M. J. Frisch, G. W. Trucks, H. B. Schlegel, G. E. Scuseria, 
 M. A. Robb, J. R. Cheeseman, G. Scalmani, V. Barone, 
 G. A. Petersson, H. Nakatsuji, X. Li, M. Caricato, A. V. Marenich, 
 J. Bloino, B. G. Janesko, R. Gomperts, B. Mennucci, H. P. Hratchian, 
 J. V. Ortiz, A. F. Izmaylov, J. L. Sonnenberg, D. Williams-Young, 
 F. Ding, F. Lipparini, F. Egidi, J. Goings, B. Peng, A. Petrone, 
 T. Henderson, D. Ranasinghe, V. G. Zakrzewski, J. Gao, N. Rega, 
 G. Zheng, W. Liang, M. Hada, M. Ehara, K. Toyota, R. Fukuda, 
 J. Hasegawa, M. Ishida, T. Nakajima, Y. Honda, O. Kitao, H. Nakai, 
 T. Vreven, K. Throssell, J. A. Montgomery, Jr., J. E. Peralta, 
 F. Ogliaro, M. J. Bearpark, J. J. Heyd, E. N. Brothers, K. N. Kudin, 
 V. N. Staroverov, T. A. Keith, R. Kobayashi, J. Normand, 
 K. Raghavachari, A. P. Rendell, J. C. Burant, S. S. Iyengar, 
 J. Tomasi, M. Cossi, J. M. Millam, M. Klene, C. Adamo, R. Cammi, 
 J. W. Ochterski, R. L. Martin, K. Morokuma, O. Farkas, 
 J. B. Foresman, and D. J. Fox, Gaussian, Inc., Wallingford CT, 2016.
 
 ******************************************
 Gaussian 16:  ES64L-G16RevA.03 25-Dec-2016
                 3-Aug-2022 
 ******************************************
 %chk=CCpdOpCCpNpCCO.chk
 %NProcShared=20
 Will use up to   20 processors via shared memory.
 -----------------------------
 # opt freq b3lyp/6-31g(2df,p)
 -----------------------------
 1/18=20,19=15,26=3,38=1/1,3;
 2/9=110,12=2,17=6,18=5,40=1/2;
 3/5=1,6=6,7=104,11=2,25=1,30=1,71=1,74=-5/1,2,3;
 4//1;
 5/5=2,38=5/2;
 6/7=2,8=2,9=2,10=2,28=1/1;
 7//1,2,3,16;
 1/18=20,19=15,26=3/3(2);
 2/9=110/2;
 99//99;
 2/9=110/2;
 3/5=1,6=6,7=104,11=2,25=1,30=1,71=1,74=-5/1,2,3;
 4/5=5,16=3,69=1/1;
 5/5=2,38=5/2;
 7//1,2,3,16;
 1/18=20,19=15,26=3/3(-5);
 2/9=110/2;
 6/7=2,8=2,9=2,10=2,19=2,28=1/1;
 99/9=1/99;
 -------------------
 Title Card Required
 -------------------
 Symbolic Z-matrix:
 Charge =  0 Multiplicity = 1
 C                     1.00824  -0.02415  -0.06843 
 C                     2.50617  -0.09804  -0.08263 
 O                     3.06958  -1.13364  -0.4483 
 C                     3.27252   1.14997   0.32891 
 C                     4.79007   0.9372    0.22418 
 N                     5.18476   0.62844  -1.15683 
 C                     5.56629   2.17188   0.68743 
 C                     7.07381   1.94016   0.62309 
 O                     7.7528    3.10849   1.06598 
 H                     0.60567  -0.98252  -0.41094 
 H                     0.67119   0.75999  -0.74994 
 H                     0.65669   0.16498   0.94724 
 H                     2.99835   1.39267   1.36271 
 H                     2.95803   1.98275  -0.31185 
 H                     5.07233   0.0888    0.86145 
 H                     4.86655   1.35498  -1.79455 
 H                     4.69363  -0.23128  -1.43514 
 H                     5.28817   2.43359   1.71675 
 H                     5.30182   3.04776   0.07993 
 H                     7.4113    1.71593  -0.39419 
 H                     7.36421   1.10572   1.26935 
 H                     7.54282   3.81183   0.42828 
 

 GradGradGradGradGradGradGradGradGradGradGradGradGradGradGradGradGradGrad
 Berny optimization.
 Initialization pass.
                           ----------------------------
                           !    Initial Parameters    !
                           ! (Angstroms and Degrees)  !
 --------------------------                            --------------------------
 ! Name  Definition              Value          Derivative Info.                !
 --------------------------------------------------------------------------------
 ! R1    R(1,2)                  1.4998         estimate D2E/DX2                !
 ! R2    R(1,10)                 1.0945         estimate D2E/DX2                !
 ! R3    R(1,11)                 1.0922         estimate D2E/DX2                !
 ! R4    R(1,12)                 1.0913         estimate D2E/DX2                !
 ! R5    R(2,3)                  1.2343         estimate D2E/DX2                !
 ! R6    R(2,4)                  1.5212         estimate D2E/DX2                !
 ! R7    R(4,5)                  1.536          estimate D2E/DX2                !
 ! R8    R(4,13)                 1.0967         estimate D2E/DX2                !
 ! R9    R(4,14)                 1.0968         estimate D2E/DX2                !
 ! R10   R(5,6)                  1.4691         estimate D2E/DX2                !
 ! R11   R(5,7)                  1.5302         estimate D2E/DX2                !
 ! R12   R(5,15)                 1.098          estimate D2E/DX2                !
 ! R13   R(6,16)                 1.0177         estimate D2E/DX2                !
 ! R14   R(6,17)                 1.0285         estimate D2E/DX2                !
 ! R15   R(7,8)                  1.5266         estimate D2E/DX2                !
 ! R16   R(7,18)                 1.0979         estimate D2E/DX2                !
 ! R17   R(7,19)                 1.0983         estimate D2E/DX2                !
 ! R18   R(8,9)                  1.422          estimate D2E/DX2                !
 ! R19   R(8,20)                 1.095          estimate D2E/DX2                !
 ! R20   R(8,21)                 1.0947         estimate D2E/DX2                !
 ! R21   R(9,22)                 0.9723         estimate D2E/DX2                !
 ! A1    A(2,1,10)             108.739          estimate D2E/DX2                !
 ! A2    A(2,1,11)             109.7348         estimate D2E/DX2                !
 ! A3    A(2,1,12)             109.8209         estimate D2E/DX2                !
 ! A4    A(10,1,11)            108.6559         estimate D2E/DX2                !
 ! A5    A(10,1,12)            108.9368         estimate D2E/DX2                !
 ! A6    A(11,1,12)            110.9095         estimate D2E/DX2                !
 ! A7    A(1,2,3)              120.0005         estimate D2E/DX2                !
 ! A8    A(1,2,4)              117.3969         estimate D2E/DX2                !
 ! A9    A(3,2,4)              122.5813         estimate D2E/DX2                !
 ! A10   A(2,4,5)              111.4466         estimate D2E/DX2                !
 ! A11   A(2,4,13)             108.0964         estimate D2E/DX2                !
 ! A12   A(2,4,14)             108.6877         estimate D2E/DX2                !
 ! A13   A(5,4,13)             109.9938         estimate D2E/DX2                !
 ! A14   A(5,4,14)             110.404          estimate D2E/DX2                !
 ! A15   A(13,4,14)            108.1182         estimate D2E/DX2                !
 ! A16   A(4,5,6)              111.0171         estimate D2E/DX2                !
 ! A17   A(4,5,7)              111.6396         estimate D2E/DX2                !
 ! A18   A(4,5,15)             108.7507         estimate D2E/DX2                !
 ! A19   A(6,5,7)              108.5346         estimate D2E/DX2                !
 ! A20   A(6,5,15)             108.3086         estimate D2E/DX2                !
 ! A21   A(7,5,15)             108.5026         estimate D2E/DX2                !
 ! A22   A(5,6,16)             110.7929         estimate D2E/DX2                !
 ! A23   A(5,6,17)             107.5635         estimate D2E/DX2                !
 ! A24   A(16,6,17)            106.133          estimate D2E/DX2                !
 ! A25   A(5,7,8)              111.4504         estimate D2E/DX2                !
 ! A26   A(5,7,18)             110.3447         estimate D2E/DX2                !
 ! A27   A(5,7,19)             110.7249         estimate D2E/DX2                !
 ! A28   A(8,7,18)             109.0176         estimate D2E/DX2                !
 ! A29   A(8,7,19)             109.6056         estimate D2E/DX2                !
 ! A30   A(18,7,19)            105.5151         estimate D2E/DX2                !
 ! A31   A(7,8,9)              109.4923         estimate D2E/DX2                !
 ! A32   A(7,8,20)             111.9995         estimate D2E/DX2                !
 ! A33   A(7,8,21)             110.6587         estimate D2E/DX2                !
 ! A34   A(9,8,20)             108.0846         estimate D2E/DX2                !
 ! A35   A(9,8,21)             108.4058         estimate D2E/DX2                !
 ! A36   A(20,8,21)            108.096          estimate D2E/DX2                !
 ! A37   A(8,9,22)             106.6739         estimate D2E/DX2                !
 ! D1    D(10,1,2,3)             0.1784         estimate D2E/DX2                !
 ! D2    D(10,1,2,4)           178.5436         estimate D2E/DX2                !
 ! D3    D(11,1,2,3)          -118.544          estimate D2E/DX2                !
 ! D4    D(11,1,2,4)            59.8212         estimate D2E/DX2                !
 ! D5    D(12,1,2,3)           119.2922         estimate D2E/DX2                !
 ! D6    D(12,1,2,4)           -62.3426         estimate D2E/DX2                !
 ! D7    D(1,2,4,5)           -178.2688         estimate D2E/DX2                !
 ! D8    D(1,2,4,13)            60.7443         estimate D2E/DX2                !
 ! D9    D(1,2,4,14)           -56.3786         estimate D2E/DX2                !
 ! D10   D(3,2,4,5)              0.051          estimate D2E/DX2                !
 ! D11   D(3,2,4,13)          -120.9359         estimate D2E/DX2                !
 ! D12   D(3,2,4,14)           121.9412         estimate D2E/DX2                !
 ! D13   D(2,4,5,6)             60.9024         estimate D2E/DX2                !
 ! D14   D(2,4,5,7)           -177.8475         estimate D2E/DX2                !
 ! D15   D(2,4,5,15)           -58.1631         estimate D2E/DX2                !
 ! D16   D(13,4,5,6)          -179.2258         estimate D2E/DX2                !
 ! D17   D(13,4,5,7)           -57.9757         estimate D2E/DX2                !
 ! D18   D(13,4,5,15)           61.7087         estimate D2E/DX2                !
 ! D19   D(14,4,5,6)           -59.9892         estimate D2E/DX2                !
 ! D20   D(14,4,5,7)            61.261          estimate D2E/DX2                !
 ! D21   D(14,4,5,15)         -179.0547         estimate D2E/DX2                !
 ! D22   D(4,5,6,16)            55.6509         estimate D2E/DX2                !
 ! D23   D(4,5,6,17)           -59.9403         estimate D2E/DX2                !
 ! D24   D(7,5,6,16)           -67.4059         estimate D2E/DX2                !
 ! D25   D(7,5,6,17)           177.0029         estimate D2E/DX2                !
 ! D26   D(15,5,6,16)          174.9816         estimate D2E/DX2                !
 ! D27   D(15,5,6,17)           59.3903         estimate D2E/DX2                !
 ! D28   D(4,5,7,8)            178.2111         estimate D2E/DX2                !
 ! D29   D(4,5,7,18)            56.9396         estimate D2E/DX2                !
 ! D30   D(4,5,7,19)           -59.5045         estimate D2E/DX2                !
 ! D31   D(6,5,7,8)            -59.1083         estimate D2E/DX2                !
 ! D32   D(6,5,7,18)           179.6202         estimate D2E/DX2                !
 ! D33   D(6,5,7,19)            63.1761         estimate D2E/DX2                !
 ! D34   D(15,5,7,8)            58.3805         estimate D2E/DX2                !
 ! D35   D(15,5,7,18)          -62.891          estimate D2E/DX2                !
 ! D36   D(15,5,7,19)         -179.3352         estimate D2E/DX2                !
 ! D37   D(5,7,8,9)           -179.7876         estimate D2E/DX2                !
 ! D38   D(5,7,8,20)            60.334          estimate D2E/DX2                !
 ! D39   D(5,7,8,21)           -60.3535         estimate D2E/DX2                !
 ! D40   D(18,7,8,9)           -57.7462         estimate D2E/DX2                !
 ! D41   D(18,7,8,20)         -177.6247         estimate D2E/DX2                !
 ! D42   D(18,7,8,21)           61.6878         estimate D2E/DX2                !
 ! D43   D(19,7,8,9)            57.2855         estimate D2E/DX2                !
 ! D44   D(19,7,8,20)          -62.593          estimate D2E/DX2                !
 ! D45   D(19,7,8,21)          176.7195         estimate D2E/DX2                !
 ! D46   D(7,8,9,22)           -64.3325         estimate D2E/DX2                !
 ! D47   D(20,8,9,22)           57.9174         estimate D2E/DX2                !
 ! D48   D(21,8,9,22)          174.8559         estimate D2E/DX2                !
 --------------------------------------------------------------------------------
 Trust Radius=3.00D-01 FncErr=1.00D-07 GrdErr=1.00D-06 EigMax=2.50D+02 EigMin=1.00D-04
 Number of steps in this run=    116 maximum allowed number of steps=    132.
 GradGradGradGradGradGradGradGradGradGradGradGradGradGradGradGradGradGrad

                          Input orientation:                          
 ---------------------------------------------------------------------
 Center     Atomic      Atomic             Coordinates (Angstroms)
 Number     Number       Type             X           Y           Z
 ---------------------------------------------------------------------
      1          6           0        1.008240   -0.024150   -0.068430
      2          6           0        2.506170   -0.098040   -0.082630
      3          8           0        3.069580   -1.133640   -0.448300
      4          6           0        3.272520    1.149970    0.328910
      5          6           0        4.790070    0.937200    0.224180
      6          7           0        5.184760    0.628440   -1.156830
      7          6           0        5.566290    2.171880    0.687430
      8          6           0        7.073810    1.940160    0.623090
      9          8           0        7.752800    3.108490    1.065980
     10          1           0        0.605670   -0.982520   -0.410940
     11          1           0        0.671190    0.759990   -0.749940
     12          1           0        0.656690    0.164980    0.947240
     13          1           0        2.998350    1.392670    1.362710
     14          1           0        2.958030    1.982750   -0.311850
     15          1           0        5.072330    0.088800    0.861450
     16          1           0        4.866550    1.354980   -1.794550
     17          1           0        4.693630   -0.231280   -1.435140
     18          1           0        5.288170    2.433590    1.716750
     19          1           0        5.301820    3.047760    0.079930
     20          1           0        7.411300    1.715930   -0.394190
     21          1           0        7.364210    1.105720    1.269350
     22          1           0        7.542820    3.811830    0.428280
 ---------------------------------------------------------------------
                    Distance matrix (angstroms):
                    1          2          3          4          5
     1  C    0.000000
     2  C    1.499819   0.000000
     3  O    2.371580   1.234347   0.000000
     4  C    2.581356   1.521245   2.420767   0.000000
     5  C    3.913062   2.526273   2.775012   1.535968   0.000000
     6  N    4.365067   2.975991   2.842697   2.477111   1.469116
     7  C    5.115632   3.887141   4.295335   2.536576   1.530213
     8  C    6.413100   5.051300   5.160424   3.893680   2.525970
     9  O    7.522593   6.255259   6.497789   4.944895   3.768408
    10  H    1.094463   2.121790   2.468823   3.493849   4.647355
    11  H    1.092215   2.132761   3.070683   2.843048   4.236211
    12  H    1.091303   2.133164   3.075058   2.862709   4.266611
    13  H    2.831268   2.133885   3.109192   1.096729   2.171167
    14  H    2.808662   2.141590   3.121370   1.096814   2.176436
    15  H    4.170643   2.740688   2.687157   2.156153   1.097983
    16  H    4.446127   3.257811   3.351823   2.663089   2.062925
    17  H    3.936102   2.575270   2.103722   2.653164   2.031745
    18  H    5.248348   4.169705   4.725962   2.763444   2.171417
    19  H    5.281427   4.211667   4.769280   2.789562   2.176502
    20  H    6.643280   5.239070   5.193603   4.239420   2.803506
    21  H    6.592770   5.184346   5.138959   4.198608   2.783339
    22  H    7.593563   6.396558   6.725767   5.032975   3.985321
                    6          7          8          9         10
     6  N    0.000000
     7  C    2.434968   0.000000
     8  C    2.908132   1.526581   0.000000
     9  O    4.205516   2.408602   1.422032   0.000000
    10  H    4.911172   5.980335   7.172734   8.366548   0.000000
    11  H    4.533782   5.293531   6.653687   7.678686   1.776388
    12  H    5.014511   5.310303   6.666016   7.683302   1.778767
    13  H    3.422356   2.767216   4.178057   5.063288   3.809499
    14  H    2.739794   2.799527   4.220850   5.114247   3.786323
    15  H    2.092201   2.147906   2.736836   4.042930   4.766315
    16  H    1.017745   2.705030   3.325570   4.425818   5.053057
    17  H    1.028486   3.322953   3.823182   5.173798   4.280743
    18  H    3.395103   1.097881   2.151296   2.636929   6.174357
    19  H    2.719630   1.098256   2.159108   2.642591   6.207893
    20  H    2.592631   2.186745   1.095006   2.046446   7.321101
    21  H    3.296081   2.169757   1.094657   2.050232   7.270625
    22  H    4.266965   2.581330   1.939348   0.972337   8.474322
                   11         12         13         14         15
    11  H    0.000000
    12  H    1.798518   0.000000
    13  H    3.206127   2.676417   0.000000
    14  H    2.629962   3.191514   1.775942   0.000000
    15  H    4.734671   4.417130   2.500546   3.071473   0.000000
    16  H    4.364203   5.162987   3.668771   2.496987   2.949558
    17  H    4.199064   4.704215   3.652280   3.029194   2.349509
    18  H    5.495635   5.214340   2.540105   3.122183   2.505228
    19  H    5.231186   5.535330   3.113008   2.604053   3.069020
    20  H    6.816851   7.059011   4.760811   4.462016   3.113674
    21  H    6.999541   6.780824   4.376276   4.762751   2.540319
    22  H    7.610600   7.809457   5.232371   4.991355   4.489088
                   16         17         18         19         20
    16  H    0.000000
    17  H    1.635634   0.000000
    18  H    3.697349   4.170062   0.000000
    19  H    2.562936   3.662982   1.748305   0.000000
    20  H    2.926952   3.501562   3.078763   2.539383   0.000000
    21  H    3.960798   4.029123   2.504665   3.072408   1.772552
    22  H    4.259050   5.285542   2.939923   2.393164   2.255338
                   21         22
    21  H    0.000000
    22  H    2.839425   0.000000
 Stoichiometry    C6H13NO2
 Framework group  C1[X(C6H13NO2)]
 Deg. of freedom    60
 Full point group                 C1      NOp   1
 Largest Abelian subgroup         C1      NOp   1
 Largest concise Abelian subgroup C1      NOp   1
                         Standard orientation:                         
 ---------------------------------------------------------------------
 Center     Atomic      Atomic             Coordinates (Angstroms)
 Number     Number       Type             X           Y           Z
 ---------------------------------------------------------------------
      1          6           0       -3.550129   -0.808664    0.137556
      2          6           0       -2.283894   -0.056568   -0.146088
      3          8           0       -2.335375    1.110113   -0.545862
      4          6           0       -0.969079   -0.775628    0.115447
      5          6           0        0.235182    0.131084   -0.179215
      6          7           0        0.220491    1.322463    0.680263
      7          6           0        1.560330   -0.604498    0.031632
      8          6           0        2.753231    0.286801   -0.304557
      9          8           0        3.959573   -0.437620   -0.099311
     10          1           0       -4.402157   -0.154922   -0.073439
     11          1           0       -3.581342   -1.094156    1.191337
     12          1           0       -3.610401   -1.687871   -0.506110
     13          1           0       -0.934145   -1.665348   -0.524860
     14          1           0       -0.951587   -1.106878    1.160898
     15          1           0        0.181798    0.459875   -1.225453
     16          1           0        0.185453    1.058839    1.662647
     17          1           0       -0.652446    1.831845    0.489752
     18          1           0        1.600040   -1.506174   -0.593466
     19          1           0        1.646662   -0.960720    1.066919
     20          1           0        2.784582    1.183920    0.322525
     21          1           0        2.714855    0.604802   -1.351303
     22          1           0        4.007820   -0.635554    0.851444
 ---------------------------------------------------------------------
 Rotational constants (GHZ):           4.5326345           0.6357102           0.5908336
 Standard basis: 6-31G(2df,p) (6D, 7F)
 There are   344 symmetry adapted cartesian basis functions of A   symmetry.
 There are   317 symmetry adapted basis functions of A   symmetry.
   317 basis functions,   487 primitive gaussians,   344 cartesian basis functions
    36 alpha electrons       36 beta electrons
       nuclear repulsion energy       466.8856732039 Hartrees.
 NAtoms=   22 NActive=   22 NUniq=   22 SFac= 1.00D+00 NAtFMM=   60 NAOKFM=F Big=F
 Integral buffers will be    131072 words long.
 Raffenetti 2 integral format.
 Two-electron integral symmetry is turned on.
 One-electron integrals computed using PRISM.
 PrsmSu:  requested number of processors reduced to:  13 ShMem   1 Linda.
 NBasis=   317 RedAO= T EigKep=  4.73D-04  NBF=   317
 NBsUse=   317 1.00D-06 EigRej= -1.00D+00 NBFU=   317
 ExpMin= 1.61D-01 ExpMax= 5.48D+03 ExpMxC= 8.25D+02 IAcc=3 IRadAn=         5 AccDes= 0.00D+00
 Harris functional with IExCor=  402 and IRadAn=       5 diagonalized for initial guess.
 HarFok:  IExCor=  402 AccDes= 0.00D+00 IRadAn=         5 IDoV= 1 UseB2=F ITyADJ=14
 ICtDFT=  3500011 ScaDFX=  1.000000  1.000000  1.000000  1.000000
 FoFCou: FMM=F IPFlag=           0 FMFlag=      100000 FMFlg1=           0
         NFxFlg=           0 DoJE=T BraDBF=F KetDBF=T FulRan=T
         wScrn=  0.000000 ICntrl=       500 IOpCl=  0 I1Cent=   200000004 NGrid=           0
         NMat0=    1 NMatS0=      1 NMatT0=    0 NMatD0=    1 NMtDS0=    0 NMtDT0=    0
 Petite list used in FoFCou.
 Requested convergence on RMS density matrix=1.00D-08 within 128 cycles.
 Requested convergence on MAX density matrix=1.00D-06.
 Requested convergence on             energy=1.00D-06.
 No special actions if energy rises.
 Integral accuracy reduced to 1.0D-05 until final iterations.
 Initial convergence to 1.0D-05 achieved.  Increase integral accuracy.
 SCF Done:  E(RB3LYP) =  -441.683237723     A.U. after   13 cycles
            NFock= 13  Conv=0.65D-08     -V/T= 2.0074

 **********************************************************************

            Population analysis using the SCF density.

 **********************************************************************

 Orbital symmetries:
       Occupied  (A) (A) (A) (A) (A) (A) (A) (A) (A) (A) (A) (A)
                 (A) (A) (A) (A) (A) (A) (A) (A) (A) (A) (A) (A)
                 (A) (A) (A) (A) (A) (A) (A) (A) (A) (A) (A) (A)
       Virtual   (A) (A) (A) (A) (A) (A) (A) (A) (A) (A) (A) (A)
                 (A) (A) (A) (A) (A) (A) (A) (A) (A) (A) (A) (A)
                 (A) (A) (A) (A) (A) (A) (A) (A) (A) (A) (A) (A)
                 (A) (A) (A) (A) (A) (A) (A) (A) (A) (A) (A) (A)
                 (A) (A) (A) (A) (A) (A) (A) (A) (A) (A) (A) (A)
                 (A) (A) (A) (A) (A) (A) (A) (A) (A) (A) (A) (A)
                 (A) (A) (A) (A) (A) (A) (A) (A) (A) (A) (A) (A)
                 (A) (A) (A) (A) (A) (A) (A) (A) (A) (A) (A) (A)
                 (A) (A) (A) (A) (A) (A) (A) (A) (A) (A) (A) (A)
                 (A) (A) (A) (A) (A) (A) (A) (A) (A) (A) (A) (A)
                 (A) (A) (A) (A) (A) (A) (A) (A) (A) (A) (A) (A)
                 (A) (A) (A) (A) (A) (A) (A) (A) (A) (A) (A) (A)
                 (A) (A) (A) (A) (A) (A) (A) (A) (A) (A) (A) (A)
                 (A) (A) (A) (A) (A) (A) (A) (A) (A) (A) (A) (A)
                 (A) (A) (A) (A) (A) (A) (A) (A) (A) (A) (A) (A)
                 (A) (A) (A) (A) (A) (A) (A) (A) (A) (A) (A) (A)
                 (A) (A) (A) (A) (A) (A) (A) (A) (A) (A) (A) (A)
                 (A) (A) (A) (A) (A) (A) (A) (A) (A) (A) (A) (A)
                 (A) (A) (A) (A) (A) (A) (A) (A) (A) (A) (A) (A)
                 (A) (A) (A) (A) (A) (A) (A) (A) (A) (A) (A) (A)
                 (A) (A) (A) (A) (A) (A) (A) (A) (A) (A) (A) (A)
                 (A) (A) (A) (A) (A) (A) (A) (A) (A) (A) (A) (A)
                 (A) (A) (A) (A) (A) (A) (A) (A) (A) (A) (A) (A)
                 (A) (A) (A) (A) (A)
 The electronic state is 1-A.
 Alpha  occ. eigenvalues --  -19.13841 -19.12072 -14.29701 -10.28057 -10.21220
 Alpha  occ. eigenvalues --  -10.21198 -10.19631 -10.19551 -10.17678  -1.03830
 Alpha  occ. eigenvalues --   -1.00117  -0.88138  -0.78098  -0.75295  -0.72019
 Alpha  occ. eigenvalues --   -0.63321  -0.58410  -0.53558  -0.50005  -0.48668
 Alpha  occ. eigenvalues --   -0.47658  -0.45770  -0.44735  -0.44035  -0.42335
 Alpha  occ. eigenvalues --   -0.40879  -0.39847  -0.38712  -0.37025  -0.35772
 Alpha  occ. eigenvalues --   -0.35007  -0.33853  -0.30839  -0.25911  -0.25649
 Alpha  occ. eigenvalues --   -0.22295
 Alpha virt. eigenvalues --   -0.02655   0.06889   0.08046   0.10229   0.11164
 Alpha virt. eigenvalues --    0.13567   0.14336   0.15085   0.15752   0.16303
 Alpha virt. eigenvalues --    0.17257   0.18006   0.19191   0.20155   0.21239
 Alpha virt. eigenvalues --    0.22583   0.24061   0.24963   0.26072   0.27047
 Alpha virt. eigenvalues --    0.32460   0.35264   0.42631   0.45888   0.46975
 Alpha virt. eigenvalues --    0.48701   0.49323   0.50874   0.51451   0.53231
 Alpha virt. eigenvalues --    0.54190   0.54997   0.56369   0.59011   0.61031
 Alpha virt. eigenvalues --    0.62412   0.63095   0.64226   0.65678   0.66945
 Alpha virt. eigenvalues --    0.67902   0.69714   0.69800   0.71337   0.73457
 Alpha virt. eigenvalues --    0.74161   0.74922   0.76346   0.77754   0.78072
 Alpha virt. eigenvalues --    0.79080   0.80457   0.81028   0.82120   0.83349
 Alpha virt. eigenvalues --    0.84253   0.85979   0.86376   0.88011   0.89426
 Alpha virt. eigenvalues --    0.90865   0.91740   0.92614   0.96120   0.97534
 Alpha virt. eigenvalues --    0.99221   1.00279   1.00671   1.04789   1.08765
 Alpha virt. eigenvalues --    1.10844   1.11274   1.14551   1.16858   1.19744
 Alpha virt. eigenvalues --    1.23043   1.25472   1.26068   1.26371   1.31160
 Alpha virt. eigenvalues --    1.33764   1.34201   1.36654   1.38061   1.38483
 Alpha virt. eigenvalues --    1.40429   1.41786   1.42977   1.44907   1.49067
 Alpha virt. eigenvalues --    1.52374   1.52647   1.56941   1.57846   1.59203
 Alpha virt. eigenvalues --    1.61753   1.64416   1.67076   1.67349   1.70323
 Alpha virt. eigenvalues --    1.72076   1.72865   1.78648   1.80463   1.80707
 Alpha virt. eigenvalues --    1.82947   1.84225   1.88428   1.89873   1.92542
 Alpha virt. eigenvalues --    1.93065   1.95802   1.99893   2.01626   2.11373
 Alpha virt. eigenvalues --    2.13392   2.15675   2.17232   2.19449   2.23738
 Alpha virt. eigenvalues --    2.28455   2.29353   2.34536   2.37868   2.39067
 Alpha virt. eigenvalues --    2.40073   2.41597   2.43033   2.48212   2.51173
 Alpha virt. eigenvalues --    2.53103   2.55793   2.59481   2.62528   2.68928
 Alpha virt. eigenvalues --    2.70579   2.73852   2.75891   2.76656   2.78657
 Alpha virt. eigenvalues --    2.80563   2.81680   2.81987   2.83517   2.84870
 Alpha virt. eigenvalues --    2.86278   2.88251   2.89788   2.89933   2.90822
 Alpha virt. eigenvalues --    2.92717   2.95642   2.97334   3.00616   3.01730
 Alpha virt. eigenvalues --    3.05546   3.06649   3.09443   3.12601   3.13625
 Alpha virt. eigenvalues --    3.16585   3.19211   3.22511   3.26529   3.27771
 Alpha virt. eigenvalues --    3.28032   3.30767   3.35747   3.38399   3.42334
 Alpha virt. eigenvalues --    3.44447   3.45366   3.48287   3.50557   3.52955
 Alpha virt. eigenvalues --    3.55619   3.57478   3.58443   3.63548   3.65879
 Alpha virt. eigenvalues --    3.67486   3.67949   3.71457   3.72881   3.75020
 Alpha virt. eigenvalues --    3.79214   3.83386   3.87247   3.91581   3.94588
 Alpha virt. eigenvalues --    3.97385   3.99886   4.07583   4.10631   4.15402
 Alpha virt. eigenvalues --    4.15969   4.17545   4.19604   4.24640   4.28162
 Alpha virt. eigenvalues --    4.28540   4.29614   4.31819   4.34192   4.36969
 Alpha virt. eigenvalues --    4.37626   4.39063   4.41158   4.42293   4.43986
 Alpha virt. eigenvalues --    4.45094   4.46173   4.52023   4.53727   4.55973
 Alpha virt. eigenvalues --    4.58434   4.58785   4.60277   4.61253   4.62408
 Alpha virt. eigenvalues --    4.63352   4.64140   4.65730   4.67955   4.69585
 Alpha virt. eigenvalues --    4.71148   4.73264   4.73865   4.76563   4.77507
 Alpha virt. eigenvalues --    4.78156   4.80917   4.82219   4.84396   4.85343
 Alpha virt. eigenvalues --    4.88960   4.90076   4.92475   4.95085   4.96631
 Alpha virt. eigenvalues --    4.98910   5.01994   5.03866   5.05978   5.09175
 Alpha virt. eigenvalues --    5.11595   5.17666   5.22141   5.23900   5.30517
 Alpha virt. eigenvalues --    5.31372   5.37937   5.45019   5.46313   5.47494
 Alpha virt. eigenvalues --    5.50172   5.51409   5.59819   5.62101   5.66621
 Alpha virt. eigenvalues --    5.67762   5.76449   5.97371   5.98314   6.04588
 Alpha virt. eigenvalues --    6.10964   6.15369   6.40960   6.55021   6.78957
 Alpha virt. eigenvalues --    7.02700  10.17240  10.84833  11.37776  11.56386
 Alpha virt. eigenvalues --   11.80170  12.20923  12.45827  13.03228  13.14437
 Alpha virt. eigenvalues --   13.30697
          Condensed to atoms (all electrons):
               1          2          3          4          5          6
     1  C    5.220433   0.357364  -0.056836  -0.126243   0.004297  -0.000207
     2  C    0.357364   4.303576   0.741786   0.291797  -0.019154   0.001541
     3  O   -0.056836   0.741786   7.687805  -0.089927   0.009736  -0.019273
     4  C   -0.126243   0.291797  -0.089927   5.373961   0.354365  -0.049833
     5  C    0.004297  -0.019154   0.009736   0.354365   4.760847   0.384704
     6  N   -0.000207   0.001541  -0.019273  -0.049833   0.384704   6.579802
     7  C   -0.000050   0.001443   0.000606  -0.023889   0.293932  -0.027975
     8  C    0.000001  -0.000064   0.000003   0.001984  -0.024073  -0.010554
     9  O   -0.000000   0.000000   0.000000  -0.000054   0.003377   0.000192
    10  H    0.346470  -0.007529   0.004454   0.005715  -0.000184   0.000022
    11  H    0.357517  -0.017806   0.000531   0.003921   0.000073   0.000071
    12  H    0.357751  -0.016447   0.000983   0.003614  -0.000057   0.000002
    13  H    0.001250  -0.014382   0.000230   0.322183  -0.018907   0.005343
    14  H    0.001449  -0.015551   0.000361   0.328991  -0.017151  -0.002537
    15  H    0.000451   0.001694   0.005617  -0.059544   0.369613  -0.027241
    16  H    0.000041   0.000919   0.000368  -0.007123  -0.056939   0.334615
    17  H    0.000830   0.002445   0.028275  -0.005613  -0.047818   0.339616
    18  H    0.000008   0.000257   0.000007  -0.000900  -0.022215   0.003432
    19  H    0.000003   0.000196  -0.000004  -0.007037  -0.014884  -0.006502
    20  H    0.000000   0.000017  -0.000000   0.000224   0.002481   0.013052
    21  H   -0.000000   0.000007  -0.000002  -0.000011  -0.001979   0.000171
    22  H    0.000000   0.000000   0.000000   0.000005  -0.000114   0.000022
               7          8          9         10         11         12
     1  C   -0.000050   0.000001  -0.000000   0.346470   0.357517   0.357751
     2  C    0.001443  -0.000064   0.000000  -0.007529  -0.017806  -0.016447
     3  O    0.000606   0.000003   0.000000   0.004454   0.000531   0.000983
     4  C   -0.023889   0.001984  -0.000054   0.005715   0.003921   0.003614
     5  C    0.293932  -0.024073   0.003377  -0.000184   0.000073  -0.000057
     6  N   -0.027975  -0.010554   0.000192   0.000022   0.000071   0.000002
     7  C    5.025568   0.409495  -0.048099   0.000000   0.000000  -0.000007
     8  C    0.409495   4.743678   0.351010  -0.000000  -0.000000   0.000000
     9  O   -0.048099   0.351010   7.852327   0.000000   0.000000   0.000000
    10  H    0.000000  -0.000000   0.000000   0.554158  -0.024434  -0.024172
    11  H    0.000000  -0.000000   0.000000  -0.024434   0.564874  -0.024710
    12  H   -0.000007   0.000000   0.000000  -0.024172  -0.024710   0.561264
    13  H   -0.001676  -0.000110  -0.000002  -0.000076  -0.000018   0.000997
    14  H   -0.004549  -0.000014  -0.000001  -0.000125   0.001174  -0.000158
    15  H   -0.045439  -0.004435   0.000052   0.000000   0.000000  -0.000021
    16  H   -0.004130   0.000069  -0.000027   0.000001  -0.000007   0.000000
    17  H    0.005359   0.000321  -0.000000  -0.000002  -0.000099  -0.000006
    18  H    0.353212  -0.029427   0.003344  -0.000000  -0.000000  -0.000001
    19  H    0.342546  -0.036986   0.000007   0.000000  -0.000001   0.000000
    20  H   -0.043627   0.371479  -0.029671  -0.000000  -0.000000   0.000000
    21  H   -0.031512   0.356610  -0.013255   0.000000  -0.000000   0.000000
    22  H   -0.002371  -0.068588   0.308882  -0.000000  -0.000000  -0.000000
              13         14         15         16         17         18
     1  C    0.001250   0.001449   0.000451   0.000041   0.000830   0.000008
     2  C   -0.014382  -0.015551   0.001694   0.000919   0.002445   0.000257
     3  O    0.000230   0.000361   0.005617   0.000368   0.028275   0.000007
     4  C    0.322183   0.328991  -0.059544  -0.007123  -0.005613  -0.000900
     5  C   -0.018907  -0.017151   0.369613  -0.056939  -0.047818  -0.022215
     6  N    0.005343  -0.002537  -0.027241   0.334615   0.339616   0.003432
     7  C   -0.001676  -0.004549  -0.045439  -0.004130   0.005359   0.353212
     8  C   -0.000110  -0.000014  -0.004435   0.000069   0.000321  -0.029427
     9  O   -0.000002  -0.000001   0.000052  -0.000027  -0.000000   0.003344
    10  H   -0.000076  -0.000125   0.000000   0.000001  -0.000002  -0.000000
    11  H   -0.000018   0.001174   0.000000  -0.000007  -0.000099  -0.000000
    12  H    0.000997  -0.000158  -0.000021   0.000000  -0.000006  -0.000001
    13  H    0.614710  -0.028672  -0.001013   0.000108   0.000006   0.003099
    14  H   -0.028672   0.608211   0.006135   0.005925  -0.000655  -0.000188
    15  H   -0.001013   0.006135   0.647745   0.007034  -0.004576  -0.002832
    16  H    0.000108   0.005925   0.007034   0.537951  -0.030533  -0.000174
    17  H    0.000006  -0.000655  -0.004576  -0.030533   0.467420  -0.000226
    18  H    0.003099  -0.000188  -0.002832  -0.000174  -0.000226   0.637536
    19  H   -0.000129   0.004619   0.006380   0.004614  -0.000173  -0.043227
    20  H   -0.000015  -0.000011  -0.000398  -0.000369  -0.000182   0.006178
    21  H   -0.000015   0.000006   0.004731   0.000025  -0.000062  -0.005750
    22  H   -0.000000  -0.000001   0.000024  -0.000006  -0.000001  -0.000270
              19         20         21         22
     1  C    0.000003   0.000000  -0.000000   0.000000
     2  C    0.000196   0.000017   0.000007   0.000000
     3  O   -0.000004  -0.000000  -0.000002   0.000000
     4  C   -0.007037   0.000224  -0.000011   0.000005
     5  C   -0.014884   0.002481  -0.001979  -0.000114
     6  N   -0.006502   0.013052   0.000171   0.000022
     7  C    0.342546  -0.043627  -0.031512  -0.002371
     8  C   -0.036986   0.371479   0.356610  -0.068588
     9  O    0.000007  -0.029671  -0.013255   0.308882
    10  H    0.000000  -0.000000   0.000000  -0.000000
    11  H   -0.000001  -0.000000  -0.000000  -0.000000
    12  H    0.000000   0.000000   0.000000  -0.000000
    13  H   -0.000129  -0.000015  -0.000015  -0.000000
    14  H    0.004619  -0.000011   0.000006  -0.000001
    15  H    0.006380  -0.000398   0.004731   0.000024
    16  H    0.004614  -0.000369   0.000025  -0.000006
    17  H   -0.000173  -0.000182  -0.000062  -0.000001
    18  H   -0.043227   0.006178  -0.005750  -0.000270
    19  H    0.670964  -0.005697   0.006046   0.006214
    20  H   -0.005697   0.623359  -0.042603  -0.005797
    21  H    0.006046  -0.042603   0.611799   0.007017
    22  H    0.006214  -0.005797   0.007017   0.477598
 Mulliken charges:
               1
     1  C   -0.464527
     2  C    0.387888
     3  O   -0.314721
     4  C   -0.316585
     5  C    0.040049
     6  N   -0.518463
     7  C   -0.198838
     8  C   -0.060399
     9  O   -0.428083
    10  H    0.145703
    11  H    0.138913
    12  H    0.140969
    13  H    0.117091
    14  H    0.112741
    15  H    0.096023
    16  H    0.207636
    17  H    0.245674
    18  H    0.098137
    19  H    0.073048
    20  H    0.111579
    21  H    0.108779
    22  H    0.277387
 Sum of Mulliken charges =  -0.00000
 Mulliken charges with hydrogens summed into heavy atoms:
               1
     1  C   -0.038942
     2  C    0.387888
     3  O   -0.314721
     4  C   -0.086754
     5  C    0.136072
     6  N   -0.065153
     7  C   -0.027653
     8  C    0.159959
     9  O   -0.150696
 Electronic spatial extent (au):  <R**2>=           1903.2656
 Charge=             -0.0000 electrons
 Dipole moment (field-independent basis, Debye):
    X=             -2.3307    Y=             -2.7166    Z=              2.1441  Tot=              4.1724
 Quadrupole moment (field-independent basis, Debye-Ang):
   XX=            -62.2419   YY=            -58.6612   ZZ=            -51.0445
   XY=              4.9318   XZ=              2.5717   YZ=              0.3389
 Traceless Quadrupole moment (field-independent basis, Debye-Ang):
   XX=             -4.9260   YY=             -1.3454   ZZ=              6.2714
   XY=              4.9318   XZ=              2.5717   YZ=              0.3389
 Octapole moment (field-independent basis, Debye-Ang**2):
  XXX=            -45.8635  YYY=             -1.2235  ZZZ=              4.4053  XYY=              1.4757
  XXY=             -8.3196  XXZ=             27.2562  XZZ=              8.2698  YZZ=              0.5730
  YYZ=              0.4498  XYZ=             -9.3820
 Hexadecapole moment (field-independent basis, Debye-Ang**3):
 XXXX=          -2115.9172 YYYY=           -294.2702 ZZZZ=           -119.0251 XXXY=             28.8994
 XXXZ=             94.3869 YYYX=            -16.9435 YYYZ=              3.4478 ZZZX=              5.5802
 ZZZY=              0.1938 XXYY=           -386.3112 XXZZ=           -319.4949 YYZZ=            -66.8609
 XXYZ=            -10.3225 YYXZ=              0.8247 ZZXY=             -4.2906
 N-N= 4.668856732039D+02 E-N=-1.964468251022D+03  KE= 4.384320275893D+02
 PrsmSu:  requested number of processors reduced to:  13 ShMem   1 Linda.
 Calling FoFJK, ICntrl=      2127 FMM=F ISym2X=0 I1Cent= 0 IOpClX= 0 NMat=1 NMatS=1 NMatT=0.
 ***** Axes restored to original set *****
 -------------------------------------------------------------------
 Center     Atomic                   Forces (Hartrees/Bohr)
 Number     Number              X              Y              Z
 -------------------------------------------------------------------
      1        6          -0.003407674   -0.009370048   -0.002211240
      2        6           0.012475479   -0.025388545   -0.012046435
      3        8          -0.012611855    0.024279084    0.011399731
      4        6           0.006222353   -0.011209897    0.005188437
      5        6          -0.003719289    0.011554733   -0.011496894
      6        7           0.000583012   -0.015711918   -0.004663039
      7        6          -0.000384555   -0.008759362    0.003637146
      8        6           0.001363520    0.014177242   -0.005507738
      9        8           0.004495294    0.008132101    0.002141605
     10        1           0.000125405    0.001707983    0.000960313
     11        1          -0.002826755    0.004086695    0.003072673
     12        1          -0.003574339    0.005023853    0.000435478
     13        1          -0.004374980    0.002914954    0.000355932
     14        1          -0.001378434    0.001648637    0.001639249
     15        1          -0.000670967   -0.000420910   -0.003159922
     16        1           0.000041129    0.001875916    0.002661209
     17        1           0.007412773    0.008577814    0.002845412
     18        1           0.001226045   -0.000861615   -0.000051524
     19        1          -0.000339614   -0.000417322   -0.003158388
     20        1          -0.005248629   -0.006585008   -0.000581954
     21        1           0.001639032    0.002196146    0.001713602
     22        1           0.002953052   -0.007450535    0.006826349
 -------------------------------------------------------------------
 Cartesian Forces:  Max     0.025388545 RMS     0.007340472

 GradGradGradGradGradGradGradGradGradGradGradGradGradGradGradGradGradGrad
 Berny optimization.
 FormGI is forming the generalized inverse of G from B-inverse, IUseBI=4.
 Internal  Forces:  Max     0.029503342 RMS     0.005253879
 Search for a local minimum.
 Step number   1 out of a maximum of  116
 All quantities printed in internal units (Hartrees-Bohrs-Radians)
 Mixed Optimization -- RFO/linear search
 Second derivative matrix not updated -- first step.
 ITU=  0
     Eigenvalues ---    0.00290   0.00366   0.00414   0.00485   0.00625
     Eigenvalues ---    0.00768   0.00778   0.01400   0.03612   0.04066
     Eigenvalues ---    0.04183   0.04527   0.04664   0.04839   0.05142
     Eigenvalues ---    0.05330   0.05648   0.05921   0.07427   0.07658
     Eigenvalues ---    0.08203   0.09179   0.11507   0.12100   0.12669
     Eigenvalues ---    0.13765   0.16000   0.16000   0.16000   0.16000
     Eigenvalues ---    0.16000   0.16000   0.16653   0.17792   0.21835
     Eigenvalues ---    0.21970   0.21988   0.24989   0.25000   0.28879
     Eigenvalues ---    0.29404   0.29741   0.30247   0.32396   0.33876
     Eigenvalues ---    0.33906   0.33918   0.34037   0.34046   0.34241
     Eigenvalues ---    0.34280   0.34302   0.34558   0.34662   0.35846
     Eigenvalues ---    0.42156   0.43011   0.44700   0.52902   0.89299
 RFO step:  Lambda=-1.32397606D-02 EMin= 2.90160912D-03
 Linear search not attempted -- first point.
 Iteration  1 RMS(Cart)=  0.13908628 RMS(Int)=  0.00441001
 Iteration  2 RMS(Cart)=  0.00938035 RMS(Int)=  0.00057617
 Iteration  3 RMS(Cart)=  0.00002052 RMS(Int)=  0.00057605
 Iteration  4 RMS(Cart)=  0.00000000 RMS(Int)=  0.00057605
 Variable       Old X    -DE/DX   Delta X   Delta X   Delta X     New X
                                 (Linear)    (Quad)   (Total)
    R1        2.83425   0.00976   0.00000   0.02895   0.02895   2.86320
    R2        2.06823  -0.00184   0.00000  -0.00517  -0.00517   2.06306
    R3        2.06399   0.00189   0.00000   0.00527   0.00527   2.06925
    R4        2.06226   0.00243   0.00000   0.00674   0.00674   2.06901
    R5        2.33258  -0.02950   0.00000  -0.03256  -0.03256   2.30002
    R6        2.87474   0.00423   0.00000   0.01341   0.01341   2.88815
    R7        2.90256   0.00896   0.00000   0.02968   0.02968   2.93224
    R8        2.07252   0.00207   0.00000   0.00586   0.00586   2.07838
    R9        2.07268   0.00069   0.00000   0.00195   0.00195   2.07463
   R10        2.77623   0.00247   0.00000   0.00665   0.00665   2.78288
   R11        2.89168   0.00476   0.00000   0.01550   0.01550   2.90718
   R12        2.07489  -0.00168   0.00000  -0.00477  -0.00477   2.07011
   R13        1.92326  -0.00034   0.00000  -0.00074  -0.00074   1.92252
   R14        1.94356  -0.01148   0.00000  -0.02589  -0.02589   1.91766
   R15        2.88482   0.00335   0.00000   0.01080   0.01080   2.89562
   R16        2.07469  -0.00056   0.00000  -0.00160  -0.00160   2.07309
   R17        2.07540   0.00150   0.00000   0.00425   0.00425   2.07965
   R18        2.68725   0.00691   0.00000   0.01589   0.01589   2.70314
   R19        2.06926   0.00027   0.00000   0.00076   0.00076   2.07002
   R20        2.06860  -0.00023   0.00000  -0.00064  -0.00064   2.06796
   R21        1.83745  -0.01050   0.00000  -0.01937  -0.01937   1.81808
    A1        1.89785   0.00116   0.00000   0.01477   0.01451   1.91237
    A2        1.91523   0.00214   0.00000   0.00833   0.00822   1.92345
    A3        1.91674   0.00314   0.00000   0.01392   0.01379   1.93053
    A4        1.89640   0.00024   0.00000   0.00973   0.00952   1.90592
    A5        1.90131  -0.00035   0.00000   0.00593   0.00565   1.90696
    A6        1.93574  -0.00625   0.00000  -0.05153  -0.05152   1.88422
    A7        2.09440   0.00271   0.00000   0.01093   0.01002   2.10442
    A8        2.04896  -0.00320   0.00000  -0.01155  -0.01244   2.03652
    A9        2.13945   0.00053   0.00000   0.00262   0.00173   2.14117
   A10        1.94511   0.01889   0.00000   0.09271   0.09192   2.03703
   A11        1.88664  -0.00840   0.00000  -0.04125  -0.04239   1.84425
   A12        1.89696  -0.00457   0.00000  -0.00722  -0.00828   1.88868
   A13        1.91975  -0.00152   0.00000   0.00561   0.00589   1.92564
   A14        1.92691  -0.00520   0.00000  -0.01486  -0.01568   1.91123
   A15        1.88702   0.00020   0.00000  -0.03947  -0.04015   1.84687
   A16        1.93761   0.01036   0.00000   0.07654   0.07676   2.01437
   A17        1.94848  -0.00628   0.00000  -0.02126  -0.02283   1.92565
   A18        1.89806  -0.00163   0.00000  -0.02452  -0.02455   1.87351
   A19        1.89429  -0.00099   0.00000   0.01033   0.00982   1.90411
   A20        1.89034  -0.00387   0.00000  -0.03066  -0.03014   1.86020
   A21        1.89373   0.00231   0.00000  -0.01276  -0.01338   1.88035
   A22        1.93370  -0.00492   0.00000  -0.02535  -0.02527   1.90843
   A23        1.87734   0.00282   0.00000   0.01955   0.01963   1.89696
   A24        1.85237   0.00171   0.00000   0.01677   0.01693   1.86930
   A25        1.94518   0.01071   0.00000   0.04674   0.04687   1.99204
   A26        1.92588  -0.00253   0.00000  -0.00831  -0.00821   1.91767
   A27        1.93251  -0.00445   0.00000  -0.02244  -0.02250   1.91002
   A28        1.90272  -0.00437   0.00000  -0.02076  -0.02078   1.88194
   A29        1.91298  -0.00264   0.00000  -0.00776  -0.00761   1.90537
   A30        1.84159   0.00272   0.00000   0.01006   0.00984   1.85142
   A31        1.91100   0.01129   0.00000   0.05544   0.05479   1.96579
   A32        1.95476  -0.00714   0.00000  -0.02887  -0.03135   1.92341
   A33        1.93136  -0.00121   0.00000  -0.02152  -0.02147   1.90989
   A34        1.88643   0.00373   0.00000   0.06755   0.06711   1.95354
   A35        1.89204  -0.00795   0.00000  -0.05854  -0.05757   1.83447
   A36        1.88663   0.00113   0.00000  -0.01435  -0.01463   1.87200
   A37        1.86181   0.00082   0.00000   0.00475   0.00475   1.86656
    D1        0.00311  -0.00066   0.00000  -0.03583  -0.03594  -0.03282
    D2        3.11617   0.00082   0.00000   0.04092   0.04099  -3.12602
    D3       -2.06898  -0.00289   0.00000  -0.06127  -0.06145  -2.13043
    D4        1.04408  -0.00141   0.00000   0.01548   0.01547   1.05955
    D5        2.08204   0.00146   0.00000  -0.01154  -0.01151   2.07053
    D6       -1.08808   0.00294   0.00000   0.06521   0.06541  -1.02267
    D7       -3.11138   0.00007   0.00000  -0.02352  -0.02410  -3.13547
    D8        1.06019  -0.00419   0.00000  -0.06068  -0.05981   1.00038
    D9       -0.98399   0.00263   0.00000   0.01261   0.01260  -0.97139
   D10        0.00089   0.00163   0.00000   0.05550   0.05473   0.05562
   D11       -2.11073  -0.00264   0.00000   0.01834   0.01902  -2.09171
   D12        2.12828   0.00419   0.00000   0.09163   0.09143   2.21970
   D13        1.06295   0.00151   0.00000   0.05345   0.05309   1.11603
   D14       -3.10402   0.00313   0.00000   0.10534   0.10491  -2.99912
   D15       -1.01514   0.00106   0.00000   0.06046   0.06040  -0.95474
   D16       -3.12808   0.00216   0.00000   0.06529   0.06561  -3.06247
   D17       -1.01187   0.00378   0.00000   0.11718   0.11743  -0.89444
   D18        1.07702   0.00170   0.00000   0.07230   0.07292   1.14994
   D19       -1.04701  -0.00179   0.00000   0.01072   0.01053  -1.03648
   D20        1.06921  -0.00018   0.00000   0.06261   0.06235   1.13155
   D21       -3.12509  -0.00225   0.00000   0.01773   0.01784  -3.10725
   D22        0.97129  -0.00087   0.00000   0.01041   0.01113   0.98242
   D23       -1.04616  -0.00191   0.00000  -0.00732  -0.00651  -1.05267
   D24       -1.17645   0.00094   0.00000  -0.01969  -0.02038  -1.19683
   D25        3.08928  -0.00010   0.00000  -0.03742  -0.03802   3.05127
   D26        3.05401   0.00087   0.00000   0.00672   0.00656   3.06056
   D27        1.03656  -0.00016   0.00000  -0.01101  -0.01108   1.02548
   D28        3.11037  -0.00492   0.00000  -0.07140  -0.07100   3.03937
   D29        0.99378  -0.00485   0.00000  -0.07083  -0.07052   0.92326
   D30       -1.03855  -0.00397   0.00000  -0.06461  -0.06442  -1.10297
   D31       -1.03163   0.00333   0.00000   0.01813   0.01801  -1.01362
   D32        3.13496   0.00340   0.00000   0.01870   0.01848  -3.12974
   D33        1.10263   0.00428   0.00000   0.02491   0.02459   1.12722
   D34        1.01893  -0.00054   0.00000  -0.01971  -0.01969   0.99924
   D35       -1.09766  -0.00047   0.00000  -0.01914  -0.01922  -1.11688
   D36       -3.12999   0.00040   0.00000  -0.01293  -0.01312   3.14008
   D37       -3.13789   0.00351   0.00000   0.05819   0.05825  -3.07964
   D38        1.05303  -0.00416   0.00000  -0.04516  -0.04462   1.00840
   D39       -1.05337   0.00008   0.00000   0.00763   0.00734  -1.04603
   D40       -1.00786   0.00435   0.00000   0.06414   0.06401  -0.94385
   D41       -3.10014  -0.00332   0.00000  -0.03921  -0.03886  -3.13899
   D42        1.07666   0.00092   0.00000   0.01358   0.01310   1.08976
   D43        0.99982   0.00374   0.00000   0.06041   0.06035   1.06017
   D44       -1.09245  -0.00393   0.00000  -0.04294  -0.04252  -1.13497
   D45        3.08434   0.00031   0.00000   0.00985   0.00944   3.09378
   D46       -1.12281  -0.00034   0.00000  -0.03481  -0.03685  -1.15966
   D47        1.01085   0.00015   0.00000   0.00585   0.00824   1.01909
   D48        3.05181  -0.00076   0.00000  -0.00604  -0.00639   3.04542
         Item               Value     Threshold  Converged?
 Maximum Force            0.029503     0.000450     NO 
 RMS     Force            0.005254     0.000300     NO 
 Maximum Displacement     0.424665     0.001800     NO 
 RMS     Displacement     0.137946     0.001200     NO 
 Predicted change in Energy=-7.643495D-03
 GradGradGradGradGradGradGradGradGradGradGradGradGradGradGradGradGradGrad

                          Input orientation:                          
 ---------------------------------------------------------------------
 Center     Atomic      Atomic             Coordinates (Angstroms)
 Number     Number       Type             X           Y           Z
 ---------------------------------------------------------------------
      1          6           0        0.935781    0.011605    0.042838
      2          6           0        2.436091   -0.156478   -0.085495
      3          8           0        2.915532   -1.237315   -0.374124
      4          6           0        3.293349    1.069372    0.227919
      5          6           0        4.829486    0.900385    0.088585
      6          7           0        5.312907    0.613875   -1.272616
      7          6           0        5.555305    2.144504    0.629021
      8          6           0        7.081572    2.013438    0.664491
      9          8           0        7.718617    3.154263    1.246605
     10          1           0        0.440676   -0.932962   -0.190683
     11          1           0        0.581357    0.784259   -0.647393
     12          1           0        0.667838    0.318218    1.059174
     13          1           0        3.032511    1.359162    1.256324
     14          1           0        2.956120    1.896274   -0.410653
     15          1           0        5.121877    0.047107    0.710238
     16          1           0        4.996245    1.346215   -1.903814
     17          1           0        4.895166   -0.254807   -1.589901
     18          1           0        5.213164    2.362518    1.648282
     19          1           0        5.281859    3.020631    0.021781
     20          1           0        7.466116    1.797374   -0.338187
     21          1           0        7.359866    1.172525    1.307105
     22          1           0        7.563563    3.895346    0.653003
 ---------------------------------------------------------------------
                    Distance matrix (angstroms):
                    1          2          3          4          5
     1  C    0.000000
     2  C    1.515141   0.000000
     3  O    2.377620   1.217119   0.000000
     4  C    2.590609   1.528342   2.413712   0.000000
     5  C    3.994116   2.622137   2.906386   1.551673   0.000000
     6  N    4.610030   3.206052   3.159366   2.556893   1.472634
     7  C    5.121804   3.941389   4.405837   2.536383   1.538414
     8  C    6.493423   5.181845   5.385351   3.928421   2.577294
     9  O    7.571804   6.374996   6.706887   4.996748   3.842922
    10  H    1.091727   2.143752   2.500239   3.510315   4.764536
    11  H    1.095002   2.154240   3.099969   2.863976   4.312974
    12  H    1.094872   2.159241   3.086447   2.854562   4.312804
    13  H    2.772136   2.110299   3.068182   1.099832   2.191623
    14  H    2.799893   2.142417   3.134065   1.097845   2.179572
    15  H    4.239114   2.808574   2.773723   2.149691   1.095457
    16  H    4.696595   3.481201   3.652936   2.742405   2.048469
    17  H    4.291101   2.884434   2.522377   2.761113   2.038651
    18  H    5.138117   4.130794   4.725255   2.715759   2.172026
    19  H    5.286121   4.266606   4.887366   2.793578   2.168997
    20  H    6.780813   5.402087   5.469775   4.273458   2.817541
    21  H    6.649434   5.286695   5.327847   4.208544   2.821643
    22  H    7.706053   6.576750   7.000242   5.138245   4.094330
                    6          7          8          9         10
     6  N    0.000000
     7  C    2.453122   0.000000
     8  C    2.973103   1.532295   0.000000
     9  O    4.311321   2.465956   1.430441   0.000000
    10  H    5.225124   6.025126   7.315333   8.469925   0.000000
    11  H    4.775719   5.312218   6.744236   7.755297   1.782476
    12  H    5.205893   5.235235   6.645715   7.602090   1.783030
    13  H    3.485857   2.715651   4.144060   5.018174   3.750370
    14  H    2.818150   2.810392   4.264858   5.197155   3.792153
    15  H    2.071094   2.143252   2.776500   4.084748   4.866810
    16  H    1.017353   2.713865   3.374902   4.539326   5.374260
    17  H    1.014783   3.334080   3.873963   5.257318   4.718071
    18  H    3.405781   1.097034   2.140246   2.658101   6.084292
    19  H    2.732929   1.100505   2.160203   2.730538   6.254046
    20  H    2.628714   2.169605   1.095409   2.101539   7.538786
    21  H    3.340224   2.158930   1.094319   2.014857   7.385907
    22  H    4.420579   2.664418   1.942685   0.962086   8.646380
                   11         12         13         14         15
    11  H    0.000000
    12  H    1.771171   0.000000
    13  H    3.156392   2.591161   0.000000
    14  H    2.632892   3.144342   1.753037   0.000000
    15  H    4.796131   4.475904   2.526885   3.060444   0.000000
    16  H    4.624459   5.345202   3.720604   2.587316   2.921768
    17  H    4.536180   5.021580   3.765021   3.126928   2.330920
    18  H    5.405058   5.018585   2.432200   3.090443   2.499877
    19  H    5.248226   5.446872   3.056818   2.619206   3.056371
    20  H    6.965767   7.096274   4.731949   4.511662   3.107745
    21  H    7.065337   6.750892   4.331675   4.781995   2.575152
    22  H    7.753779   7.778936   5.227490   5.133828   4.557856
                   16         17         18         19         20
    16  H    0.000000
    17  H    1.634635   0.000000
    18  H    3.700988   4.175804   0.000000
    19  H    2.567715   3.670905   1.755943   0.000000
    20  H    2.958884   3.519661   3.056344   2.529211   0.000000
    21  H    3.990848   4.062593   2.478067   3.063603   1.763153
    22  H    4.430181   5.419846   2.977335   2.523835   2.322378
                   21         22
    21  H    0.000000
    22  H    2.807686   0.000000
 Stoichiometry    C6H13NO2
 Framework group  C1[X(C6H13NO2)]
 Deg. of freedom    60
 Full point group                 C1      NOp   1
 Largest Abelian subgroup         C1      NOp   1
 Largest concise Abelian subgroup C1      NOp   1
                         Standard orientation:                         
 ---------------------------------------------------------------------
 Center     Atomic      Atomic             Coordinates (Angstroms)
 Number     Number       Type             X           Y           Z
 ---------------------------------------------------------------------
      1          6           0       -3.558623   -0.934581    0.155810
      2          6           0       -2.355825   -0.063234   -0.143662
      3          8           0       -2.494986    1.022451   -0.675922
      4          6           0       -0.984364   -0.646624    0.194834
      5          6           0        0.247412    0.248494   -0.103801
      6          7           0        0.322967    1.498583    0.670939
      7          6           0        1.548223   -0.547804    0.097483
      8          6           0        2.816135    0.209883   -0.310236
      9          8           0        3.997459   -0.587186   -0.186475
     10          1           0       -4.470598   -0.414529   -0.143716
     11          1           0       -3.606603   -1.157935    1.226716
     12          1           0       -3.490509   -1.884457   -0.384413
     13          1           0       -0.916189   -1.590073   -0.366314
     14          1           0       -0.983863   -0.928783    1.255800
     15          1           0        0.192941    0.537497   -1.159044
     16          1           0        0.297737    1.281344    1.664507
     17          1           0       -0.498826    2.057826    0.466763
     18          1           0        1.510509   -1.477022   -0.484425
     19          1           0        1.632144   -0.851664    1.151873
     20          1           0        2.894106    1.146886    0.251784
     21          1           0        2.758487    0.471544   -1.371247
     22          1           0        4.122360   -0.759646    0.751751
 ---------------------------------------------------------------------
 Rotational constants (GHZ):           4.1437571           0.6118254           0.5670544
 Standard basis: 6-31G(2df,p) (6D, 7F)
 There are   344 symmetry adapted cartesian basis functions of A   symmetry.
 There are   317 symmetry adapted basis functions of A   symmetry.
   317 basis functions,   487 primitive gaussians,   344 cartesian basis functions
    36 alpha electrons       36 beta electrons
       nuclear repulsion energy       460.2045125451 Hartrees.
 NAtoms=   22 NActive=   22 NUniq=   22 SFac= 1.00D+00 NAtFMM=   60 NAOKFM=F Big=F
 Integral buffers will be    131072 words long.
 Raffenetti 2 integral format.
 Two-electron integral symmetry is turned on.
 One-electron integrals computed using PRISM.
 PrsmSu:  requested number of processors reduced to:  13 ShMem   1 Linda.
 NBasis=   317 RedAO= T EigKep=  4.96D-04  NBF=   317
 NBsUse=   317 1.00D-06 EigRej= -1.00D+00 NBFU=   317
 Initial guess from the checkpoint file:  "CCpdOpCCpNpCCO.chk"
 B after Tr=     0.000000    0.000000   -0.000000
         Rot=    0.999504    0.031357   -0.002988    0.000553 Ang=   3.61 deg.
 ExpMin= 1.61D-01 ExpMax= 5.48D+03 ExpMxC= 8.25D+02 IAcc=2 IRadAn=         4 AccDes= 0.00D+00
 Harris functional with IExCor=  402 and IRadAn=       4 diagonalized for initial guess.
 HarFok:  IExCor=  402 AccDes= 0.00D+00 IRadAn=         4 IDoV= 1 UseB2=F ITyADJ=14
 ICtDFT=  3500011 ScaDFX=  1.000000  1.000000  1.000000  1.000000
 FoFCou: FMM=F IPFlag=           0 FMFlag=      100000 FMFlg1=           0
         NFxFlg=           0 DoJE=T BraDBF=F KetDBF=T FulRan=T
         wScrn=  0.000000 ICntrl=       500 IOpCl=  0 I1Cent=   200000004 NGrid=           0
         NMat0=    1 NMatS0=      1 NMatT0=    0 NMatD0=    1 NMtDS0=    0 NMtDT0=    0
 Petite list used in FoFCou.
 Requested convergence on RMS density matrix=1.00D-08 within 128 cycles.
 Requested convergence on MAX density matrix=1.00D-06.
 Requested convergence on             energy=1.00D-06.
 No special actions if energy rises.
 Integral accuracy reduced to 1.0D-05 until final iterations.
 Initial convergence to 1.0D-05 achieved.  Increase integral accuracy.
 SCF Done:  E(RB3LYP) =  -441.687804456     A.U. after   13 cycles
            NFock= 13  Conv=0.18D-08     -V/T= 2.0076
 PrsmSu:  requested number of processors reduced to:  13 ShMem   1 Linda.
 Calling FoFJK, ICntrl=      2127 FMM=F ISym2X=0 I1Cent= 0 IOpClX= 0 NMat=1 NMatS=1 NMatT=0.
 ***** Axes restored to original set *****
 -------------------------------------------------------------------
 Center     Atomic                   Forces (Hartrees/Bohr)
 Number     Number              X              Y              Z
 -------------------------------------------------------------------
      1        6          -0.001284318   -0.000440642   -0.002109563
      2        6           0.007353961   -0.010143221    0.001418104
      3        8           0.000599511    0.008607699   -0.000473917
      4        6           0.002401297   -0.001681509   -0.002300003
      5        6          -0.000298986    0.000547972    0.000028427
      6        7          -0.003900666   -0.000180581    0.004112759
      7        6          -0.000381007    0.001096123    0.002541206
      8        6           0.001235800    0.001332112    0.002434778
      9        8          -0.003818264   -0.003489449   -0.002882198
     10        1           0.000741225    0.000322954    0.000156635
     11        1          -0.000961034    0.001417093    0.001129991
     12        1          -0.000180658    0.001605922   -0.000194107
     13        1           0.000614298    0.001938780   -0.000241025
     14        1          -0.001421903    0.001644622    0.000306594
     15        1           0.000037557   -0.001868851   -0.000593811
     16        1          -0.000267584   -0.000397724   -0.000841079
     17        1          -0.000806250   -0.000696153   -0.000549937
     18        1          -0.000712313   -0.000029036   -0.000480671
     19        1          -0.000227832    0.000302095   -0.001087722
     20        1           0.000366820    0.000296721   -0.000541928
     21        1           0.000349821   -0.001032639    0.000017896
     22        1           0.000560527    0.000847714    0.000149571
 -------------------------------------------------------------------
 Cartesian Forces:  Max     0.010143221 RMS     0.002355132

 GradGradGradGradGradGradGradGradGradGradGradGradGradGradGradGradGradGrad
 Berny optimization.
 Using GEDIIS/GDIIS optimizer.
 FormGI is forming the generalized inverse of G from B-inverse, IUseBI=4.
 Internal  Forces:  Max     0.010819482 RMS     0.002149086
 Search for a local minimum.
 Step number   2 out of a maximum of  116
 All quantities printed in internal units (Hartrees-Bohrs-Radians)
 Mixed Optimization -- RFO/linear search
 Update second derivatives using D2CorX and points    1    2
 DE= -4.57D-03 DEPred=-7.64D-03 R= 5.97D-01
 TightC=F SS=  1.41D+00  RLast= 3.94D-01 DXNew= 5.0454D-01 1.1823D+00
 Trust test= 5.97D-01 RLast= 3.94D-01 DXMaxT set to 5.05D-01
 ITU=  1  0
 Use linear search instead of GDIIS.
     Eigenvalues ---    0.00311   0.00367   0.00415   0.00487   0.00673
     Eigenvalues ---    0.00768   0.00778   0.01400   0.03402   0.03585
     Eigenvalues ---    0.03742   0.04512   0.04769   0.04809   0.04957
     Eigenvalues ---    0.05259   0.05854   0.05969   0.07253   0.07426
     Eigenvalues ---    0.08607   0.10051   0.11674   0.12392   0.13322
     Eigenvalues ---    0.13789   0.15727   0.16000   0.16000   0.16000
     Eigenvalues ---    0.16000   0.16044   0.17231   0.18361   0.21612
     Eigenvalues ---    0.21989   0.23946   0.24965   0.26163   0.29327
     Eigenvalues ---    0.29683   0.29908   0.31987   0.32234   0.33861
     Eigenvalues ---    0.33916   0.33950   0.34028   0.34108   0.34245
     Eigenvalues ---    0.34288   0.34321   0.34542   0.34651   0.36371
     Eigenvalues ---    0.42534   0.43423   0.44705   0.52741   0.85067
 RFO step:  Lambda=-1.75962197D-03 EMin= 3.11162273D-03
 Quartic linear search produced a step of -0.21431.
 Iteration  1 RMS(Cart)=  0.07197209 RMS(Int)=  0.00322013
 Iteration  2 RMS(Cart)=  0.00404591 RMS(Int)=  0.00051846
 Iteration  3 RMS(Cart)=  0.00001125 RMS(Int)=  0.00051842
 Iteration  4 RMS(Cart)=  0.00000001 RMS(Int)=  0.00051842
 Variable       Old X    -DE/DX   Delta X   Delta X   Delta X     New X
                                 (Linear)    (Quad)   (Total)
    R1        2.86320   0.00190  -0.00621   0.01610   0.00989   2.87309
    R2        2.06306  -0.00065   0.00111  -0.00354  -0.00243   2.06063
    R3        2.06925   0.00060  -0.00113   0.00345   0.00232   2.07157
    R4        2.06901   0.00031  -0.00145   0.00339   0.00194   2.07095
    R5        2.30002  -0.00730   0.00698  -0.01948  -0.01250   2.28752
    R6        2.88815  -0.00460  -0.00287  -0.00664  -0.00951   2.87863
    R7        2.93224  -0.00763  -0.00636  -0.00902  -0.01538   2.91686
    R8        2.07838   0.00014  -0.00126   0.00265   0.00139   2.07977
    R9        2.07463   0.00150  -0.00042   0.00423   0.00381   2.07844
   R10        2.78288  -0.00390  -0.00142  -0.00592  -0.00734   2.77554
   R11        2.90718  -0.00174  -0.00332   0.00150  -0.00182   2.90536
   R12        2.07011   0.00113   0.00102   0.00072   0.00175   2.07186
   R13        1.92252   0.00032   0.00016   0.00027   0.00043   1.92295
   R14        1.91766   0.00110   0.00555  -0.00829  -0.00274   1.91492
   R15        2.89562  -0.00114  -0.00231   0.00125  -0.00106   2.89456
   R16        2.07309  -0.00023   0.00034  -0.00117  -0.00083   2.07227
   R17        2.07965   0.00090  -0.00091   0.00377   0.00286   2.08251
   R18        2.70314  -0.00467  -0.00341  -0.00239  -0.00580   2.69734
   R19        2.07002   0.00057  -0.00016   0.00160   0.00144   2.07146
   R20        2.06796   0.00089   0.00014   0.00179   0.00193   2.06989
   R21        1.81808   0.00047   0.00415  -0.00703  -0.00288   1.81520
    A1        1.91237  -0.00054  -0.00311   0.00519   0.00210   1.91447
    A2        1.92345   0.00146  -0.00176   0.00973   0.00797   1.93142
    A3        1.93053  -0.00009  -0.00296   0.00330   0.00038   1.93090
    A4        1.90592   0.00033  -0.00204   0.00840   0.00636   1.91228
    A5        1.90696   0.00061  -0.00121   0.00612   0.00496   1.91192
    A6        1.88422  -0.00177   0.01104  -0.03310  -0.02206   1.86216
    A7        2.10442   0.00505  -0.00215   0.02167   0.01672   2.12114
    A8        2.03652  -0.00117   0.00267  -0.00676  -0.00678   2.02973
    A9        2.14117  -0.00382  -0.00037  -0.00955  -0.01250   2.12867
   A10        2.03703  -0.01082  -0.01970  -0.00363  -0.02311   2.01392
   A11        1.84425   0.00520   0.00908   0.00753   0.01689   1.86115
   A12        1.88868   0.00262   0.00177   0.00013   0.00216   1.89083
   A13        1.92564   0.00168  -0.00126   0.00638   0.00514   1.93078
   A14        1.91123   0.00418   0.00336   0.00770   0.01120   1.92243
   A15        1.84687  -0.00222   0.00861  -0.02029  -0.01157   1.83529
   A16        2.01437  -0.00390  -0.01645   0.00642  -0.01015   2.00422
   A17        1.92565   0.00003   0.00489  -0.00667  -0.00138   1.92427
   A18        1.87351   0.00095   0.00526  -0.00912  -0.00397   1.86954
   A19        1.90411   0.00359  -0.00210   0.02023   0.01825   1.92236
   A20        1.86020  -0.00045   0.00646  -0.02016  -0.01400   1.84620
   A21        1.88035  -0.00012   0.00287   0.00853   0.01158   1.89193
   A22        1.90843   0.00106   0.00542  -0.00578  -0.00038   1.90805
   A23        1.89696  -0.00024  -0.00421   0.00534   0.00112   1.89808
   A24        1.86930  -0.00062  -0.00363   0.00114  -0.00252   1.86678
   A25        1.99204  -0.00188  -0.01004   0.01083   0.00076   1.99280
   A26        1.91767   0.00020   0.00176  -0.00331  -0.00158   1.91610
   A27        1.91002   0.00023   0.00482  -0.01144  -0.00661   1.90341
   A28        1.88194   0.00105   0.00445  -0.00124   0.00322   1.88516
   A29        1.90537   0.00071   0.00163  -0.00119   0.00040   1.90577
   A30        1.85142  -0.00020  -0.00211   0.00629   0.00422   1.85565
   A31        1.96579  -0.00220  -0.01174   0.01288   0.00128   1.96706
   A32        1.92341   0.00069   0.00672  -0.01128  -0.00403   1.91938
   A33        1.90989   0.00060   0.00460  -0.00352   0.00107   1.91096
   A34        1.95354   0.00035  -0.01438   0.02143   0.00715   1.96069
   A35        1.83447   0.00100   0.01234  -0.01603  -0.00391   1.83056
   A36        1.87200  -0.00034   0.00314  -0.00496  -0.00175   1.87025
   A37        1.86656   0.00161  -0.00102   0.00974   0.00872   1.87528
    D1       -0.03282   0.00082   0.00770   0.06363   0.07196   0.03914
    D2       -3.12602  -0.00039  -0.00878  -0.05695  -0.06632   3.09084
    D3       -2.13043  -0.00015   0.01317   0.04388   0.05766  -2.07278
    D4        1.05955  -0.00136  -0.00332  -0.07670  -0.08063   0.97893
    D5        2.07053   0.00117   0.00247   0.07668   0.07974   2.15027
    D6       -1.02267  -0.00003  -0.01402  -0.04389  -0.05854  -1.08121
    D7       -3.13547   0.00023   0.00516   0.03107   0.03564  -3.09983
    D8        1.00038   0.00114   0.01282   0.01928   0.03130   1.03168
    D9       -0.97139   0.00004  -0.00270   0.03882   0.03547  -0.93592
   D10        0.05562  -0.00127  -0.01173  -0.09321  -0.10417  -0.04855
   D11       -2.09171  -0.00036  -0.00408  -0.10500  -0.10851  -2.20022
   D12        2.21970  -0.00147  -0.01959  -0.08546  -0.10434   2.11536
   D13        1.11603  -0.00227  -0.01138  -0.08652  -0.09783   1.01820
   D14       -2.99912  -0.00041  -0.02248  -0.05979  -0.08221  -3.08133
   D15       -0.95474   0.00002  -0.01294  -0.05845  -0.07140  -1.02614
   D16       -3.06247  -0.00186  -0.01406  -0.07399  -0.08810   3.13261
   D17       -0.89444   0.00001  -0.02517  -0.04725  -0.07248  -0.96692
   D18        1.14994   0.00043  -0.01563  -0.04591  -0.06168   1.08827
   D19       -1.03648  -0.00113  -0.00226  -0.09039  -0.09256  -1.12905
   D20        1.13155   0.00074  -0.01336  -0.06365  -0.07694   1.05461
   D21       -3.10725   0.00116  -0.00382  -0.06231  -0.06614   3.10979
   D22        0.98242   0.00033  -0.00239   0.00758   0.00496   0.98738
   D23       -1.05267   0.00062   0.00139   0.00642   0.00756  -1.04511
   D24       -1.19683   0.00028   0.00437  -0.00493  -0.00044  -1.19727
   D25        3.05127   0.00057   0.00815  -0.00609   0.00216   3.05343
   D26        3.06056  -0.00115  -0.00141  -0.01434  -0.01560   3.04496
   D27        1.02548  -0.00085   0.00237  -0.01550  -0.01300   1.01247
   D28        3.03937   0.00110   0.01522  -0.03586  -0.02076   3.01861
   D29        0.92326   0.00088   0.01511  -0.03932  -0.02430   0.89896
   D30       -1.10297   0.00088   0.01381  -0.03844  -0.02470  -1.12767
   D31       -1.01362  -0.00125  -0.00386  -0.01750  -0.02137  -1.03499
   D32       -3.12974  -0.00147  -0.00396  -0.02096  -0.02490   3.12855
   D33        1.12722  -0.00148  -0.00527  -0.02008  -0.02531   1.10191
   D34        0.99924   0.00001   0.00422  -0.02622  -0.02195   0.97729
   D35       -1.11688  -0.00020   0.00412  -0.02968  -0.02549  -1.14236
   D36        3.14008  -0.00021   0.00281  -0.02880  -0.02589   3.11419
   D37       -3.07964  -0.00037  -0.01248   0.01644   0.00394  -3.07570
   D38        1.00840   0.00028   0.00956  -0.01276  -0.00332   1.00509
   D39       -1.04603  -0.00007  -0.00157   0.00206   0.00056  -1.04548
   D40       -0.94385  -0.00059  -0.01372   0.01849   0.00480  -0.93906
   D41       -3.13899   0.00007   0.00833  -0.01071  -0.00246  -3.14145
   D42        1.08976  -0.00028  -0.00281   0.00412   0.00141   1.09117
   D43        1.06017   0.00011  -0.01293   0.02463   0.01170   1.07187
   D44       -1.13497   0.00076   0.00911  -0.00458   0.00445  -1.13052
   D45        3.09378   0.00041  -0.00202   0.01025   0.00832   3.10210
   D46       -1.15966   0.00011   0.00790  -0.01574  -0.00741  -1.16707
   D47        1.01909  -0.00041  -0.00177  -0.00387  -0.00614   1.01295
   D48        3.04542  -0.00006   0.00137  -0.00839  -0.00695   3.03847
         Item               Value     Threshold  Converged?
 Maximum Force            0.010819     0.000450     NO 
 RMS     Force            0.002149     0.000300     NO 
 Maximum Displacement     0.310102     0.001800     NO 
 RMS     Displacement     0.072453     0.001200     NO 
 Predicted change in Energy=-1.041838D-03
 GradGradGradGradGradGradGradGradGradGradGradGradGradGradGradGradGradGrad

                          Input orientation:                          
 ---------------------------------------------------------------------
 Center     Atomic      Atomic             Coordinates (Angstroms)
 Number     Number       Type             X           Y           Z
 ---------------------------------------------------------------------
      1          6           0        0.955867    0.012480    0.009040
      2          6           0        2.464371   -0.149042   -0.090295
      3          8           0        2.965111   -1.155986   -0.538223
      4          6           0        3.299693    1.066972    0.289198
      5          6           0        4.825336    0.898996    0.125816
      6          7           0        5.266495    0.559638   -1.233390
      7          6           0        5.555408    2.158389    0.620457
      8          6           0        7.080848    2.025017    0.658592
      9          8           0        7.721343    3.178866    1.202458
     10          1           0        0.465363   -0.898854   -0.334380
     11          1           0        0.617147    0.861874   -0.595542
     12          1           0        0.657197    0.222548    1.042318
     13          1           0        3.045958    1.310518    1.332058
     14          1           0        2.947865    1.926144   -0.300494
     15          1           0        5.126356    0.054274    0.756597
     16          1           0        4.932372    1.268373   -1.882639
     17          1           0        4.837117   -0.316827   -1.505940
     18          1           0        5.212045    2.414033    1.630048
     19          1           0        5.282152    3.009299   -0.024309
     20          1           0        7.459350    1.769170   -0.337837
     21          1           0        7.359390    1.205799    1.330208
     22          1           0        7.578215    3.903830    0.588758
 ---------------------------------------------------------------------
                    Distance matrix (angstroms):
                    1          2          3          4          5
     1  C    0.000000
     2  C    1.520375   0.000000
     3  O    2.387858   1.210503   0.000000
     4  C    2.585336   1.523308   2.395436   0.000000
     5  C    3.971440   2.592150   2.850323   1.543534   0.000000
     6  N    4.519350   3.108181   2.953471   2.538498   1.468750
     7  C    5.112195   3.922234   4.363172   2.527682   1.537448
     8  C    6.479786   5.157444   5.337644   3.918091   2.576647
     9  O    7.564517   6.354678   6.666533   4.984489   3.839768
    10  H    1.090440   2.148914   2.521192   3.505246   4.738503
    11  H    1.096230   2.165517   3.096446   2.832117   4.269730
    12  H    1.095901   2.164895   3.118483   2.874549   4.320989
    13  H    2.793521   2.119350   3.096471   1.100569   2.188734
    14  H    2.779564   2.141109   3.091333   1.099863   2.182126
    15  H    4.237165   2.800844   2.795044   2.140260   1.096381
    16  H    4.579117   3.363420   3.399278   2.724533   2.044942
    17  H    4.179438   2.768054   2.268275   2.738812   2.034943
    18  H    5.148803   4.132631   4.742905   2.696209   2.169699
    19  H    5.262962   4.233126   4.793994   2.793038   2.164393
    20  H    6.745485   5.356363   5.366086   4.264856   2.812508
    21  H    6.646398   5.273958   5.327172   4.193342   2.822431
    22  H    7.702867   6.560356   6.939204   5.142300   4.101424
                    6          7          8          9         10
     6  N    0.000000
     7  C    2.465000   0.000000
     8  C    3.003134   1.531734   0.000000
     9  O    4.338201   2.464015   1.427372   0.000000
    10  H    5.097675   6.013902   7.300662   8.463978   0.000000
    11  H    4.702620   5.248432   6.686195   7.685757   1.786450
    12  H    5.151516   5.283742   6.682772   7.659480   1.785956
    13  H    3.475073   2.742736   4.152638   5.036541   3.783888
    14  H    2.848452   2.775135   4.243958   5.158902   3.760928
    15  H    2.057931   2.151725   2.777314   4.086053   4.880936
    16  H    1.017579   2.728698   3.412670   4.576698   5.200784
    17  H    1.013332   3.341288   3.899201   5.279588   4.563282
    18  H    3.411894   1.096597   2.141841   2.657890   6.112707
[...]
 3,-0.00000838,-0.00000153,0.00606343,-0.00111497,-0.02578150,-0.005391
 57,0.00243453,0.02635250,-0.00479559,0.04623211,0.04484878,-0.02811802
 ,-0.29570287,0.00074086,-0.00205780,-0.00454663,0.00101411,0.00136954,
 0.00048723,0.00015308,-0.00063413,-0.00060259,0.00028780,0.00004728,0.
 00032059,-0.00018376,0.00007908,0.00010861,0.00004622,-0.00000809,-0.0
 0003208,0.00000734,0.00000931,0.00000263,-0.00000057,0.00000564,0.0000
 0729,0.00165754,0.00059804,-0.00855014,0.00279712,-0.00203296,-0.01488
 619,-0.05079611,0.03064046,0.32246218,-0.00069327,-0.00009983,0.002255
 70,0.00598686,-0.00015202,-0.01678352,-0.00036587,-0.00438719,0.001251
 70,-0.06428226,0.01691639,0.05498416,-0.00278299,0.00695941,0.02916049
 ,-0.00898084,0.00185517,0.00278070,0.00085761,0.00059766,0.00135764,0.
 00004222,0.00007708,-0.00025599,0.00008073,-0.00004927,-0.00009840,0.0
 0034101,0.00025484,-0.00000591,0.00005742,-0.00004286,-0.00023963,-0.0
 0103969,-0.00071791,-0.00033078,0.06818465,0.00016045,0.00030128,0.002
 04093,0.00978549,-0.00897320,-0.02853923,-0.00324525,-0.00605355,0.001
 71725,0.01764451,-0.06200692,-0.07276363,0.00028482,-0.00196331,-0.003
 88773,0.00033450,0.00077417,-0.00001389,-0.00075034,-0.00003026,0.0003
 7682,0.00007091,-0.00011431,-0.00001033,0.00002467,-0.00000489,0.00001
 459,0.00044924,-0.00001543,0.00036797,0.00019588,0.00003768,0.00006501
 ,-0.00115850,0.00001832,0.00021091,-0.01795377,0.07072281,0.00023539,0
 .00032934,0.00008246,0.00380899,-0.00153957,-0.00718611,-0.00164400,-0
 .00041871,0.00026674,0.05676714,-0.06885568,-0.25710887,-0.00086498,0.
 00001066,-0.00259438,0.00213314,-0.00071531,0.00088968,-0.00069637,-0.
 00027030,-0.00020767,0.00012965,0.00011102,0.00027714,0.00007430,0.000
 09744,0.00008660,-0.00005296,-0.00000932,0.00038909,-0.00005202,-0.000
 08375,-0.00016302,-0.00022871,-0.00003084,0.00082251,-0.06358097,0.077
 34327,0.28224716,-0.00132735,0.00153429,-0.00137667,0.00634800,-0.0089
 3572,0.01338537,-0.00034161,-0.00172402,-0.00292868,-0.06630364,0.0499
 5253,-0.04340559,-0.01214390,0.02515204,-0.02152597,0.00333751,-0.0014
 3603,-0.00131240,0.00181507,0.00150029,0.00008042,-0.00007360,-0.00000
 439,0.00005024,-0.00005654,-0.00011839,0.00007670,0.00012071,0.0002706
 0,-0.00019575,-0.00114935,-0.00077439,0.00008146,0.00028598,-0.0003561
 3,-0.00017137,0.00193297,-0.00509453,0.00441194,0.07428866,-0.00023951
 ,0.00088074,-0.00201078,0.01148582,-0.02209024,0.01890126,-0.00348159,
 -0.00231104,-0.00427553,0.05226059,-0.17737952,0.11724446,0.00140188,-
 0.00349792,0.00319586,-0.00092274,0.00053368,-0.00081815,-0.00018747,0
 .00054120,-0.00043089,-0.00006911,0.00014624,-0.00011754,0.00010884,0.
 00001742,0.00001020,-0.00004375,0.00027890,-0.00044963,-0.00114792,0.0
 0042226,0.00002457,0.00052029,0.00018401,-0.00009532,-0.00244558,0.007
 17080,-0.00598781,-0.05879283,0.19445500,-0.00021339,0.00088815,-0.000
 99947,0.00205397,-0.00720929,0.00482918,-0.00041074,-0.00115993,-0.002
 24629,-0.04465784,0.11235756,-0.13227456,0.00103319,-0.00098911,-0.000
 46903,-0.00018730,-0.00127218,0.00184757,0.00005142,0.00018211,-0.0000
 5372,0.,-0.00025383,0.00006376,-0.00010486,-0.00008028,-0.00003936,0.0
 0021649,-0.00006468,0.00008361,-0.00001670,-0.00027997,0.00048551,0.00
 011783,0.00008095,0.00010290,-0.00802540,0.02288256,-0.01953369,0.0501
 8286,-0.12451473,0.14687267,-0.00007086,-0.00000216,-0.00006552,0.0005
 3752,0.00341138,0.00034807,0.00128070,-0.00180969,-0.00012014,-0.01391
 742,0.02548334,-0.01858480,-0.06481313,0.05113205,-0.03747180,0.002796
 78,-0.00912784,0.00902059,0.00315506,-0.01282493,0.00873430,0.00069711
 ,-0.00123557,0.00105085,0.00007674,0.00043552,-0.00004975,-0.00001980,
 -0.00011772,0.00003535,0.00018259,-0.00014835,0.00007925,0.00001375,-0
 .00000369,-0.00000989,0.00082630,0.00001479,0.00042275,-0.00650573,0.0
 0075700,0.00030597,0.07599913,0.00015329,0.00008255,0.00016354,-0.0002
 7058,-0.00070719,-0.00100801,-0.00084721,0.00055251,0.00012833,0.00282
 203,-0.00295902,0.00262541,0.05062668,-0.20082736,0.11340159,-0.001638
 69,0.00716366,-0.00483232,0.00440427,-0.02349729,0.01481190,0.00155660
 ,0.00012386,0.00107384,-0.00011387,0.00066342,-0.00052111,0.00004793,0
 .00003211,-0.00001110,0.00001152,0.00000437,-0.00003249,0.00000126,-0.
 00001455,0.00001475,0.00038318,-0.00007320,-0.00015063,0.00037652,0.00
 045195,-0.00079987,-0.05410049,0.21936187,0.00002950,-0.00021040,-0.00
 017927,-0.00029438,0.00121530,0.00044928,0.00079018,-0.00073575,0.0004
 4089,-0.00074082,-0.00005087,0.00174014,-0.03508413,0.10532971,-0.1244
 7429,-0.00311955,0.02568609,-0.02929325,0.00257778,-0.00868998,0.00701
 185,0.00007276,-0.00003784,0.00026582,0.00018738,0.00001403,0.00014256
 ,-0.00005073,-0.00001472,0.00000112,0.00004896,-0.00000532,0.00000169,
 0.00006694,0.00000133,-0.00003569,-0.00084001,0.00005766,0.00026909,0.
 00075595,-0.00029236,0.00097472,0.03560078,-0.11917164,0.14779865,0.00
 010184,0.00009308,0.00004377,-0.00086803,-0.00117550,-0.00006540,-0.00
 055763,0.00034709,0.00022505,0.00218588,-0.00217293,0.00095294,-0.0025
 9202,-0.00812253,0.01480572,-0.05283868,0.10614273,-0.09818507,0.00003
 825,0.00077910,-0.00108529,-0.00001648,-0.00024882,-0.00033679,-0.0001
 1105,-0.00004149,0.00012579,0.00006106,0.00004188,0.00000216,-0.000057
 52,0.00003415,0.00000770,-0.00001149,0.00000732,0.00000107,0.00019909,
 0.00024353,-0.00055302,-0.00001174,0.00068350,-0.00012851,0.00043818,-
 0.00006113,0.00121900,0.05344005,-0.00006364,0.00011438,0.00002501,-0.
 00000087,-0.00047057,0.00016694,-0.00074273,0.00010423,0.00002781,-0.0
 0057664,0.00064650,-0.00124951,-0.00095481,0.00564340,-0.00615121,0.06
 743888,-0.23919667,0.15462039,-0.00002142,0.00236625,-0.00078857,-0.00
 021424,-0.00011615,0.00010645,0.00003577,0.00000964,0.00003094,0.00002
 435,0.00000358,0.00001589,-0.00005112,0.00000555,0.00003212,-0.0000175
 9,0.00000677,0.00000029,0.00019489,0.00009719,-0.00027450,-0.00046684,
 0.00007056,0.00051626,0.00007170,0.00125721,-0.00203419,-0.08141215,0.
 25392417,-0.00006293,0.00006708,-0.00002815,0.00048140,0.00031393,0.00
 002695,-0.00030346,-0.00026694,0.00018478,-0.00093112,0.00052803,0.002
 10513,-0.01351015,0.02891360,-0.02759090,-0.06283579,0.15450036,-0.195
 07515,-0.00011797,0.00151697,0.00073968,-0.00029712,-0.00011159,-0.000
 07948,0.00007733,-0.00000983,0.00005723,-0.00000745,-0.00001332,-0.000
 01433,-0.00001405,0.00000632,0.00001128,-0.00000108,0.00000354,-0.0000
 1663,-0.00054479,-0.00023504,0.00061294,0.00129555,-0.00060850,0.00021
 137,0.00257300,-0.00271824,-0.00642238,0.07159186,-0.17076232,0.216753
 95,0.00038550,-0.00072628,0.00022845,-0.00307182,0.00353992,0.00269084
 ,-0.00035817,-0.00212168,-0.00196796,0.00107877,0.00077327,-0.00031048
 ,0.00030960,0.01429827,0.00819717,-0.09419832,-0.17821177,-0.05958514,
 -0.00041708,0.00021741,0.00111899,0.00004944,-0.00014858,0.00015824,-0
 .00019390,-0.00019154,-0.00023960,-0.00003493,0.00000866,0.00000391,0.
 00026766,-0.00002240,-0.00001898,0.00007011,0.00001496,-0.00006341,-0.
 00018001,-0.00043164,-0.00001277,-0.00017060,0.00008033,0.00006915,0.0
 0014287,-0.00038625,-0.00037248,0.00078369,0.01627235,0.00249988,0.094
 78918,0.00009629,-0.00048978,-0.00019074,0.00111910,0.00224965,0.00037
 864,-0.00191170,-0.00344772,0.00059528,-0.00036034,-0.00044485,0.00090
 643,-0.00421425,-0.00698262,-0.00487592,-0.12757343,-0.31927219,-0.082
 44421,0.00106062,0.00081384,-0.00132850,0.00012524,0.00005542,-0.00010
 461,0.00012274,0.00014764,0.00019013,-0.00011946,-0.00003020,-0.000006
 43,0.00015269,0.00000142,-0.00004081,0.00009484,-0.00001941,-0.0000452
 2,-0.00066630,-0.00004411,0.00023278,0.00012974,-0.00022829,-0.0000856
 2,0.00006837,0.00066671,0.00062905,-0.01446418,-0.02385547,-0.00924594
 ,0.14702436,0.35046849,-0.00035837,0.00070764,0.00010809,0.00229813,-0
 .00343095,-0.00141496,-0.00314951,0.00107637,0.00113816,0.00032796,0.0
 0023529,0.00116579,-0.01764833,-0.03409857,-0.01279824,-0.04217810,-0.
 08339564,-0.08697819,0.00338963,-0.00002205,-0.00711087,0.00089325,-0.
 00004190,0.00009577,-0.00035838,-0.00003424,0.00006521,0.00009211,-0.0
 0000313,-0.00000540,-0.00024272,0.00008390,0.00003006,-0.00011786,0.00
 000755,0.00003305,-0.00019240,0.00019623,0.00005602,0.00011913,0.00014
 102,0.00000682,-0.00062771,0.00031534,0.00059893,0.01126177,0.02486936
 ,0.00763724,0.04748496,0.09524754,0.09787519,0.00002880,0.00008655,-0.
 00001721,0.00024613,-0.00007390,-0.00004618,-0.00003370,0.00012694,0.0
 0008127,0.00016961,-0.00027594,-0.00082296,0.00451668,-0.00202055,-0.0
 1403934,-0.00080974,-0.00360367,-0.00135130,-0.07898081,0.02287874,0.0
 8287855,-0.01605097,0.01020346,0.03242630,0.00407415,-0.00024050,-0.00
 152610,0.00002302,0.00000363,-0.00000156,-0.00001259,-0.00000120,-0.00
 000460,-0.00000129,-0.00000965,0.00000516,-0.00052701,-0.00050935,-0.0
 0014878,-0.00004115,0.00002615,-0.00007605,0.00030608,0.00034101,0.000
 45515,-0.00011504,0.00006990,0.00025498,0.00025038,-0.00044247,-0.0010
 2084,0.09058717,-0.00000163,0.00009179,-0.00006479,0.00020225,-0.00055
 356,0.00017816,-0.00019927,0.00028520,0.00017418,0.00101426,0.00075458
 ,-0.00023629,0.01094583,-0.00486612,-0.02349328,-0.00257702,-0.0051494
 3,-0.00143537,0.02302866,-0.06451165,-0.05576489,0.00221459,-0.0023144
 2,-0.00594290,-0.00023855,0.00056939,0.00093963,0.00002197,0.00000267,
 -0.00000511,-0.00002155,-0.00000128,0.00000725,-0.00000829,0.00000396,
 0.00001041,-0.00073272,0.00020258,0.00026577,-0.00012433,0.00000941,0.
 00010965,0.00058653,0.00059468,0.00063527,-0.00030625,-0.00020066,-0.0
 0032748,0.00009223,0.00011634,-0.00192590,-0.02563223,0.06857033,-0.00
 001927,0.00003017,-0.00010316,-0.00023515,-0.00076113,0.00028568,-0.00
 028574,0.00058592,0.00024861,0.00112321,0.00069124,-0.00001261,0.00469
 437,-0.00014104,-0.00989408,-0.00158881,-0.00340106,0.00039880,0.08211
 990,-0.05752342,-0.25398000,-0.00179074,-0.00006499,0.00169620,0.00024
 961,0.00152791,0.00114830,-0.00000691,0.00001107,0.00000695,-0.0000228
 8,-0.00000124,-0.00001153,0.00000047,-0.00001084,0.00002399,-0.0008255
 0,-0.00002384,0.00076402,0.00000891,-0.00008236,-0.00008109,-0.0000873
 9,-0.00038943,0.00050174,0.00028650,0.00027721,0.00060843,0.00035570,0
 .00005080,-0.00075734,-0.09060444,0.06481104,0.27523292,0.00001370,0.0
 0002749,0.00005982,0.00024531,-0.00020942,-0.00034280,-0.00038300,0.00
 012225,0.00000192,0.00139848,-0.00016495,0.00070817,0.00192768,-0.0132
 6044,0.01064422,0.00012772,0.00101467,0.00072723,-0.05407043,0.0309577
 0,-0.02565934,-0.00837783,0.02751968,-0.02339063,0.00350340,0.00019204
 ,0.00178658,0.00001292,0.00000576,-0.00000009,-0.00001078,0.00000686,-
 0.00000794,-0.00000733,-0.00000053,0.00000185,0.00001217,-0.00009580,0
 .00008348,-0.00017640,0.00009239,-0.00035086,-0.00112877,-0.00247884,-
 0.00142991,0.00028178,0.00040494,-0.00023425,-0.00014261,0.00010187,0.
 00025807,0.00148840,-0.00904686,0.00705201,0.06090530,-0.00001021,-0.0
 0007099,0.00010872,0.00007981,-0.00037864,-0.00057924,-0.00038352,0.00
 033505,-0.00003787,0.00168206,0.00073531,0.00003755,0.00438106,-0.0246
 6384,0.01845064,0.00041308,0.00259689,0.00119700,0.03175916,-0.1848011
 7,0.11446055,0.00011148,-0.00671460,0.00382062,0.00011089,0.00260795,-
 0.00082992,-0.00001590,-0.00000308,0.00001267,0.00000485,0.00000825,-0
 .00000854,-0.00002235,0.00000089,0.00000678,-0.00008161,-0.00004377,-0
 .00006136,-0.00089489,0.00040947,-0.00030919,-0.00292639,-0.00366942,-
 0.00241281,-0.00050721,-0.00037227,-0.00144684,-0.00013326,0.00039934,
 -0.00001744,-0.00130523,0.00589837,-0.00479980,-0.03404046,0.20672276,
 0.00002493,0.00008818,-0.00000118,0.00030120,-0.00013931,0.00008594,-0
 .00016412,-0.00012426,-0.00015935,0.00053215,0.00007919,0.00015074,0.0
 0124954,-0.00891215,0.00505505,0.00033256,-0.00023816,0.00204710,-0.02
 454787,0.11495827,-0.14363126,-0.00020097,0.00287483,-0.00197601,0.000
 31707,-0.00154283,0.00021077,0.00003334,-0.00000210,-0.00000028,0.0000
 0001,-0.00000068,0.00001204,-0.00001085,0.00000601,0.00000218,-0.00014
 588,0.00010845,-0.00000912,0.00034026,0.00016888,0.00018885,-0.0007786
 3,-0.00224378,0.00021015,-0.00023810,0.00052162,0.00021102,0.00007205,
 0.00003423,0.00029578,-0.00484469,0.02261506,-0.01822843,0.03009306,-0
 .12753923,0.15331661,-0.00002116,-0.00007841,0.00002282,-0.00012034,0.
 00045796,0.00004448,0.00022386,-0.00027150,-0.00023790,-0.00011804,-0.
 00045735,-0.00033376,0.00021704,0.00118156,0.00201729,0.00052144,0.000
 40714,-0.00084077,-0.01511053,0.00718430,0.03015006,-0.09126626,0.0250
 2970,0.09068177,0.00694980,-0.01062002,-0.01958601,-0.00001770,-0.0000
 0877,0.00000141,0.00001697,-0.00000193,0.00000574,0.00000435,0.0000049
 1,-0.00000741,0.00039090,0.00000830,-0.00024311,0.00000601,0.00004525,
 0.00004445,-0.00002254,-0.00015351,-0.00014712,-0.00037715,-0.00001175
 ,-0.00005734,0.00060845,-0.00030131,-0.00020077,-0.00667262,0.00096495
 ,-0.00094993,0.00168796,0.00020761,-0.00057198,0.09892931,0.00001648,0
 .00002323,0.00000150,0.00001867,-0.00008992,0.00002109,-0.00000201,0.0
 0002974,-0.00000152,0.00017942,0.00013809,-0.00010984,0.00036744,-0.00
 002043,0.00009195,-0.00101727,-0.00071138,-0.00051444,0.00511160,0.001
 04923,-0.00474159,0.02629574,-0.06654802,-0.04550440,0.00201575,-0.019
 59159,-0.03222978,0.00001263,0.00000332,-0.00000161,-0.00000111,-0.000
 00022,-0.00000048,0.00000345,-0.00000029,0.00000065,0.00006622,0.00003
 383,0.00002960,0.00000287,0.00000443,-0.00000396,0.00001793,0.00006102
 ,-0.00001075,0.00025801,0.00002777,-0.00000076,-0.00004068,-0.00004647
 ,0.00006081,0.00042002,0.00040787,-0.00045504,-0.00062749,0.00022273,-
 0.00053960,-0.02457065,0.07580317,0.00001003,0.00004390,0.00001670,0.0
 0009507,-0.00019857,-0.00011218,-0.00009318,0.00005737,0.00008629,0.00
 014994,0.00018390,-0.00004345,0.00097530,-0.00058496,-0.00046737,-0.00
 229679,-0.00057732,-0.00089284,-0.00094426,0.00165597,0.00234783,0.090
 61948,-0.04945232,-0.24636625,-0.00199045,-0.01162140,-0.00734943,0.00
 001715,0.00000349,-0.00000123,-0.00000513,-0.00000025,-0.00000184,-0.0
 0000603,-0.00000004,0.00000405,0.00003731,0.00006810,0.00007333,0.0000
 1083,-0.00001202,0.00000912,0.00005996,-0.00009831,-0.00002072,-0.0001
 2525,0.00002032,-0.00004772,-0.00005316,0.00002733,0.00003899,-0.00130
 369,-0.00030535,0.00137381,0.00045416,-0.00011617,0.00086291,-0.094153
 67,0.06469626,0.26720024,-0.00002021,-0.00000323,-0.00003526,0.0000462
 2,0.00008843,0.00012371,0.00001831,-0.00012184,-0.00002555,-0.00002277
 ,-0.00020708,0.00022484,0.00136500,0.00206304,-0.00005566,0.00016028,-
 0.00024524,-0.00002632,-0.00909638,0.02376377,-0.02346301,-0.05820216,
 0.03981541,-0.03310171,0.00165389,-0.01863763,0.01050922,-0.00000732,-
 0.00000120,-0.00000269,-0.00000109,-0.00000074,0.00000484,0.00000167,0
 .00000322,-0.00000163,-0.00002653,0.00004738,-0.00001523,0.00020564,-0
 .00011293,0.00012818,-0.00003868,-0.00109633,0.00023739,0.00002129,0.0
 0008579,0.00023570,-0.00000457,-0.00001410,-0.00007061,0.00169207,-0.0
 0020830,0.00050193,-0.00660688,0.00094167,-0.00071495,0.00345393,-0.00
 922996,0.00945685,0.06615140,0.00001252,0.00002382,0.00001298,0.000071
 76,-0.00004185,-0.00001584,-0.00000047,0.00003669,0.00000066,-0.000051
 07,0.00042883,-0.00012629,-0.00015531,0.00039609,-0.00009829,0.0002032
 0,-0.00001914,0.00003283,0.00245761,-0.00322450,0.00481155,0.03523930,
 -0.17275070,0.11723263,-0.00281941,-0.03327282,0.01698855,0.00000991,0
 .00000104,0.00000042,-0.00000011,-0.00000097,-0.00000146,0.00000200,-0
 .00000332,-0.00000058,0.00000913,-0.00003024,0.00000458,-0.00017416,-0
 .00005544,-0.00001830,0.00017562,0.00052495,0.00008634,-0.00000372,-0.
 00002991,-0.00005608,0.00002946,-0.00002479,0.00001341,-0.00015486,0.0
 0008419,-0.00016398,0.00054787,0.00052966,-0.00017427,-0.00068847,0.00
 720362,-0.00391074,-0.03313796,0.20487808,-0.00001436,-0.00003302,-0.0
 0001027,-0.00004958,0.00015562,0.00000595,0.00000941,-0.00012223,0.000
 03138,-0.00007372,-0.00038387,0.00007981,0.00004021,0.00084577,-0.0000
 1374,-0.00019400,-0.00087649,0.00007362,0.00015424,0.00164745,-0.00141
 079,-0.03112296,0.12726928,-0.17054716,0.00174548,-0.01162728,0.011627
 69,-0.00001361,-0.00000320,-0.00000061,0.00000490,-0.00000005,0.000001
 65,0.00000087,0.00000391,-0.00000126,0.00001161,0.00001364,-0.00001268
 ,0.00013786,-0.00000415,0.00001283,-0.00040649,-0.00060137,0.00009821,
 0.00036220,0.00006461,0.00013472,-0.00026544,0.00008165,-0.00004312,-0
 .00040748,-0.00047069,0.00103665,-0.00056545,-0.00046774,0.00151686,-0
 .00554841,0.02054936,-0.01790583,0.03723373,-0.13174121,0.17434709,0.0
 0007448,0.00005689,0.00001002,-0.00017214,-0.00029987,-0.00007604,0.00
 008992,0.00020028,0.00006991,-0.00005619,0.00028351,0.00005453,-0.0004
 8784,-0.00025198,-0.00100535,-0.00017006,0.00015266,0.00018511,0.00129
 797,-0.00208978,0.00235191,-0.00193306,-0.01771159,0.01363900,-0.01347
 275,0.01613507,-0.03952925,0.00003175,0.00001481,0.00000183,-0.0000085
 2,-0.00000118,-0.00000511,-0.00000354,-0.00000544,0.00000400,-0.000033
 45,-0.00002531,0.00002614,-0.00003892,-0.00001861,-0.00003186,0.000064
 11,0.00042262,0.00003738,0.00000572,-0.00006478,-0.00009216,0.00003637
 ,-0.00002833,0.00004061,-0.00013755,0.00002572,0.00002413,-0.00070079,
 0.00062935,-0.00107813,0.00071633,0.00070293,-0.00091446,-0.00074312,-
 0.00157283,-0.00103899,0.01564128,0.00006385,0.00005168,0.00000535,-0.
 00008616,-0.00013803,-0.00000086,0.00011902,0.00006504,-0.00002578,0.0
 0000859,0.00033219,0.00002202,0.00028790,-0.00017402,-0.00005593,0.000
 31705,0.00022481,-0.00001074,-0.00011577,0.00218335,0.00021530,0.00170
 224,-0.03232455,0.02792372,-0.00277904,-0.26637941,0.21607724,0.000028
 14,0.00000757,-0.00000056,-0.00000098,-0.00000061,0.00000323,0.0000012
 4,0.00000110,-0.00000102,0.00001508,-0.00000547,-0.00002665,-0.0000222
 3,-0.00001361,0.00002368,0.00014261,0.00020715,0.00001184,-0.00011446,
 -0.00003549,-0.00004698,0.00006284,-0.00003297,0.00001536,0.00011315,0
 .00000576,-0.00016720,-0.00106872,0.00025111,0.00000167,0.00167197,0.0
 0200027,0.00012081,-0.00379217,-0.00465330,-0.00430001,0.00344586,0.29
 842743,-0.00000422,-0.00002277,-0.00000428,-0.00003615,0.00008719,0.00
 003139,0.00003940,-0.00004120,-0.00004127,-0.00001559,-0.00013390,-0.0
 0008086,-0.00037124,0.00004748,0.00018230,0.00018582,0.00009187,-0.000
 08633,0.00033514,-0.00138918,0.00031128,-0.00330242,-0.01907961,0.0081
 9795,-0.02296489,0.26365450,-0.27822412,-0.00000864,-0.00000295,0.0000
 0148,0.00000238,0.00000068,0.00000465,0.00000069,0.00000285,-0.0000031
 3,0.00002986,0.00001030,-0.00002123,-0.00002106,0.00001352,0.00000831,
 -0.00002876,0.00004358,-0.00007923,-0.00016810,-0.00003492,-0.00001997
 ,0.00001008,-0.00000585,-0.00003699,0.00011382,0.00022563,-0.00025786,
 0.00011072,0.00053161,-0.00016036,-0.00008982,-0.00133745,0.00119559,-
 0.00114378,-0.00287689,0.00097899,0.02732677,-0.23978449,0.26810367\\0
 .00000092,0.00000229,-0.00000490,-0.00000421,-0.00000858,0.00000011,0.
 00000011,0.00000457,0.00000450,0.00000533,0.00000604,-0.00000598,-0.00
 000181,0.00000024,0.00000198,-0.00000287,0.00000044,-0.00000392,-0.000
 00117,-0.00000396,-0.00000753,0.00000921,0.00000385,0.00001750,-0.0000
 0467,0.00000301,-0.00001110,-0.00000038,0.00000054,0.00000119,-0.00000
 050,0.00000016,0.00000172,-0.00000001,-0.00000109,0.00000167,-0.000002
 26,-0.00000231,0.00000174,-0.00000047,-0.00000081,0.00000280,-0.000001
 85,-0.00000051,-0.00000423,-0.00000084,-0.00000322,0.00000319,0.000004
 15,0.00000417,0.00000438,0.00000356,-0.00000067,-0.00000062,-0.0000000
 3,0.00000076,-0.00000049,-0.00000547,-0.00000065,-0.00000202,-0.000002
 81,-0.00000934,-0.00000251,0.00000608,0.00000506,0.00000250\\\@


 HAPPINESS IS NOT HAVING WHAT YOU WANT --
 HAPPINESS IS WANTING WHAT YOU HAVE!

              -- FROM MRS. SEVERN'S DESK
 Job cpu time:       0 days  1 hours 56 minutes 14.8 seconds.
 Elapsed time:       0 days  0 hours 29 minutes  4.0 seconds.
 File lengths (MBytes):  RWF=    171 Int=      0 D2E=      0 Chk=      9 Scr=      1
 Normal termination of Gaussian 16 at Thu Aug  4 00:46:33 2022.
### All Done ###
