### Starting Gaussian ###
 Entering Gaussian System, Link 0=g16
 Initial command:
 /cluster/software/gaussian/gaussian-16-A.03/avx2/g16/l1.exe "/local/scratch/ks29c/Gau-12215.inp" -scrdir="/local/scratch/ks29c/"
 Entering Link 1 = /cluster/software/gaussian/gaussian-16-A.03/avx2/g16/l1.exe PID=     12216.
  
 Copyright (c) 1988,1990,1992,1993,1995,1998,2003,2009,2016,
            Gaussian, Inc.  All Rights Reserved.
  
 This is part of the Gaussian(R) 16 program.  It is based on
 the Gaussian(R) 09 system (copyright 2009, Gaussian, Inc.),
 the Gaussian(R) 03 system (copyright 2003, Gaussian, Inc.),
 the Gaussian(R) 98 system (copyright 1998, Gaussian, Inc.),
 the Gaussian(R) 94 system (copyright 1995, Gaussian, Inc.),
 the Gaussian 92(TM) system (copyright 1992, Gaussian, Inc.),
 the Gaussian 90(TM) system (copyright 1990, Gaussian, Inc.),
 the Gaussian 88(TM) system (copyright 1988, Gaussian, Inc.),
 the Gaussian 86(TM) system (copyright 1986, Carnegie Mellon
 University), and the Gaussian 82(TM) system (copyright 1983,
 Carnegie Mellon University). Gaussian is a federally registered
 trademark of Gaussian, Inc.
  
 This software contains proprietary and confidential information,
 including trade secrets, belonging to Gaussian, Inc.
  
 This software is provided under written license and may be
 used, copied, transmitted, or stored only in accord with that
 written license.
  
 The following legend is applicable only to US Government
 contracts under FAR:
  
                    RESTRICTED RIGHTS LEGEND
  
 Use, reproduction and disclosure by the US Government is
 subject to restrictions as set forth in subparagraphs (a)
 and (c) of the Commercial Computer Software - Restricted
 Rights clause in FAR 52.227-19.
  
 Gaussian, Inc.
 340 Quinnipiac St., Bldg. 40, Wallingford CT 06492
  
  
 ---------------------------------------------------------------
 Warning -- This program may not be used in any manner that
 competes with the business of Gaussian, Inc. or will provide
 assistance to any competitor of Gaussian, Inc.  The licensee
 of this program is prohibited from giving any competitor of
 Gaussian, Inc. access to this program.  By using this program,
 the user acknowledges that Gaussian, Inc. is engaged in the
 business of creating and licensing software in the field of
 computational chemistry and represents and warrants to the
 licensee that it is not a competitor of Gaussian, Inc. and that
 it will not use this program in any manner prohibited above.
 ---------------------------------------------------------------
  

 Cite this work as:
 Gaussian 16, Revision A.03,
 M. J. Frisch, G. W. Trucks, H. B. Schlegel, G. E. Scuseria, 
 M. A. Robb, J. R. Cheeseman, G. Scalmani, V. Barone, 
 G. A. Petersson, H. Nakatsuji, X. Li, M. Caricato, A. V. Marenich, 
 J. Bloino, B. G. Janesko, R. Gomperts, B. Mennucci, H. P. Hratchian, 
 J. V. Ortiz, A. F. Izmaylov, J. L. Sonnenberg, D. Williams-Young, 
 F. Ding, F. Lipparini, F. Egidi, J. Goings, B. Peng, A. Petrone, 
 T. Henderson, D. Ranasinghe, V. G. Zakrzewski, J. Gao, N. Rega, 
 G. Zheng, W. Liang, M. Hada, M. Ehara, K. Toyota, R. Fukuda, 
 J. Hasegawa, M. Ishida, T. Nakajima, Y. Honda, O. Kitao, H. Nakai, 
 T. Vreven, K. Throssell, J. A. Montgomery, Jr., J. E. Peralta, 
 F. Ogliaro, M. J. Bearpark, J. J. Heyd, E. N. Brothers, K. N. Kudin, 
 V. N. Staroverov, T. A. Keith, R. Kobayashi, J. Normand, 
 K. Raghavachari, A. P. Rendell, J. C. Burant, S. S. Iyengar, 
 J. Tomasi, M. Cossi, J. M. Millam, M. Klene, C. Adamo, R. Cammi, 
 J. W. Ochterski, R. L. Martin, K. Morokuma, O. Farkas, 
 J. B. Foresman, and D. J. Fox, Gaussian, Inc., Wallingford CT, 2016.
 
 ******************************************
 Gaussian 16:  ES64L-G16RevA.03 25-Dec-2016
                 3-Jul-2022 
 ******************************************
 %chk=CCpdNpCpCpCpCpdO.chk
 %NProcShared=20
 Will use up to   20 processors via shared memory.
 -----------------------------
 # opt freq b3lyp/6-31g(2df,p)
 -----------------------------
 1/18=20,19=15,26=3,38=1/1,3;
 2/9=110,12=2,17=6,18=5,40=1/2;
 3/5=1,6=6,7=104,11=2,25=1,30=1,71=1,74=-5/1,2,3;
 4//1;
 5/5=2,38=5/2;
 6/7=2,8=2,9=2,10=2,28=1/1;
 7//1,2,3,16;
 1/18=20,19=15,26=3/3(2);
 2/9=110/2;
 99//99;
 2/9=110/2;
 3/5=1,6=6,7=104,11=2,25=1,30=1,71=1,74=-5/1,2,3;
 4/5=5,16=3,69=1/1;
 5/5=2,38=5/2;
 7//1,2,3,16;
 1/18=20,19=15,26=3/3(-5);
 2/9=110/2;
 6/7=2,8=2,9=2,10=2,19=2,28=1/1;
 99/9=1/99;
 -------------------
 Title Card Required
 -------------------
 Symbolic Z-matrix:
 Charge =  0 Multiplicity = 1
 C                     0.84787   0.05262   0.04388 
 C                     2.347     0.11643  -0.06684 
 N                     2.84928   0.9324   -0.93373 
 C                     3.22454  -0.7443    0.83383 
 C                     2.86694  -2.22962   0.66199 
 C                     4.7497   -0.61083   0.74741 
 C                     5.46835   0.29595  -0.22673 
 O                     5.45281  -1.29125   1.50939 
 H                     0.39861   0.74794  -0.67257 
 H                     0.53512   0.33588   1.05031 
 H                     0.49628  -0.95063  -0.20076 
 H                     2.15367   1.4565   -1.46492 
 H                     2.96653  -0.46245   1.86719 
 H                     3.10399  -2.56813  -0.35185 
 H                     1.80372  -2.42087   0.84077 
 H                     3.41929  -2.86962   1.3616 
 H                     4.8765    0.91316  -0.88191 
 H                     6.08004  -0.31929  -0.89012 
 H                     6.08487   0.99757   0.33973 
 

 GradGradGradGradGradGradGradGradGradGradGradGradGradGradGradGradGradGrad
 Berny optimization.
 Initialization pass.
                           ----------------------------
                           !    Initial Parameters    !
                           ! (Angstroms and Degrees)  !
 --------------------------                            --------------------------
 ! Name  Definition              Value          Derivative Info.                !
 --------------------------------------------------------------------------------
 ! R1    R(1,2)                  1.5046         estimate D2E/DX2                !
 ! R2    R(1,9)                  1.0948         estimate D2E/DX2                !
 ! R3    R(1,10)                 1.0913         estimate D2E/DX2                !
 ! R4    R(1,11)                 1.0909         estimate D2E/DX2                !
 ! R5    R(2,3)                  1.2921         estimate D2E/DX2                !
 ! R6    R(2,4)                  1.5239         estimate D2E/DX2                !
 ! R7    R(3,12)                 1.0202         estimate D2E/DX2                !
 ! R8    R(4,5)                  1.5374         estimate D2E/DX2                !
 ! R9    R(4,6)                  1.5334         estimate D2E/DX2                !
 ! R10   R(4,13)                 1.1017         estimate D2E/DX2                !
 ! R11   R(5,14)                 1.0948         estimate D2E/DX2                !
 ! R12   R(5,15)                 1.095          estimate D2E/DX2                !
 ! R13   R(5,16)                 1.0973         estimate D2E/DX2                !
 ! R14   R(6,7)                  1.5125         estimate D2E/DX2                !
 ! R15   R(6,8)                  1.2401         estimate D2E/DX2                !
 ! R16   R(7,17)                 1.0773         estimate D2E/DX2                !
 ! R17   R(7,18)                 1.0921         estimate D2E/DX2                !
 ! R18   R(7,19)                 1.0924         estimate D2E/DX2                !
 ! A1    A(2,1,9)              109.4983         estimate D2E/DX2                !
 ! A2    A(2,1,10)             110.0235         estimate D2E/DX2                !
 ! A3    A(2,1,11)             110.0989         estimate D2E/DX2                !
 ! A4    A(9,1,10)             108.7271         estimate D2E/DX2                !
 ! A5    A(9,1,11)             107.763          estimate D2E/DX2                !
 ! A6    A(10,1,11)            110.6812         estimate D2E/DX2                !
 ! A7    A(1,2,3)              117.6114         estimate D2E/DX2                !
 ! A8    A(1,2,4)              120.4201         estimate D2E/DX2                !
 ! A9    A(3,2,4)              121.963          estimate D2E/DX2                !
 ! A10   A(2,3,12)             114.1235         estimate D2E/DX2                !
 ! A11   A(2,4,5)              110.2241         estimate D2E/DX2                !
 ! A12   A(2,4,6)              119.3596         estimate D2E/DX2                !
 ! A13   A(2,4,13)             105.9623         estimate D2E/DX2                !
 ! A14   A(5,4,6)              108.0074         estimate D2E/DX2                !
 ! A15   A(5,4,13)             107.3088         estimate D2E/DX2                !
 ! A16   A(6,4,13)             105.2786         estimate D2E/DX2                !
 ! A17   A(4,5,14)             110.6011         estimate D2E/DX2                !
 ! A18   A(4,5,15)             112.1078         estimate D2E/DX2                !
 ! A19   A(4,5,16)             112.0325         estimate D2E/DX2                !
 ! A20   A(14,5,15)            107.9044         estimate D2E/DX2                !
 ! A21   A(14,5,16)            107.5223         estimate D2E/DX2                !
 ! A22   A(15,5,16)            106.427          estimate D2E/DX2                !
 ! A23   A(4,6,7)              124.1291         estimate D2E/DX2                !
 ! A24   A(4,6,8)              118.7847         estimate D2E/DX2                !
 ! A25   A(7,6,8)              117.083          estimate D2E/DX2                !
 ! A26   A(6,7,17)             118.3047         estimate D2E/DX2                !
 ! A27   A(6,7,18)             108.6388         estimate D2E/DX2                !
 ! A28   A(6,7,19)             108.6177         estimate D2E/DX2                !
 ! A29   A(17,7,18)            105.1319         estimate D2E/DX2                !
 ! A30   A(17,7,19)            104.9197         estimate D2E/DX2                !
 ! A31   A(18,7,19)            111.1438         estimate D2E/DX2                !
 ! D1    D(9,1,2,3)              0.1357         estimate D2E/DX2                !
 ! D2    D(9,1,2,4)            179.3032         estimate D2E/DX2                !
 ! D3    D(10,1,2,3)          -119.3066         estimate D2E/DX2                !
 ! D4    D(10,1,2,4)            59.8609         estimate D2E/DX2                !
 ! D5    D(11,1,2,3)           118.4429         estimate D2E/DX2                !
 ! D6    D(11,1,2,4)           -62.3896         estimate D2E/DX2                !
 ! D7    D(1,2,3,12)            -0.1841         estimate D2E/DX2                !
 ! D8    D(4,2,3,12)          -179.3379         estimate D2E/DX2                !
 ! D9    D(1,2,4,5)             57.0978         estimate D2E/DX2                !
 ! D10   D(1,2,4,6)           -177.0817         estimate D2E/DX2                !
 ! D11   D(1,2,4,13)           -58.6978         estimate D2E/DX2                !
 ! D12   D(3,2,4,5)           -123.7718         estimate D2E/DX2                !
 ! D13   D(3,2,4,6)              2.0487         estimate D2E/DX2                !
 ! D14   D(3,2,4,13)           120.4327         estimate D2E/DX2                !
 ! D15   D(2,4,5,14)            65.1131         estimate D2E/DX2                !
 ! D16   D(2,4,5,15)           -55.3638         estimate D2E/DX2                !
 ! D17   D(2,4,5,16)          -174.9461         estimate D2E/DX2                !
 ! D18   D(6,4,5,14)           -66.8901         estimate D2E/DX2                !
 ! D19   D(6,4,5,15)           172.633          estimate D2E/DX2                !
 ! D20   D(6,4,5,16)            53.0507         estimate D2E/DX2                !
 ! D21   D(13,4,5,14)         -179.9398         estimate D2E/DX2                !
 ! D22   D(13,4,5,15)           59.5834         estimate D2E/DX2                !
 ! D23   D(13,4,5,16)          -59.999          estimate D2E/DX2                !
 ! D24   D(2,4,6,7)             -2.5052         estimate D2E/DX2                !
 ! D25   D(2,4,6,8)            178.1608         estimate D2E/DX2                !
 ! D26   D(5,4,6,7)            124.3596         estimate D2E/DX2                !
 ! D27   D(5,4,6,8)            -54.9744         estimate D2E/DX2                !
 ! D28   D(13,4,6,7)          -121.2404         estimate D2E/DX2                !
 ! D29   D(13,4,6,8)            59.4256         estimate D2E/DX2                !
 ! D30   D(4,6,7,17)             2.0765         estimate D2E/DX2                !
 ! D31   D(4,6,7,18)          -117.5635         estimate D2E/DX2                !
 ! D32   D(4,6,7,19)           121.4174         estimate D2E/DX2                !
 ! D33   D(8,6,7,17)          -178.5791         estimate D2E/DX2                !
 ! D34   D(8,6,7,18)            61.7809         estimate D2E/DX2                !
 ! D35   D(8,6,7,19)           -59.2382         estimate D2E/DX2                !
 --------------------------------------------------------------------------------
 Trust Radius=3.00D-01 FncErr=1.00D-07 GrdErr=1.00D-06 EigMax=2.50D+02 EigMin=1.00D-04
 Number of steps in this run=     94 maximum allowed number of steps=    114.
 GradGradGradGradGradGradGradGradGradGradGradGradGradGradGradGradGradGrad

                          Input orientation:                          
 ---------------------------------------------------------------------
 Center     Atomic      Atomic             Coordinates (Angstroms)
 Number     Number       Type             X           Y           Z
 ---------------------------------------------------------------------
      1          6           0        0.847870    0.052620    0.043880
      2          6           0        2.347000    0.116430   -0.066840
      3          7           0        2.849280    0.932400   -0.933730
      4          6           0        3.224540   -0.744300    0.833830
      5          6           0        2.866940   -2.229620    0.661990
      6          6           0        4.749700   -0.610830    0.747410
      7          6           0        5.468350    0.295950   -0.226730
      8          8           0        5.452810   -1.291250    1.509390
      9          1           0        0.398610    0.747940   -0.672570
     10          1           0        0.535120    0.335880    1.050310
     11          1           0        0.496280   -0.950630   -0.200760
     12          1           0        2.153670    1.456500   -1.464920
     13          1           0        2.966530   -0.462450    1.867190
     14          1           0        3.103990   -2.568130   -0.351850
     15          1           0        1.803720   -2.420870    0.840770
     16          1           0        3.419290   -2.869620    1.361600
     17          1           0        4.876500    0.913160   -0.881910
     18          1           0        6.080040   -0.319290   -0.890120
     19          1           0        6.084870    0.997570    0.339730
 ---------------------------------------------------------------------
                    Distance matrix (angstroms):
                    1          2          3          4          5
     1  C    0.000000
     2  C    1.504567   0.000000
     3  N    2.394865   1.292126   0.000000
     4  C    2.628243   1.523857   2.465038   0.000000
     5  C    3.109232   2.511072   3.541893   1.537395   0.000000
     6  C    4.019875   2.639105   2.969745   1.533426   2.484464
     7  C    4.634790   3.130594   2.786475   2.691020   3.733050
     8  O    5.015893   3.756610   4.206165   2.391803   2.878428
     9  H    1.094808   2.135869   2.471440   3.532973   4.091402
    10  H    1.091307   2.139881   3.106057   2.906309   3.488548
    11  H    1.090860   2.140494   3.101557   2.925124   2.828459
    12  H    2.439768   1.946225   1.020155   3.357757   4.315088
    13  H    2.842266   2.111727   3.131215   1.101745   2.141335
    14  H    3.480662   2.803770   3.557692   2.178698   1.094830
    15  H    2.768905   2.748964   3.935285   2.197650   1.094977
    16  H    4.109510   3.479474   4.477589   2.198512   1.097335
    17  H    4.222260   2.774435   2.027973   2.901708   4.037205
    18  H    5.327877   3.847497   3.465031   3.362517   4.047520
    19  H    5.329787   3.861784   3.477785   3.385223   4.568772
                    6          7          8          9         10
     6  C    0.000000
     7  C    1.512500   0.000000
     8  O    1.240141   2.352352   0.000000
     9  H    4.774367   5.109338   5.870620   0.000000
    10  H    4.330207   5.095997   5.200191   1.776723   0.000000
    11  H    4.371049   5.126023   5.254315   1.765583   1.794935
    12  H    3.988437   3.723855   5.223119   2.051856   3.194037
    13  H    2.110834   3.349444   2.645093   3.809152   2.686332
    14  H    2.783479   3.716020   3.257544   4.291650   4.122914
    15  H    3.458867   4.685102   3.878009   3.782313   3.041862
    16  H    2.692462   4.091732   2.578429   5.133137   4.323259
    17  H    2.234571   1.077263   3.303010   4.485824   4.786889
    18  H    2.129860   1.092141   2.663789   5.784890   5.911062
    19  H    2.129749   1.092357   2.646942   5.781057   5.634047
                   11         12         13         14         15
    11  H    0.000000
    12  H    3.184229   0.000000
    13  H    3.258354   3.930149   0.000000
    14  H    3.072342   4.282485   3.062176   0.000000
    15  H    2.226160   4.524673   2.498214   1.770517   0.000000
    16  H    3.829814   5.320369   2.501016   1.768112   1.755764
    17  H    4.808743   2.837062   3.619094   3.942352   4.850295
    18  H    5.661465   4.347437   4.161394   3.768805   5.069471
    19  H    5.943059   4.349909   3.766807   4.698739   5.501365
                   16         17         18         19
    16  H    0.000000
    17  H    4.633166   0.000000
    18  H    4.319030   1.722646   0.000000
    19  H    4.806734   1.720374   1.801853   0.000000
 Stoichiometry    C6H11NO
 Framework group  C1[X(C6H11NO)]
 Deg. of freedom    51
 Full point group                 C1      NOp   1
 Largest Abelian subgroup         C1      NOp   1
 Largest concise Abelian subgroup C1      NOp   1
                         Standard orientation:                         
 ---------------------------------------------------------------------
 Center     Atomic      Atomic             Coordinates (Angstroms)
 Number     Number       Type             X           Y           Z
 ---------------------------------------------------------------------
      1          6           0        2.615491   -0.219291   -0.282418
      2          6           0        1.225850    0.325727   -0.093805
      3          7           0        1.109980    1.570624    0.232377
      4          6           0        0.010793   -0.569656   -0.303720
      5          6           0        0.092833   -1.800577    0.613714
      6          6           0       -1.395239    0.027695   -0.170902
      7          6           0       -1.674374    1.463366    0.214571
      8          8           0       -2.376180   -0.702301   -0.377807
      9          1           0        3.347200    0.574281   -0.099524
     10          1           0        2.739355   -0.581330   -1.304443
     11          1           0        2.805212   -1.018726    0.435137
     12          1           0        1.999483    2.060142    0.331738
     13          1           0        0.076060   -0.930292   -1.342721
     14          1           0        0.031686   -1.502037    1.665279
     15          1           0        1.026118   -2.356262    0.475265
     16          1           0       -0.722103   -2.510503    0.423901
     17          1           0       -0.836578    2.121002    0.376155
     18          1           0       -2.228239    1.470686    1.155821
     19          1           0       -2.250748    1.933502   -0.585434
 ---------------------------------------------------------------------
 Rotational constants (GHZ):           3.0935426           1.5425195           1.1178300
 Standard basis: 6-31G(2df,p) (6D, 7F)
 There are   303 symmetry adapted cartesian basis functions of A   symmetry.
 There are   279 symmetry adapted basis functions of A   symmetry.
   279 basis functions,   429 primitive gaussians,   303 cartesian basis functions
    31 alpha electrons       31 beta electrons
       nuclear repulsion energy       376.5709329215 Hartrees.
 NAtoms=   19 NActive=   19 NUniq=   19 SFac= 1.00D+00 NAtFMM=   60 NAOKFM=F Big=F
 Integral buffers will be    131072 words long.
 Raffenetti 2 integral format.
 Two-electron integral symmetry is turned on.
 One-electron integrals computed using PRISM.
 PrsmSu:  requested number of processors reduced to:  13 ShMem   1 Linda.
 NBasis=   279 RedAO= T EigKep=  3.15D-04  NBF=   279
 NBsUse=   279 1.00D-06 EigRej= -1.00D+00 NBFU=   279
 ExpMin= 1.61D-01 ExpMax= 5.48D+03 ExpMxC= 8.25D+02 IAcc=3 IRadAn=         5 AccDes= 0.00D+00
 Harris functional with IExCor=  402 and IRadAn=       5 diagonalized for initial guess.
 HarFok:  IExCor=  402 AccDes= 0.00D+00 IRadAn=         5 IDoV= 1 UseB2=F ITyADJ=14
 ICtDFT=  3500011 ScaDFX=  1.000000  1.000000  1.000000  1.000000
 FoFCou: FMM=F IPFlag=           0 FMFlag=      100000 FMFlg1=           0
         NFxFlg=           0 DoJE=T BraDBF=F KetDBF=T FulRan=T
         wScrn=  0.000000 ICntrl=       500 IOpCl=  0 I1Cent=   200000004 NGrid=           0
         NMat0=    1 NMatS0=      1 NMatT0=    0 NMatD0=    1 NMtDS0=    0 NMtDT0=    0
 Petite list used in FoFCou.
 Requested convergence on RMS density matrix=1.00D-08 within 128 cycles.
 Requested convergence on MAX density matrix=1.00D-06.
 Requested convergence on             energy=1.00D-06.
 No special actions if energy rises.
 Integral accuracy reduced to 1.0D-05 until final iterations.
 Initial convergence to 1.0D-05 achieved.  Increase integral accuracy.
 SCF Done:  E(RB3LYP) =  -365.232954544     A.U. after   13 cycles
            NFock= 13  Conv=0.87D-08     -V/T= 2.0080

 **********************************************************************

            Population analysis using the SCF density.

 **********************************************************************

 Orbital symmetries:
       Occupied  (A) (A) (A) (A) (A) (A) (A) (A) (A) (A) (A) (A)
                 (A) (A) (A) (A) (A) (A) (A) (A) (A) (A) (A) (A)
                 (A) (A) (A) (A) (A) (A) (A)
       Virtual   (A) (A) (A) (A) (A) (A) (A) (A) (A) (A) (A) (A)
                 (A) (A) (A) (A) (A) (A) (A) (A) (A) (A) (A) (A)
                 (A) (A) (A) (A) (A) (A) (A) (A) (A) (A) (A) (A)
                 (A) (A) (A) (A) (A) (A) (A) (A) (A) (A) (A) (A)
                 (A) (A) (A) (A) (A) (A) (A) (A) (A) (A) (A) (A)
                 (A) (A) (A) (A) (A) (A) (A) (A) (A) (A) (A) (A)
                 (A) (A) (A) (A) (A) (A) (A) (A) (A) (A) (A) (A)
                 (A) (A) (A) (A) (A) (A) (A) (A) (A) (A) (A) (A)
                 (A) (A) (A) (A) (A) (A) (A) (A) (A) (A) (A) (A)
                 (A) (A) (A) (A) (A) (A) (A) (A) (A) (A) (A) (A)
                 (A) (A) (A) (A) (A) (A) (A) (A) (A) (A) (A) (A)
                 (A) (A) (A) (A) (A) (A) (A) (A) (A) (A) (A) (A)
                 (A) (A) (A) (A) (A) (A) (A) (A) (A) (A) (A) (A)
                 (A) (A) (A) (A) (A) (A) (A) (A) (A) (A) (A) (A)
                 (A) (A) (A) (A) (A) (A) (A) (A) (A) (A) (A) (A)
                 (A) (A) (A) (A) (A) (A) (A) (A) (A) (A) (A) (A)
                 (A) (A) (A) (A) (A) (A) (A) (A) (A) (A) (A) (A)
                 (A) (A) (A) (A) (A) (A) (A) (A) (A) (A) (A) (A)
                 (A) (A) (A) (A) (A) (A) (A) (A) (A) (A) (A) (A)
                 (A) (A) (A) (A) (A) (A) (A) (A) (A) (A) (A) (A)
                 (A) (A) (A) (A) (A) (A) (A) (A)
 The electronic state is 1-A.
 Alpha  occ. eigenvalues --  -19.11805 -14.31305 -10.26803 -10.24664 -10.21174
 Alpha  occ. eigenvalues --  -10.19831 -10.18928 -10.15724  -1.01612  -0.90898
 Alpha  occ. eigenvalues --   -0.79378  -0.73633  -0.71574  -0.65668  -0.57742
 Alpha  occ. eigenvalues --   -0.52316  -0.47606  -0.46634  -0.45434  -0.44049
 Alpha  occ. eigenvalues --   -0.42127  -0.41618  -0.40635  -0.38895  -0.38022
 Alpha  occ. eigenvalues --   -0.36673  -0.34686  -0.32787  -0.30034  -0.24662
 Alpha  occ. eigenvalues --   -0.23790
 Alpha virt. eigenvalues --   -0.01958  -0.00694   0.07387   0.10877   0.12344
 Alpha virt. eigenvalues --    0.12926   0.14685   0.15431   0.16147   0.17231
 Alpha virt. eigenvalues --    0.19224   0.19667   0.20299   0.21486   0.22543
 Alpha virt. eigenvalues --    0.24279   0.27784   0.31175   0.34992   0.39652
 Alpha virt. eigenvalues --    0.45767   0.46518   0.48125   0.48785   0.50166
 Alpha virt. eigenvalues --    0.50970   0.52484   0.52805   0.54146   0.56560
 Alpha virt. eigenvalues --    0.57971   0.59646   0.61028   0.61585   0.62873
 Alpha virt. eigenvalues --    0.64992   0.66525   0.68020   0.69454   0.71901
 Alpha virt. eigenvalues --    0.73043   0.73473   0.74178   0.75310   0.76286
 Alpha virt. eigenvalues --    0.77997   0.78751   0.79045   0.79877   0.80879
 Alpha virt. eigenvalues --    0.83307   0.84253   0.86924   0.87915   0.89141
 Alpha virt. eigenvalues --    0.91510   0.95226   0.95922   0.97805   1.00569
 Alpha virt. eigenvalues --    1.01603   1.03422   1.04356   1.08212   1.13088
 Alpha virt. eigenvalues --    1.17135   1.19766   1.23077   1.23511   1.27587
 Alpha virt. eigenvalues --    1.28516   1.32026   1.32805   1.35716   1.39049
 Alpha virt. eigenvalues --    1.39337   1.41280   1.41890   1.42249   1.48486
 Alpha virt. eigenvalues --    1.51361   1.53766   1.54784   1.57610   1.59404
 Alpha virt. eigenvalues --    1.60478   1.63913   1.65680   1.68288   1.73765
 Alpha virt. eigenvalues --    1.74489   1.78931   1.80996   1.83580   1.84191
 Alpha virt. eigenvalues --    1.86013   1.91166   1.93503   1.94879   1.95770
 Alpha virt. eigenvalues --    1.97372   1.99681   2.00875   2.03247   2.10341
 Alpha virt. eigenvalues --    2.16649   2.21675   2.24364   2.30141   2.31743
 Alpha virt. eigenvalues --    2.35929   2.38347   2.40189   2.41929   2.45202
 Alpha virt. eigenvalues --    2.50601   2.54452   2.56566   2.59893   2.62564
 Alpha virt. eigenvalues --    2.63264   2.69364   2.70617   2.72989   2.78926
 Alpha virt. eigenvalues --    2.80475   2.82217   2.84980   2.86364   2.88620
 Alpha virt. eigenvalues --    2.89379   2.91837   2.92018   2.92364   2.96232
 Alpha virt. eigenvalues --    2.96884   2.98673   3.01230   3.05289   3.06156
 Alpha virt. eigenvalues --    3.08455   3.15055   3.17683   3.19990   3.21433
 Alpha virt. eigenvalues --    3.22510   3.25380   3.27337   3.28513   3.33213
 Alpha virt. eigenvalues --    3.33942   3.35524   3.37252   3.43792   3.48734
 Alpha virt. eigenvalues --    3.51107   3.58065   3.59293   3.61637   3.62783
 Alpha virt. eigenvalues --    3.63900   3.65658   3.67998   3.69180   3.72563
 Alpha virt. eigenvalues --    3.77252   3.80821   3.83191   3.85832   3.91082
 Alpha virt. eigenvalues --    3.92954   3.95498   3.98932   4.00956   4.06787
 Alpha virt. eigenvalues --    4.09359   4.11810   4.13196   4.15984   4.17381
 Alpha virt. eigenvalues --    4.18901   4.21545   4.23456   4.27484   4.30968
 Alpha virt. eigenvalues --    4.34110   4.37730   4.39581   4.40045   4.41570
 Alpha virt. eigenvalues --    4.43810   4.46053   4.49100   4.50132   4.51619
 Alpha virt. eigenvalues --    4.54605   4.56450   4.57351   4.59950   4.61571
 Alpha virt. eigenvalues --    4.62865   4.65211   4.69163   4.69905   4.73609
 Alpha virt. eigenvalues --    4.74784   4.76880   4.78001   4.79205   4.80863
 Alpha virt. eigenvalues --    4.81657   4.83266   4.87365   4.87799   4.91699
 Alpha virt. eigenvalues --    4.94467   4.98626   5.05121   5.06140   5.10438
 Alpha virt. eigenvalues --    5.12811   5.17078   5.29723   5.32808   5.36802
 Alpha virt. eigenvalues --    5.40798   5.43859   5.52197   5.54559   5.57358
 Alpha virt. eigenvalues --    5.64040   5.74656   5.78592   5.83621   6.01503
 Alpha virt. eigenvalues --    6.12811   6.37045   6.55413   6.93270  10.61033
 Alpha virt. eigenvalues --   10.93328  11.24031  11.59413  11.71235  11.98872
 Alpha virt. eigenvalues --   12.53327  13.18388  13.32088
          Condensed to atoms (all electrons):
               1          2          3          4          5          6
     1  C    5.191650   0.393954  -0.085001  -0.085013  -0.000350   0.003551
     2  C    0.393954   4.501080   0.718686   0.260597  -0.030532  -0.002435
     3  N   -0.085001   0.718686   6.528465  -0.018409  -0.002200  -0.003878
     4  C   -0.085013   0.260597  -0.018409   5.207833   0.366670   0.307904
     5  C   -0.000350  -0.030532  -0.002200   0.366670   4.998163  -0.013804
     6  C    0.003551  -0.002435  -0.003878   0.307904  -0.013804   4.255049
     7  C   -0.000234  -0.001639  -0.045626  -0.097418   0.003371   0.387825
     8  O   -0.000051   0.002621   0.000063  -0.058069  -0.010569   0.726327
     9  H    0.367161  -0.019398  -0.007014   0.002537   0.000215  -0.000066
    10  H    0.351777  -0.018684   0.002602   0.002176  -0.000888  -0.000101
    11  H    0.354609  -0.017249   0.002699  -0.000978   0.000603  -0.000134
    12  H   -0.027761  -0.075811   0.328632   0.009992  -0.000277  -0.000106
    13  H   -0.002502  -0.042748   0.000261   0.341673  -0.030753  -0.012966
    14  H   -0.000075  -0.002155   0.000718  -0.034357   0.378360  -0.002311
    15  H    0.001276  -0.004420   0.000121  -0.025005   0.370933   0.002246
    16  H   -0.000052   0.003501  -0.000022  -0.022768   0.369320  -0.000878
    17  H    0.000740  -0.001775   0.037534  -0.002100   0.000010  -0.000971
    18  H    0.000011   0.000560   0.001506   0.003293  -0.000328  -0.018096
    19  H    0.000013   0.000536   0.001487   0.002677   0.000001  -0.015723
               7          8          9         10         11         12
     1  C   -0.000234  -0.000051   0.367161   0.351777   0.354609  -0.027761
     2  C   -0.001639   0.002621  -0.019398  -0.018684  -0.017249  -0.075811
     3  N   -0.045626   0.000063  -0.007014   0.002602   0.002699   0.328632
     4  C   -0.097418  -0.058069   0.002537   0.002176  -0.000978   0.009992
     5  C    0.003371  -0.010569   0.000215  -0.000888   0.000603  -0.000277
     6  C    0.387825   0.726327  -0.000066  -0.000101  -0.000134  -0.000106
     7  C    5.252063  -0.070389   0.000013   0.000011   0.000003   0.001635
     8  O   -0.070389   7.746787   0.000000   0.000001   0.000000   0.000001
     9  H    0.000013   0.000000   0.574563  -0.026693  -0.026928   0.009844
    10  H    0.000011   0.000001  -0.026693   0.577520  -0.027328   0.000741
    11  H    0.000003   0.000000  -0.026928  -0.027328   0.568711   0.000694
    12  H    0.001635   0.000001   0.009844   0.000741   0.000694   0.538540
    13  H    0.005918  -0.002432  -0.000073   0.003051  -0.000168  -0.000279
    14  H    0.001103   0.000424  -0.000027   0.000070   0.000344  -0.000045
    15  H   -0.000163   0.000309  -0.000045   0.000526   0.003073  -0.000004
    16  H    0.000615   0.011361   0.000001  -0.000007  -0.000084   0.000006
    17  H    0.330802   0.003115  -0.000014  -0.000021  -0.000018  -0.001531
    18  H    0.355346  -0.002393  -0.000000  -0.000000   0.000000  -0.000057
    19  H    0.352029  -0.002114  -0.000000  -0.000000  -0.000000  -0.000063
              13         14         15         16         17         18
     1  C   -0.002502  -0.000075   0.001276  -0.000052   0.000740   0.000011
     2  C   -0.042748  -0.002155  -0.004420   0.003501  -0.001775   0.000560
     3  N    0.000261   0.000718   0.000121  -0.000022   0.037534   0.001506
     4  C    0.341673  -0.034357  -0.025005  -0.022768  -0.002100   0.003293
     5  C   -0.030753   0.378360   0.370933   0.369320   0.000010  -0.000328
     6  C   -0.012966  -0.002311   0.002246  -0.000878  -0.000971  -0.018096
     7  C    0.005918   0.001103  -0.000163   0.000615   0.330802   0.355346
     8  O   -0.002432   0.000424   0.000309   0.011361   0.003115  -0.002393
     9  H   -0.000073  -0.000027  -0.000045   0.000001  -0.000014  -0.000000
    10  H    0.003051   0.000070   0.000526  -0.000007  -0.000021  -0.000000
    11  H   -0.000168   0.000344   0.003073  -0.000084  -0.000018   0.000000
    12  H   -0.000279  -0.000045  -0.000004   0.000006  -0.001531  -0.000057
    13  H    0.620833   0.005724  -0.004069  -0.002159  -0.000153  -0.000052
    14  H    0.005724   0.585060  -0.033535  -0.027172  -0.000042   0.000020
    15  H   -0.004069  -0.033535   0.601644  -0.029521  -0.000003   0.000005
    16  H   -0.002159  -0.027172  -0.029521   0.546231  -0.000036  -0.000027
    17  H   -0.000153  -0.000042  -0.000003  -0.000036   0.513454  -0.027083
    18  H   -0.000052   0.000020   0.000005  -0.000027  -0.027083   0.568782
    19  H   -0.000369  -0.000011   0.000002  -0.000005  -0.026875  -0.016075
              19
     1  C    0.000013
     2  C    0.000536
     3  N    0.001487
     4  C    0.002677
     5  C    0.000001
     6  C   -0.015723
     7  C    0.352029
     8  O   -0.002114
     9  H   -0.000000
    10  H   -0.000000
    11  H   -0.000000
    12  H   -0.000063
    13  H   -0.000369
    14  H   -0.000011
    15  H    0.000002
    16  H   -0.000005
    17  H   -0.026875
    18  H   -0.016075
    19  H    0.570834
 Mulliken charges:
               1
     1  C   -0.463702
     2  C    0.335311
     3  N   -0.460625
     4  C   -0.161236
     5  C   -0.397946
     6  C    0.388567
     7  C   -0.475264
     8  O   -0.344992
     9  H    0.125924
    10  H    0.135249
    11  H    0.142152
    12  H    0.215848
    13  H    0.121265
    14  H    0.127906
    15  H    0.116631
    16  H    0.151696
    17  H    0.174970
    18  H    0.134589
    19  H    0.133657
 Sum of Mulliken charges =  -0.00000
 Mulliken charges with hydrogens summed into heavy atoms:
               1
     1  C   -0.060378
     2  C    0.335311
     3  N   -0.244777
     4  C   -0.039971
     5  C   -0.001712
     6  C    0.388567
     7  C   -0.032048
     8  O   -0.344992
 Electronic spatial extent (au):  <R**2>=           1100.4424
 Charge=             -0.0000 electrons
 Dipole moment (field-independent basis, Debye):
    X=              3.8839    Y=             -0.0412    Z=              0.0748  Tot=              3.8848
 Quadrupole moment (field-independent basis, Debye-Ang):
   XX=            -51.7623   YY=            -49.4607   ZZ=            -47.7391
   XY=             -2.6189   XZ=             -1.7255   YZ=             -0.7183
 Traceless Quadrupole moment (field-independent basis, Debye-Ang):
   XX=             -2.1082   YY=              0.1933   ZZ=              1.9149
   XY=             -2.6189   XZ=             -1.7255   YZ=             -0.7183
 Octapole moment (field-independent basis, Debye-Ang**2):
  XXX=             28.4952  YYY=             -1.9023  ZZZ=             -2.2793  XYY=              2.8927
  XXY=             15.0017  XXZ=              4.3863  XZZ=             -2.7315  YZZ=             -0.8048
  YYZ=              0.0344  XYZ=              2.4318
 Hexadecapole moment (field-independent basis, Debye-Ang**3):
 XXXX=           -892.1497 YYYY=           -456.0423 ZZZZ=           -105.8776 XXXY=              6.3071
 XXXZ=             -3.5797 YYYX=             18.1379 YYYZ=              0.8808 ZZZX=              0.1803
 ZZZY=              3.0111 XXYY=           -205.7052 XXZZ=           -156.6793 YYZZ=            -95.9163
 XXYZ=             -1.6973 YYXZ=              3.5029 ZZXY=             -0.9270
 N-N= 3.765709329215D+02 E-N=-1.602996928568D+03  KE= 3.623465732125D+02
 PrsmSu:  requested number of processors reduced to:  13 ShMem   1 Linda.
 Calling FoFJK, ICntrl=      2127 FMM=F ISym2X=0 I1Cent= 0 IOpClX= 0 NMat=1 NMatS=1 NMatT=0.
 ***** Axes restored to original set *****
 -------------------------------------------------------------------
 Center     Atomic                   Forces (Hartrees/Bohr)
 Number     Number              X              Y              Z
 -------------------------------------------------------------------
      1        6          -0.000054774   -0.005200325    0.003364374
      2        6           0.006646474    0.032652810   -0.032728580
      3        7           0.001962558   -0.013329580    0.012668708
      4        6          -0.006922851    0.000914107    0.001616125
      5        6          -0.003423112   -0.012795948    0.002542967
      6        6           0.032821981   -0.014115340    0.018162859
      7        6           0.005673616    0.007867586   -0.006574248
      8        8          -0.030378700    0.018658049   -0.020523078
      9        1           0.000411022   -0.001062573    0.002696067
     10        1          -0.004998138   -0.003871192    0.003154460
     11        1          -0.005111287   -0.001898301    0.004462157
     12        1          -0.005055819   -0.003980551    0.004020779
     13        1           0.000698235   -0.001093825   -0.000128408
     14        1          -0.000526440    0.000262682   -0.000571743
     15        1           0.000669468    0.001860773   -0.001001549
     16        1           0.001570206    0.006402248   -0.001838193
     17        1          -0.010268971   -0.002579705    0.002042239
     18        1           0.008002066   -0.002506758    0.005771425
     19        1           0.008284467   -0.006184158    0.002863639
 -------------------------------------------------------------------
 Cartesian Forces:  Max     0.032821981 RMS     0.010911071

 GradGradGradGradGradGradGradGradGradGradGradGradGradGradGradGradGradGrad
 Berny optimization.
 FormGI is forming the generalized inverse of G from B-inverse, IUseBI=4.
 Internal  Forces:  Max     0.040070537 RMS     0.009541234
 Search for a local minimum.
 Step number   1 out of a maximum of   94
 All quantities printed in internal units (Hartrees-Bohrs-Radians)
 Mixed Optimization -- RFO/linear search
 Second derivative matrix not updated -- first step.
 ITU=  0
     Eigenvalues ---    0.00271   0.00324   0.00450   0.00460   0.00601
     Eigenvalues ---    0.00706   0.00933   0.03119   0.03693   0.05300
     Eigenvalues ---    0.05405   0.05640   0.05970   0.06488   0.07323
     Eigenvalues ---    0.07385   0.07520   0.16000   0.16000   0.16000
     Eigenvalues ---    0.16000   0.16000   0.16000   0.16000   0.16000
     Eigenvalues ---    0.16000   0.16000   0.17228   0.19991   0.24997
     Eigenvalues ---    0.24999   0.24999   0.25000   0.28751   0.29109
     Eigenvalues ---    0.29998   0.31101   0.31903   0.33490   0.33979
     Eigenvalues ---    0.34244   0.34260   0.34263   0.34542   0.34566
     Eigenvalues ---    0.34662   0.34713   0.36327   0.44313   0.69428
     Eigenvalues ---    0.86989
 RFO step:  Lambda=-2.77898886D-02 EMin= 2.71288263D-03
 Linear search not attempted -- first point.
 Maximum step size (   0.300) exceeded in Quadratic search.
    -- Step size scaled by   0.962
 Iteration  1 RMS(Cart)=  0.20369072 RMS(Int)=  0.00970766
 Iteration  2 RMS(Cart)=  0.02110463 RMS(Int)=  0.00053354
 Iteration  3 RMS(Cart)=  0.00026117 RMS(Int)=  0.00052329
 Iteration  4 RMS(Cart)=  0.00000004 RMS(Int)=  0.00052329
 Variable       Old X    -DE/DX   Delta X   Delta X   Delta X     New X
                                 (Linear)    (Quad)   (Total)
    R1        2.84322   0.01124   0.00000   0.03117   0.03117   2.87439
    R2        2.06889  -0.00261   0.00000  -0.00677  -0.00677   2.06211
    R3        2.06227   0.00334   0.00000   0.00857   0.00857   2.07084
    R4        2.06143   0.00239   0.00000   0.00614   0.00614   2.06757
    R5        2.44176  -0.02333   0.00000  -0.03109  -0.03109   2.41068
    R6        2.87967   0.00684   0.00000   0.02007   0.02007   2.89974
    R7        1.92781  -0.00069   0.00000  -0.00141  -0.00141   1.92640
    R8        2.90525   0.00462   0.00000   0.01410   0.01410   2.91935
    R9        2.89776   0.01406   0.00000   0.04242   0.04242   2.94017
   R10        2.08200  -0.00056   0.00000  -0.00150  -0.00150   2.08050
   R11        2.06893   0.00033   0.00000   0.00087   0.00087   2.06980
   R12        2.06921  -0.00114   0.00000  -0.00296  -0.00296   2.06625
   R13        2.07366  -0.00412   0.00000  -0.01077  -0.01077   2.06289
   R14        2.85821   0.00087   0.00000   0.00248   0.00248   2.86069
   R15        2.34353  -0.04007   0.00000  -0.04295  -0.04295   2.30058
   R16        2.03573   0.00292   0.00000   0.00719   0.00719   2.04292
   R17        2.06385   0.00239   0.00000   0.00615   0.00615   2.07000
   R18        2.06426   0.00219   0.00000   0.00564   0.00564   2.06990
    A1        1.91111   0.00025   0.00000   0.00589   0.00568   1.91679
    A2        1.92027   0.00436   0.00000   0.01899   0.01892   1.93919
    A3        1.92159   0.00565   0.00000   0.02760   0.02744   1.94903
    A4        1.89765  -0.00160   0.00000  -0.00559  -0.00571   1.89194
    A5        1.88082  -0.00099   0.00000   0.00158   0.00130   1.88212
    A6        1.93175  -0.00784   0.00000  -0.04888  -0.04890   1.88285
    A7        2.05271   0.01603   0.00000   0.05552   0.05551   2.10822
    A8        2.10173  -0.03076   0.00000  -0.10657  -0.10657   1.99516
    A9        2.12866   0.01473   0.00000   0.05099   0.05099   2.17964
   A10        1.99183  -0.01456   0.00000  -0.07461  -0.07461   1.91722
   A11        1.92377  -0.00790   0.00000  -0.02272  -0.02435   1.89942
   A12        2.08322   0.02451   0.00000   0.14135   0.14221   2.22543
   A13        1.84939  -0.00485   0.00000  -0.03162  -0.03134   1.81805
   A14        1.88509  -0.01108   0.00000  -0.03669  -0.03891   1.84617
   A15        1.87289   0.00392   0.00000  -0.02057  -0.02260   1.85029
   A16        1.83746  -0.00552   0.00000  -0.04452  -0.04507   1.79239
   A17        1.93035   0.00105   0.00000   0.00476   0.00471   1.93507
   A18        1.95665  -0.00067   0.00000  -0.00174  -0.00178   1.95487
   A19        1.95534  -0.00703   0.00000  -0.03712  -0.03721   1.91813
   A20        1.88329   0.00019   0.00000   0.00304   0.00304   1.88632
   A21        1.87662   0.00251   0.00000   0.00965   0.00957   1.88618
   A22        1.85750   0.00440   0.00000   0.02364   0.02357   1.88107
   A23        2.16646   0.02841   0.00000   0.09840   0.09840   2.26486
   A24        2.07318  -0.02509   0.00000  -0.08688  -0.08688   1.98630
   A25        2.04348  -0.00332   0.00000  -0.01149  -0.01149   2.03200
   A26        2.06481  -0.01105   0.00000  -0.04575  -0.04567   2.01913
   A27        1.89611  -0.00154   0.00000  -0.01376  -0.01408   1.88203
   A28        1.89574  -0.00149   0.00000  -0.01205  -0.01232   1.88342
   A29        1.83490   0.00937   0.00000   0.05721   0.05724   1.89213
   A30        1.83119   0.00995   0.00000   0.06269   0.06281   1.89400
   A31        1.93983  -0.00507   0.00000  -0.04941  -0.05017   1.88965
    D1        0.00237  -0.00078   0.00000  -0.01191  -0.01200  -0.00964
    D2        3.12943  -0.00087   0.00000  -0.01573  -0.01576   3.11367
    D3       -2.08229  -0.00164   0.00000  -0.02031  -0.02038  -2.10267
    D4        1.04477  -0.00174   0.00000  -0.02413  -0.02414   1.02063
    D5        2.06722   0.00156   0.00000   0.01012   0.01020   2.07742
    D6       -1.08890   0.00146   0.00000   0.00631   0.00644  -1.08247
    D7       -0.00321  -0.00042   0.00000  -0.00535  -0.00549  -0.00870
    D8       -3.13004   0.00009   0.00000  -0.00008   0.00006  -3.12997
    D9        0.99654   0.00076   0.00000  -0.01464  -0.01524   0.98130
   D10       -3.09066  -0.00163   0.00000   0.03256   0.03327  -3.05739
   D11       -1.02447   0.00272   0.00000   0.03812   0.03794  -0.98653
   D12       -2.16022   0.00064   0.00000  -0.01866  -0.01922  -2.17945
   D13        0.03576  -0.00174   0.00000   0.02853   0.02929   0.06504
   D14        2.10195   0.00261   0.00000   0.03409   0.03397   2.13591
   D15        1.13644   0.00850   0.00000   0.06263   0.06180   1.19824
   D16       -0.96628   0.00798   0.00000   0.05664   0.05586  -0.91042
   D17       -3.05339   0.00771   0.00000   0.05336   0.05257  -3.00082
   D18       -1.16745  -0.00890   0.00000  -0.07674  -0.07588  -1.24333
   D19        3.01301  -0.00941   0.00000  -0.08273  -0.08182   2.93119
   D20        0.92591  -0.00969   0.00000  -0.08601  -0.08512   0.84079
   D21       -3.14054   0.00084   0.00000   0.00216   0.00205  -3.13849
   D22        1.03993   0.00033   0.00000  -0.00383  -0.00389   1.03604
   D23       -1.04718   0.00006   0.00000  -0.00711  -0.00718  -1.05436
   D24       -0.04372   0.00182   0.00000  -0.01832  -0.01904  -0.06276
   D25        3.10949   0.00163   0.00000  -0.02206  -0.02268   3.08681
   D26        2.17049   0.00045   0.00000   0.03185   0.03160   2.20209
   D27       -0.95948   0.00026   0.00000   0.02811   0.02796  -0.93153
   D28       -2.11604  -0.00268   0.00000  -0.02948  -0.02866  -2.14470
   D29        1.03717  -0.00287   0.00000  -0.03322  -0.03230   1.00487
   D30        0.03624  -0.00028   0.00000  -0.00362  -0.00364   0.03261
   D31       -2.05187  -0.00382   0.00000  -0.03685  -0.03656  -2.08843
   D32        2.11913   0.00413   0.00000   0.03841   0.03800   2.15713
   D33       -3.11679  -0.00023   0.00000  -0.00042  -0.00034  -3.11714
   D34        1.07828  -0.00378   0.00000  -0.03365  -0.03327   1.04501
   D35       -1.03390   0.00417   0.00000   0.04161   0.04129  -0.99261
         Item               Value     Threshold  Converged?
 Maximum Force            0.040071     0.000450     NO 
 RMS     Force            0.009541     0.000300     NO 
 Maximum Displacement     0.700570     0.001800     NO 
 RMS     Displacement     0.214333     0.001200     NO 
 Predicted change in Energy=-1.569279D-02
 GradGradGradGradGradGradGradGradGradGradGradGradGradGradGradGradGradGrad

                          Input orientation:                          
 ---------------------------------------------------------------------
 Center     Atomic      Atomic             Coordinates (Angstroms)
 Number     Number       Type             X           Y           Z
 ---------------------------------------------------------------------
      1          6           0        0.783634   -0.028200    0.132016
      2          6           0        2.256103    0.187969   -0.182195
      3          7           0        2.616366    1.005425   -1.092869
      4          6           0        3.215584   -0.627943    0.694330
      5          6           0        2.855261   -2.124885    0.568184
      6          6           0        4.770190   -0.566699    0.708016
      7          6           0        5.715480    0.232908   -0.163006
      8          8           0        5.282825   -1.282964    1.548413
      9          1           0        0.171026    0.605291   -0.511544
     10          1           0        0.561972    0.221852    1.175670
     11          1           0        0.482933   -1.066715   -0.035736
     12          1           0        1.794681    1.428602   -1.522925
     13          1           0        2.952936   -0.338004    1.723432
     14          1           0        3.089685   -2.499567   -0.433973
     15          1           0        1.794498   -2.308497    0.759538
     16          1           0        3.429992   -2.707578    1.290556
     17          1           0        5.247226    0.882562   -0.889224
     18          1           0        6.359731   -0.474537   -0.696255
     19          1           0        6.344985    0.842437    0.494243
 ---------------------------------------------------------------------
                    Distance matrix (angstroms):
                    1          2          3          4          5
     1  C    0.000000
     2  C    1.521060   0.000000
     3  N    2.434672   1.275676   0.000000
     4  C    2.567152   1.534475   2.494200   0.000000
     5  C    2.979592   2.504267   3.551761   1.544856   0.000000
     6  C    4.063790   2.771756   3.217720   1.555872   2.472741
     7  C    4.947557   3.459722   3.326550   2.779491   3.778184
     8  O    4.880915   3.784137   4.395805   2.330664   2.750044
     9  H    1.091224   2.151784   2.545139   3.499190   3.978038
    10  H    1.095843   2.171412   3.159239   2.827631   3.336973
    11  H    1.094109   2.177111   3.156395   2.862324   2.666906
    12  H    2.425555   1.884048   1.019408   3.341342   4.257328
    13  H    2.708219   2.096101   3.138412   1.100953   2.130042
    14  H    3.427225   2.825084   3.597658   2.189040   1.095290
    15  H    2.572039   2.707819   3.884450   2.201817   1.093411
    16  H    3.940112   3.454157   4.486545   2.174014   1.091635
    17  H    4.668626   3.151057   2.641589   2.986107   4.109777
    18  H    5.654919   4.188428   4.044796   3.441355   4.074771
    19  H    5.640730   4.195814   4.055624   3.463409   4.581336
                    6          7          8          9         10
     6  C    0.000000
     7  C    1.513811   0.000000
     8  O    1.217414   2.326803   0.000000
     9  H    4.900327   5.567865   5.825755   0.000000
    10  H    4.306927   5.324549   4.968890   1.773853   0.000000
    11  H    4.379927   5.393029   5.059175   1.766149   1.770354
    12  H    4.220424   4.318765   5.380786   2.082544   3.202848
    13  H    2.094226   3.393558   2.520310   3.691063   2.515988
    14  H    2.804320   3.799295   3.196848   4.262010   4.048012
    15  H    3.448370   4.762765   3.720546   3.569519   2.845163
    16  H    2.592074   3.997844   2.351384   4.984327   4.101255
    17  H    2.208867   1.081067   3.260805   5.097777   5.162551
    18  H    2.122995   1.095396   2.617597   6.284920   6.132135
    19  H    2.123992   1.095344   2.599383   6.259842   5.855998
                   11         12         13         14         15
    11  H    0.000000
    12  H    3.187322   0.000000
    13  H    3.118751   3.873149   0.000000
    14  H    3.001136   4.277074   3.057033   0.000000
    15  H    1.973496   4.378989   2.480708   1.771577   0.000000
    16  H    3.624450   5.262879   2.455574   1.770050   1.765243
    17  H    5.217912   3.552436   3.685039   4.037453   4.982228
    18  H    5.943376   5.014479   4.180882   3.855222   5.130701
    19  H    6.187842   5.011768   3.796095   4.756842   5.541272
                   16         17         18         19
    16  H    0.000000
    17  H    4.576340   0.000000
    18  H    4.185363   1.765396   0.000000
    19  H    4.661964   1.766541   1.775365   0.000000
 Stoichiometry    C6H11NO
 Framework group  C1[X(C6H11NO)]
 Deg. of freedom    51
 Full point group                 C1      NOp   1
 Largest Abelian subgroup         C1      NOp   1
 Largest concise Abelian subgroup C1      NOp   1
                         Standard orientation:                         
 ---------------------------------------------------------------------
 Center     Atomic      Atomic             Coordinates (Angstroms)
 Number     Number       Type             X           Y           Z
 ---------------------------------------------------------------------
      1          6           0        2.605478   -0.299723   -0.325739
      2          6           0        1.295940    0.429932   -0.068186
      3          7           0        1.288209    1.665681    0.248380
      4          6           0        0.043188   -0.437605   -0.248758
      5          6           0        0.156641   -1.674524    0.669793
      6          6           0       -1.442921    0.015643   -0.166380
      7          6           0       -2.024448    1.370737    0.175920
      8          8           0       -2.241205   -0.870542   -0.410341
      9          1           0        3.442985    0.389318   -0.205015
     10          1           0        2.636748   -0.707396   -1.342449
     11          1           0        2.750237   -1.128905    0.373244
     12          1           0        2.244026    2.016993    0.295144
     13          1           0        0.123906   -0.816237   -1.279399
     14          1           0        0.082512   -1.385976    1.723788
     15          1           0        1.102738   -2.204197    0.528741
     16          1           0       -0.652649   -2.374180    0.452542
     17          1           0       -1.305009    2.154622    0.367328
     18          1           0       -2.651327    1.251547    1.066262
     19          1           0       -2.665256    1.682224   -0.656017
 ---------------------------------------------------------------------
 Rotational constants (GHZ):           3.1378078           1.4440264           1.0755200
 Standard basis: 6-31G(2df,p) (6D, 7F)
 There are   303 symmetry adapted cartesian basis functions of A   symmetry.
 There are   279 symmetry adapted basis functions of A   symmetry.
   279 basis functions,   429 primitive gaussians,   303 cartesian basis functions
    31 alpha electrons       31 beta electrons
       nuclear repulsion energy       373.3994142035 Hartrees.
 NAtoms=   19 NActive=   19 NUniq=   19 SFac= 1.00D+00 NAtFMM=   60 NAOKFM=F Big=F
 Integral buffers will be    131072 words long.
 Raffenetti 2 integral format.
 Two-electron integral symmetry is turned on.
 One-electron integrals computed using PRISM.
 PrsmSu:  requested number of processors reduced to:  13 ShMem   1 Linda.
 NBasis=   279 RedAO= T EigKep=  3.05D-04  NBF=   279
 NBsUse=   279 1.00D-06 EigRej= -1.00D+00 NBFU=   279
 Initial guess from the checkpoint file:  "CCpdNpCpCpCpCpdO.chk"
 B after Tr=    -0.000000   -0.000000   -0.000000
         Rot=    0.999782    0.012011    0.002198   -0.016932 Ang=   2.39 deg.
 ExpMin= 1.61D-01 ExpMax= 5.48D+03 ExpMxC= 8.25D+02 IAcc=2 IRadAn=         4 AccDes= 0.00D+00
 Harris functional with IExCor=  402 and IRadAn=       4 diagonalized for initial guess.
 HarFok:  IExCor=  402 AccDes= 0.00D+00 IRadAn=         4 IDoV= 1 UseB2=F ITyADJ=14
 ICtDFT=  3500011 ScaDFX=  1.000000  1.000000  1.000000  1.000000
 FoFCou: FMM=F IPFlag=           0 FMFlag=      100000 FMFlg1=           0
         NFxFlg=           0 DoJE=T BraDBF=F KetDBF=T FulRan=T
         wScrn=  0.000000 ICntrl=       500 IOpCl=  0 I1Cent=   200000004 NGrid=           0
         NMat0=    1 NMatS0=      1 NMatT0=    0 NMatD0=    1 NMtDS0=    0 NMtDT0=    0
 Petite list used in FoFCou.
 Requested convergence on RMS density matrix=1.00D-08 within 128 cycles.
 Requested convergence on MAX density matrix=1.00D-06.
 Requested convergence on             energy=1.00D-06.
 No special actions if energy rises.
 Integral accuracy reduced to 1.0D-05 until final iterations.
 Initial convergence to 1.0D-05 achieved.  Increase integral accuracy.
 SCF Done:  E(RB3LYP) =  -365.236554940     A.U. after   11 cycles
            NFock= 11  Conv=0.98D-08     -V/T= 2.0080
 PrsmSu:  requested number of processors reduced to:  13 ShMem   1 Linda.
 Calling FoFJK, ICntrl=      2127 FMM=F ISym2X=0 I1Cent= 0 IOpClX= 0 NMat=1 NMatS=1 NMatT=0.
 ***** Axes restored to original set *****
 -------------------------------------------------------------------
 Center     Atomic                   Forces (Hartrees/Bohr)
 Number     Number              X              Y              Z
 -------------------------------------------------------------------
      1        6           0.000401094   -0.001116252    0.001013243
      2        6           0.001556325    0.006286793   -0.005669512
      3        7           0.012824105   -0.006421806    0.005692660
      4        6          -0.007584394    0.002248835   -0.002220717
      5        6          -0.001549464   -0.009066396    0.001766795
      6        6           0.006877812   -0.006277473    0.008990856
      7        6          -0.005624915    0.005451300   -0.005488575
      8        8          -0.001918153    0.003879436   -0.001610854
      9        1          -0.000793455    0.001217430    0.000202904
     10        1          -0.000423174   -0.001586253    0.000663639
     11        1          -0.001354040    0.001930201    0.000919717
     12        1          -0.000268802    0.001504848   -0.001693640
     13        1           0.001117920   -0.000701864    0.000214287
     14        1          -0.000691322    0.000499035   -0.000588845
     15        1           0.002696900   -0.000036980   -0.000087533
     16        1           0.000326023    0.001955314   -0.001070902
     17        1          -0.007233855    0.002721474   -0.003370960
     18        1           0.000800776    0.000174425    0.002373484
     19        1           0.000840619   -0.002662067   -0.000036047
 -------------------------------------------------------------------
 Cartesian Forces:  Max     0.012824105 RMS     0.003901258

 GradGradGradGradGradGradGradGradGradGradGradGradGradGradGradGradGradGrad
 Berny optimization.
 Using GEDIIS/GDIIS optimizer.
 FormGI is forming the generalized inverse of G from B-inverse, IUseBI=4.
 Internal  Forces:  Max     0.030705454 RMS     0.007047353
 Search for a local minimum.
 Step number   2 out of a maximum of   94
 All quantities printed in internal units (Hartrees-Bohrs-Radians)
 Mixed Optimization -- RFO/linear search
 Update second derivatives using D2CorX and points    1    2
 DE= -3.60D-03 DEPred=-1.57D-02 R= 2.29D-01
 Trust test= 2.29D-01 RLast= 3.70D-01 DXMaxT set to 3.00D-01
 ITU=  0  0
 Use linear search instead of GDIIS.
     Eigenvalues ---    0.00271   0.00324   0.00448   0.00465   0.00601
     Eigenvalues ---    0.00704   0.00989   0.03119   0.03140   0.05366
     Eigenvalues ---    0.05574   0.05798   0.06323   0.06727   0.07114
     Eigenvalues ---    0.07315   0.07567   0.14416   0.16000   0.16000
     Eigenvalues ---    0.16000   0.16000   0.16000   0.16000   0.16000
     Eigenvalues ---    0.16000   0.16025   0.19730   0.21150   0.23073
     Eigenvalues ---    0.24997   0.24999   0.28624   0.28902   0.29897
     Eigenvalues ---    0.31100   0.31702   0.33489   0.33942   0.34213
     Eigenvalues ---    0.34250   0.34260   0.34525   0.34559   0.34647
     Eigenvalues ---    0.34698   0.36094   0.44255   0.48368   0.68491
     Eigenvalues ---    0.84444
 RFO step:  Lambda=-4.84431270D-03 EMin= 2.71043908D-03
 Quartic linear search produced a step of -0.44888.
 Iteration  1 RMS(Cart)=  0.12017655 RMS(Int)=  0.00342938
 Iteration  2 RMS(Cart)=  0.00660099 RMS(Int)=  0.00037695
 Iteration  3 RMS(Cart)=  0.00001301 RMS(Int)=  0.00037692
 Iteration  4 RMS(Cart)=  0.00000000 RMS(Int)=  0.00037692
 Variable       Old X    -DE/DX   Delta X   Delta X   Delta X     New X
                                 (Linear)    (Quad)   (Total)
    R1        2.87439   0.00262  -0.01399   0.02309   0.00910   2.88349
    R2        2.06211   0.00103   0.00304  -0.00246   0.00058   2.06270
    R3        2.07084   0.00036  -0.00385   0.00574   0.00189   2.07274
    R4        2.06757  -0.00160  -0.00276   0.00121  -0.00154   2.06602
    R5        2.41068  -0.00246   0.01395  -0.02190  -0.00794   2.40274
    R6        2.89974  -0.00715  -0.00901  -0.00099  -0.01000   2.88974
    R7        1.92640   0.00156   0.00063   0.00103   0.00167   1.92807
    R8        2.91935   0.00626  -0.00633   0.02009   0.01376   2.93311
    R9        2.94017  -0.00612  -0.01904   0.01369  -0.00535   2.93482
   R10        2.08050  -0.00025   0.00067  -0.00131  -0.00064   2.07986
   R11        2.06980   0.00022  -0.00039   0.00087   0.00048   2.07028
   R12        2.06625  -0.00263   0.00133  -0.00595  -0.00462   2.06163
   R13        2.06289  -0.00158   0.00484  -0.00902  -0.00419   2.05871
   R14        2.86069  -0.00025  -0.00111   0.00105  -0.00006   2.86062
   R15        2.30058  -0.00420   0.01928  -0.03054  -0.01127   2.28931
   R16        2.04292   0.00703  -0.00323   0.01488   0.01166   2.05458
   R17        2.07000  -0.00080  -0.00276   0.00247  -0.00029   2.06970
   R18        2.06990  -0.00102  -0.00253   0.00181  -0.00072   2.06918
    A1        1.91679   0.00007  -0.00255   0.00212  -0.00034   1.91644
    A2        1.93919   0.00021  -0.00849   0.01072   0.00225   1.94144
    A3        1.94903   0.00262  -0.01232   0.02373   0.01147   1.96050
    A4        1.89194  -0.00033   0.00256  -0.00566  -0.00305   1.88889
    A5        1.88212  -0.00074  -0.00058  -0.00248  -0.00295   1.87917
    A6        1.88285  -0.00195   0.02195  -0.03000  -0.00806   1.87479
    A7        2.10822   0.01301  -0.02492   0.05984   0.03459   2.14281
    A8        1.99516   0.01050   0.04784  -0.03896   0.00859   2.00375
    A9        2.17964  -0.02353  -0.02289  -0.02164  -0.04474   2.13491
   A10        1.91722   0.00321   0.03349  -0.02806   0.00543   1.92265
   A11        1.89942   0.01467   0.01093   0.01554   0.02480   1.92423
   A12        2.22543  -0.02660  -0.06384  -0.03579  -0.09962   2.12581
   A13        1.81805   0.00480   0.01407   0.01846   0.03160   1.84965
   A14        1.84617   0.00815   0.01747  -0.01324   0.00394   1.85012
   A15        1.85029  -0.00448   0.01015   0.02805   0.03800   1.88829
   A16        1.79239   0.00468   0.02023  -0.00051   0.02030   1.81268
   A17        1.93507  -0.00037  -0.00212   0.00138  -0.00072   1.93435
   A18        1.95487   0.00109   0.00080   0.00241   0.00322   1.95810
   A19        1.91813  -0.00210   0.01670  -0.02624  -0.00951   1.90862
   A20        1.88632  -0.00020  -0.00136   0.00064  -0.00072   1.88560
   A21        1.88618   0.00102  -0.00429   0.00890   0.00463   1.89082
   A22        1.88107   0.00062  -0.01058   0.01397   0.00343   1.88450
   A23        2.26486  -0.03071  -0.04417  -0.00950  -0.05384   2.21102
   A24        1.98630   0.01525   0.03900  -0.01709   0.02174   2.00804
   A25        2.03200   0.01546   0.00516   0.02682   0.03181   2.06380
   A26        2.01913  -0.00598   0.02050  -0.04682  -0.02638   1.99276
   A27        1.88203   0.00023   0.00632  -0.00493   0.00151   1.88354
   A28        1.88342   0.00032   0.00553  -0.00393   0.00171   1.88513
   A29        1.89213   0.00328  -0.02569   0.03787   0.01214   1.90428
   A30        1.89400   0.00348  -0.02819   0.04110   0.01284   1.90684
   A31        1.88965  -0.00122   0.02252  -0.02383  -0.00098   1.88867
    D1       -0.00964  -0.00036   0.00539  -0.00457   0.00142  -0.00821
    D2        3.11367  -0.00190   0.00708  -0.04850  -0.04198   3.07169
    D3       -2.10267  -0.00013   0.00915  -0.00573   0.00402  -2.09865
    D4        1.02063  -0.00167   0.01084  -0.04966  -0.03938   0.98125
    D5        2.07742   0.00042  -0.00458   0.00892   0.00488   2.08229
    D6       -1.08247  -0.00112  -0.00289  -0.03501  -0.03852  -1.12099
    D7       -0.00870  -0.00068   0.00246  -0.02483  -0.02216  -0.03086
    D8       -3.12997   0.00060  -0.00003   0.02402   0.02379  -3.10618
    D9        0.98130   0.00161   0.00684   0.08757   0.09419   1.07549
   D10       -3.05739   0.00548  -0.01493   0.04781   0.03250  -3.02489
   D11       -0.98653  -0.00170  -0.01703   0.04046   0.02250  -0.96403
   D12       -2.17945   0.00046   0.00863   0.04254   0.05197  -2.12748
   D13        0.06504   0.00433  -0.01315   0.00278  -0.00972   0.05532
   D14        2.13591  -0.00285  -0.01525  -0.00457  -0.01973   2.11619
   D15        1.19824  -0.00907  -0.02774  -0.03428  -0.06240   1.13584
   D16       -0.91042  -0.00930  -0.02507  -0.03772  -0.06319  -0.97361
   D17       -3.00082  -0.00938  -0.02360  -0.03920  -0.06318  -3.06400
   D18       -1.24333   0.00746   0.03406   0.01244   0.04670  -1.19663
   D19        2.93119   0.00723   0.03673   0.00901   0.04592   2.97711
   D20        0.84079   0.00716   0.03821   0.00752   0.04593   0.88672
   D21       -3.13849   0.00078  -0.00092   0.00721   0.00649  -3.13200
   D22        1.03604   0.00055   0.00175   0.00377   0.00570   1.04174
   D23       -1.05436   0.00048   0.00322   0.00229   0.00571  -1.04865
   D24       -0.06276  -0.00468   0.00855   0.01230   0.02034  -0.04242
   D25        3.08681  -0.00545   0.01018  -0.02498  -0.01523   3.07158
   D26        2.20209   0.00228  -0.01418  -0.01498  -0.02832   2.17376
   D27       -0.93153   0.00151  -0.01255  -0.05227  -0.06389  -0.99542
   D28       -2.14470   0.00204   0.01286   0.01095   0.02335  -2.12135
   D29        1.00487   0.00127   0.01450  -0.02634  -0.01222   0.99265
   D30        0.03261  -0.00047   0.00163  -0.02117  -0.01959   0.01302
   D31       -2.08843  -0.00089   0.01641  -0.03507  -0.01885  -2.10728
   D32        2.15713   0.00025  -0.01706  -0.00246  -0.01939   2.13775
   D33       -3.11714   0.00031   0.00015   0.01675   0.01693  -3.10020
   D34        1.04501  -0.00011   0.01493   0.00286   0.01768   1.06269
   D35       -0.99261   0.00103  -0.01853   0.03547   0.01714  -0.97547
         Item               Value     Threshold  Converged?
 Maximum Force            0.030705     0.000450     NO 
 RMS     Force            0.007047     0.000300     NO 
 Maximum Displacement     0.488156     0.001800     NO 
 RMS     Displacement     0.123724     0.001200     NO 
 Predicted change in Energy=-4.861230D-03
 GradGradGradGradGradGradGradGradGradGradGradGradGradGradGradGradGradGrad

                          Input orientation:                          
 ---------------------------------------------------------------------
 Center     Atomic      Atomic             Coordinates (Angstroms)
 Number     Number       Type             X           Y           Z
 ---------------------------------------------------------------------
      1          6           0        0.816351    0.032768    0.111767
      2          6           0        2.313428    0.145768   -0.160801
      3          7           0        2.796130    0.929935   -1.037570
      4          6           0        3.198490   -0.694939    0.760219
      5          6           0        2.870831   -2.202612    0.590845
      6          6           0        4.747472   -0.587242    0.728785
      7          6           0        5.575333    0.275114   -0.199928
      8          8           0        5.324885   -1.251613    1.561144
      9          1           0        0.269109    0.715790   -0.540499
     10          1           0        0.581400    0.289615    1.151910
     11          1           0        0.436022   -0.975966   -0.070156
     12          1           0        2.044448    1.421206   -1.521948
     13          1           0        2.934432   -0.399165    1.786937
     14          1           0        3.127256   -2.546138   -0.417349
     15          1           0        1.814871   -2.416578    0.762243
     16          1           0        3.451820   -2.781184    1.308162
     17          1           0        4.988905    0.873550   -0.892789
     18          1           0        6.239714   -0.383962   -0.768934
     19          1           0        6.194214    0.937113    0.414632
 ---------------------------------------------------------------------
                    Distance matrix (angstroms):
                    1          2          3          4          5
     1  C    0.000000
     2  C    1.525877   0.000000
     3  N    2.458741   1.271473   0.000000
     4  C    2.573836   1.529183   2.456452   0.000000
     5  C    3.073651   2.527956   3.531313   1.552136   0.000000
     6  C    4.027262   2.693184   3.038021   1.553040   2.479966
     7  C    4.775332   3.264704   2.975636   2.740852   3.752171
     8  O    4.906853   3.739872   4.231675   2.339428   2.805043
     9  H    1.091533   2.155999   2.584332   3.501899   4.070131
    10  H    1.096845   2.178031   3.179443   2.823460   3.430377
    11  H    1.093293   2.188871   3.184094   2.898228   2.805330
    12  H    2.470832   1.884625   1.020291   3.319362   4.275378
    13  H    2.734781   2.115722   3.124655   1.100617   2.164972
    14  H    3.502999   2.823915   3.546464   2.195149   1.095545
    15  H    2.723868   2.768788   3.924455   2.208721   1.090967
    16  H    4.036754   3.467108   4.439008   2.171828   1.089420
    17  H    4.373357   2.867691   2.198273   2.897961   4.018729
    18  H    5.510187   4.008262   3.695506   3.418195   4.062740
    19  H    5.461775   4.002231   3.695392   3.428905   4.575347
                    6          7          8          9         10
     6  C    0.000000
     7  C    1.513776   0.000000
     8  O    1.211452   2.344140   0.000000
     9  H    4.833705   5.335372   5.817942   0.000000
    10  H    4.278326   5.173688   5.004349   1.772963   0.000000
    11  H    4.402046   5.290989   5.161212   1.763837   1.765297
    12  H    4.050431   3.940610   5.235521   2.147716   3.251234
    13  H    2.107646   3.372927   2.547924   3.709990   2.532674
    14  H    2.788548   3.741634   3.227972   4.338703   4.121341
    15  H    3.456550   4.723564   3.783595   3.728035   2.999461
    16  H    2.613001   4.015545   2.431453   5.077009   4.206368
    17  H    2.195838   1.087235   3.263585   4.735553   4.893657
    18  H    2.123975   1.095240   2.649338   6.075340   6.013307
    19  H    2.124950   1.094961   2.619302   6.005674   5.697940
                   11         12         13         14         15
    11  H    0.000000
    12  H    3.231279   0.000000
    13  H    3.165999   3.880018   0.000000
    14  H    3.135079   4.258219   3.083107   0.000000
    15  H    2.160897   4.472004   2.524553   1.769344   0.000000
    16  H    3.775395   5.258355   2.484136   1.771433   1.763680
    17  H    4.982587   3.060325   3.608544   3.922505   4.861950
    18  H    5.875508   4.628813   4.178228   3.806049   5.104436
    19  H    6.087008   4.604915   3.780878   4.715026   5.526909
                   16         17         18         19
    16  H    0.000000
    17  H    4.534743   0.000000
    18  H    4.222956   1.777976   0.000000
    19  H    4.705833   1.779370   1.774299   0.000000
 Stoichiometry    C6H11NO
 Framework group  C1[X(C6H11NO)]
 Deg. of freedom    51
 Full point group                 C1      NOp   1
 Largest Abelian subgroup         C1      NOp   1
 Largest concise Abelian subgroup C1      NOp   1
                         Standard orientation:                         
 ---------------------------------------------------------------------
 Center     Atomic      Atomic             Coordinates (Angstroms)
 Number     Number       Type             X           Y           Z
 ---------------------------------------------------------------------
      1          6           0        2.607172   -0.235185   -0.344568
      2          6           0        1.252175    0.403320   -0.053713
      3          7           0        1.123132    1.625065    0.273902
      4          6           0        0.049936   -0.516949   -0.268483
      5          6           0        0.132117   -1.739387    0.684417
      6          6           0       -1.409035    0.006006   -0.169214
      7          6           0       -1.843572    1.411547    0.187370
      8          8           0       -2.265212   -0.808584   -0.435711
      9          1           0        3.397974    0.509102   -0.234518
     10          1           0        2.648593   -0.631166   -1.366601
     11          1           0        2.831773   -1.061044    0.335728
     12          1           0        2.038606    2.071376    0.334783
     13          1           0        0.129185   -0.882288   -1.303666
     14          1           0        0.047562   -1.424436    1.730302
     15          1           0        1.068478   -2.287716    0.571400
     16          1           0       -0.686748   -2.423700    0.465297
     17          1           0       -1.021344    2.097776    0.374752
     18          1           0       -2.472660    1.353011    1.082006
     19          1           0       -2.454408    1.796190   -0.635957
 ---------------------------------------------------------------------
 Rotational constants (GHZ):           3.0722305           1.5172413           1.1135905
 Standard basis: 6-31G(2df,p) (6D, 7F)
 There are   303 symmetry adapted cartesian basis functions of A   symmetry.
 There are   279 symmetry adapted basis functions of A   symmetry.
   279 basis functions,   429 primitive gaussians,   303 cartesian basis functions
    31 alpha electrons       31 beta electrons
       nuclear repulsion energy       375.7872718045 Hartrees.
 NAtoms=   19 NActive=   19 NUniq=   19 SFac= 1.00D+00 NAtFMM=   60 NAOKFM=F Big=F
 Integral buffers will be    131072 words long.
 Raffenetti 2 integral format.
 Two-electron integral symmetry is turned on.
 One-electron integrals computed using PRISM.
 PrsmSu:  requested number of processors reduced to:  13 ShMem   1 Linda.
 NBasis=   279 RedAO= T EigKep=  2.96D-04  NBF=   279
 NBsUse=   279 1.00D-06 EigRej= -1.00D+00 NBFU=   279
 Initial guess from the checkpoint file:  "CCpdNpCpCpCpCpdO.chk"
 B after Tr=    -0.000000    0.000000    0.000000
         Rot=    0.999977   -0.006120    0.000697    0.002833 Ang=  -0.78 deg.
 ExpMin= 1.61D-01 ExpMax= 5.48D+03 ExpMxC= 8.25D+02 IAcc=2 IRadAn=         4 AccDes= 0.00D+00
 Harris functional with IExCor=  402 and IRadAn=       4 diagonalized for initial guess.
 HarFok:  IExCor=  402 AccDes= 0.00D+00 IRadAn=         4 IDoV= 1 UseB2=F ITyADJ=14
 ICtDFT=  3500011 ScaDFX=  1.000000  1.000000  1.000000  1.000000
 FoFCou: FMM=F IPFlag=           0 FMFlag=      100000 FMFlg1=           0
         NFxFlg=           0 DoJE=T BraDBF=F KetDBF=T FulRan=T
         wScrn=  0.000000 ICntrl=       500 IOpCl=  0 I1Cent=   200000004 NGrid=           0
         NMat0=    1 NMatS0=      1 NMatT0=    0 NMatD0=    1 NMtDS0=    0 NMtDT0=    0
 Petite list used in FoFCou.
 Requested convergence on RMS density matrix=1.00D-08 within 128 cycles.
 Requested convergence on MAX density matrix=1.00D-06.
 Requested convergence on             energy=1.00D-06.
 No special actions if energy rises.
 Integral accuracy reduced to 1.0D-05 until final iterations.
 Initial convergence to 1.0D-05 achieved.  Increase integral accuracy.
 SCF Done:  E(RB3LYP) =  -365.242788564     A.U. after   12 cycles
            NFock= 12  Conv=0.40D-08     -V/T= 2.0079
 PrsmSu:  requested number of processors reduced to:  13 ShMem   1 Linda.
 Calling FoFJK, ICntrl=      2127 FMM=F ISym2X=0 I1Cent= 0 IOpClX= 0 NMat=1 NMatS=1 NMatT=0.
 ***** Axes restored to original set *****
 -------------------------------------------------------------------
 Center     Atomic                   Forces (Hartrees/Bohr)
 Number     Number              X              Y              Z
 -------------------------------------------------------------------
      1        6           0.002529994    0.001041024   -0.001598486
      2        6          -0.001661606    0.002477418    0.006534241
      3        7          -0.000094049   -0.001680538   -0.001496598
      4        6          -0.001479070   -0.001303349   -0.009459757
      5        6          -0.001239321   -0.001328556    0.002125993
      6        6           0.002506946    0.002487158    0.006913864
      7        6          -0.003955833    0.004500086   -0.006752776
      8        8           0.001514654   -0.002675768    0.002414339
      9        1          -0.000930159    0.001131601   -0.000254011
     10        1           0.000936006   -0.001137562   -0.000119544
     11        1           0.000555588   -0.000406642    0.000632605
     12        1          -0.000690621    0.001046874   -0.001808609
     13        1          -0.000168424   -0.002563434   -0.000607075
     14        1          -0.000271148    0.000932030    0.000014753
     15        1          -0.000750613    0.000490555    0.000121545
     16        1           0.001249422    0.000481589    0.000139127
     17        1          -0.001157089   -0.001291722    0.000931493
     18        1           0.001589602    0.000198119    0.001917260
     19        1           0.001515720   -0.002398885    0.000351637
 -------------------------------------------------------------------
 Cartesian Forces:  Max     0.009459757 RMS     0.002526712

 GradGradGradGradGradGradGradGradGradGradGradGradGradGradGradGradGradGrad
 Berny optimization.
 Using GEDIIS/GDIIS optimizer.
 FormGI is forming the generalized inverse of G from B-inverse, IUseBI=4.
 Internal  Forces:  Max     0.006476424 RMS     0.001446659
 Search for a local minimum.
 Step number   3 out of a maximum of   94
 All quantities printed in internal units (Hartrees-Bohrs-Radians)
 Mixed Optimization -- RFO/linear search
 Update second derivatives using D2CorX and points    1    2    3
 DE= -6.23D-03 DEPred=-4.86D-03 R= 1.28D+00
 TightC=F SS=  1.41D+00  RLast= 2.63D-01 DXNew= 5.0454D-01 7.9015D-01
 Trust test= 1.28D+00 RLast= 2.63D-01 DXMaxT set to 5.05D-01
 ITU=  1  0  0
 Use linear search instead of GDIIS.
     Eigenvalues ---    0.00272   0.00324   0.00448   0.00484   0.00601
     Eigenvalues ---    0.00709   0.01055   0.03117   0.03745   0.05360
     Eigenvalues ---    0.05625   0.05656   0.06253   0.06909   0.07007
     Eigenvalues ---    0.07293   0.07575   0.14738   0.16000   0.16000
     Eigenvalues ---    0.16000   0.16000   0.16000   0.16000   0.16000
     Eigenvalues ---    0.16011   0.16399   0.19297   0.20344   0.22951
     Eigenvalues ---    0.24990   0.25877   0.28603   0.28748   0.29868
     Eigenvalues ---    0.31084   0.32218   0.33472   0.33968   0.34167
     Eigenvalues ---    0.34260   0.34296   0.34544   0.34560   0.34672
     Eigenvalues ---    0.34688   0.35822   0.41205   0.44370   0.68734
     Eigenvalues ---    0.85450
 RFO step:  Lambda=-2.25419816D-03 EMin= 2.71615641D-03
 Quartic linear search produced a step of -0.00058.
 Iteration  1 RMS(Cart)=  0.06065330 RMS(Int)=  0.00151592
 Iteration  2 RMS(Cart)=  0.00325142 RMS(Int)=  0.00026629
 Iteration  3 RMS(Cart)=  0.00000627 RMS(Int)=  0.00026627
 Iteration  4 RMS(Cart)=  0.00000000 RMS(Int)=  0.00026627
 Variable       Old X    -DE/DX   Delta X   Delta X   Delta X     New X
                                 (Linear)    (Quad)   (Total)
    R1        2.88349  -0.00332  -0.00001  -0.00752  -0.00752   2.87597
    R2        2.06270   0.00133  -0.00000   0.00352   0.00352   2.06622
    R3        2.07274  -0.00058  -0.00000  -0.00096  -0.00096   2.07177
    R4        2.06602   0.00008   0.00000   0.00038   0.00038   2.06641
    R5        2.40274   0.00159   0.00000  -0.00036  -0.00035   2.40238
    R6        2.88974  -0.00015   0.00001  -0.00054  -0.00054   2.88920
    R7        1.92807   0.00187  -0.00000   0.00430   0.00430   1.93237
    R8        2.93311  -0.00061  -0.00001   0.00027   0.00026   2.93337
    R9        2.93482   0.00195   0.00000   0.00834   0.00835   2.94317
   R10        2.07986  -0.00121   0.00000  -0.00374  -0.00374   2.07612
   R11        2.07028  -0.00037  -0.00000  -0.00096  -0.00096   2.06932
   R12        2.06163   0.00065   0.00000   0.00118   0.00118   2.06281
   R13        2.05871   0.00050   0.00000   0.00039   0.00039   2.05910
   R14        2.86062   0.00166   0.00000   0.00540   0.00540   2.86602
   R15        2.28931   0.00385   0.00001   0.00072   0.00073   2.29004
   R16        2.05458  -0.00068  -0.00001  -0.00012  -0.00012   2.05445
   R17        2.06970  -0.00015   0.00000  -0.00012  -0.00012   2.06958
   R18        2.06918  -0.00040   0.00000  -0.00091  -0.00091   2.06827
    A1        1.91644   0.00122   0.00000   0.01143   0.01142   1.92786
    A2        1.94144  -0.00128  -0.00000  -0.00912  -0.00917   1.93227
    A3        1.96050  -0.00072  -0.00001  -0.00279  -0.00286   1.95764
    A4        1.88889   0.00038   0.00000   0.00381   0.00383   1.89272
    A5        1.87917   0.00053   0.00000   0.00774   0.00771   1.88687
    A6        1.87479  -0.00007   0.00000  -0.01073  -0.01082   1.86397
    A7        2.14281  -0.00012  -0.00002   0.00766   0.00716   2.14997
    A8        2.00375  -0.00108  -0.00001  -0.00822  -0.00870   1.99505
    A9        2.13491   0.00125   0.00003   0.00370   0.00325   2.13816
   A10        1.92265   0.00202  -0.00000   0.00892   0.00891   1.93156
   A11        1.92423   0.00084  -0.00001   0.01888   0.01850   1.94273
   A12        2.12581  -0.00062   0.00006   0.00593   0.00535   2.13116
   A13        1.84965   0.00034  -0.00002  -0.00623  -0.00609   1.84356
   A14        1.85012   0.00163  -0.00000   0.01851   0.01811   1.86822
[...]
 1,0.04477735,-0.10650784,0.02864395,-0.00181503,-0.00355629,0.01031881
 ,-0.00202116,0.44918249,0.00786195,-0.00612857,0.00862176,-0.02172990,
 0.01778690,-0.08784087,-0.02581861,0.02302592,-0.03867630,-0.09327551,
 -0.00514040,0.55888316,-0.00152546,0.00214489,-0.00304998,-0.01083145,
 0.02326435,0.00738903,-0.00023356,0.00189756,0.00191798,-0.08135733,0.
 01950765,0.02016666,0.56330390,0.00019732,-0.00029080,0.00141199,0.010
 29141,-0.02207380,-0.00545209,0.00046789,-0.00019755,-0.00273800,0.024
 87493,-0.14775299,-0.04062515,0.02315102,0.49191442,-0.00228937,0.0013
 4787,-0.00223344,-0.00257749,0.01358729,0.01347697,-0.00022542,0.00143
 220,-0.00167906,0.02112119,-0.04072773,-0.10715041,0.01317498,-0.04931
 045,0.55349450,0.00028967,-0.00013310,0.00093473,-0.03138751,0.0026228
 2,-0.02081871,0.00019278,-0.00262739,0.00840272,-0.12357173,-0.0350923
 8,0.00703393,0.01639772,0.00288189,-0.00131490,0.42682502,0.00150780,-
 0.00127823,0.00227029,0.00223038,0.02599341,-0.01134901,0.00344001,-0.
 00281646,0.01031772,-0.01223862,-0.09761846,0.01173870,-0.01907789,-0.
 01965822,-0.00860473,0.05016361,0.45743961,0.00124121,0.00082465,0.001
 25460,-0.02488195,-0.00072523,-0.01415781,0.00042957,0.00002802,0.0011
 7017,0.00993004,-0.00152584,-0.06697854,-0.01111574,-0.01103499,-0.006
 64282,-0.08354528,0.28646356,0.76465866,-0.00016223,-0.00001232,0.0000
 8220,0.00125529,-0.00098143,0.00149150,-0.00025480,0.00045859,-0.00056
 020,-0.01230946,-0.00744652,0.01594851,-0.00254661,-0.00166623,-0.0004
 4070,-0.15548884,-0.01540191,0.03816084,0.49886943,0.00000842,0.000382
 49,-0.00005380,-0.00047623,-0.00295741,0.00146041,-0.00041901,0.000379
 85,-0.00131133,-0.02029722,0.00708751,0.00511499,0.00060778,0.00118755
 ,0.00046682,-0.02144506,-0.08769038,0.01721765,0.02665476,0.55758235,-
 0.00011250,-0.00045108,-0.00019579,0.00176265,0.00031038,0.00250413,0.
 00098530,0.00055734,-0.00086414,-0.00362268,-0.00529138,0.01035736,-0.
 00035621,0.00039461,0.00006020,0.03719650,0.01394516,-0.10552781,0.056
 98586,0.03332908,0.51679865,-0.00032093,0.00097676,0.00002766,0.001109
 60,-0.00046557,0.00210514,0.00078933,0.00066997,-0.00205732,0.01170622
 ,-0.02429809,-0.02541220,-0.00710670,-0.00170621,-0.00153969,-0.100043
 13,0.00136984,0.03104630,0.00945760,0.01433497,0.03884293,0.08389416,-
 0.00029006,0.00008130,-0.00136691,0.00331568,-0.01119285,0.00273127,-0
 .00233606,0.00172639,-0.00407479,-0.01972170,-0.01044044,-0.04060595,-
 0.00366778,0.00016943,-0.00107025,0.00443229,-0.26096497,-0.29926568,0
 .00155108,0.01341434,-0.02007248,0.00843339,0.26179067,-0.00038908,-0.
 00003335,-0.00082952,0.00573050,-0.00703423,0.00479674,-0.00168111,0.0
 0077335,-0.00238011,-0.01596156,-0.02755184,-0.02297561,-0.00573105,-0
 .00045624,0.00143497,0.03515932,-0.29697039,-0.56053301,0.02121560,-0.
 03066836,-0.03878654,-0.04246696,0.35987012,0.62169578,-0.10741672,0.0
 8493315,-0.07179691,-0.01249845,0.01446367,-0.01394640,0.00110434,-0.0
 0235929,-0.00172679,-0.00113307,0.00253610,0.00339460,-0.00099747,0.00
 028923,-0.00095461,0.00090044,0.00043459,-0.00008849,-0.00001105,-0.00
 005921,0.00010962,-0.00040866,-0.00006572,-0.00008594,0.11507676,0.085
 65963,-0.16622920,0.09940343,0.00786633,-0.01239906,0.01222230,-0.0017
 6296,0.00157870,0.00065201,0.00240917,-0.00017824,-0.00183075,0.000614
 26,-0.00000199,0.00045299,-0.00019993,-0.00128424,-0.00076802,0.000093
 10,0.00019216,0.00011208,-0.00023564,0.00061540,0.00051914,-0.09654346
 ,0.17790409,-0.07399092,0.10161683,-0.13395414,0.00972733,-0.01340085,
 0.00851704,0.00023319,-0.00043867,0.00326328,0.00238991,-0.00119625,-0
 .00157102,0.00046458,-0.00043000,0.00060283,0.00009883,-0.00062511,-0.
 00058210,-0.00001256,-0.00002180,0.00009908,-0.00058125,0.00040705,0.0
 0033473,0.07776228,-0.10995494,0.14247229,-0.10752124,-0.05690479,-0.0
 9784429,0.01532817,0.01038325,0.01670679,-0.00624831,-0.00101229,0.003
 10627,-0.00022926,-0.00089691,-0.00055820,0.00008239,-0.00027652,0.000
 17058,-0.00076628,0.00235020,0.00202623,-0.00020194,-0.00008826,-0.000
 25062,-0.00024001,-0.00160521,-0.00097656,-0.00709104,-0.00729503,-0.0
 0858178,0.11680379,-0.05718238,-0.10540362,-0.09068715,-0.01096215,-0.
 00771435,-0.01261772,0.00342284,0.00044890,-0.00069583,0.00088553,0.00
 094999,-0.00003366,-0.00029795,0.00001742,0.00006579,0.00075481,-0.001
 35657,-0.00179695,-0.00000713,0.00007827,0.00032103,-0.00131559,0.0008
 0816,0.00103020,0.01065451,0.01179453,0.01676341,0.06451655,0.11119525
 ,-0.09876369,-0.09185631,-0.18795907,-0.00826126,-0.00822315,-0.017724
 76,0.00454419,-0.00055100,-0.00025993,0.00044655,0.00083019,0.00054797
 ,-0.00009849,-0.00009655,-0.00013750,0.00046818,-0.00067006,-0.0006405
 3,-0.00002116,0.00006772,-0.00001602,-0.00082312,0.00071213,0.00011813
 ,-0.00705817,-0.00851988,-0.01149137,0.10328082,0.10196287,0.20580421,
 -0.16214945,-0.10546378,0.07445250,-0.01373217,-0.01404916,0.00925692,
 0.00050522,0.00367263,0.00061066,0.00060483,0.00027223,0.00103297,0.00
 009362,0.00028336,-0.00036780,0.00026115,-0.00029905,-0.00018293,0.000
 08258,0.00013434,0.00008578,0.00000223,0.00028966,0.00007972,0.0115276
 1,0.00977658,-0.00703657,-0.01088372,-0.00980346,0.00696539,0.17465926
 ,-0.10285246,-0.14102457,0.06924465,0.01326103,0.01399454,-0.00689041,
 -0.00106622,-0.00356600,-0.00227662,-0.00035941,-0.00008155,0.00013892
 ,-0.00013175,0.00001252,0.00008420,-0.00020935,-0.00037178,-0.00078270
 ,0.00007396,-0.00000421,0.00011617,-0.00021760,0.00035805,0.00014786,-
 0.01442689,-0.01233346,0.00715005,-0.01027889,-0.01001477,0.00753376,0
 .11536301,0.15242346,0.07501289,0.07179467,-0.08753173,0.01366013,0.01
 198382,-0.01262000,-0.00044332,-0.00549046,-0.00099544,-0.00092344,-0.
 00069399,-0.00017550,0.00014418,-0.00000168,0.00006810,-0.00033372,0.0
 0002136,-0.00022223,-0.00006950,-0.00006444,-0.00006270,-0.00013050,0.
 00032357,0.00013910,0.01252041,0.01006906,-0.00758899,-0.01669832,-0.0
 1466611,0.01075288,-0.08387712,-0.07438021,0.09723175,-0.00381756,-0.0
 0767086,0.00175561,-0.00237128,0.00344911,0.00970381,-0.20019104,0.158
 70192,-0.11445438,0.01002951,0.00634242,-0.00002934,-0.00081221,0.0000
 7839,-0.00022810,0.00077244,-0.00171798,0.00133752,-0.00023881,0.00013
 853,-0.00024497,-0.00014545,0.00053839,0.00023075,0.00087948,-0.000250
 32,-0.00041216,0.00074010,-0.00031077,-0.00054770,-0.00075707,0.000648
 90,0.00136858,0.19636415,-0.00803207,-0.00463751,-0.00348776,0.0073162
 9,-0.00379877,-0.00658075,0.15439282,-0.18557402,0.10953694,0.00828192
 ,0.00814670,0.00142118,-0.00055173,0.00089904,-0.00044013,0.00010576,-
 0.00276984,0.00110037,-0.00009548,0.00032937,-0.00021879,0.00009335,0.
 00138202,0.00057540,-0.00012000,0.00036245,0.00043586,0.00127102,-0.00
 058356,-0.00129444,-0.00061319,0.00078386,0.00111544,-0.16083853,0.184
 40701,-0.00202641,0.00110511,0.00220840,-0.03421712,0.03392775,-0.0334
 8452,-0.07057528,0.06921145,-0.08531167,0.00347408,-0.00083786,-0.0047
 5281,0.00075379,-0.00062487,0.00020536,0.00040089,0.00044505,0.0000244
 9,-0.00001423,0.00001005,-0.00006642,0.00003023,-0.00036848,-0.0000578
 3,0.00145510,-0.00159287,-0.00035611,-0.00009089,-0.00013246,0.0006715
 5,-0.00018234,-0.00012001,0.00061142,0.10294741,-0.10212521,0.12045032
 ,0.00009794,0.00027020,-0.00044301,0.00963689,0.00641020,-0.01962068,-
 0.00223988,0.00301563,-0.00206976,-0.09432677,-0.02761976,0.10283204,-
 0.00382670,-0.00156881,0.00719587,-0.01935747,-0.01105724,0.02522772,-
 0.00267365,-0.00303074,-0.00294191,0.00371363,0.00453390,-0.00071336,0
 .00029232,-0.00024717,-0.00000546,0.00003520,-0.00004799,0.00006637,-0
 .00031274,0.00023277,-0.00010020,-0.00111972,-0.00064326,-0.00123065,0
 .11019910,0.00020322,0.00015926,0.00037798,-0.00980161,-0.00476371,0.0
 1519022,0.00250378,-0.00224067,0.00220561,-0.02489807,-0.06394641,0.05
 073944,0.01301456,0.00588016,-0.02582254,-0.01026946,-0.00587977,0.016
 96844,-0.00183467,-0.00099971,-0.00172843,0.00150269,0.00156782,-0.000
 95132,-0.00018900,0.00025359,-0.00019395,-0.00006433,-0.00047064,0.000
 02588,0.00048252,-0.00010646,0.00002178,0.00087684,0.00095404,0.000914
 21,0.02770728,0.07247632,0.00090411,-0.00126633,0.00094013,0.00878571,
 0.00428851,-0.01728025,-0.00192356,0.00328965,-0.00073310,0.10256800,0
 .05544856,-0.23733759,0.00629731,0.00262159,-0.01227679,-0.00400341,-0
 .00414467,0.00382709,-0.00087768,-0.00065179,-0.00009568,-0.00154746,0
 .00036978,0.00170982,0.00005070,-0.00051700,0.00024701,-0.00002815,0.0
 0027918,0.00026440,-0.00081331,0.00006456,0.00038583,-0.00100392,-0.00
 035400,-0.00088730,-0.10824620,-0.05658482,0.26033927,0.00009609,0.000
 11730,-0.00037819,0.00052254,-0.00102485,0.00185357,-0.00040329,-0.000
 15559,-0.00040745,-0.00497633,-0.00167324,0.00782690,-0.08619499,-0.02
 352248,0.09343642,0.00036381,0.00032292,-0.00066065,-0.00013520,-0.000
 44367,0.00003633,0.00000217,0.00005310,0.00023576,-0.00006091,0.000076
 65,-0.00005305,0.00008265,-0.00011722,-0.00008471,0.00015646,-0.000076
 53,-0.00010330,0.00038585,-0.00029668,-0.00038361,0.00023315,0.0019983
 6,0.00056660,0.09134381,-0.00006173,0.00017257,0.00024376,-0.00016427,
 0.00178247,-0.00008897,0.00037419,-0.00151127,0.00015192,0.01213586,0.
 00686945,-0.02691658,-0.02515254,-0.06031180,0.05715409,0.00044473,0.0
 0150905,-0.00024966,-0.00065175,-0.00027062,-0.00043252,-0.00046603,-0
 .00019666,0.00037860,0.00004796,-0.00007377,0.00011019,-0.00007300,0.0
 0014844,0.00009420,-0.00015552,0.00004617,0.00002695,-0.00033900,0.000
 18793,0.00030703,0.00170037,-0.00506180,-0.00266527,0.02668285,0.06646
 976,0.00012599,-0.00001277,0.00001495,-0.00076100,0.00078991,-0.001305
 97,-0.00153849,0.00133958,0.00041633,0.00711245,0.00169524,-0.01500752
 ,0.09487288,0.05421890,-0.26492525,0.00183409,0.00092287,-0.00056800,0
 .00020759,0.00020012,0.00021199,-0.00078555,-0.00028884,0.00042790,0.0
 0003852,-0.00005263,0.00005141,0.00003412,0.00003520,0.00002881,-0.000
 04468,-0.00003846,-0.00000673,-0.00006224,0.00022175,0.00031707,0.0001
 0810,-0.00279730,-0.00018764,-0.10439960,-0.05828135,0.28805632,0.0000
 3958,-0.00026689,0.00017108,0.00102548,0.00021492,-0.00008880,0.000311
 39,0.00005990,0.00039186,0.00857953,0.00769398,0.00154397,-0.21942220,
 -0.12433364,-0.03125263,-0.00158864,0.00205543,0.00053484,-0.00017462,
 -0.00007471,-0.00008335,0.00086448,0.00025843,0.00070182,0.00004832,-0
 .00005347,-0.00001131,0.00000101,0.00000347,0.00000330,-0.00006635,0.0
 0002518,0.00002765,-0.00001953,-0.00015417,-0.00005666,0.00060432,-0.0
 0049579,-0.00046095,-0.01031194,-0.00623061,-0.00267333,0.23632880,0.0
 0002647,-0.00005801,-0.00007832,-0.00166784,0.00134505,-0.00160199,0.0
 0061934,0.00066368,0.00115087,-0.02136235,-0.01911109,-0.00320341,-0.1
 2274919,-0.13309888,-0.02108624,0.00529441,-0.00204445,-0.00155398,-0.
 00012055,0.00041115,0.00005744,-0.00194062,-0.00137304,-0.00184858,0.0
 0000970,0.00000503,0.00002843,-0.00007494,0.00007107,0.00000107,0.0000
 4831,-0.00008250,-0.00002583,-0.00004027,-0.00013323,0.00007937,0.0002
 1233,0.00116354,0.00000916,-0.00575388,-0.00442133,-0.00114613,0.13371
 808,0.14613882,0.00001890,0.00007992,-0.00005539,-0.00003551,0.0012281
 6,0.00014457,-0.00023063,-0.00029356,0.00023842,-0.01311513,-0.0122633
 1,-0.00343324,-0.03096748,-0.02075365,-0.05072060,0.00371563,-0.001541
 87,-0.00060176,-0.00016414,0.00061792,0.00007511,-0.00133910,-0.000701
 61,-0.00100059,0.00000931,0.00001514,-0.00001036,-0.00003202,0.0000082
 0,0.00000962,0.00009013,-0.00002040,-0.00004528,-0.00016823,-0.0001614
 9,0.00003749,-0.00048117,0.00058358,0.00024308,0.02388134,0.01679594,0
 .00534595,0.03303258,0.02717577,0.05262612,-0.00008828,0.00022727,-0.0
 0034318,0.00071142,0.00076033,0.00119779,0.00029776,0.00003736,0.00038
 482,-0.00517927,0.00377881,-0.00379031,-0.16459946,0.08982620,-0.09398
 095,-0.00015151,-0.00088610,-0.00029443,0.00004108,0.00011756,0.000215
 28,0.00018771,0.00044644,0.00051874,-0.00013050,0.00006650,0.00005271,
 0.00001133,0.00000518,-0.00002232,-0.00001469,-0.00003163,-0.00001154,
 -0.00000352,-0.00010359,-0.00005558,-0.00014954,-0.00008175,0.00012066
 ,0.00932176,-0.00744734,0.00651791,-0.01680137,0.01409478,-0.01404116,
 0.17651129,0.00066408,-0.00076159,0.00117991,0.00083852,-0.00335938,-0
 .00405303,0.00012107,0.00029671,-0.00000836,0.01640403,-0.01539170,0.0
 1496440,0.08901981,-0.11571518,0.07215295,0.00147902,0.00112770,0.0012
 3731,0.00013528,-0.00050853,0.00013484,-0.00017986,-0.00020743,-0.0003
 5155,0.00040595,-0.00023211,-0.00025635,-0.00002461,0.00004146,0.00002
 104,0.00004680,-0.00000603,-0.00003891,0.00012224,0.00002706,-0.000071
 57,-0.00012675,0.00097686,-0.00020106,0.00447804,-0.00421447,0.0031125
 6,-0.01218723,0.01047027,-0.01054251,-0.10040699,0.12718554,0.00046025
 ,-0.00043390,0.00074112,0.00029371,-0.00275234,-0.00347928,-0.00060019
 ,0.00098255,0.00044675,0.01254028,-0.01067506,0.00916573,-0.09398937,0
 .07344183,-0.12352037,-0.00057513,0.00040829,0.00117510,-0.00026260,0.
 00011390,-0.00020051,0.00042106,0.00026053,-0.00020711,0.00028389,-0.0
 0016405,-0.00006915,-0.00006873,0.00005778,0.00006157,0.00000631,0.000
 00714,0.00002430,-0.00000543,0.00035321,0.00031274,-0.00012339,0.00086
 580,0.00063212,-0.02075703,0.01316386,-0.01326495,-0.00170777,0.001965
 51,-0.00297740,0.10366500,-0.07736528,0.13097884,-0.00025139,0.0000480
 1,-0.00014776,-0.00105405,-0.00102843,0.00131971,-0.00021615,0.0007543
 2,-0.00042316,-0.00106846,0.00157254,-0.00220010,-0.00010645,-0.000149
 72,-0.00021592,0.01601238,-0.00562366,0.02355760,-0.07523262,0.0089251
 3,-0.08212208,-0.00643314,0.00338486,0.00297979,-0.00005760,0.00000125
 ,-0.00001804,0.00011808,-0.00017936,-0.00011044,0.00002623,-0.00002049
 ,-0.00002265,0.00037481,-0.00000613,-0.00021181,0.00047017,0.00042312,
 -0.00009037,-0.00005456,-0.00063498,0.00021065,-0.00007607,-0.00005761
 ,0.00010298,0.00001664,0.00009434,-0.00004106,0.07896801,0.00004995,-0
 .00002967,-0.00008485,-0.00020049,-0.00007041,0.00012878,0.00018658,-0
 .00028468,0.00014857,-0.00044148,0.00029618,-0.00017767,-0.00000786,-0
 .00018126,0.00087619,0.00336970,-0.00246730,-0.00011053,0.00931974,-0.
 05151988,0.04311524,0.00075177,0.00081766,-0.00011155,0.00001705,0.000
 00094,0.00000070,0.00006385,0.00000082,-0.00004255,0.00000019,-0.00002
 057,-0.00000208,0.00026657,-0.00000256,-0.00012009,0.00019207,-0.00004
 426,-0.00005977,-0.00041593,-0.00086259,-0.00037733,0.00011734,0.00009
 651,-0.00034288,-0.00008434,0.00012781,-0.00008314,-0.01558752,0.05390
 917,-0.00000880,-0.00006503,0.00009152,0.00030948,0.00015244,-0.001104
 77,-0.00073587,-0.00000323,0.00069636,0.00143062,-0.00065020,0.0010019
 3,-0.00011685,-0.00012644,-0.00015397,-0.00916474,0.00146416,-0.020877
 99,-0.08442829,0.04500690,-0.27394301,0.00498870,0.00011744,-0.0008712
 0,0.00002822,-0.00000947,0.00003510,-0.00015955,0.00007848,-0.00006315
 ,-0.00003713,0.00002829,0.00000478,-0.00013083,-0.00011476,0.00001157,
 -0.00030506,-0.00019886,0.00003268,-0.00012147,0.00006794,0.00037930,-
 0.00003874,-0.00004252,0.00009732,-0.00007651,-0.00008976,0.00005867,0
 .08962319,-0.04695338,0.29895847,0.00003732,-0.00008359,0.00008287,0.0
 0041469,0.00020206,0.00003925,0.00000566,-0.00016610,0.00022198,0.0005
 1963,-0.00149024,0.00119761,-0.00078126,-0.00005180,-0.00009712,-0.010
 19681,0.02427340,-0.00321708,-0.11536946,0.11690864,0.00340463,-0.0012
 9707,-0.00230808,0.00352543,0.00001183,-0.00003843,-0.00001638,0.00003
 478,-0.00003809,-0.00002101,-0.00003881,0.00002411,-0.00000139,0.00000
 516,-0.00006001,-0.00001030,-0.00001378,-0.00035019,-0.00003553,-0.000
 41464,-0.00013477,-0.00056588,0.00047338,-0.00027511,-0.00019750,-0.00
 003316,-0.00065549,0.00033084,-0.00551059,0.00880646,0.00027921,0.1207
 9046,-0.00003123,-0.00003483,-0.00002260,-0.00001317,0.00007976,-0.000
 02571,0.00006877,0.00010981,0.00005507,0.00107006,-0.00067859,0.000141
 55,-0.00146312,-0.00091099,-0.00054329,-0.00089954,0.00295617,-0.00380
 148,0.11367203,-0.23966281,-0.00423773,0.00075991,0.00083513,0.0017436
 9,-0.00001112,-0.00001075,-0.00000030,-0.00000448,-0.00001653,-0.00000
 278,-0.00000502,0.00000719,0.00000467,-0.00002462,-0.00003276,-0.00000
 651,0.00008128,-0.00006753,0.00002584,-0.00029380,-0.00016121,0.000215
 25,-0.00020105,-0.00010829,0.00003854,-0.00038192,-0.00008663,-0.00001
 822,0.00260214,-0.00555429,-0.00073325,-0.12761139,0.26130771,0.000035
 52,0.00004484,-0.00000526,-0.00052619,-0.00024855,-0.00067723,-0.00041
 453,-0.00019454,0.00031844,-0.00086728,0.00171197,-0.00068980,0.000494
 77,0.00007679,0.00077667,0.00984421,-0.02213498,-0.00127159,0.00571714
 ,-0.00820685,-0.03692448,0.00183157,0.00331802,-0.00454952,0.00000566,
 0.00000723,0.00000930,-0.00002898,0.00002975,0.00000942,-0.00000361,-0
 .00000723,0.00001426,0.00007344,0.00001555,-0.00000185,0.00006879,-0.0
 0003008,-0.00004507,-0.00036448,0.00002622,-0.00036123,0.00002271,0.00
 017568,-0.00016277,-0.00002800,0.00023631,0.00006092,-0.01640469,0.026
 68724,0.00141516,-0.00499522,0.00623120,0.04304666,-0.00003095,0.00006
 709,-0.00002670,0.00066997,-0.00076362,0.00076425,-0.00008530,0.000070
 06,-0.00040584,-0.00274742,0.00022340,0.00397503,0.00046424,0.00093376
 ,0.00038568,-0.01946348,-0.02184574,-0.00950531,-0.14490667,-0.1214960
 3,-0.04989057,0.00426794,0.00275740,-0.00237182,-0.00003563,0.00006296
 ,-0.00000934,-0.00005569,0.00001917,0.00003729,0.00003581,0.00004225,-
 0.00001883,-0.00007531,0.00005368,-0.00000664,-0.00126247,-0.00072749,
 -0.00026256,0.00004357,0.00012558,-0.00023150,0.00018443,0.00001896,-0
 .00007878,0.00005230,-0.00022824,0.00012938,-0.00592524,-0.00640366,-0
 .00133557,0.01136267,0.01268626,0.00553916,0.15750722,-0.00002814,0.00
 003273,-0.00010509,-0.00010200,-0.00032967,0.00027513,0.00004155,0.000
 10816,-0.00022425,-0.00023366,0.00087721,-0.00040987,-0.00012208,0.000
 11290,-0.00001500,-0.00067286,-0.00282527,-0.00222491,-0.12374054,-0.1
 9743150,-0.05996097,0.00193256,0.00080902,0.00093903,-0.00001722,0.000
 03593,0.00000569,0.00001438,0.00000573,0.00000785,0.00001955,-0.000013
 90,0.00000242,0.00002905,0.00005277,-0.00000010,-0.00001431,0.00014936
 ,0.00004790,0.00004465,-0.00010032,0.00024345,-0.00014917,0.00006572,0
 .00007811,0.00006323,0.00022966,-0.00012840,0.00548219,0.00578836,0.00
 207124,-0.01695140,-0.01797057,-0.00773858,0.13440421,0.21040368,0.000
 07047,0.00000373,0.00011930,0.00007549,0.00059885,-0.00072864,-0.00026
 227,-0.00022046,0.00029163,0.00326559,-0.00093668,-0.00198870,-0.00025
 098,-0.00051559,-0.00067940,0.01466688,0.01804367,0.00649407,-0.052958
 19,-0.06262719,-0.07342344,-0.00261043,-0.00029492,0.00153386,-0.00000
 100,-0.00004376,-0.00000884,-0.00000671,-0.00000200,0.00002375,-0.0000
 3488,0.00000044,0.00001618,-0.00012980,0.00000164,0.00006809,0.0007819
 6,0.00041434,0.00022199,-0.00012338,0.00011365,0.00037724,-0.00005625,
 -0.00005628,0.00018972,-0.00002893,-0.00006093,0.00006092,-0.01578582,
 -0.02249090,-0.00576876,0.00007556,0.00093605,-0.00096203,0.05331269,0
 .06713634,0.07416305\\-0.00000215,-0.00000015,-0.00000023,0.00000146,-
 0.00001329,0.00000765,-0.00000077,0.00000413,-0.00000126,-0.00001718,0
 .00000839,-0.00001282,0.00000439,-0.00000171,0.00000608,0.00000675,0.0
 0000084,0.00000230,0.00000422,-0.00000779,0.00000862,0.00000427,-0.000
 00314,-0.00000123,-0.00000055,0.00000112,0.00000147,0.00000050,0.00000
 229,-0.00000010,0.00000049,0.00000001,-0.00000066,-0.00000102,0.000000
 69,0.00000229,0.00000145,-0.00000043,-0.00000003,-0.00000102,-0.000000
 74,-0.00000051,-0.00000057,0.00000062,-0.00000319,0.00000071,-0.000000
 87,-0.00000152,0.00000046,0.00000485,0.00000038,-0.00000085,0.00000271
 ,-0.00000170,-0.00000058,0.00000246,-0.00000555\\\@


 THE BEST WAY TO CONVINCE A FOOL THAT HE IS WRONG 
 IS TO LET HIM HAVE HIS OWN WAY.

                                         JOSH BILLINGS
 Job cpu time:       0 days  1 hours 31 minutes  4.4 seconds.
 Elapsed time:       0 days  0 hours 22 minutes 46.4 seconds.
 File lengths (MBytes):  RWF=    117 Int=      0 D2E=      0 Chk=      7 Scr=      1
 Normal termination of Gaussian 16 at Sun Jul  3 21:17:35 2022.
### All Done ###
