### Starting Gaussian ###
 Entering Gaussian System, Link 0=g16
 Initial command:
 /cluster/software/gaussian/gaussian-16-A.03/avx2/g16/l1.exe "/local/scratch/ks29c/Gau-22732.inp" -scrdir="/local/scratch/ks29c/"
 Entering Link 1 = /cluster/software/gaussian/gaussian-16-A.03/avx2/g16/l1.exe PID=     22755.
  
 Copyright (c) 1988,1990,1992,1993,1995,1998,2003,2009,2016,
            Gaussian, Inc.  All Rights Reserved.
  
 This is part of the Gaussian(R) 16 program.  It is based on
 the Gaussian(R) 09 system (copyright 2009, Gaussian, Inc.),
 the Gaussian(R) 03 system (copyright 2003, Gaussian, Inc.),
 the Gaussian(R) 98 system (copyright 1998, Gaussian, Inc.),
 the Gaussian(R) 94 system (copyright 1995, Gaussian, Inc.),
 the Gaussian 92(TM) system (copyright 1992, Gaussian, Inc.),
 the Gaussian 90(TM) system (copyright 1990, Gaussian, Inc.),
 the Gaussian 88(TM) system (copyright 1988, Gaussian, Inc.),
 the Gaussian 86(TM) system (copyright 1986, Carnegie Mellon
 University), and the Gaussian 82(TM) system (copyright 1983,
 Carnegie Mellon University). Gaussian is a federally registered
 trademark of Gaussian, Inc.
  
 This software contains proprietary and confidential information,
 including trade secrets, belonging to Gaussian, Inc.
  
 This software is provided under written license and may be
 used, copied, transmitted, or stored only in accord with that
 written license.
  
 The following legend is applicable only to US Government
 contracts under FAR:
  
                    RESTRICTED RIGHTS LEGEND
  
 Use, reproduction and disclosure by the US Government is
 subject to restrictions as set forth in subparagraphs (a)
 and (c) of the Commercial Computer Software - Restricted
 Rights clause in FAR 52.227-19.
  
 Gaussian, Inc.
 340 Quinnipiac St., Bldg. 40, Wallingford CT 06492
  
  
 ---------------------------------------------------------------
 Warning -- This program may not be used in any manner that
 competes with the business of Gaussian, Inc. or will provide
 assistance to any competitor of Gaussian, Inc.  The licensee
 of this program is prohibited from giving any competitor of
 Gaussian, Inc. access to this program.  By using this program,
 the user acknowledges that Gaussian, Inc. is engaged in the
 business of creating and licensing software in the field of
 computational chemistry and represents and warrants to the
 licensee that it is not a competitor of Gaussian, Inc. and that
 it will not use this program in any manner prohibited above.
 ---------------------------------------------------------------
  

 Cite this work as:
 Gaussian 16, Revision A.03,
 M. J. Frisch, G. W. Trucks, H. B. Schlegel, G. E. Scuseria, 
 M. A. Robb, J. R. Cheeseman, G. Scalmani, V. Barone, 
 G. A. Petersson, H. Nakatsuji, X. Li, M. Caricato, A. V. Marenich, 
 J. Bloino, B. G. Janesko, R. Gomperts, B. Mennucci, H. P. Hratchian, 
 J. V. Ortiz, A. F. Izmaylov, J. L. Sonnenberg, D. Williams-Young, 
 F. Ding, F. Lipparini, F. Egidi, J. Goings, B. Peng, A. Petrone, 
 T. Henderson, D. Ranasinghe, V. G. Zakrzewski, J. Gao, N. Rega, 
 G. Zheng, W. Liang, M. Hada, M. Ehara, K. Toyota, R. Fukuda, 
 J. Hasegawa, M. Ishida, T. Nakajima, Y. Honda, O. Kitao, H. Nakai, 
 T. Vreven, K. Throssell, J. A. Montgomery, Jr., J. E. Peralta, 
 F. Ogliaro, M. J. Bearpark, J. J. Heyd, E. N. Brothers, K. N. Kudin, 
 V. N. Staroverov, T. A. Keith, R. Kobayashi, J. Normand, 
 K. Raghavachari, A. P. Rendell, J. C. Burant, S. S. Iyengar, 
 J. Tomasi, M. Cossi, J. M. Millam, M. Klene, C. Adamo, R. Cammi, 
 J. W. Ochterski, R. L. Martin, K. Morokuma, O. Farkas, 
 J. B. Foresman, and D. J. Fox, Gaussian, Inc., Wallingford CT, 2016.
 
 ******************************************
 Gaussian 16:  ES64L-G16RevA.03 25-Dec-2016
                 3-Jul-2022 
 ******************************************
 %chk=CCpdCNNpCpCppCpN.chk
 %NProcShared=20
 Will use up to   20 processors via shared memory.
 -----------------------------
 # opt freq b3lyp/6-31g(2df,p)
 -----------------------------
 1/18=20,19=15,26=3,38=1/1,3;
 2/9=110,12=2,17=6,18=5,40=1/2;
 3/5=1,6=6,7=104,11=2,25=1,30=1,71=1,74=-5/1,2,3;
 4//1;
 5/5=2,38=5/2;
 6/7=2,8=2,9=2,10=2,28=1/1;
 7//1,2,3,16;
 1/18=20,19=15,26=3/3(2);
 2/9=110/2;
 99//99;
 2/9=110/2;
 3/5=1,6=6,7=104,11=2,25=1,30=1,71=1,74=-5/1,2,3;
 4/5=5,16=3,69=1/1;
 5/5=2,38=5/2;
 7//1,2,3,16;
 1/18=20,19=15,26=3/3(-5);
 2/9=110/2;
 6/7=2,8=2,9=2,10=2,19=2,28=1/1;
 99/9=1/99;
 -------------------
 Title Card Required
 -------------------
 Symbolic Z-matrix:
 Charge =  0 Multiplicity = 1
 C                     0.907     0.02577  -0.02705 
 C                     2.41904   0.10664   0.03859 
 C                     3.02066   1.02807   0.82527 
 N                     2.42846   1.95131   1.64372 
 N                     3.14815   2.89208   2.3624 
 C                     3.17982  -0.92002  -0.82487 
 C                     2.84219  -2.35899  -0.39286 
 C                     2.84176  -0.74804  -2.31615 
 N                     4.6407   -0.7944   -0.71803 
 H                     0.39883   0.76604   0.59423 
 H                     0.55253  -0.94864   0.3188 
 H                     0.55191   0.19732  -1.04664 
 H                     4.10367   1.08526   0.8667 
 H                     1.41481   2.04948   1.59491 
 H                     4.15638   2.75123   2.28643 
 H                     2.93539   2.79355   3.35838 
 H                     1.77981  -2.58624  -0.53241 
 H                     3.08501  -2.53078   0.66262 
 H                     3.39703  -3.09637  -0.98656 
 H                     1.77935  -0.92586  -2.51443 
 H                     3.39657  -1.46246  -2.93732 
 H                     3.08455   0.26072  -2.67045 
 H                     4.92248  -0.91529   0.25265 
 H                     4.92245   0.14051  -1.0068 
 

 GradGradGradGradGradGradGradGradGradGradGradGradGradGradGradGradGradGrad
 Berny optimization.
 Initialization pass.
                           ----------------------------
                           !    Initial Parameters    !
                           ! (Angstroms and Degrees)  !
 --------------------------                            --------------------------
 ! Name  Definition              Value          Derivative Info.                !
 --------------------------------------------------------------------------------
 ! R1    R(1,2)                  1.5156         estimate D2E/DX2                !
 ! R2    R(1,10)                 1.0919         estimate D2E/DX2                !
 ! R3    R(1,11)                 1.093          estimate D2E/DX2                !
 ! R4    R(1,12)                 1.0932         estimate D2E/DX2                !
 ! R5    R(2,3)                  1.3527         estimate D2E/DX2                !
 ! R6    R(2,6)                  1.5422         estimate D2E/DX2                !
 ! R7    R(3,4)                  1.3686         estimate D2E/DX2                !
 ! R8    R(3,13)                 1.0853         estimate D2E/DX2                !
 ! R9    R(4,5)                  1.3855         estimate D2E/DX2                !
 ! R10   R(4,14)                 1.0196         estimate D2E/DX2                !
 ! R11   R(5,15)                 1.0209         estimate D2E/DX2                !
 ! R12   R(5,16)                 1.0232         estimate D2E/DX2                !
 ! R13   R(6,7)                  1.5399         estimate D2E/DX2                !
 ! R14   R(6,8)                  1.5388         estimate D2E/DX2                !
 ! R15   R(6,9)                  1.4702         estimate D2E/DX2                !
 ! R16   R(7,17)                 1.0953         estimate D2E/DX2                !
 ! R17   R(7,18)                 1.0966         estimate D2E/DX2                !
 ! R18   R(7,19)                 1.0973         estimate D2E/DX2                !
 ! R19   R(8,20)                 1.0953         estimate D2E/DX2                !
 ! R20   R(8,21)                 1.0973         estimate D2E/DX2                !
 ! R21   R(8,22)                 1.0964         estimate D2E/DX2                !
 ! R22   R(9,23)                 1.018          estimate D2E/DX2                !
 ! R23   R(9,24)                 1.0182         estimate D2E/DX2                !
 ! A1    A(2,1,10)             113.7963         estimate D2E/DX2                !
 ! A2    A(2,1,11)             110.9402         estimate D2E/DX2                !
 ! A3    A(2,1,12)             110.859          estimate D2E/DX2                !
 ! A4    A(10,1,11)            105.8681         estimate D2E/DX2                !
 ! A5    A(10,1,12)            105.8501         estimate D2E/DX2                !
 ! A6    A(11,1,12)            109.2483         estimate D2E/DX2                !
 ! A7    A(1,2,3)              120.3466         estimate D2E/DX2                !
 ! A8    A(1,2,6)              115.6183         estimate D2E/DX2                !
 ! A9    A(3,2,6)              124.033          estimate D2E/DX2                !
 ! A10   A(2,3,4)              127.9422         estimate D2E/DX2                !
 ! A11   A(2,3,13)             120.1258         estimate D2E/DX2                !
 ! A12   A(4,3,13)             111.927          estimate D2E/DX2                !
 ! A13   A(3,4,5)              122.9238         estimate D2E/DX2                !
 ! A14   A(3,4,14)             117.8097         estimate D2E/DX2                !
 ! A15   A(5,4,14)             118.4179         estimate D2E/DX2                !
 ! A16   A(4,5,15)             112.3799         estimate D2E/DX2                !
 ! A17   A(4,5,16)             109.3614         estimate D2E/DX2                !
 ! A18   A(15,5,16)            105.3382         estimate D2E/DX2                !
 ! A19   A(2,6,7)              110.9067         estimate D2E/DX2                !
 ! A20   A(2,6,8)              111.0898         estimate D2E/DX2                !
 ! A21   A(2,6,9)              113.1179         estimate D2E/DX2                !
 ! A22   A(7,6,8)              109.1572         estimate D2E/DX2                !
 ! A23   A(7,6,9)              106.101          estimate D2E/DX2                !
 ! A24   A(8,6,9)              106.2119         estimate D2E/DX2                !
 ! A25   A(6,7,17)             111.7643         estimate D2E/DX2                !
 ! A26   A(6,7,18)             111.5843         estimate D2E/DX2                !
 ! A27   A(6,7,19)             111.4261         estimate D2E/DX2                !
 ! A28   A(17,7,18)            107.7518         estimate D2E/DX2                !
 ! A29   A(17,7,19)            106.3842         estimate D2E/DX2                !
 ! A30   A(18,7,19)            107.67           estimate D2E/DX2                !
 ! A31   A(6,8,20)             111.7404         estimate D2E/DX2                !
 ! A32   A(6,8,21)             111.3937         estimate D2E/DX2                !
 ! A33   A(6,8,22)             111.553          estimate D2E/DX2                !
 ! A34   A(20,8,21)            106.395          estimate D2E/DX2                !
 ! A35   A(20,8,22)            107.7986         estimate D2E/DX2                !
 ! A36   A(21,8,22)            107.7062         estimate D2E/DX2                !
 ! A37   A(6,9,23)             109.5247         estimate D2E/DX2                !
 ! A38   A(6,9,24)             109.4387         estimate D2E/DX2                !
 ! A39   A(23,9,24)            107.63           estimate D2E/DX2                !
 ! D1    D(10,1,2,3)             0.5686         estimate D2E/DX2                !
 ! D2    D(10,1,2,6)          -179.9449         estimate D2E/DX2                !
 ! D3    D(11,1,2,3)          -118.6871         estimate D2E/DX2                !
 ! D4    D(11,1,2,6)            60.7994         estimate D2E/DX2                !
 ! D5    D(12,1,2,3)           119.7426         estimate D2E/DX2                !
 ! D6    D(12,1,2,6)           -60.7709         estimate D2E/DX2                !
 ! D7    D(1,2,3,4)              1.107          estimate D2E/DX2                !
 ! D8    D(1,2,3,13)          -179.77           estimate D2E/DX2                !
 ! D9    D(6,2,3,4)           -178.3343         estimate D2E/DX2                !
 ! D10   D(6,2,3,13)             0.7887         estimate D2E/DX2                !
 ! D11   D(1,2,6,7)            -60.8155         estimate D2E/DX2                !
 ! D12   D(1,2,6,8)             60.774          estimate D2E/DX2                !
 ! D13   D(1,2,6,9)           -179.8853         estimate D2E/DX2                !
 ! D14   D(3,2,6,7)            118.6497         estimate D2E/DX2                !
 ! D15   D(3,2,6,8)           -119.7607         estimate D2E/DX2                !
 ! D16   D(3,2,6,9)             -0.42           estimate D2E/DX2                !
 ! D17   D(2,3,4,5)           -176.9574         estimate D2E/DX2                !
 ! D18   D(2,3,4,14)            -7.6843         estimate D2E/DX2                !
 ! D19   D(13,3,4,5)             3.8603         estimate D2E/DX2                !
 ! D20   D(13,3,4,14)          173.1334         estimate D2E/DX2                !
 ! D21   D(3,4,5,15)            -6.0155         estimate D2E/DX2                !
 ! D22   D(3,4,5,16)          -122.6246         estimate D2E/DX2                !
 ! D23   D(14,4,5,15)         -175.2269         estimate D2E/DX2                !
 ! D24   D(14,4,5,16)           68.164          estimate D2E/DX2                !
 ! D25   D(2,6,7,17)            62.4455         estimate D2E/DX2                !
 ! D26   D(2,6,7,18)           -58.285          estimate D2E/DX2                !
 ! D27   D(2,6,7,19)          -178.6763         estimate D2E/DX2                !
 ! D28   D(8,6,7,17)           -60.2707         estimate D2E/DX2                !
 ! D29   D(8,6,7,18)           178.9988         estimate D2E/DX2                !
 ! D30   D(8,6,7,19)            58.6075         estimate D2E/DX2                !
 ! D31   D(9,6,7,17)          -174.3439         estimate D2E/DX2                !
 ! D32   D(9,6,7,18)            64.9257         estimate D2E/DX2                !
 ! D33   D(9,6,7,19)           -55.4657         estimate D2E/DX2                !
 ! D34   D(2,6,8,20)           -62.338          estimate D2E/DX2                !
 ! D35   D(2,6,8,21)           178.8078         estimate D2E/DX2                !
 ! D36   D(2,6,8,22)            58.414          estimate D2E/DX2                !
 ! D37   D(7,6,8,20)            60.2686         estimate D2E/DX2                !
 ! D38   D(7,6,8,21)           -58.5856         estimate D2E/DX2                !
 ! D39   D(7,6,8,22)          -178.9794         estimate D2E/DX2                !
 ! D40   D(9,6,8,20)           174.2697         estimate D2E/DX2                !
 ! D41   D(9,6,8,21)            55.4155         estimate D2E/DX2                !
 ! D42   D(9,6,8,22)           -64.9783         estimate D2E/DX2                !
 ! D43   D(2,6,9,23)            58.7643         estimate D2E/DX2                !
 ! D44   D(2,6,9,24)           -59.0053         estimate D2E/DX2                !
 ! D45   D(7,6,9,23)           -63.0436         estimate D2E/DX2                !
 ! D46   D(7,6,9,24)           179.1868         estimate D2E/DX2                !
 ! D47   D(8,6,9,23)          -179.1238         estimate D2E/DX2                !
 ! D48   D(8,6,9,24)            63.1066         estimate D2E/DX2                !
 --------------------------------------------------------------------------------
 Trust Radius=3.00D-01 FncErr=1.00D-07 GrdErr=1.00D-06 EigMax=2.50D+02 EigMin=1.00D-04
 Number of steps in this run=    120 maximum allowed number of steps=    144.
 GradGradGradGradGradGradGradGradGradGradGradGradGradGradGradGradGradGrad

                          Input orientation:                          
 ---------------------------------------------------------------------
 Center     Atomic      Atomic             Coordinates (Angstroms)
 Number     Number       Type             X           Y           Z
 ---------------------------------------------------------------------
      1          6           0        0.907000    0.025770   -0.027050
      2          6           0        2.419040    0.106640    0.038590
      3          6           0        3.020660    1.028070    0.825270
      4          7           0        2.428460    1.951310    1.643720
      5          7           0        3.148150    2.892080    2.362400
      6          6           0        3.179820   -0.920020   -0.824870
      7          6           0        2.842190   -2.358990   -0.392860
      8          6           0        2.841760   -0.748040   -2.316150
      9          7           0        4.640700   -0.794400   -0.718030
     10          1           0        0.398830    0.766040    0.594230
     11          1           0        0.552530   -0.948640    0.318800
     12          1           0        0.551910    0.197320   -1.046640
     13          1           0        4.103670    1.085260    0.866700
     14          1           0        1.414810    2.049480    1.594910
     15          1           0        4.156380    2.751230    2.286430
     16          1           0        2.935390    2.793550    3.358380
     17          1           0        1.779810   -2.586240   -0.532410
     18          1           0        3.085010   -2.530780    0.662620
     19          1           0        3.397030   -3.096370   -0.986560
     20          1           0        1.779350   -0.925860   -2.514430
     21          1           0        3.396570   -1.462460   -2.937320
     22          1           0        3.084550    0.260720   -2.670450
     23          1           0        4.922480   -0.915290    0.252650
     24          1           0        4.922450    0.140510   -1.006800
 ---------------------------------------------------------------------
                    Distance matrix (angstroms):
                    1          2          3          4          5
     1  C    0.000000
     2  C    1.515623   0.000000
     3  C    2.489701   1.352718   0.000000
     4  N    2.968841   2.445269   1.368552   0.000000
     5  N    4.352925   3.700050   2.419412   1.385461   0.000000
     6  C    2.587807   1.542200   2.557997   3.860442   4.969084
     7  C    3.092872   2.538609   3.603868   4.785135   5.937913
     8  C    3.095490   2.540467   3.613183   4.810185   5.935754
     9  N    3.884668   2.513985   2.885776   4.243912   5.030595
    10  H    1.091891   2.196541   2.645001   2.574042   3.899389
    11  H    1.093040   2.162404   3.202430   3.699221   5.066031
    12  H    1.093198   2.161509   3.207635   3.719672   5.061990
    13  H    3.484251   2.116942   1.085310   2.039640   2.532733
    14  H    2.642731   2.684257   2.052895   1.019562   2.074484
    15  H    4.831024   3.881365   2.528661   2.009641   1.020852
    16  H    4.820385   4.301989   3.088825   1.976463   1.023206
    17  H    2.799961   2.825997   4.055396   5.074017   6.345413
    18  H    3.428603   2.790863   3.563146   4.634948   5.683366
    19  H    4.107148   3.502381   4.520552   5.773697   6.865785
    20  H    2.802437   2.827220   4.063532   5.098006   6.343008
    21  H    4.108827   3.503381   4.527818   5.794566   6.863728
    22  H    3.432854   2.793840   3.579520   4.679809   5.679584
    23  H    4.133752   2.712448   2.778752   4.046308   4.700570
    24  H    4.134841   2.713125   2.785866   4.065002   4.697956
                    6          7          8          9         10
     6  C    0.000000
     7  C    1.539890   0.000000
     8  C    1.538759   2.508825   0.000000
     9  N    1.470158   2.405892   2.406724   0.000000
    10  H    3.548316   4.087807   4.090313   4.706428   0.000000
    11  H    2.865563   2.781742   3.496252   4.220419   1.743449
    12  H    2.864183   3.493928   2.783662   4.220154   1.743368
    13  H    2.781377   3.878232   3.883805   2.516524   3.728536
    14  H    4.217645   5.042147   5.015844   4.883002   1.918540
    15  H    4.910390   5.917773   5.929322   4.672562   4.574243
    16  H    5.599101   6.374100   6.689687   5.691976   4.264441
    17  H    2.195871   1.095339   2.772805   3.380804   3.796604
    18  H    2.194576   1.096591   3.480000   2.709498   4.253147
    19  H    2.193131   1.097295   2.755138   2.630188   5.138707
    20  H    2.194530   2.772102   1.095285   3.381074   3.798964
    21  H    2.191727   2.754157   1.097298   2.630477   5.140477
    22  H    2.193032   3.479804   1.096391   2.710503   4.257532
    23  H    2.048886   2.613151   3.310000   1.017956   4.838074
    24  H    2.048068   3.309366   2.614037   1.018247   4.839186
                   11         12         13         14         15
    11  H    0.000000
    12  H    1.782597   0.000000
    13  H    4.128867   4.130897   0.000000
    14  H    3.370565   3.339593   2.947877   0.000000
    15  H    5.527055   5.533897   2.189490   2.913221   0.000000
    16  H    5.377830   5.641417   3.239074   2.444510   1.625326
    17  H    2.216418   3.085511   4.564838   5.113572   6.487105
    18  H    3.005800   4.096425   3.762321   4.963619   5.628874
    19  H    3.795773   4.352782   4.628168   6.088756   6.744146
    20  H    3.087523   2.218682   4.569366   5.086474   6.497655
    21  H    4.353722   3.797582   4.632649   6.066482   6.754262
    22  H    4.099914   3.009160   3.772254   4.917417   5.649966
    23  H    4.370578   4.693393   2.247155   4.784900   4.262222
    24  H    4.694642   4.371091   2.252322   4.766193   4.271778
                   16         17         18         19         20
    16  H    0.000000
    17  H    6.739121   0.000000
    18  H    5.969757   1.770514   0.000000
    19  H    7.333674   1.755530   1.771170   0.000000
    20  H    7.047009   2.585588   3.791327   3.108438   0.000000
    21  H    7.613288   3.108116   3.768016   2.544627   1.755613
    22  H    6.540968   3.791931   4.347623   3.768711   1.770836
    23  H    5.229683   3.644828   2.480762   2.935941   4.187614
    24  H    5.481042   4.187648   3.646771   3.578367   3.645431
                   21         22         23         24
    21  H    0.000000
    22  H    1.771419   0.000000
    23  H    3.578227   3.647670   0.000000
    24  H    2.936789   2.481946   1.643450   0.000000
 Stoichiometry    C6H15N3
 Framework group  C1[X(C6H15N3)]
 Deg. of freedom    66
 Full point group                 C1      NOp   1
 Largest Abelian subgroup         C1      NOp   1
 Largest concise Abelian subgroup C1      NOp   1
                         Standard orientation:                         
 ---------------------------------------------------------------------
 Center     Atomic      Atomic             Coordinates (Angstroms)
 Number     Number       Type             X           Y           Z
 ---------------------------------------------------------------------
      1          6           0       -0.026291    1.920790   -0.001384
      2          6           0       -0.008702    0.405310   -0.012524
      3          6           0        1.166507   -0.264463   -0.024088
      4          7           0        2.432011    0.256236   -0.006642
      5          7           0        3.570653   -0.529375   -0.082884
      6          6           0       -1.391314   -0.277718    0.002830
      7          6           0       -2.176133    0.098775    1.273095
      8          6           0       -2.216435    0.114514   -1.235358
      9          7           0       -1.310104   -1.745604   -0.006192
     10          1           0        0.967472    2.373018   -0.013657
     11          1           0       -0.515722    2.299169    0.899739
     12          1           0       -0.542606    2.310567   -0.882619
     13          1           0        1.174902   -1.349677   -0.035809
     14          1           0        2.532121    1.266327   -0.102556
     15          1           0        3.357113   -1.527205   -0.053334
     16          1           0        4.159097   -0.354166    0.735643
     17          1           0       -2.378194    1.174211    1.321852
     18          1           0       -1.630141   -0.180388    2.182199
     19          1           0       -3.152361   -0.401300    1.304084
     20          1           0       -2.419546    1.190438   -1.263354
     21          1           0       -3.193274   -0.385310   -1.240163
     22          1           0       -1.700214   -0.153386   -2.164775
     23          1           0       -0.783310   -2.062187    0.805286
     24          1           0       -0.809049   -2.052167   -0.837932
 ---------------------------------------------------------------------
 Rotational constants (GHZ):           2.6986948           0.8788294           0.7807875
 Standard basis: 6-31G(2df,p) (6D, 7F)
 There are   354 symmetry adapted cartesian basis functions of A   symmetry.
 There are   327 symmetry adapted basis functions of A   symmetry.
   327 basis functions,   501 primitive gaussians,   354 cartesian basis functions
    36 alpha electrons       36 beta electrons
       nuclear repulsion energy       482.1119746129 Hartrees.
 NAtoms=   24 NActive=   24 NUniq=   24 SFac= 1.00D+00 NAtFMM=   60 NAOKFM=F Big=F
 Integral buffers will be    131072 words long.
 Raffenetti 2 integral format.
 Two-electron integral symmetry is turned on.
 One-electron integrals computed using PRISM.
 PrsmSu:  requested number of processors reduced to:  13 ShMem   1 Linda.
 NBasis=   327 RedAO= T EigKep=  2.57D-04  NBF=   327
 NBsUse=   327 1.00D-06 EigRej= -1.00D+00 NBFU=   327
 ExpMin= 1.61D-01 ExpMax= 4.17D+03 ExpMxC= 6.27D+02 IAcc=3 IRadAn=         5 AccDes= 0.00D+00
 Harris functional with IExCor=  402 and IRadAn=       5 diagonalized for initial guess.
 HarFok:  IExCor=  402 AccDes= 0.00D+00 IRadAn=         5 IDoV= 1 UseB2=F ITyADJ=14
 ICtDFT=  3500011 ScaDFX=  1.000000  1.000000  1.000000  1.000000
 FoFCou: FMM=F IPFlag=           0 FMFlag=      100000 FMFlg1=           0
         NFxFlg=           0 DoJE=T BraDBF=F KetDBF=T FulRan=T
         wScrn=  0.000000 ICntrl=       500 IOpCl=  0 I1Cent=   200000004 NGrid=           0
         NMat0=    1 NMatS0=      1 NMatT0=    0 NMatD0=    1 NMtDS0=    0 NMtDT0=    0
 Petite list used in FoFCou.
 Requested convergence on RMS density matrix=1.00D-08 within 128 cycles.
 Requested convergence on MAX density matrix=1.00D-06.
 Requested convergence on             energy=1.00D-06.
 No special actions if energy rises.
 Integral accuracy reduced to 1.0D-05 until final iterations.
 Initial convergence to 1.0D-05 achieved.  Increase integral accuracy.
 SCF Done:  E(RB3LYP) =  -401.881582456     A.U. after   13 cycles
            NFock= 13  Conv=0.62D-08     -V/T= 2.0081

 **********************************************************************

            Population analysis using the SCF density.

 **********************************************************************

 Orbital symmetries:
       Occupied  (A) (A) (A) (A) (A) (A) (A) (A) (A) (A) (A) (A)
                 (A) (A) (A) (A) (A) (A) (A) (A) (A) (A) (A) (A)
                 (A) (A) (A) (A) (A) (A) (A) (A) (A) (A) (A) (A)
       Virtual   (A) (A) (A) (A) (A) (A) (A) (A) (A) (A) (A) (A)
                 (A) (A) (A) (A) (A) (A) (A) (A) (A) (A) (A) (A)
                 (A) (A) (A) (A) (A) (A) (A) (A) (A) (A) (A) (A)
                 (A) (A) (A) (A) (A) (A) (A) (A) (A) (A) (A) (A)
                 (A) (A) (A) (A) (A) (A) (A) (A) (A) (A) (A) (A)
                 (A) (A) (A) (A) (A) (A) (A) (A) (A) (A) (A) (A)
                 (A) (A) (A) (A) (A) (A) (A) (A) (A) (A) (A) (A)
                 (A) (A) (A) (A) (A) (A) (A) (A) (A) (A) (A) (A)
                 (A) (A) (A) (A) (A) (A) (A) (A) (A) (A) (A) (A)
                 (A) (A) (A) (A) (A) (A) (A) (A) (A) (A) (A) (A)
                 (A) (A) (A) (A) (A) (A) (A) (A) (A) (A) (A) (A)
                 (A) (A) (A) (A) (A) (A) (A) (A) (A) (A) (A) (A)
                 (A) (A) (A) (A) (A) (A) (A) (A) (A) (A) (A) (A)
                 (A) (A) (A) (A) (A) (A) (A) (A) (A) (A) (A) (A)
                 (A) (A) (A) (A) (A) (A) (A) (A) (A) (A) (A) (A)
                 (A) (A) (A) (A) (A) (A) (A) (A) (A) (A) (A) (A)
                 (A) (A) (A) (A) (A) (A) (A) (A) (A) (A) (A) (A)
                 (A) (A) (A) (A) (A) (A) (A) (A) (A) (A) (A) (A)
                 (A) (A) (A) (A) (A) (A) (A) (A) (A) (A) (A) (A)
                 (A) (A) (A) (A) (A) (A) (A) (A) (A) (A) (A) (A)
                 (A) (A) (A) (A) (A) (A) (A) (A) (A) (A) (A) (A)
                 (A) (A) (A) (A) (A) (A) (A) (A) (A) (A) (A) (A)
                 (A) (A) (A) (A) (A) (A) (A) (A) (A) (A) (A) (A)
                 (A) (A) (A) (A) (A) (A) (A) (A) (A) (A) (A) (A)
                 (A) (A) (A)
 The electronic state is 1-A.
 Alpha  occ. eigenvalues --  -14.35589 -14.35064 -14.29406 -10.20923 -10.20004
 Alpha  occ. eigenvalues --  -10.16964 -10.16012 -10.15951 -10.15298  -0.98451
 Alpha  occ. eigenvalues --   -0.87970  -0.81193  -0.75521  -0.71504  -0.67341
 Alpha  occ. eigenvalues --   -0.66676  -0.59102  -0.54625  -0.51553  -0.48094
 Alpha  occ. eigenvalues --   -0.47124  -0.46274  -0.44335  -0.42088  -0.41285
 Alpha  occ. eigenvalues --   -0.37834  -0.37401  -0.36584  -0.36155  -0.35580
 Alpha  occ. eigenvalues --   -0.33005  -0.32910  -0.32429  -0.25805  -0.22585
 Alpha  occ. eigenvalues --   -0.15643
 Alpha virt. eigenvalues --    0.05971   0.07328   0.07994   0.08761   0.12008
 Alpha virt. eigenvalues --    0.13269   0.14418   0.14790   0.15263   0.15949
 Alpha virt. eigenvalues --    0.17652   0.19099   0.20331   0.21218   0.21912
 Alpha virt. eigenvalues --    0.22502   0.24364   0.24384   0.25634   0.26851
 Alpha virt. eigenvalues --    0.28127   0.31128   0.35463   0.39720   0.46132
 Alpha virt. eigenvalues --    0.48440   0.48741   0.49865   0.50954   0.51858
 Alpha virt. eigenvalues --    0.53038   0.54374   0.55521   0.56366   0.57141
 Alpha virt. eigenvalues --    0.58067   0.60390   0.61284   0.62202   0.63788
 Alpha virt. eigenvalues --    0.65174   0.66808   0.67998   0.68825   0.69761
 Alpha virt. eigenvalues --    0.72340   0.73612   0.74137   0.74876   0.75126
 Alpha virt. eigenvalues --    0.75633   0.75873   0.76360   0.76886   0.78273
 Alpha virt. eigenvalues --    0.78755   0.79634   0.81262   0.82431   0.85480
 Alpha virt. eigenvalues --    0.86135   0.87947   0.88138   0.89932   0.90507
 Alpha virt. eigenvalues --    0.91448   0.93701   0.94450   0.96323   0.97184
 Alpha virt. eigenvalues --    0.99633   1.04044   1.05110   1.11573   1.13398
 Alpha virt. eigenvalues --    1.13934   1.16001   1.20446   1.24444   1.25931
 Alpha virt. eigenvalues --    1.28207   1.29186   1.33588   1.34003   1.38450
 Alpha virt. eigenvalues --    1.39958   1.43446   1.44261   1.46306   1.46465
 Alpha virt. eigenvalues --    1.48271   1.48818   1.52896   1.53082   1.55238
 Alpha virt. eigenvalues --    1.56187   1.57117   1.61713   1.63849   1.66781
 Alpha virt. eigenvalues --    1.67588   1.69300   1.70973   1.71520   1.74516
 Alpha virt. eigenvalues --    1.75713   1.82068   1.84120   1.85530   1.86490
 Alpha virt. eigenvalues --    1.87184   1.89827   1.90352   1.95125   1.97738
 Alpha virt. eigenvalues --    1.98278   1.98858   1.99665   2.09685   2.10297
 Alpha virt. eigenvalues --    2.10667   2.17775   2.19233   2.22632   2.24274
 Alpha virt. eigenvalues --    2.27354   2.29965   2.30927   2.34680   2.37047
 Alpha virt. eigenvalues --    2.38374   2.39930   2.42967   2.45218   2.49788
 Alpha virt. eigenvalues --    2.50591   2.52081   2.54441   2.55072   2.60456
 Alpha virt. eigenvalues --    2.61891   2.67583   2.70308   2.74547   2.77979
 Alpha virt. eigenvalues --    2.81226   2.82372   2.84989   2.85343   2.85552
 Alpha virt. eigenvalues --    2.86675   2.87998   2.89502   2.92017   2.92624
 Alpha virt. eigenvalues --    2.93660   2.94578   2.96628   2.97940   2.98981
 Alpha virt. eigenvalues --    2.99406   3.01002   3.01437   3.03982   3.05550
 Alpha virt. eigenvalues --    3.07870   3.10841   3.13038   3.14599   3.15319
 Alpha virt. eigenvalues --    3.16401   3.17849   3.19014   3.25448   3.28512
 Alpha virt. eigenvalues --    3.33117   3.34831   3.35891   3.40355   3.41654
 Alpha virt. eigenvalues --    3.43091   3.44960   3.47176   3.50128   3.52398
 Alpha virt. eigenvalues --    3.54259   3.57624   3.60493   3.63009   3.64120
 Alpha virt. eigenvalues --    3.65638   3.66183   3.67282   3.69466   3.72062
 Alpha virt. eigenvalues --    3.74750   3.80521   3.82370   3.83344   3.84514
 Alpha virt. eigenvalues --    3.89513   3.90796   3.96115   3.97244   3.98484
 Alpha virt. eigenvalues --    4.02276   4.03913   4.08672   4.12996   4.13616
 Alpha virt. eigenvalues --    4.15607   4.18517   4.19914   4.24184   4.25403
 Alpha virt. eigenvalues --    4.29617   4.30016   4.31929   4.32891   4.33011
 Alpha virt. eigenvalues --    4.35279   4.38449   4.38804   4.40155   4.41871
 Alpha virt. eigenvalues --    4.42619   4.45739   4.46998   4.50518   4.51134
 Alpha virt. eigenvalues --    4.52601   4.53969   4.54603   4.56014   4.58269
 Alpha virt. eigenvalues --    4.60730   4.63602   4.64011   4.66786   4.68110
 Alpha virt. eigenvalues --    4.69241   4.70877   4.73144   4.75274   4.76444
 Alpha virt. eigenvalues --    4.80418   4.81677   4.81957   4.84077   4.84406
 Alpha virt. eigenvalues --    4.84702   4.86608   4.88862   4.92518   4.93038
 Alpha virt. eigenvalues --    4.95526   4.96070   4.98715   5.00868   5.02600
 Alpha virt. eigenvalues --    5.05057   5.08193   5.12757   5.15906   5.17922
 Alpha virt. eigenvalues --    5.24221   5.32932   5.34883   5.40439   5.48859
 Alpha virt. eigenvalues --    5.55183   5.58980   5.64240   5.65567   5.77891
 Alpha virt. eigenvalues --    5.78069   5.90757   5.94097   6.09351   7.46923
 Alpha virt. eigenvalues --   10.29849  10.88066  11.21992  11.42259  11.44811
 Alpha virt. eigenvalues --   11.62790  11.86837  11.96345  12.42075  13.48155
 Alpha virt. eigenvalues --   15.96176
          Condensed to atoms (all electrons):
               1          2          3          4          5          6
     1  C    5.180800   0.341301  -0.019572  -0.023413   0.000249  -0.076262
     2  C    0.341301   4.666192   0.625091  -0.016706   0.002643   0.448978
     3  C   -0.019572   0.625091   4.880611   0.385389  -0.064227  -0.004635
     4  N   -0.023413  -0.016706   0.385389   6.446354   0.302944   0.003434
     5  N    0.000249   0.002643  -0.064227   0.302944   6.557868  -0.000042
     6  C   -0.076262   0.448978  -0.004635   0.003434  -0.000042   4.540529
     7  C   -0.005894  -0.051752  -0.000329  -0.000049  -0.000001   0.367284
     8  C   -0.005970  -0.051630  -0.000945   0.000007   0.000001   0.367259
     9  N    0.004488  -0.066841  -0.010711   0.000589  -0.000003   0.389905
    10  H    0.351066  -0.007205  -0.018500  -0.000027   0.000193   0.002881
    11  H    0.366686  -0.022430   0.000263   0.000881  -0.000009  -0.002495
    12  H    0.366278  -0.020931  -0.000811   0.000897  -0.000004  -0.002339
    13  H    0.010359  -0.018763   0.307075  -0.046905  -0.005920  -0.027635
    14  H    0.004721  -0.003128  -0.046040   0.350277  -0.028496  -0.000233
    15  H    0.000012   0.000686  -0.004860  -0.039629   0.345436  -0.000035
    16  H   -0.000009   0.000070   0.002281  -0.066548   0.341785   0.000001
    17  H    0.000160  -0.004540  -0.000137   0.000004  -0.000000  -0.019204
    18  H    0.000282   0.000932   0.001233  -0.000044   0.000001  -0.019443
    19  H    0.000016   0.003309  -0.000057   0.000001   0.000000  -0.012748
    20  H    0.000208  -0.004668  -0.000152   0.000005   0.000000  -0.019229
    21  H    0.000012   0.003389  -0.000048   0.000000  -0.000000  -0.012812
    22  H    0.000278   0.000730   0.001273  -0.000046   0.000000  -0.019254
    23  H   -0.000033  -0.003818   0.002954  -0.000021   0.000007  -0.043990
    24  H   -0.000027  -0.004076   0.003009  -0.000068  -0.000009  -0.043470
               7          8          9         10         11         12
     1  C   -0.005894  -0.005970   0.004488   0.351066   0.366686   0.366278
     2  C   -0.051752  -0.051630  -0.066841  -0.007205  -0.022430  -0.020931
     3  C   -0.000329  -0.000945  -0.010711  -0.018500   0.000263  -0.000811
     4  N   -0.000049   0.000007   0.000589  -0.000027   0.000881   0.000897
     5  N   -0.000001   0.000001  -0.000003   0.000193  -0.000009  -0.000004
     6  C    0.367284   0.367259   0.389905   0.002881  -0.002495  -0.002339
     7  C    5.095214  -0.057915  -0.038770   0.000129   0.002596  -0.000740
     8  C   -0.057915   5.095095  -0.038107   0.000138  -0.000751   0.002616
     9  N   -0.038770  -0.038107   6.602159  -0.000138   0.000062   0.000067
    10  H    0.000129   0.000138  -0.000138   0.637971  -0.033368  -0.033889
    11  H    0.002596  -0.000751   0.000062  -0.033368   0.599422  -0.038251
    12  H   -0.000740   0.002616   0.000067  -0.033889  -0.038251   0.598653
    13  H    0.000567   0.000510   0.019604  -0.000313  -0.000184  -0.000187
    14  H   -0.000008   0.000005  -0.000007   0.009638  -0.000496  -0.000039
    15  H    0.000000  -0.000000  -0.000027   0.000002   0.000000   0.000000
    16  H   -0.000000   0.000000  -0.000000   0.000017  -0.000003   0.000001
    17  H    0.367810  -0.005019   0.003306   0.000016   0.004037   0.000194
    18  H    0.357526   0.005608  -0.003718  -0.000039   0.000174   0.000089
    19  H    0.357453  -0.003423  -0.000172   0.000003  -0.000259   0.000005
    20  H   -0.005093   0.368027   0.003314   0.000017   0.000171   0.004102
    21  H   -0.003411   0.357110  -0.000259   0.000003   0.000006  -0.000261
    22  H    0.005597   0.358061  -0.003732  -0.000040   0.000087   0.000176
    23  H   -0.008489   0.008894   0.334258  -0.000007  -0.000041   0.000019
    24  H    0.008907  -0.008564   0.334190  -0.000008   0.000019  -0.000040
              13         14         15         16         17         18
     1  C    0.010359   0.004721   0.000012  -0.000009   0.000160   0.000282
     2  C   -0.018763  -0.003128   0.000686   0.000070  -0.004540   0.000932
     3  C    0.307075  -0.046040  -0.004860   0.002281  -0.000137   0.001233
     4  N   -0.046905   0.350277  -0.039629  -0.066548   0.000004  -0.000044
     5  N   -0.005920  -0.028496   0.345436   0.341785  -0.000000   0.000001
     6  C   -0.027635  -0.000233  -0.000035   0.000001  -0.019204  -0.019443
     7  C    0.000567  -0.000008   0.000000  -0.000000   0.367810   0.357526
     8  C    0.000510   0.000005  -0.000000   0.000000  -0.005019   0.005608
     9  N    0.019604  -0.000007  -0.000027  -0.000000   0.003306  -0.003718
    10  H   -0.000313   0.009638   0.000002   0.000017   0.000016  -0.000039
    11  H   -0.000184  -0.000496   0.000000  -0.000003   0.004037   0.000174
    12  H   -0.000187  -0.000039   0.000000   0.000001   0.000194   0.000089
    13  H    0.675587   0.006097   0.008678  -0.000022  -0.000026   0.000019
    14  H    0.006097   0.452165   0.004379   0.000001   0.000001   0.000000
    15  H    0.008678   0.004379   0.471827  -0.035486   0.000000   0.000000
    16  H   -0.000022   0.000001  -0.035486   0.519375  -0.000000   0.000000
    17  H   -0.000026   0.000001   0.000000  -0.000000   0.605980  -0.032601
    18  H    0.000019   0.000000   0.000000   0.000000  -0.032601   0.614689
    19  H   -0.000035   0.000000  -0.000000   0.000000  -0.031459  -0.031350
    20  H   -0.000026   0.000001   0.000000   0.000000   0.002985  -0.000035
    21  H   -0.000033  -0.000000   0.000000  -0.000000   0.000316  -0.000116
    22  H    0.000025  -0.000002   0.000000  -0.000000  -0.000038  -0.000224
    23  H    0.006125   0.000002  -0.000013   0.000002  -0.000275   0.005432
    24  H    0.006132  -0.000003  -0.000007  -0.000001  -0.000275  -0.000160
              19         20         21         22         23         24
     1  C    0.000016   0.000208   0.000012   0.000278  -0.000033  -0.000027
     2  C    0.003309  -0.004668   0.003389   0.000730  -0.003818  -0.004076
     3  C   -0.000057  -0.000152  -0.000048   0.001273   0.002954   0.003009
     4  N    0.000001   0.000005   0.000000  -0.000046  -0.000021  -0.000068
     5  N    0.000000   0.000000  -0.000000   0.000000   0.000007  -0.000009
     6  C   -0.012748  -0.019229  -0.012812  -0.019254  -0.043990  -0.043470
     7  C    0.357453  -0.005093  -0.003411   0.005597  -0.008489   0.008907
     8  C   -0.003423   0.368027   0.357110   0.358061   0.008894  -0.008564
     9  N   -0.000172   0.003314  -0.000259  -0.003732   0.334258   0.334190
    10  H    0.000003   0.000017   0.000003  -0.000040  -0.000007  -0.000008
    11  H   -0.000259   0.000171   0.000006   0.000087  -0.000041   0.000019
    12  H    0.000005   0.004102  -0.000261   0.000176   0.000019  -0.000040
    13  H   -0.000035  -0.000026  -0.000033   0.000025   0.006125   0.006132
    14  H    0.000000   0.000001  -0.000000  -0.000002   0.000002  -0.000003
    15  H   -0.000000   0.000000   0.000000   0.000000  -0.000013  -0.000007
    16  H    0.000000   0.000000  -0.000000  -0.000000   0.000002  -0.000001
    17  H   -0.031459   0.002985   0.000316  -0.000038  -0.000275  -0.000275
    18  H   -0.031350  -0.000035  -0.000116  -0.000224   0.005432  -0.000160
    19  H    0.598714   0.000317   0.003400  -0.000114   0.000069  -0.000242
    20  H    0.000317   0.605972  -0.031587  -0.032479  -0.000275  -0.000278
    21  H    0.003400  -0.031587   0.599621  -0.031220  -0.000242   0.000081
    22  H   -0.000114  -0.032479  -0.031220   0.612376  -0.000158   0.005405
    23  H    0.000069  -0.000275  -0.000242  -0.000158   0.519830  -0.037169
    24  H   -0.000242  -0.000278   0.000081   0.005405  -0.037169   0.518480
 Mulliken charges:
               1
     1  C   -0.495733
     2  C    0.183169
     3  C   -0.038154
     4  N   -0.297325
     5  N   -0.452417
     6  C    0.183555
     7  C   -0.390631
     8  C   -0.391005
     9  N   -0.529456
    10  H    0.091459
    11  H    0.123882
    12  H    0.124397
    13  H    0.059274
    14  H    0.251166
    15  H    0.249037
    16  H    0.238537
    17  H    0.108766
    18  H    0.101744
    19  H    0.116573
    20  H    0.108701
    21  H    0.116050
    22  H    0.103297
    23  H    0.216938
    24  H    0.218174
 Sum of Mulliken charges =  -0.00000
 Mulliken charges with hydrogens summed into heavy atoms:
               1
     1  C   -0.155995
     2  C    0.183169
     3  C    0.021120
     4  N   -0.046158
     5  N    0.035157
     6  C    0.183555
     7  C   -0.063549
     8  C   -0.062956
     9  N   -0.094343
 Electronic spatial extent (au):  <R**2>=           1614.3016
 Charge=             -0.0000 electrons
 Dipole moment (field-independent basis, Debye):
    X=              2.0992    Y=              0.1159    Z=              0.9911  Tot=              2.3243
 Quadrupole moment (field-independent basis, Debye-Ang):
   XX=            -57.1933   YY=            -54.1037   ZZ=            -58.1549
   XY=             -4.2224   XZ=              4.8910   YZ=             -0.4545
 Traceless Quadrupole moment (field-independent basis, Debye-Ang):
   XX=             -0.7093   YY=              2.3803   ZZ=             -1.6710
   XY=             -4.2224   XZ=              4.8910   YZ=             -0.4545
 Octapole moment (field-independent basis, Debye-Ang**2):
  XXX=             27.3970  YYY=             -6.0465  ZZZ=              0.9961  XYY=             23.8984
  XXY=              3.4593  XXZ=             22.1748  XZZ=              1.5993  YZZ=             -4.5043
  YYZ=             -0.2701  XYZ=             -2.1554
 Hexadecapole moment (field-independent basis, Debye-Ang**3):
 XXXX=          -1408.6940 YYYY=           -437.6065 ZZZZ=           -245.2997 XXXY=            -24.5768
 XXXZ=             98.2751 YYYX=            -26.4680 YYYZ=             -0.0679 ZZZX=              5.7036
 ZZZY=             -0.2175 XXYY=           -292.1281 XXZZ=           -288.9631 YYZZ=           -107.7673
 XXYZ=             -8.6066 YYXZ=              0.2715 ZZXY=              2.6777
 N-N= 4.821119746129D+02 E-N=-1.897634903420D+03  KE= 3.986413280774D+02
 PrsmSu:  requested number of processors reduced to:  13 ShMem   1 Linda.
 Calling FoFJK, ICntrl=      2127 FMM=F ISym2X=0 I1Cent= 0 IOpClX= 0 NMat=1 NMatS=1 NMatT=0.
 ***** Axes restored to original set *****
 -------------------------------------------------------------------
 Center     Atomic                   Forces (Hartrees/Bohr)
 Number     Number              X              Y              Z
 -------------------------------------------------------------------
      1        6           0.004514145    0.002278282    0.001567282
      2        6          -0.006962573    0.001718356    0.000649103
      3        6           0.002623963   -0.010658241   -0.003427558
      4        7          -0.017413363   -0.027290577   -0.013762535
      5        7           0.003928784    0.031587554    0.020416240
      6        6           0.006708610    0.005036750    0.003715038
      7        6          -0.003767295   -0.006312124   -0.000310796
      8        6          -0.003467924   -0.001644366   -0.006454542
      9        7           0.003249820   -0.001118624   -0.001499680
     10        1          -0.000216280    0.001570610    0.001479721
     11        1          -0.003238801   -0.001682940   -0.002247292
     12        1          -0.003209847   -0.002816045   -0.001331098
     13        1           0.001507906   -0.001598848   -0.000385367
     14        1           0.015311462    0.010132848    0.002309110
     15        1          -0.007514195   -0.004564401   -0.007073100
     16        1           0.003230902   -0.004573855   -0.001718336
     17        1           0.000418550    0.001384274    0.001482115
     18        1          -0.000236227    0.001652583   -0.000349256
     19        1           0.001481885    0.003950171    0.000019969
     20        1           0.000380233    0.001751721    0.001068760
     21        1           0.001430409    0.000765801    0.003696619
     22        1          -0.000254872   -0.000001447    0.001581933
     23        1           0.000695058    0.001793823   -0.001519089
     24        1           0.000799651   -0.001361305    0.002092758
 -------------------------------------------------------------------
 Cartesian Forces:  Max     0.031587554 RMS     0.007170106

 GradGradGradGradGradGradGradGradGradGradGradGradGradGradGradGradGradGrad
 Berny optimization.
 FormGI is forming the generalized inverse of G from B-inverse, IUseBI=4.
 Internal  Forces:  Max     0.021091169 RMS     0.004077487
 Search for a local minimum.
 Step number   1 out of a maximum of  120
 All quantities printed in internal units (Hartrees-Bohrs-Radians)
 Mixed Optimization -- RFO/linear search
 Second derivative matrix not updated -- first step.
 ITU=  0
     Eigenvalues ---    0.00230   0.00238   0.00253   0.00559   0.00764
     Eigenvalues ---    0.01027   0.01487   0.01863   0.02108   0.02433
     Eigenvalues ---    0.02714   0.04363   0.04823   0.05289   0.05304
     Eigenvalues ---    0.05367   0.05384   0.05612   0.05894   0.06258
     Eigenvalues ---    0.06854   0.07029   0.15464   0.15702   0.15855
     Eigenvalues ---    0.15999   0.16000   0.16000   0.16000   0.16000
     Eigenvalues ---    0.16000   0.16000   0.16000   0.16000   0.16000
     Eigenvalues ---    0.16000   0.16000   0.16000   0.16000   0.22000
     Eigenvalues ---    0.22043   0.24999   0.24999   0.28325   0.28529
     Eigenvalues ---    0.28629   0.30792   0.33983   0.33983   0.34062
     Eigenvalues ---    0.34084   0.34203   0.34209   0.34446   0.34464
     Eigenvalues ---    0.34595   0.35360   0.35721   0.43830   0.44202
     Eigenvalues ---    0.44408   0.44619   0.44666   0.48117   0.51256
     Eigenvalues ---    0.54447
 RFO step:  Lambda=-1.00070110D-02 EMin= 2.30000000D-03
 Linear search not attempted -- first point.
 Iteration  1 RMS(Cart)=  0.06575612 RMS(Int)=  0.00401713
 Iteration  2 RMS(Cart)=  0.00514607 RMS(Int)=  0.00063196
 Iteration  3 RMS(Cart)=  0.00003656 RMS(Int)=  0.00063106
 Iteration  4 RMS(Cart)=  0.00000009 RMS(Int)=  0.00063106
 Variable       Old X    -DE/DX   Delta X   Delta X   Delta X     New X
                                 (Linear)    (Quad)   (Total)
    R1        2.86411   0.00220   0.00000   0.00693   0.00693   2.87104
    R2        2.06337   0.00201   0.00000   0.00564   0.00564   2.06902
    R3        2.06555   0.00184   0.00000   0.00519   0.00519   2.07073
    R4        2.06585   0.00184   0.00000   0.00520   0.00520   2.07104
    R5        2.55627  -0.00611   0.00000  -0.01103  -0.01103   2.54524
    R6        2.91434  -0.00223   0.00000  -0.00761  -0.00761   2.90673
    R7        2.58619   0.00473   0.00000   0.00906   0.00906   2.59524
    R8        2.05094   0.00141   0.00000   0.00387   0.00387   2.05481
    R9        2.61814   0.02109   0.00000   0.04294   0.04294   2.66108
   R10        1.92669  -0.01436   0.00000  -0.03162  -0.03162   1.89507
   R11        1.92913  -0.00626   0.00000  -0.01386  -0.01386   1.91527
   R12        1.93358  -0.00190   0.00000  -0.00425  -0.00425   1.92933
   R13        2.90997   0.00007   0.00000   0.00023   0.00023   2.91020
   R14        2.90783   0.00062   0.00000   0.00210   0.00210   2.90993
   R15        2.77820   0.00459   0.00000   0.01249   0.01249   2.79069
   R16        2.06989  -0.00088   0.00000  -0.00250  -0.00250   2.06739
   R17        2.07226  -0.00065   0.00000  -0.00185  -0.00185   2.07041
   R18        2.07359  -0.00192   0.00000  -0.00548  -0.00548   2.06811
   R19        2.06979  -0.00085   0.00000  -0.00240  -0.00240   2.06739
   R20        2.07359  -0.00187   0.00000  -0.00534  -0.00534   2.06825
   R21        2.07188  -0.00057   0.00000  -0.00162  -0.00162   2.07026
   R22        1.92366  -0.00147   0.00000  -0.00322  -0.00322   1.92044
   R23        1.92421  -0.00162   0.00000  -0.00356  -0.00356   1.92065
    A1        1.98612  -0.00194   0.00000  -0.00818  -0.00817   1.97795
    A2        1.93627   0.00332   0.00000   0.01757   0.01756   1.95383
    A3        1.93485   0.00341   0.00000   0.01879   0.01878   1.95363
    A4        1.84775  -0.00035   0.00000   0.00037   0.00038   1.84813
    A5        1.84743  -0.00016   0.00000   0.00279   0.00279   1.85022
    A6        1.90674  -0.00482   0.00000  -0.03452  -0.03455   1.87219
    A7        2.10044   0.00542   0.00000   0.02088   0.02086   2.12130
    A8        2.01792   0.00767   0.00000   0.02954   0.02951   2.04743
    A9        2.16478  -0.01309   0.00000  -0.05031  -0.05033   2.11445
   A10        2.23301   0.00300   0.00000   0.01309   0.01298   2.24600
   A11        2.09659  -0.00308   0.00000  -0.01573  -0.01584   2.08075
   A12        1.95350   0.00010   0.00000   0.00297   0.00287   1.95636
   A13        2.14542   0.00412   0.00000   0.01514   0.01424   2.15966
   A14        2.05617   0.00777   0.00000   0.04495   0.04362   2.09979
   A15        2.06678  -0.01224   0.00000  -0.07342  -0.07403   1.99275
   A16        1.96140  -0.01542   0.00000  -0.10290  -0.10440   1.85699
   A17        1.90872  -0.00147   0.00000  -0.02162  -0.02306   1.88566
   A18        1.83850   0.00385   0.00000  -0.00250  -0.00614   1.83236
   A19        1.93569  -0.00110   0.00000  -0.00913  -0.00918   1.92651
   A20        1.93888  -0.00085   0.00000  -0.00784  -0.00788   1.93100
   A21        1.97428   0.00201   0.00000   0.01881   0.01883   1.99311
   A22        1.90515   0.00108   0.00000   0.00077   0.00071   1.90587
   A23        1.85181  -0.00040   0.00000  -0.00014  -0.00012   1.85169
   A24        1.85375  -0.00069   0.00000  -0.00212  -0.00210   1.85164
   A25        1.95065   0.00036   0.00000   0.00474   0.00479   1.95544
   A26        1.94751  -0.00144   0.00000  -0.01195  -0.01209   1.93542
   A27        1.94475  -0.00442   0.00000  -0.02516  -0.02527   1.91949
   A28        1.88062   0.00039   0.00000   0.00075   0.00076   1.88138
   A29        1.85675   0.00300   0.00000   0.02420   0.02427   1.88103
   A30        1.87920   0.00252   0.00000   0.00996   0.00968   1.88888
   A31        1.95024   0.00034   0.00000   0.00449   0.00453   1.95476
   A32        1.94419  -0.00415   0.00000  -0.02339  -0.02349   1.92070
   A33        1.94697  -0.00138   0.00000  -0.01167  -0.01180   1.93517
   A34        1.85694   0.00290   0.00000   0.02378   0.02385   1.88079
   A35        1.88144   0.00031   0.00000  -0.00007  -0.00007   1.88137
   A36        1.87983   0.00237   0.00000   0.00926   0.00901   1.88884
   A37        1.91157   0.00149   0.00000   0.00661   0.00661   1.91817
   A38        1.91007   0.00178   0.00000   0.00833   0.00833   1.91840
   A39        1.87850  -0.00209   0.00000  -0.01675  -0.01675   1.86174
    D1        0.00992  -0.00014   0.00000  -0.00355  -0.00375   0.00617
    D2       -3.14063   0.00005   0.00000   0.00891   0.00910  -3.13153
    D3       -2.07148  -0.00074   0.00000  -0.01106  -0.01123  -2.08271
    D4        1.06115  -0.00055   0.00000   0.00141   0.00161   1.06276
    D5        2.08990   0.00078   0.00000   0.00795   0.00774   2.09765
    D6       -1.06065   0.00097   0.00000   0.02041   0.02059  -1.04006
    D7        0.01932  -0.00099   0.00000  -0.02499  -0.02505  -0.00573
    D8       -3.13758   0.00003   0.00000   0.00432   0.00413  -3.13345
    D9       -3.11252  -0.00132   0.00000  -0.03903  -0.03883   3.13183
   D10        0.01376  -0.00030   0.00000  -0.00971  -0.00966   0.00411
   D11       -1.06143  -0.00016   0.00000  -0.00236  -0.00230  -1.06373
   D12        1.06071  -0.00012   0.00000  -0.01303  -0.01289   1.04782
   D13       -3.13959  -0.00023   0.00000  -0.00847  -0.00836   3.13524
   D14        2.07083   0.00015   0.00000   0.01106   0.01091   2.08173
   D15       -2.09022   0.00019   0.00000   0.00038   0.00031  -2.08991
   D16       -0.00733   0.00008   0.00000   0.00495   0.00485  -0.00248
   D17       -3.08849   0.00322   0.00000   0.09252   0.09374  -2.99475
   D18       -0.13412  -0.00021   0.00000   0.00149   0.00041  -0.13370
   D19        0.06738   0.00229   0.00000   0.06533   0.06640   0.13378
   D20        3.02175  -0.00114   0.00000  -0.02570  -0.02692   2.99483
   D21       -0.10499   0.00022   0.00000   0.06710   0.07002  -0.03497
   D22       -2.14020   0.00564   0.00000   0.14562   0.14536  -1.99484
   D23       -3.05829   0.00163   0.00000   0.14657   0.14683  -2.91145
   D24        1.18969   0.00705   0.00000   0.22510   0.22218   1.41186
   D25        1.08988  -0.00129   0.00000  -0.01635  -0.01633   1.07355
   D26       -1.01726  -0.00103   0.00000  -0.01226  -0.01217  -1.02944
   D27       -3.11849  -0.00022   0.00000   0.00057   0.00048  -3.11801
   D28       -1.05192  -0.00024   0.00000  -0.00100  -0.00099  -1.05291
   D29        3.12412   0.00002   0.00000   0.00309   0.00317   3.12729
   D30        1.02289   0.00084   0.00000   0.01592   0.01582   1.03872
   D31       -3.04287   0.00025   0.00000   0.00116   0.00117  -3.04170
   D32        1.13317   0.00051   0.00000   0.00526   0.00533   1.13850
   D33       -0.96806   0.00133   0.00000   0.01808   0.01798  -0.95008
   D34       -1.08800   0.00137   0.00000   0.01748   0.01747  -1.07054
   D35        3.12079   0.00026   0.00000   0.00007   0.00016   3.12095
   D36        1.01952   0.00104   0.00000   0.01235   0.01228   1.03180
   D37        1.05189   0.00016   0.00000   0.00135   0.00133   1.05321
   D38       -1.02251  -0.00095   0.00000  -0.01606  -0.01598  -1.03849
   D39       -3.12378  -0.00016   0.00000  -0.00378  -0.00386  -3.12764
   D40        3.04158  -0.00014   0.00000   0.00047   0.00046   3.04204
   D41        0.96718  -0.00125   0.00000  -0.01694  -0.01685   0.95033
   D42       -1.13409  -0.00046   0.00000  -0.00466  -0.00473  -1.13881
   D43        1.02563  -0.00035   0.00000  -0.00606  -0.00605   1.01958
   D44       -1.02984   0.00027   0.00000   0.00549   0.00550  -1.02434
   D45       -1.10032   0.00007   0.00000  -0.00597  -0.00600  -1.10632
   D46        3.12740   0.00069   0.00000   0.00557   0.00555   3.13295
   D47       -3.12630  -0.00066   0.00000  -0.00580  -0.00578  -3.13208
   D48        1.10142  -0.00004   0.00000   0.00574   0.00576   1.10718
         Item               Value     Threshold  Converged?
 Maximum Force            0.021091     0.000450     NO 
 RMS     Force            0.004077     0.000300     NO 
 Maximum Displacement     0.373494     0.001800     NO 
 RMS     Displacement     0.068577     0.001200     NO 
 Predicted change in Energy=-5.716145D-03
 GradGradGradGradGradGradGradGradGradGradGradGradGradGradGradGradGradGrad

                          Input orientation:                          
 ---------------------------------------------------------------------
 Center     Atomic      Atomic             Coordinates (Angstroms)
 Number     Number       Type             X           Y           Z
 ---------------------------------------------------------------------
      1          6           0        0.855113    0.002554   -0.033820
      2          6           0        2.370038    0.076835    0.054087
      3          6           0        2.986643    0.974586    0.846508
      4          7           0        2.426720    1.927866    1.661258
      5          7           0        3.168259    2.928324    2.318666
      6          6           0        3.176100   -0.913052   -0.804030
      7          6           0        2.845992   -2.362840   -0.403064
      8          6           0        2.861562   -0.716917   -2.298619
      9          7           0        4.640522   -0.775228   -0.672415
     10          1           0        0.347589    0.741537    0.594732
     11          1           0        0.473842   -0.974297    0.284202
     12          1           0        0.495272    0.175675   -1.054430
     13          1           0        4.073346    0.999647    0.874696
     14          1           0        1.438947    2.099022    1.635239
     15          1           0        4.141087    2.761050    2.088785
     16          1           0        3.102107    2.761907    3.323796
     17          1           0        1.790391   -2.602423   -0.561733
     18          1           0        3.073655   -2.537240    0.654350
     19          1           0        3.440480   -3.060703   -1.000789
     20          1           0        1.806316   -0.898926   -2.522662
     21          1           0        3.455402   -1.411208   -2.901265
     22          1           0        3.100247    0.303752   -2.617142
     23          1           0        4.914358   -0.904260    0.297706
     24          1           0        4.924564    0.165226   -0.932925
 ---------------------------------------------------------------------
                    Distance matrix (angstroms):
                    1          2          3          4          5
     1  C    0.000000
     2  C    1.519290   0.000000
     3  C    2.502648   1.346882   0.000000
     4  N    3.008332   2.452045   1.373344   0.000000
     5  N    4.409644   3.727796   2.453024   1.408184   0.000000
     6  C    2.611234   1.538174   2.514627   3.835366   4.950502
     7  C    3.113684   2.527357   3.566459   4.779892   5.958866
     8  C    3.110111   2.531178   3.573325   4.781693   5.890770
     9  N    3.916895   2.531583   2.846803   4.201626   4.983013
    10  H    1.094876   2.196457   2.661261   2.620618   3.963605
    11  H    1.095784   2.180227   3.229319   3.759330   5.160365
    12  H    1.095948   2.180212   3.233999   3.765053   5.108787
    13  H    3.489501   2.103863   1.087357   2.047351   2.573719
    14  H    2.742589   2.730606   2.069254   1.002829   2.036009
    15  H    4.786687   3.805473   2.463219   1.953466   1.013519
    16  H    4.892504   4.293779   3.056927   1.978839   1.020959
    17  H    2.817684   2.809563   4.026059   5.086267   6.386265
    18  H    3.441811   2.772865   3.518155   4.622721   5.714130
    19  H    4.123432   3.478901   4.461169   5.744564   6.852833
    20  H    2.812790   2.812388   4.031690   5.087322   6.319904
    21  H    4.120979   3.482297   4.467387   5.746670   6.794238
    22  H    3.435826   2.778518   3.529844   4.625591   5.590636
    23  H    4.172492   2.737784   2.747241   4.008560   4.671386
    24  H    4.170765   2.740001   2.752631   4.009477   4.614343
                    6          7          8          9         10
     6  C    0.000000
     7  C    1.540010   0.000000
     8  C    1.539870   2.510466   0.000000
     9  N    1.476770   2.411100   2.410942   0.000000
    10  H    3.562959   4.107891   4.101052   4.726045   0.000000
    11  H    2.913795   2.833281   3.526814   4.279715   1.748272
    12  H    2.904284   3.520542   2.818519   4.270040   1.749784
    13  H    2.698442   3.800709   3.805909   2.421863   3.745165
    14  H    4.247390   5.103201   5.042676   4.882279   2.028912
    15  H    4.774789   5.843016   5.743062   4.514302   4.549863
    16  H    5.527183   6.341775   6.616013   5.554075   4.372305
    17  H    2.198379   1.094014   2.778365   3.387349   3.821146
    18  H    2.185258   1.095613   3.475426   2.705561   4.264430
    19  H    2.172789   1.094397   2.740957   2.602177   5.154482
    20  H    2.197773   2.777890   1.094014   3.386952   3.812761
    21  H    2.173605   2.741896   1.094471   2.603219   5.149252
    22  H    2.184889   3.475270   1.095532   2.705293   4.252636
    23  H    2.058018   2.626152   3.315113   1.016253   4.863358
    24  H    2.058257   3.315469   2.626647   1.016366   4.859482
                   11         12         13         14         15
    11  H    0.000000
    12  H    1.764889   0.000000
    13  H    4.147476   4.147658   0.000000
    14  H    3.493138   3.438619   2.954167   0.000000
    15  H    5.536968   5.464058   2.140360   2.818784   0.000000
    16  H    5.486905   5.714284   3.169693   2.461045   1.613918
    17  H    2.258252   3.104499   4.500013   5.201325   6.427897
    18  H    3.055949   4.114352   3.682051   5.012916   5.591859
    19  H    3.847757   4.376216   4.517123   6.130051   6.627905
    20  H    3.107999   2.242612   4.504003   5.139143   6.333406
    21  H    4.384950   3.832931   4.522383   6.080104   6.540527
    22  H    4.116942   3.040455   3.691087   4.905676   5.409937
    23  H    4.441088   4.745824   2.159880   4.784054   4.152158
    24  H    4.752771   4.430970   2.165253   4.741788   4.059910
                   16         17         18         19         20
    16  H    0.000000
    17  H    6.752330   0.000000
    18  H    5.933608   1.769144   0.000000
    19  H    7.260807   1.767932   1.774276   0.000000
    20  H    7.018678   2.597576   3.792575   3.108034   0.000000
    21  H    7.502738   3.108804   3.749143   2.516519   1.767840
    22  H    6.429407   3.792925   4.332966   3.748054   1.769072
    23  H    5.087461   3.658081   2.486364   2.916959   4.196955
    24  H    5.308839   4.197702   3.639866   3.551581   3.658300
                   21         22         23         24
    21  H    0.000000
    22  H    1.774245   0.000000
    23  H    3.552318   3.639592   0.000000
    24  H    2.918552   2.486747   1.630447   0.000000
 Stoichiometry    C6H15N3
 Framework group  C1[X(C6H15N3)]
 Deg. of freedom    66
 Full point group                 C1      NOp   1
 Largest Abelian subgroup         C1      NOp   1
 Largest concise Abelian subgroup C1      NOp   1
                         Standard orientation:                         
 ---------------------------------------------------------------------
 Center     Atomic      Atomic             Coordinates (Angstroms)
 Number     Number       Type             X           Y           Z
 ---------------------------------------------------------------------
      1          6           0       -0.056812    1.967206   -0.010020
      2          6           0       -0.022758    0.448430    0.010046
      3          6           0        1.140585   -0.230031    0.030419
      4          7           0        2.422212    0.263431    0.030604
      5          7           0        3.569468   -0.539452   -0.118275
      6          6           0       -1.373203   -0.287908    0.000881
      7          6           0       -2.196991    0.087052    1.246838
      8          6           0       -2.176892    0.068021   -1.263475
      9          7           0       -1.259901   -1.760276    0.012885
     10          1           0        0.938582    2.423209   -0.012260
     11          1           0       -0.572520    2.376886    0.865738
     12          1           0       -0.568269    2.353526   -0.898991
     13          1           0        1.120968   -1.317193    0.036617
     14          1           0        2.587075    1.243788   -0.101250
     15          1           0        3.242405   -1.496523   -0.183580
     16          1           0        4.098294   -0.500121    0.754166
     17          1           0       -2.426534    1.156178    1.280716
     18          1           0       -1.655717   -0.168446    2.164504
     19          1           0       -3.145722   -0.458486    1.245908
     20          1           0       -2.405118    1.136640   -1.316698
     21          1           0       -3.126068   -0.476851   -1.270467
     22          1           0       -1.620762   -0.201025   -2.168198
     23          1           0       -0.743193   -2.060814    0.834749
     24          1           0       -0.729450   -2.073304   -0.795592
 ---------------------------------------------------------------------
 Rotational constants (GHZ):           2.6408899           0.8889439           0.7839243
 Standard basis: 6-31G(2df,p) (6D, 7F)
 There are   354 symmetry adapted cartesian basis functions of A   symmetry.
 There are   327 symmetry adapted basis functions of A   symmetry.
   327 basis functions,   501 primitive gaussians,   354 cartesian basis functions
    36 alpha electrons       36 beta electrons
       nuclear repulsion energy       481.9818374511 Hartrees.
 NAtoms=   24 NActive=   24 NUniq=   24 SFac= 1.00D+00 NAtFMM=   60 NAOKFM=F Big=F
 Integral buffers will be    131072 words long.
 Raffenetti 2 integral format.
 Two-electron integral symmetry is turned on.
 One-electron integrals computed using PRISM.
 PrsmSu:  requested number of processors reduced to:  13 ShMem   1 Linda.
 NBasis=   327 RedAO= T EigKep=  2.64D-04  NBF=   327
 NBsUse=   327 1.00D-06 EigRej= -1.00D+00 NBFU=   327
 Initial guess from the checkpoint file:  "CCpdCNNpCpCppCpN.chk"
 B after Tr=    -0.000000   -0.000000    0.000000
         Rot=    0.999985    0.003474    0.002804   -0.003321 Ang=   0.64 deg.
 ExpMin= 1.61D-01 ExpMax= 4.17D+03 ExpMxC= 6.27D+02 IAcc=2 IRadAn=         4 AccDes= 0.00D+00
 Harris functional with IExCor=  402 and IRadAn=       4 diagonalized for initial guess.
 HarFok:  IExCor=  402 AccDes= 0.00D+00 IRadAn=         4 IDoV= 1 UseB2=F ITyADJ=14
 ICtDFT=  3500011 ScaDFX=  1.000000  1.000000  1.000000  1.000000
 FoFCou: FMM=F IPFlag=           0 FMFlag=      100000 FMFlg1=           0
         NFxFlg=           0 DoJE=T BraDBF=F KetDBF=T FulRan=T
         wScrn=  0.000000 ICntrl=       500 IOpCl=  0 I1Cent=   200000004 NGrid=           0
         NMat0=    1 NMatS0=      1 NMatT0=    0 NMatD0=    1 NMtDS0=    0 NMtDT0=    0
 Petite list used in FoFCou.
 Requested convergence on RMS density matrix=1.00D-08 within 128 cycles.
 Requested convergence on MAX density matrix=1.00D-06.
 Requested convergence on             energy=1.00D-06.
 No special actions if energy rises.
 Integral accuracy reduced to 1.0D-05 until final iterations.
 Initial convergence to 1.0D-05 achieved.  Increase integral accuracy.
 SCF Done:  E(RB3LYP) =  -401.888037280     A.U. after   11 cycles
            NFock= 11  Conv=0.53D-08     -V/T= 2.0081
 PrsmSu:  requested number of processors reduced to:  13 ShMem   1 Linda.
 Calling FoFJK, ICntrl=      2127 FMM=F ISym2X=0 I1Cent= 0 IOpClX= 0 NMat=1 NMatS=1 NMatT=0.
 ***** Axes restored to original set *****
 -------------------------------------------------------------------
 Center     Atomic                   Forces (Hartrees/Bohr)
 Number     Number              X              Y              Z
 -------------------------------------------------------------------
      1        6           0.003300516    0.001372120    0.001004599
      2        6          -0.005220503    0.001627889   -0.000026682
      3        6           0.001427403    0.000332216    0.000012132
      4        7          -0.008448172   -0.013921243    0.000069840
      5        7           0.001105841    0.008572843    0.004232412
      6        6           0.003115361    0.001490406    0.002064436
      7        6          -0.000290655   -0.003136902   -0.000476288
      8        6          -0.000612529   -0.000591595   -0.002864066
      9        7          -0.001354660   -0.001712753   -0.001521673
     10        1           0.001274166    0.000336294    0.000398705
     11        1          -0.000457731   -0.000660111   -0.000673340
     12        1          -0.000379481   -0.000977044   -0.000492353
     13        1          -0.000585476   -0.000460082    0.000952993
     14        1           0.000020946    0.004828652   -0.003657170
     15        1           0.003000874    0.003101958   -0.002475575
     16        1           0.002421457   -0.002877817    0.001027994
     17        1           0.000235748    0.000894871    0.000434893
     18        1          -0.000043515    0.000416694    0.000061788
     19        1           0.000372235    0.000501038    0.000175519
     20        1           0.000295177    0.000541798    0.000724185
     21        1           0.000404763    0.000264032    0.000696750
     22        1          -0.000051454    0.000166824    0.000352161
     23        1           0.000280202   -0.000179828    0.000125916
     24        1           0.000189489    0.000069740   -0.000147175
 -------------------------------------------------------------------
 Cartesian Forces:  Max     0.013921243 RMS     0.002718398

 GradGradGradGradGradGradGradGradGradGradGradGradGradGradGradGradGradGrad
 Berny optimization.
 Using GEDIIS/GDIIS optimizer.
 FormGI is forming the generalized inverse of G from B-inverse, IUseBI=4.
 Internal  Forces:  Max     0.010988840 RMS     0.001573538
 Search for a local minimum.
 Step number   2 out of a maximum of  120
 All quantities printed in internal units (Hartrees-Bohrs-Radians)
 Mixed Optimization -- RFO/linear search
 Update second derivatives using D2CorX and points    1    2
 DE= -6.45D-03 DEPred=-5.72D-03 R= 1.13D+00
 TightC=F SS=  1.41D+00  RLast= 3.86D-01 DXNew= 5.0454D-01 1.1588D+00
 Trust test= 1.13D+00 RLast= 3.86D-01 DXMaxT set to 5.05D-01
 ITU=  1  0
 Use linear search instead of GDIIS.
     Eigenvalues ---    0.00230   0.00238   0.00253   0.00559   0.00764
     Eigenvalues ---    0.01012   0.01091   0.01890   0.02100   0.02453
     Eigenvalues ---    0.02730   0.04336   0.04917   0.05339   0.05360
     Eigenvalues ---    0.05497   0.05536   0.05538   0.06210   0.06786
     Eigenvalues ---    0.06879   0.06919   0.14475   0.15490   0.15759
     Eigenvalues ---    0.15883   0.15999   0.16000   0.16000   0.16000
     Eigenvalues ---    0.16000   0.16000   0.16000   0.16000   0.16000
     Eigenvalues ---    0.16000   0.16000   0.16000   0.17957   0.22021
     Eigenvalues ---    0.22427   0.24931   0.26508   0.28482   0.28603
     Eigenvalues ---    0.28882   0.31613   0.33974   0.33985   0.34063
     Eigenvalues ---    0.34087   0.34190   0.34206   0.34428   0.34456
     Eigenvalues ---    0.34618   0.35385   0.36059   0.43579   0.43909
     Eigenvalues ---    0.44616   0.44661   0.44766   0.47487   0.51431
     Eigenvalues ---    0.54548
 RFO step:  Lambda=-4.04396992D-03 EMin= 2.30012788D-03
 Quartic linear search produced a step of  0.34959.
 Iteration  1 RMS(Cart)=  0.06040606 RMS(Int)=  0.01410702
 Iteration  2 RMS(Cart)=  0.01775068 RMS(Int)=  0.00084985
 Iteration  3 RMS(Cart)=  0.00046655 RMS(Int)=  0.00073863
 Iteration  4 RMS(Cart)=  0.00000039 RMS(Int)=  0.00073863
 Variable       Old X    -DE/DX   Delta X   Delta X   Delta X     New X
                                 (Linear)    (Quad)   (Total)
    R1        2.87104  -0.00374   0.00242  -0.01556  -0.01313   2.85791
    R2        2.06902  -0.00013   0.00197  -0.00066   0.00131   2.07033
    R3        2.07073   0.00055   0.00181   0.00187   0.00368   2.07441
    R4        2.07104   0.00043   0.00182   0.00142   0.00323   2.07427
    R5        2.54524  -0.00067  -0.00386  -0.00128  -0.00513   2.54011
    R6        2.90673   0.00236  -0.00266   0.01074   0.00808   2.91481
    R7        2.59524   0.00009   0.00317  -0.00001   0.00316   2.59840
    R8        2.05481  -0.00057   0.00135  -0.00215  -0.00080   2.05400
    R9        2.66108   0.01099   0.01501   0.02781   0.04282   2.70390
   R10        1.89507   0.00090  -0.01105   0.00342  -0.00763   1.88744
   R11        1.91527   0.00293  -0.00484   0.00878   0.00393   1.91920
   R12        1.92933   0.00132  -0.00148   0.00394   0.00246   1.93179
   R13        2.91020   0.00124   0.00008   0.00547   0.00555   2.91574
   R14        2.90993   0.00110   0.00073   0.00478   0.00551   2.91545
   R15        2.79069  -0.00119   0.00437  -0.00456  -0.00020   2.79049
   R16        2.06739  -0.00049  -0.00088  -0.00172  -0.00259   2.06479
   R17        2.07041  -0.00002  -0.00065  -0.00000  -0.00065   2.06976
   R18        2.06811  -0.00021  -0.00191  -0.00063  -0.00254   2.06557
   R19        2.06739  -0.00052  -0.00084  -0.00186  -0.00270   2.06469
   R20        2.06825  -0.00033  -0.00187  -0.00107  -0.00294   2.06531
   R21        2.07026   0.00004  -0.00057   0.00020  -0.00036   2.06989
   R22        1.92044   0.00022  -0.00113   0.00071  -0.00042   1.92002
   R23        1.92065   0.00015  -0.00124   0.00054  -0.00071   1.91995
    A1        1.97795  -0.00191  -0.00286  -0.01362  -0.01642   1.96153
    A2        1.95383   0.00062   0.00614   0.00332   0.00947   1.96330
    A3        1.95363   0.00063   0.00656   0.00390   0.01049   1.96412
    A4        1.84813   0.00077   0.00013   0.00643   0.00661   1.85474
    A5        1.85022   0.00091   0.00098   0.00830   0.00932   1.85954
    A6        1.87219  -0.00097  -0.01208  -0.00788  -0.01997   1.85222
    A7        2.12130  -0.00187   0.00729  -0.01012  -0.00285   2.11845
    A8        2.04743   0.00021   0.01032   0.00005   0.01034   2.05777
    A9        2.11445   0.00166  -0.01760   0.01012  -0.00750   2.10695
   A10        2.24600  -0.00075   0.00454  -0.00468  -0.00021   2.24579
   A11        2.08075   0.00068  -0.00554   0.00522  -0.00038   2.08037
   A12        1.95636   0.00008   0.00100  -0.00028   0.00066   1.95702
   A13        2.15966  -0.00154   0.00498  -0.01475  -0.01286   2.14680
   A14        2.09979   0.00249   0.01525   0.00712   0.01825   2.11804
   A15        1.99275  -0.00153  -0.02588  -0.01877  -0.04734   1.94540
   A16        1.85699   0.00341  -0.03650   0.03179  -0.00525   1.85174
   A17        1.88566  -0.00160  -0.00806  -0.01115  -0.01974   1.86591
   A18        1.83236  -0.00046  -0.00215  -0.00032  -0.00386   1.82850
   A19        1.92651  -0.00036  -0.00321  -0.00101  -0.00427   1.92224
   A20        1.93100  -0.00077  -0.00276  -0.00587  -0.00863   1.92237
   A21        1.99311   0.00188   0.00658   0.02280   0.02942   2.02254
   A22        1.90587   0.00084   0.00025  -0.00051  -0.00037   1.90550
   A23        1.85169  -0.00088  -0.00004  -0.00798  -0.00806   1.84363
   A24        1.85164  -0.00072  -0.00073  -0.00825  -0.00898   1.84266
   A25        1.95544  -0.00072   0.00167  -0.00580  -0.00413   1.95131
   A26        1.93542  -0.00044  -0.00423  -0.00452  -0.00885   1.92657
   A27        1.91949  -0.00031  -0.00883   0.00032  -0.00857   1.91091
   A28        1.88138   0.00033   0.00027  -0.00047  -0.00025   1.88113
   A29        1.88103   0.00085   0.00849   0.00863   0.01715   1.89818
   A30        1.88888   0.00036   0.00338   0.00244   0.00567   1.89455
   A31        1.95476  -0.00051   0.00158  -0.00390  -0.00232   1.95245
   A32        1.92070  -0.00064  -0.00821  -0.00278  -0.01105   1.90964
   A33        1.93517  -0.00036  -0.00413  -0.00374  -0.00796   1.92721
   A34        1.88079   0.00089   0.00834   0.00868   0.01706   1.89785
   A35        1.88137   0.00026  -0.00002  -0.00017  -0.00023   1.88115
   A36        1.88884   0.00044   0.00315   0.00252   0.00551   1.89434
   A37        1.91817   0.00036   0.00231   0.00401   0.00631   1.92448
   A38        1.91840   0.00022   0.00291   0.00283   0.00573   1.92413
   A39        1.86174  -0.00008  -0.00586   0.00309  -0.00280   1.85895
    D1        0.00617   0.00004  -0.00131   0.01004   0.00868   0.01486
    D2       -3.13153  -0.00007   0.00318  -0.00366  -0.00043  -3.13197
    D3       -2.08271  -0.00006  -0.00393   0.00893   0.00498  -2.07774
    D4        1.06276  -0.00017   0.00056  -0.00477  -0.00414   1.05862
    D5        2.09765   0.00032   0.00271   0.01399   0.01663   2.11427
    D6       -1.04006   0.00021   0.00720   0.00029   0.00751  -1.03255
    D7       -0.00573   0.00030  -0.00876   0.01332   0.00458  -0.00115
    D8       -3.13345  -0.00014   0.00144  -0.01136  -0.00996   3.13978
    D9        3.13183   0.00041  -0.01358   0.02753   0.01399  -3.13737
   D10        0.00411  -0.00003  -0.00338   0.00284  -0.00055   0.00356
   D11       -1.06373  -0.00005  -0.00080   0.01917   0.01840  -1.04532
   D12        1.04782   0.00026  -0.00451   0.01398   0.00955   1.05737
   D13        3.13524   0.00006  -0.00292   0.01470   0.01179  -3.13616
   D14        2.08173  -0.00015   0.00381   0.00557   0.00934   2.09108
   D15       -2.08991   0.00016   0.00011   0.00038   0.00049  -2.08942
   D16       -0.00248  -0.00004   0.00169   0.00110   0.00273   0.00024
   D17       -2.99475   0.00187   0.03277   0.07636   0.11040  -2.88435
   D18       -0.13370  -0.00094   0.00014  -0.04347  -0.04455  -0.17825
   D19        0.13378   0.00229   0.02321   0.09965   0.12409   0.25787
   D20        2.99483  -0.00053  -0.00941  -0.02017  -0.03086   2.96397
   D21       -0.03497   0.00243   0.02448   0.13667   0.16375   0.12878
   D22       -1.99484   0.00206   0.05082   0.12704   0.17923  -1.81561
   D23       -2.91145   0.00450   0.05133   0.24616   0.29612  -2.61533
   D24        1.41186   0.00413   0.07767   0.23653   0.31159   1.72345
   D25        1.07355  -0.00098  -0.00571  -0.01816  -0.02384   1.04972
   D26       -1.02944  -0.00062  -0.00425  -0.01048  -0.01469  -1.04412
   D27       -3.11801  -0.00059   0.00017  -0.01085  -0.01072  -3.12873
   D28       -1.05291  -0.00034  -0.00034  -0.00987  -0.01019  -1.06310
   D29        3.12729   0.00002   0.00111  -0.00218  -0.00104   3.12625
   D30        1.03872   0.00005   0.00553  -0.00256   0.00293   1.04164
   D31       -3.04170   0.00054   0.00041   0.00400   0.00441  -3.03729
   D32        1.13850   0.00090   0.00186   0.01168   0.01356   1.15206
   D33       -0.95008   0.00094   0.00629   0.01131   0.01753  -0.93255
   D34       -1.07054   0.00079   0.00611   0.01161   0.01770  -1.05284
   D35        3.12095   0.00043   0.00006   0.00509   0.00520   3.12615
   D36        1.03180   0.00052   0.00429   0.00614   0.01040   1.04220
   D37        1.05321   0.00040   0.00046   0.00624   0.00669   1.05990
   D38       -1.03849   0.00004  -0.00559  -0.00028  -0.00581  -1.04430
   D39       -3.12764   0.00014  -0.00135   0.00077  -0.00061  -3.12825
   D40        3.04204  -0.00058   0.00016  -0.00745  -0.00731   3.03473
   D41        0.95033  -0.00095  -0.00589  -0.01397  -0.01981   0.93052
   D42       -1.13881  -0.00085  -0.00165  -0.01292  -0.01461  -1.15342
   D43        1.01958   0.00027  -0.00211   0.00757   0.00547   1.02506
   D44       -1.02434   0.00003   0.00192  -0.00025   0.00168  -1.02266
   D45       -1.10632   0.00018  -0.00210   0.00040  -0.00168  -1.10800
   D46        3.13295  -0.00007   0.00194  -0.00742  -0.00548   3.12747
   D47       -3.13208  -0.00004  -0.00202   0.00849   0.00645  -3.12563
[...]
 .00048589,-0.00347415,-0.22413754,0.02447360,-0.20942129,-0.00014272,0
 .00013468,0.00019452,0.00005112,-0.00001943,-0.00008195,0.00002153,-0.
 00006183,-0.00000838,0.00011713,-0.00013371,-0.00014511,0.00014596,-0.
 00004363,0.00016498,-0.00011253,0.00002641,-0.00000839,0.00003261,-0.0
 0013616,-0.00006793,0.00004251,0.00018049,-0.00032231,-0.00080036,-0.0
 0415181,-0.00374254,0.00898386,-0.00017108,0.01829465,0.23303152,-0.00
 005238,0.00020208,-0.00040876,0.00072579,-0.00085837,-0.00023676,-0.00
 360972,0.00062073,-0.00225582,-0.03637977,-0.00990209,-0.02867932,0.04
 773532,-0.05021689,0.08168235,-0.00017885,-0.00048060,0.00015689,0.000
 02165,-0.00005506,-0.00007535,-0.00008636,0.00007659,0.00005003,-0.000
 02133,0.00010565,0.00008344,0.00017698,-0.00013241,0.00008496,0.000122
 96,0.00004547,-0.00001776,0.00006434,-0.00012681,-0.00000083,0.0008615
 7,-0.00007543,-0.00019348,-0.00219248,-0.00372137,-0.00287724,0.013900
 07,-0.00245300,0.00583433,-0.02122148,0.06704318,-0.00017193,0.0001427
 1,0.00015987,0.00054036,-0.00006765,0.00024884,-0.00121996,0.00027858,
 -0.00185626,-0.00618078,-0.00564581,0.00142062,-0.16694927,0.05058685,
 -0.21308351,0.00015361,-0.00031145,-0.00010796,-0.00005754,-0.00000951
 ,0.00008870,-0.00009832,0.00013541,0.00002953,-0.00010504,0.00017533,0
 .00017218,0.00003489,-0.00009471,-0.00008095,0.00014514,-0.00000114,-0
 .00002454,0.00011900,0.00005685,0.00007239,0.00036815,-0.00054993,-0.0
 0050243,0.00169236,0.00016936,0.00001303,-0.02597625,0.00836791,-0.025
 08282,0.19757402,-0.05314685,0.23859159,-0.00065733,0.00127100,0.00006
 696,-0.00043864,-0.00017884,0.00021239,0.00007437,-0.00007850,-0.00006
 407,0.00010370,0.00000597,-0.00008190,0.00005885,-0.00003833,-0.000009
 63,-0.00854207,0.00186074,-0.00150120,-0.29955743,-0.02975098,-0.04714
 441,0.00000175,0.00059647,-0.00040986,-0.00036683,-0.00330539,0.001203
 05,0.00020613,0.00042519,0.00017828,0.00014819,0.00023808,-0.00026825,
 0.00007223,0.00048105,0.00047148,0.00006531,0.00009788,0.00012418,0.00
 001878,-0.00006976,-0.00005231,-0.00002450,0.00002813,0.00000795,-0.00
 000219,0.00001770,0.00001725,0.32762860,0.00013382,-0.00081982,-0.0007
 6452,-0.00026578,0.00095700,0.00007850,0.00012097,-0.00004587,-0.00030
 466,-0.00007103,0.00007159,0.00038018,-0.00001901,-0.00004568,-0.00002
 222,-0.02855577,0.00073809,-0.00626239,-0.02660857,-0.05099138,-0.0050
 7778,-0.00017999,0.00145340,-0.00103520,-0.00267857,-0.00642279,0.0020
 3107,0.00022516,0.00007835,0.00013565,0.00030590,-0.00016662,-0.000195
 07,0.00063081,-0.00071882,0.00034675,0.00003067,0.00009922,0.00016661,
 0.00008206,-0.00005597,-0.00007648,0.00000771,0.00002539,-0.00002049,0
 .00001839,0.00000815,-0.00000659,0.03112420,0.05399820,-0.00018493,-0.
 00014693,0.00038950,-0.00049257,-0.00026401,-0.00002558,0.00017593,-0.
 00003351,-0.00000162,-0.00004256,0.00000648,0.00006873,-0.00000278,-0.
 00000756,-0.00001412,0.00511768,-0.00012465,-0.00118781,-0.04722920,-0
 .00573200,-0.05497820,0.00070120,-0.00035434,0.00040740,0.00096993,0.0
 0142738,0.00002936,0.00013427,0.00017966,-0.00011384,0.00032047,-0.000
 19697,-0.00046366,-0.00010126,0.00005315,0.00019805,0.00002892,0.00003
 302,0.00000695,-0.00000148,-0.00003790,-0.00002765,0.00000674,0.000005
 45,-0.00000335,0.00000806,0.00000427,-0.00000515,0.05145649,0.00494457
 ,0.05581392,-0.00015940,0.00007839,-0.00052757,0.00008011,0.00042945,-
 0.00017438,0.00002594,0.00010684,0.00001334,-0.00003513,-0.00004775,0.
 00002614,0.00000607,-0.00001777,0.00001759,-0.00004311,-0.00211628,0.0
 0898116,-0.05508361,0.01176835,-0.04373845,-0.00061654,-0.00177980,0.0
 0029987,0.00113815,0.00031041,0.00082547,-0.00002924,0.00002473,0.0002
 5650,-0.00022373,0.00004516,0.00007727,0.00013910,-0.00000705,0.000200
 96,-0.00000442,-0.00001104,-0.00005306,-0.00001244,0.00002033,-0.00002
 583,-0.00000016,-0.00000855,0.00000192,0.00000358,0.00000264,-0.000003
 35,-0.00469382,0.00819107,-0.03078299,0.05570144,0.00017512,-0.0001618
 5,0.00010471,-0.00008040,0.00246978,0.00105555,-0.00012503,-0.00009589
 ,-0.00089648,-0.00013375,-0.00001447,0.00032598,-0.00008041,-0.0000099
 0,-0.00003827,0.00630516,-0.00898352,0.03053714,0.01126067,-0.06232615
 ,0.06052560,-0.00254940,-0.00618332,-0.00039149,0.00193832,0.00155370,
 -0.00027653,0.00005632,0.00002292,-0.00006004,0.00014092,-0.00007991,-
 0.00001842,-0.00017042,-0.00000152,-0.00002485,-0.00003315,-0.00004438
 ,0.00002077,0.00001642,0.00000958,-0.00000241,0.00003905,0.00000302,-0
 .00002510,0.00001021,-0.00001915,-0.00002088,-0.00017971,0.00023473,-0
 .00379206,-0.01125763,0.06855289,-0.00016083,0.00015734,-0.00012741,0.
 00047128,-0.00066084,0.00088449,-0.00014887,0.00014484,0.00028422,0.00
 002010,0.00010117,0.00014011,-0.00002071,0.00004004,0.00002697,-0.0013
 3736,0.00033930,-0.00608184,-0.04385582,0.06206706,-0.28208283,0.00076
 682,0.00157358,0.00118253,0.00006709,-0.00075646,0.00079746,0.00000781
 ,0.00000383,0.00004161,-0.00015016,0.00005459,0.00004560,0.00010184,-0
 .00003803,0.00009546,0.00003579,0.00000917,0.00001867,0.00001657,0.000
 02167,-0.00004009,-0.00000298,-0.00000514,-0.00001138,0.00000769,0.000
 00522,-0.00001068,-0.00028296,0.00076317,-0.00511056,0.04828962,-0.069
 76327,0.30629080,-0.00012034,0.00020796,0.00008751,-0.00081751,-0.0013
 0448,0.00025283,0.00021380,-0.00031457,-0.00000384,0.00007664,0.000060
 09,-0.00040573,0.00003930,0.00005838,0.00004926,0.00335895,-0.00659224
 ,-0.00529760,-0.11736499,0.08556156,0.08306178,-0.00006375,0.00020573,
 -0.00022756,0.00092086,-0.00045956,-0.00032004,0.00015862,0.00014881,0
 .00000645,0.00016006,-0.00002424,-0.00028122,0.00012376,-0.00014694,0.
 00024622,0.00004079,-0.00012631,0.00008081,0.00001261,-0.00001747,-0.0
 0004509,-0.00001927,-0.00000041,0.00002887,0.00001344,0.00000088,-0.00
 000395,-0.01457441,0.01889157,0.01924746,0.00300536,-0.00466061,-0.004
 43947,0.12442557,-0.00061715,0.00017172,0.00007844,-0.00388003,-0.0057
 0692,0.00094048,0.00108813,-0.00025462,0.00124611,0.00034069,-0.000316
 27,-0.00211736,0.00025726,0.00017267,0.00001466,0.01706082,-0.02108847
 ,-0.01886294,0.08334173,-0.14313956,-0.09575070,0.00082909,0.00103392,
 -0.00149742,0.00116290,0.00282534,0.00017456,0.00004573,0.00010136,-0.
 00005427,0.00014133,0.00007004,-0.00010052,0.00009505,0.00007229,0.000
 09743,-0.00008246,-0.00020231,0.00004216,-0.00015592,-0.00011839,0.000
 18247,-0.00012448,-0.00000953,0.00013142,-0.00004660,-0.00001843,0.000
 05829,-0.00218227,0.00233464,0.00323917,-0.00505484,0.00519715,0.00509
 844,-0.09175703,0.15818979,-0.00016663,0.00019392,-0.00008163,0.000076
 15,0.00010238,0.00053861,-0.00004531,0.00032754,0.00082048,0.00008008,
 -0.00006179,-0.00016766,0.00005091,-0.00003504,0.00004627,-0.00252529,
 0.00377070,0.00193740,0.08282846,-0.09738036,-0.14350878,-0.00048351,0
 .00068514,0.00071476,-0.00041297,0.00039531,0.00000090,0.00001951,0.00
 002587,0.00005411,-0.00012858,0.00008079,-0.00003354,0.00006974,-0.000
 08256,0.00007866,-0.00001115,0.00003609,-0.00008948,-0.00001261,-0.000
 00181,0.00001525,-0.00001651,-0.00001402,0.00001264,-0.00000834,0.0000
 1913,0.00001634,-0.00393163,0.00515196,0.00391963,0.01628878,-0.018649
 29,-0.01711958,-0.09166222,0.10551760,0.15289048,-0.00101377,-0.000274
 78,0.00120456,-0.00069808,0.00014794,-0.00044258,0.00014537,0.00003429
 ,-0.00005592,0.00009093,-0.00005572,-0.00006905,0.00007295,-0.00009135
 ,-0.00001964,-0.00412492,-0.00039544,0.00095012,0.00002488,-0.00023375
 ,0.00028800,-0.29405133,-0.01400983,-0.06609560,0.00058807,0.00092420,
 -0.00224107,0.00007613,0.00006638,0.00007198,0.00010721,0.00015723,0.0
 0038053,-0.00012099,0.00052028,0.00179207,0.00005250,0.00011637,0.0000
 8924,-0.00001146,-0.00008495,-0.00004617,-0.00002657,0.00002633,0.0000
 0404,-0.00000623,0.00001995,0.00002491,0.00050185,0.00035001,-0.000116
 33,0.00023750,0.00010537,-0.00002272,-0.00005008,-0.00002901,-0.000064
 89,0.32235941,-0.00002454,-0.00017938,-0.00023039,-0.00035300,-0.00002
 677,-0.00022058,0.00011359,0.00004267,-0.00003858,-0.00003037,0.000012
 18,0.00004124,-0.00000263,-0.00001167,-0.00000009,0.00735980,-0.001616
 60,0.00042825,0.00080857,0.00045993,-0.00035078,-0.01440551,-0.0468216
 8,-0.00375724,0.00069853,-0.00050364,0.00228528,0.00001806,-0.00004291
 ,-0.00008359,0.00006431,0.00002983,0.00013253,0.00031540,0.00055765,-0
 .00018841,0.00001339,-0.00001730,0.00003518,-0.00000382,-0.00000599,-0
 .00003331,-0.00000510,0.00001020,-0.00000205,0.00000665,-0.00000127,-0
 .00000258,-0.00024593,-0.00007067,0.00030732,-0.00013146,0.00004076,-0
 .00018324,0.00012402,-0.00002903,0.00002751,0.01487990,0.04675814,-0.0
 0010819,-0.00056344,-0.00122332,-0.00042911,0.00009189,0.00090550,0.00
 016441,-0.00030986,-0.00021275,-0.00000945,0.00016251,0.00021350,-0.00
 000497,0.00001714,-0.00002827,-0.02916678,-0.00285938,-0.00287277,-0.0
 0047512,-0.00111464,0.00141830,-0.06339866,-0.00339779,-0.06443817,-0.
 00133083,0.00253322,-0.00686713,0.00014616,0.00006003,0.00024313,0.000
 16430,0.00015800,0.00030311,0.00181239,-0.00003157,-0.00082784,0.00003
 624,0.00013453,0.00016048,0.00003213,-0.00007018,-0.00009455,0.0000034
 1,0.00002806,-0.00001146,0.00001511,0.00000446,-0.00001018,0.00048783,
 0.00056199,-0.00001555,0.00023458,-0.00026446,0.00007099,0.00009135,0.
 00011765,-0.00003581,0.07033464,0.00286207,0.06857647,-0.00010368,-0.0
 0021415,0.00009483,-0.00044865,0.00008014,-0.00067295,0.00007878,0.000
 01169,-0.00019486,0.00006997,-0.00012768,0.00002311,0.00000107,-0.0000
 5684,0.00001144,0.00089411,-0.00237324,-0.00324894,-0.00026761,0.00010
 336,0.00013126,-0.11869082,0.08766562,0.08147213,0.00064416,-0.0002398
 6,-0.00084721,-0.00000840,0.00003775,0.00006259,0.00008746,0.00011596,
 0.00022800,0.00054323,0.00018020,-0.00003972,0.00009131,0.00004154,-0.
 00009762,0.00000219,-0.00006874,-0.00003238,0.00001002,-0.00000664,-0.
 00000277,0.00001041,0.00000867,-0.00000534,-0.00005490,0.00006719,0.00
 011672,0.00002911,-0.00020333,-0.00017110,0.00033503,-0.00030879,0.000
 15497,-0.01505178,0.01973249,0.01796533,0.12604341,-0.00017937,-0.0000
 1554,0.00019349,0.00014044,0.00022382,0.00034404,-0.00001445,0.0008035
 0,0.00051766,0.00011853,0.00002209,-0.00031454,0.00003267,0.00004672,0
 .00006311,-0.00398698,0.00362994,0.00524345,-0.00048671,0.00083899,0.0
 0057720,0.08770998,-0.15357990,-0.09660323,-0.00055969,0.00012673,0.00
 029880,-0.00004154,0.00000830,0.00001352,0.00002372,0.00005942,0.00006
 424,0.00008228,-0.00003924,0.00000411,-0.00003723,-0.00007737,0.000064
 01,-0.00003551,-0.00002113,0.00004047,0.00000380,-0.00000187,0.0000231
 7,-0.00000765,0.00001507,0.00000785,-0.00006068,-0.00005078,0.00001004
 ,-0.00002423,0.00012415,-0.00015933,0.00009784,0.00001844,0.00021713,-
 0.00216038,0.00148054,0.00239483,-0.09682035,0.16414438,-0.00067398,-0
 .00030576,0.00004202,-0.00275300,0.00157951,-0.00579238,0.00102701,0.0
 0070874,0.00013152,-0.00003094,-0.00093846,-0.00086542,0.00030714,-0.0
 0041869,0.00004947,0.01741762,-0.02005005,-0.02030928,0.00043204,-0.00
 159242,0.00109735,0.07940090,-0.09466721,-0.13146909,0.00094438,-0.000
 16517,0.00281034,0.00007608,0.00002850,-0.00001452,0.00005524,0.000053
 83,0.00007666,0.00015164,0.00015049,0.00025912,-0.00008869,0.00023347,
 -0.00039875,-0.00002711,-0.00006186,0.00007215,-0.00007526,-0.00003725
 ,0.00002885,-0.00003893,0.00005995,0.00008865,-0.00003153,0.00012042,-
 0.00000419,-0.00035849,0.00004374,0.00043622,-0.00010230,0.00114509,0.
 00010647,-0.00433565,0.00621681,0.00488721,-0.08787061,0.10412074,0.14
 556973,-0.00050353,0.00003507,-0.00016632,0.00005592,-0.00024507,-0.00
 011118,0.00007714,0.00021965,0.00025563,0.00001393,-0.00000514,-0.0001
 4029,-0.00002005,0.00002958,0.00002395,-0.00054957,0.00397437,-0.00058
 195,-0.00001893,0.00052736,-0.00064010,-0.07337263,-0.07718651,0.01344
 931,0.00100780,0.00090160,0.00003255,-0.00003180,0.00005496,0.00021018
 ,-0.00000625,0.00005120,0.00006401,0.00021143,-0.00010027,0.00012752,0
 .00001128,-0.00004588,-0.00000635,-0.00000912,-0.00002459,0.00003473,0
 .00003022,-0.00000945,0.00001268,0.00000355,0.00000322,-0.00000866,0.0
 0028608,0.00024130,-0.00010918,0.00059333,0.00007371,-0.00015834,-0.00
 000148,-0.00029386,-0.00007596,-0.00917030,-0.02993361,0.00538715,0.00
 570192,0.01627338,-0.00359393,0.07562786,-0.00009198,-0.00002526,0.000
 04453,0.00050792,0.00077949,-0.00091667,-0.00011260,0.00048653,0.00012
 776,0.00002766,0.00004806,0.00015263,-0.00002780,-0.00001696,0.0000239
 3,-0.00288123,-0.00855175,0.00025924,0.00086156,0.00089253,0.00232045,
 -0.07749204,-0.27306286,0.03965044,-0.00000063,0.00067156,-0.00083085,
 -0.00004609,0.00007673,0.00006348,0.00007725,0.00001662,-0.00002430,0.
 00007051,-0.00007105,0.00006753,0.00003822,0.00000364,0.00005286,-0.00
 000195,-0.00002593,-0.00000598,0.00002834,0.00000791,-0.00000422,0.000
 00376,0.00000869,-0.00000086,-0.00003046,0.00008105,-0.00016673,-0.000
 36106,-0.00046009,0.00039215,-0.00007740,0.00050926,-0.00014862,0.0001
 6161,-0.00114516,-0.00025257,-0.00734631,-0.01754312,0.00362270,0.0856
 4115,0.29677106,0.00012062,-0.00004975,-0.00014004,-0.00013873,0.00119
 833,0.00258041,-0.00023460,-0.00087077,-0.00031894,-0.00013692,0.00011
 289,0.00027556,-0.00005560,0.00010175,-0.00005669,0.01087917,0.0302016
 8,-0.00640702,-0.00173012,0.00040282,-0.00654867,0.01279830,0.03805825
 ,-0.05281402,0.00190500,-0.00038434,0.00166901,0.00006168,-0.00001083,
 -0.00002188,-0.00006840,-0.00002105,0.00002677,-0.00004575,0.00004976,
 -0.00005557,-0.00000617,-0.00000559,-0.00002604,0.00001774,0.00004106,
 -0.00002948,0.00000609,-0.00000449,0.00000060,0.00001291,-0.00002428,-
 0.00002244,0.00007686,-0.00025493,0.00002621,0.00050874,0.00227390,-0.
 00028501,-0.00021204,0.00004220,0.00008412,-0.00191033,-0.00801975,0.0
 0072853,-0.00716234,-0.01686347,0.00302502,-0.01391287,-0.04534587,0.0
 5816583,-0.00016716,-0.00040177,0.00007163,0.00100254,-0.00081732,-0.0
 0097413,0.00012248,0.00056206,0.00076662,0.00033622,0.00005468,-0.0000
 8786,0.00014300,-0.00010892,0.00000161,-0.00995668,0.00932945,-0.03930
 317,0.00117776,0.00090319,-0.00097139,-0.00742485,-0.00072997,-0.00005
 793,-0.06060103,-0.00483723,-0.06012201,0.00019539,-0.00005971,-0.0000
 0506,0.00004331,0.00006676,0.00002261,0.00022873,0.00002128,0.00000488
 ,0.00001859,0.00128681,0.00038784,0.00006781,-0.00010702,-0.00001493,-
 0.00005671,0.00002723,0.00003596,-0.00003278,0.00003548,0.00005299,0.0
 0011053,0.00019780,0.00052921,-0.00015094,-0.00091746,0.00076345,-0.00
 004353,0.00005593,0.00022579,-0.00010345,0.00048644,-0.00226289,0.0001
 0429,-0.00030749,0.00010697,0.00004933,0.00023523,0.00023298,0.0722274
 8,0.00004493,0.00010094,0.00005442,-0.00080495,0.00027423,0.00096452,0
 .00148421,0.00013989,0.00027790,-0.00073729,-0.00016156,-0.00033205,-0
 .00020688,0.00017672,0.00011814,0.00458196,-0.00200454,-0.00099529,-0.
 00010792,0.00093742,-0.00183186,-0.00071493,-0.00026390,-0.00053985,-0
 .00798732,-0.04709205,0.06086279,-0.00018300,0.00004090,0.00000914,-0.
 00020734,-0.00002020,0.00005992,-0.00013169,-0.00001122,-0.00008294,0.
 00007934,-0.00202264,-0.00056526,-0.00013350,0.00023707,0.00007856,0.0
 0008808,-0.00010606,0.00001997,0.00007979,-0.00006436,-0.00011598,0.00
 039837,-0.00020881,0.00041198,-0.00046944,-0.00003308,0.00087591,-0.00
 006473,-0.00026670,-0.00033626,-0.00035024,0.00095015,-0.00032011,-0.0
 0009835,0.00004441,0.00031387,-0.00000432,0.00030608,-0.00020437,-0.00
 322704,0.05944164,-0.00006176,-0.00015143,-0.00010113,0.00129009,0.000
 36646,0.00127949,0.00003700,-0.00097918,-0.00045250,0.00026147,0.00018
 431,0.00025764,-0.00001552,0.00008798,-0.00001206,0.00368346,-0.001903
 07,-0.00883011,0.00054292,-0.00032863,0.00065829,-0.00379247,-0.000898
 07,0.00069709,-0.08716234,0.10585796,-0.38319456,0.00006530,-0.0000180
 8,0.00000359,-0.00000334,0.00001835,0.00006539,0.00007873,0.00004312,0
 .00005567,0.00076020,-0.00072994,0.00013767,0.00006382,-0.00004716,-0.
 00007712,-0.00000684,0.00002732,-0.00002128,-0.00000408,-0.00002212,-0
 .00000036,0.00012852,0.00002299,0.00022588,-0.00031538,-0.00050417,0.0
 0027995,-0.00014852,-0.00008034,-0.00023642,-0.00023885,0.00040692,-0.
 00073910,0.00016145,0.00008852,0.00050161,0.00027150,-0.00009431,0.000
 25269,0.08532671,-0.09587349,0.39850828,-0.00012624,0.00024570,-0.0003
 8527,0.00103815,-0.00098890,-0.00056345,-0.00018246,0.00045204,0.00030
 276,0.00057577,0.00024454,-0.00014579,0.00013284,-0.00010197,-0.000019
 08,-0.01591544,-0.03792484,0.00749264,-0.00737876,0.00122562,-0.001700
 36,0.00120092,-0.00100937,0.00090470,-0.08594995,-0.10706998,0.0059690
 7,0.00006502,-0.00002277,-0.00001330,0.00030075,0.00002195,-0.00005270
 ,0.00010615,-0.00004658,0.00012973,0.00003942,0.00055577,0.00156982,0.
 00006309,-0.00015772,-0.00004941,-0.00004235,0.00007292,0.00004245,-0.
 00003209,0.00004514,0.00005770,-0.00036423,-0.00223989,0.00025018,0.00
 009283,0.00027005,0.00020326,0.00017058,0.00011379,-0.00024880,0.00017
 217,0.00051482,0.00031096,-0.00002066,0.00023963,0.00006143,0.00001388
 ,0.00081632,-0.00100622,0.00270966,0.00867226,-0.00092207,0.10333094,-
 0.00001349,-0.00006235,0.00001299,0.00115657,0.00091971,0.00044242,-0.
 00001591,-0.00041059,-0.00117223,0.00023744,0.00006297,0.00050251,-0.0
 0003406,0.00005568,-0.00004918,0.00501327,-0.00436548,-0.00255907,-0.0
 0268163,0.00118574,-0.00107085,0.00069718,0.00098945,-0.00027809,-0.13
 961309,-0.35627594,0.09350820,0.00001681,0.00004506,0.00000875,0.00002
 180,-0.00000551,-0.00005721,-0.00001271,-0.00003171,0.00005587,0.00095
 586,-0.00004059,-0.00090698,0.00005068,-0.00008718,-0.00005160,0.00001
 210,-0.00001436,-0.00001638,-0.00000601,-0.00000038,-0.00000519,-0.000
 42392,-0.00048261,0.00023416,0.00030955,0.00020457,-0.00008118,0.00018
 914,0.00045362,0.00015870,0.00017557,0.00013005,0.00005764,-0.00018032
 ,-0.00025757,-0.00016098,-0.00017786,0.00024297,-0.00042315,-0.0017484
 0,-0.01039432,-0.00547394,0.13607145,0.36813876,0.00003936,-0.00002271
 ,0.00020215,-0.00041219,0.00082612,0.00006750,0.00161097,0.00040688,0.
 00048694,-0.00079735,-0.00034784,-0.00017081,-0.00020495,0.00010467,0.
 00012403,0.00248227,-0.00641141,-0.00063619,-0.00210632,-0.00038097,-0
 .00061505,-0.00050841,-0.00200152,0.00092935,-0.00248874,0.05355504,-0
 .04814530,-0.00009840,0.00005462,0.00001654,-0.00017103,-0.00004274,-0
 .00004439,-0.00016592,-0.00008063,-0.00007550,0.00027542,-0.00068097,-
 0.00193574,-0.00009281,0.00019866,0.00012663,0.00010858,-0.00013500,0.
 00001360,0.00006792,-0.00004644,-0.00011449,-0.00065349,-0.00068354,0.
 00086566,-0.00004243,-0.00015966,0.00027427,-0.00000297,0.00033735,0.0
 0003679,0.00051872,0.00036746,-0.00013031,-0.00007600,-0.00034580,-0.0
 0032877,-0.00036409,0.00101327,-0.00010892,0.01527012,0.03715034,-0.00
 925863,-0.01218826,-0.08267518,0.05842063\\0.00000228,0.00000976,-0.00
 000832,-0.00000928,0.00000229,0.00000664,0.00001703,-0.00001788,-0.000
 03230,-0.00002078,-0.00000590,0.00002214,0.00001658,0.00001757,-0.0000
 1160,-0.00000267,0.00000049,0.00000648,0.00000136,-0.00000427,0.000000
 17,-0.00000766,-0.00000365,-0.00001239,0.00000922,-0.00000229,-0.00000
 953,0.00000158,-0.00000318,0.00000406,-0.00000030,-0.00000463,0.000000
 64,-0.00000121,-0.00000706,0.00000121,-0.00000263,0.00000159,0.0000062
 2,0.00000326,0.00000190,0.00000067,-0.00000606,-0.00000315,0.00000663,
 -0.00000767,0.00000203,0.00000294,0.00000231,-0.00000037,0.00000103,0.
 00000131,0.00000151,0.00000054,0.00000180,0.00000427,0.,-0.00000224,0.
 00000412,0.00000212,0.00000103,0.00000203,0.00000256,-0.00000046,0.000
 00027,0.00000232,0.00000255,0.00000119,0.00000471,0.00000064,0.0000033
 7,0.00000305\\\@


 TRUTH, IN SCIENCE, CAN BE DEFINED AS THE WORKING HYPOTHESIS 
 BEST FITTED TO OPEN THE WAY TO THE NEXT BETTER ONE.

                              -- KONRAD LORENZ
 Job cpu time:       0 days  2 hours 47 minutes 22.6 seconds.
 Elapsed time:       0 days  0 hours 41 minutes 59.8 seconds.
 File lengths (MBytes):  RWF=    192 Int=      0 D2E=      0 Chk=     10 Scr=      1
 Normal termination of Gaussian 16 at Sun Jul  3 11:21:11 2022.
### All Done ###
