### Starting Gaussian ###
 Entering Gaussian System, Link 0=g16
 Initial command:
 /cluster/software/gaussian/gaussian-16-A.03/avx2/g16/l1.exe "/local/scratch/ks29c/Gau-32038.inp" -scrdir="/local/scratch/ks29c/"
 Entering Link 1 = /cluster/software/gaussian/gaussian-16-A.03/avx2/g16/l1.exe PID=     32039.
  
 Copyright (c) 1988,1990,1992,1993,1995,1998,2003,2009,2016,
            Gaussian, Inc.  All Rights Reserved.
  
 This is part of the Gaussian(R) 16 program.  It is based on
 the Gaussian(R) 09 system (copyright 2009, Gaussian, Inc.),
 the Gaussian(R) 03 system (copyright 2003, Gaussian, Inc.),
 the Gaussian(R) 98 system (copyright 1998, Gaussian, Inc.),
 the Gaussian(R) 94 system (copyright 1995, Gaussian, Inc.),
 the Gaussian 92(TM) system (copyright 1992, Gaussian, Inc.),
 the Gaussian 90(TM) system (copyright 1990, Gaussian, Inc.),
 the Gaussian 88(TM) system (copyright 1988, Gaussian, Inc.),
 the Gaussian 86(TM) system (copyright 1986, Carnegie Mellon
 University), and the Gaussian 82(TM) system (copyright 1983,
 Carnegie Mellon University). Gaussian is a federally registered
 trademark of Gaussian, Inc.
  
 This software contains proprietary and confidential information,
 including trade secrets, belonging to Gaussian, Inc.
  
 This software is provided under written license and may be
 used, copied, transmitted, or stored only in accord with that
 written license.
  
 The following legend is applicable only to US Government
 contracts under FAR:
  
                    RESTRICTED RIGHTS LEGEND
  
 Use, reproduction and disclosure by the US Government is
 subject to restrictions as set forth in subparagraphs (a)
 and (c) of the Commercial Computer Software - Restricted
 Rights clause in FAR 52.227-19.
  
 Gaussian, Inc.
 340 Quinnipiac St., Bldg. 40, Wallingford CT 06492
  
  
 ---------------------------------------------------------------
 Warning -- This program may not be used in any manner that
 competes with the business of Gaussian, Inc. or will provide
 assistance to any competitor of Gaussian, Inc.  The licensee
 of this program is prohibited from giving any competitor of
 Gaussian, Inc. access to this program.  By using this program,
 the user acknowledges that Gaussian, Inc. is engaged in the
 business of creating and licensing software in the field of
 computational chemistry and represents and warrants to the
 licensee that it is not a competitor of Gaussian, Inc. and that
 it will not use this program in any manner prohibited above.
 ---------------------------------------------------------------
  

 Cite this work as:
 Gaussian 16, Revision A.03,
 M. J. Frisch, G. W. Trucks, H. B. Schlegel, G. E. Scuseria, 
 M. A. Robb, J. R. Cheeseman, G. Scalmani, V. Barone, 
 G. A. Petersson, H. Nakatsuji, X. Li, M. Caricato, A. V. Marenich, 
 J. Bloino, B. G. Janesko, R. Gomperts, B. Mennucci, H. P. Hratchian, 
 J. V. Ortiz, A. F. Izmaylov, J. L. Sonnenberg, D. Williams-Young, 
 F. Ding, F. Lipparini, F. Egidi, J. Goings, B. Peng, A. Petrone, 
 T. Henderson, D. Ranasinghe, V. G. Zakrzewski, J. Gao, N. Rega, 
 G. Zheng, W. Liang, M. Hada, M. Ehara, K. Toyota, R. Fukuda, 
 J. Hasegawa, M. Ishida, T. Nakajima, Y. Honda, O. Kitao, H. Nakai, 
 T. Vreven, K. Throssell, J. A. Montgomery, Jr., J. E. Peralta, 
 F. Ogliaro, M. J. Bearpark, J. J. Heyd, E. N. Brothers, K. N. Kudin, 
 V. N. Staroverov, T. A. Keith, R. Kobayashi, J. Normand, 
 K. Raghavachari, A. P. Rendell, J. C. Burant, S. S. Iyengar, 
 J. Tomasi, M. Cossi, J. M. Millam, M. Klene, C. Adamo, R. Cammi, 
 J. W. Ochterski, R. L. Martin, K. Morokuma, O. Farkas, 
 J. B. Foresman, and D. J. Fox, Gaussian, Inc., Wallingford CT, 2016.
 
 ******************************************
 Gaussian 16:  ES64L-G16RevA.03 25-Dec-2016
                 3-Jul-2022 
 ******************************************
 %chk=CCpNpCCpCdNpCO.chk
 %NProcShared=20
 Will use up to   20 processors via shared memory.
 -----------------------------
 # opt freq b3lyp/6-31g(2df,p)
 -----------------------------
 1/18=20,19=15,26=3,38=1/1,3;
 2/9=110,12=2,17=6,18=5,40=1/2;
 3/5=1,6=6,7=104,11=2,25=1,30=1,71=1,74=-5/1,2,3;
 4//1;
 5/5=2,38=5/2;
 6/7=2,8=2,9=2,10=2,28=1/1;
 7//1,2,3,16;
 1/18=20,19=15,26=3/3(2);
 2/9=110/2;
 99//99;
 2/9=110/2;
 3/5=1,6=6,7=104,11=2,25=1,30=1,71=1,74=-5/1,2,3;
 4/5=5,16=3,69=1/1;
 5/5=2,38=5/2;
 7//1,2,3,16;
 1/18=20,19=15,26=3/3(-5);
 2/9=110/2;
 6/7=2,8=2,9=2,10=2,19=2,28=1/1;
 99/9=1/99;
 -------------------
 Title Card Required
 -------------------
 Symbolic Z-matrix:
 Charge =  0 Multiplicity = 1
 C                     0.9263   -0.00995  -0.06776 
 C                     2.44584   0.04953  -0.10986 
 N                     2.81454   1.3882   -0.5251 
 C                     3.0751   -0.30145   1.25287 
 C                     4.61912  -0.31135   1.27868 
 C                     5.30373   1.02717   1.03375 
 N                     5.31054   1.66178  -0.09878 
 C                     5.10399  -0.80248   2.65232 
 O                     6.52508  -0.87026   2.70938 
 H                     0.50796   0.27326  -1.04099 
 H                     0.52472   0.67934   0.68354 
 H                     0.57786  -1.01927   0.16653 
 H                     2.81672  -0.65747  -0.86058 
 H                     2.6081    2.07898   0.20001 
 H                     2.36115   1.69428  -1.38147 
 H                     2.72492  -1.30915   1.52725 
 H                     2.69356   0.37107   2.03223 
 H                     4.98653  -1.00238   0.50858 
 H                     5.87161   1.48173   1.85602 
 H                     4.61272   1.22011  -0.72772 
 H                     4.7164   -1.79981   2.88178 
 H                     4.7743   -0.12167   3.44566 
 H                     6.83413  -1.44116   1.98487 
 

 GradGradGradGradGradGradGradGradGradGradGradGradGradGradGradGradGradGrad
 Berny optimization.
 Initialization pass.
                           ----------------------------
                           !    Initial Parameters    !
                           ! (Angstroms and Degrees)  !
 --------------------------                            --------------------------
 ! Name  Definition              Value          Derivative Info.                !
 --------------------------------------------------------------------------------
 ! R1    R(1,2)                  1.5213         estimate D2E/DX2                !
 ! R2    R(1,10)                 1.0965         estimate D2E/DX2                !
 ! R3    R(1,11)                 1.0958         estimate D2E/DX2                !
 ! R4    R(1,12)                 1.0932         estimate D2E/DX2                !
 ! R5    R(2,3)                  1.4493         estimate D2E/DX2                !
 ! R6    R(2,4)                  1.5415         estimate D2E/DX2                !
 ! R7    R(2,13)                 1.0959         estimate D2E/DX2                !
 ! R8    R(3,14)                 1.0225         estimate D2E/DX2                !
 ! R9    R(3,15)                 1.0162         estimate D2E/DX2                !
 ! R10   R(4,5)                  1.5443         estimate D2E/DX2                !
 ! R11   R(4,16)                 1.1015         estimate D2E/DX2                !
 ! R12   R(4,17)                 1.0978         estimate D2E/DX2                !
 ! R13   R(5,6)                  1.5233         estimate D2E/DX2                !
 ! R14   R(5,8)                  1.5373         estimate D2E/DX2                !
 ! R15   R(5,18)                 1.098          estimate D2E/DX2                !
 ! R16   R(6,7)                  1.2982         estimate D2E/DX2                !
 ! R17   R(6,19)                 1.0978         estimate D2E/DX2                !
 ! R18   R(7,20)                 1.0381         estimate D2E/DX2                !
 ! R19   R(8,9)                  1.4238         estimate D2E/DX2                !
 ! R20   R(8,21)                 1.0943         estimate D2E/DX2                !
 ! R21   R(8,22)                 1.0962         estimate D2E/DX2                !
 ! R22   R(9,23)                 0.9728         estimate D2E/DX2                !
 ! A1    A(2,1,10)             110.268          estimate D2E/DX2                !
 ! A2    A(2,1,11)             111.1261         estimate D2E/DX2                !
 ! A3    A(2,1,12)             111.1251         estimate D2E/DX2                !
 ! A4    A(10,1,11)            107.8325         estimate D2E/DX2                !
 ! A5    A(10,1,12)            107.8835         estimate D2E/DX2                !
 ! A6    A(11,1,12)            108.4827         estimate D2E/DX2                !
 ! A7    A(1,2,3)              107.3468         estimate D2E/DX2                !
 ! A8    A(1,2,4)              111.986          estimate D2E/DX2                !
 ! A9    A(1,2,13)             109.3764         estimate D2E/DX2                !
 ! A10   A(3,2,4)              111.0849         estimate D2E/DX2                !
 ! A11   A(3,2,13)             108.2722         estimate D2E/DX2                !
 ! A12   A(4,2,13)             108.6961         estimate D2E/DX2                !
 ! A13   A(2,3,14)             111.6824         estimate D2E/DX2                !
 ! A14   A(2,3,15)             113.9644         estimate D2E/DX2                !
 ! A15   A(14,3,15)            107.701          estimate D2E/DX2                !
 ! A16   A(2,4,5)              115.1118         estimate D2E/DX2                !
 ! A17   A(2,4,16)             107.381          estimate D2E/DX2                !
 ! A18   A(2,4,17)             110.2569         estimate D2E/DX2                !
 ! A19   A(5,4,16)             107.9282         estimate D2E/DX2                !
 ! A20   A(5,4,17)             109.849          estimate D2E/DX2                !
 ! A21   A(16,4,17)            105.8482         estimate D2E/DX2                !
 ! A22   A(4,5,6)              116.1706         estimate D2E/DX2                !
 ! A23   A(4,5,8)              109.411          estimate D2E/DX2                !
 ! A24   A(4,5,18)             109.0796         estimate D2E/DX2                !
 ! A25   A(6,5,8)              106.4189         estimate D2E/DX2                !
 ! A26   A(6,5,18)             106.8499         estimate D2E/DX2                !
 ! A27   A(8,5,18)             108.6695         estimate D2E/DX2                !
 ! A28   A(5,6,7)              124.9018         estimate D2E/DX2                !
 ! A29   A(5,6,19)             118.417          estimate D2E/DX2                !
 ! A30   A(7,6,19)             116.6335         estimate D2E/DX2                !
 ! A31   A(6,7,20)             108.4837         estimate D2E/DX2                !
 ! A32   A(5,8,9)              111.4578         estimate D2E/DX2                !
 ! A33   A(5,8,21)             111.5194         estimate D2E/DX2                !
 ! A34   A(5,8,22)             110.6963         estimate D2E/DX2                !
 ! A35   A(9,8,21)             107.5603         estimate D2E/DX2                !
 ! A36   A(9,8,22)             107.5024         estimate D2E/DX2                !
 ! A37   A(21,8,22)            107.9238         estimate D2E/DX2                !
 ! A38   A(8,9,23)             108.3707         estimate D2E/DX2                !
 ! D1    D(10,1,2,3)            56.1251         estimate D2E/DX2                !
 ! D2    D(10,1,2,4)           178.304          estimate D2E/DX2                !
 ! D3    D(10,1,2,13)          -61.1362         estimate D2E/DX2                !
 ! D4    D(11,1,2,3)           -63.3902         estimate D2E/DX2                !
 ! D5    D(11,1,2,4)            58.7887         estimate D2E/DX2                !
 ! D6    D(11,1,2,13)          179.3486         estimate D2E/DX2                !
 ! D7    D(12,1,2,3)           175.7034         estimate D2E/DX2                !
 ! D8    D(12,1,2,4)           -62.1176         estimate D2E/DX2                !
 ! D9    D(12,1,2,13)           58.4422         estimate D2E/DX2                !
 ! D10   D(1,2,3,14)            69.8858         estimate D2E/DX2                !
 ! D11   D(1,2,3,15)           -52.4438         estimate D2E/DX2                !
 ! D12   D(4,2,3,14)           -52.8522         estimate D2E/DX2                !
 ! D13   D(4,2,3,15)          -175.1818         estimate D2E/DX2                !
 ! D14   D(13,2,3,14)         -172.1335         estimate D2E/DX2                !
 ! D15   D(13,2,3,15)           65.5368         estimate D2E/DX2                !
 ! D16   D(1,2,4,5)            177.9576         estimate D2E/DX2                !
 ! D17   D(1,2,4,16)            57.7636         estimate D2E/DX2                !
 ! D18   D(1,2,4,17)           -57.1052         estimate D2E/DX2                !
 ! D19   D(3,2,4,5)            -62.024          estimate D2E/DX2                !
 ! D20   D(3,2,4,16)           177.7821         estimate D2E/DX2                !
 ! D21   D(3,2,4,17)            62.9132         estimate D2E/DX2                !
 ! D22   D(13,2,4,5)            57.0033         estimate D2E/DX2                !
 ! D23   D(13,2,4,16)          -63.1906         estimate D2E/DX2                !
 ! D24   D(13,2,4,17)         -178.0595         estimate D2E/DX2                !
 ! D25   D(2,4,5,6)             64.8066         estimate D2E/DX2                !
 ! D26   D(2,4,5,8)           -174.7234         estimate D2E/DX2                !
 ! D27   D(2,4,5,18)           -55.9722         estimate D2E/DX2                !
 ! D28   D(16,4,5,6)          -175.3006         estimate D2E/DX2                !
 ! D29   D(16,4,5,8)           -54.8305         estimate D2E/DX2                !
 ! D30   D(16,4,5,18)           63.9207         estimate D2E/DX2                !
 ! D31   D(17,4,5,6)           -60.3429         estimate D2E/DX2                !
 ! D32   D(17,4,5,8)            60.1271         estimate D2E/DX2                !
 ! D33   D(17,4,5,18)          178.8784         estimate D2E/DX2                !
 ! D34   D(4,5,6,7)            -68.913          estimate D2E/DX2                !
 ! D35   D(4,5,6,19)           113.6914         estimate D2E/DX2                !
 ! D36   D(8,5,6,7)            169.0237         estimate D2E/DX2                !
 ! D37   D(8,5,6,19)            -8.3719         estimate D2E/DX2                !
 ! D38   D(18,5,6,7)            53.0515         estimate D2E/DX2                !
 ! D39   D(18,5,6,19)         -124.344          estimate D2E/DX2                !
 ! D40   D(4,5,8,9)            178.0956         estimate D2E/DX2                !
 ! D41   D(4,5,8,21)            57.8669         estimate D2E/DX2                !
 ! D42   D(4,5,8,22)           -62.3051         estimate D2E/DX2                !
 ! D43   D(6,5,8,9)            -55.6523         estimate D2E/DX2                !
 ! D44   D(6,5,8,21)          -175.881          estimate D2E/DX2                !
 ! D45   D(6,5,8,22)            63.947          estimate D2E/DX2                !
 ! D46   D(18,5,8,9)            59.0901         estimate D2E/DX2                !
 ! D47   D(18,5,8,21)          -61.1386         estimate D2E/DX2                !
 ! D48   D(18,5,8,22)          178.6894         estimate D2E/DX2                !
 ! D49   D(5,6,7,20)            12.2996         estimate D2E/DX2                !
 ! D50   D(19,6,7,20)         -170.2629         estimate D2E/DX2                !
 ! D51   D(5,8,9,23)           -56.0644         estimate D2E/DX2                !
 ! D52   D(21,8,9,23)           66.4686         estimate D2E/DX2                !
 ! D53   D(22,8,9,23)         -177.5388         estimate D2E/DX2                !
 --------------------------------------------------------------------------------
 Trust Radius=3.00D-01 FncErr=1.00D-07 GrdErr=1.00D-06 EigMax=2.50D+02 EigMin=1.00D-04
 Number of steps in this run=    123 maximum allowed number of steps=    138.
 GradGradGradGradGradGradGradGradGradGradGradGradGradGradGradGradGradGrad

                          Input orientation:                          
 ---------------------------------------------------------------------
 Center     Atomic      Atomic             Coordinates (Angstroms)
 Number     Number       Type             X           Y           Z
 ---------------------------------------------------------------------
      1          6           0        0.926300   -0.009950   -0.067760
      2          6           0        2.445840    0.049530   -0.109860
      3          7           0        2.814540    1.388200   -0.525100
      4          6           0        3.075100   -0.301450    1.252870
      5          6           0        4.619120   -0.311350    1.278680
      6          6           0        5.303730    1.027170    1.033750
      7          7           0        5.310540    1.661780   -0.098780
      8          6           0        5.103990   -0.802480    2.652320
      9          8           0        6.525080   -0.870260    2.709380
     10          1           0        0.507960    0.273260   -1.040990
     11          1           0        0.524720    0.679340    0.683540
     12          1           0        0.577860   -1.019270    0.166530
     13          1           0        2.816720   -0.657470   -0.860580
     14          1           0        2.608100    2.078980    0.200010
     15          1           0        2.361150    1.694280   -1.381470
     16          1           0        2.724920   -1.309150    1.527250
     17          1           0        2.693560    0.371070    2.032230
     18          1           0        4.986530   -1.002380    0.508580
     19          1           0        5.871610    1.481730    1.856020
     20          1           0        4.612720    1.220110   -0.727720
     21          1           0        4.716400   -1.799810    2.881780
     22          1           0        4.774300   -0.121670    3.445660
     23          1           0        6.834130   -1.441160    1.984870
 ---------------------------------------------------------------------
                    Distance matrix (angstroms):
                    1          2          3          4          5
     1  C    0.000000
     2  C    1.521286   0.000000
     3  N    2.393624   1.449276   0.000000
     4  C    2.538972   1.541489   2.466574   0.000000
     5  C    3.942165   2.604117   3.065714   1.544267   0.000000
     6  C    4.631505   3.229730   2.959125   2.603850   1.523259
     7  N    4.692249   3.287245   2.546883   3.267785   2.503737
     8  C    5.047775   3.926999   4.487389   2.515131   1.537269
     9  O    6.308643   5.043246   5.415774   3.787787   2.447849
    10  H    1.096537   2.161582   2.613340   3.490314   4.756498
    11  H    1.095828   2.171830   2.684505   2.791151   4.254382
    12  H    1.093174   2.169810   3.358125   2.816311   4.250860
    13  H    2.149775   1.095893   2.072997   2.158745   2.818666
    14  H    2.695140   2.059372   1.022536   2.644438   3.304755
    15  H    2.586316   2.080713   1.016178   3.381185   4.024597
    16  H    2.732583   2.145699   3.390556   1.101531   2.155316
    17  H    2.770982   2.180207   2.754837   1.097842   2.177456
    18  H    4.219307   2.818526   3.391299   2.167680   1.097983
    19  H    5.511999   4.201402   3.876101   3.371052   2.262120
    20  H    3.941863   2.539169   1.817350   2.932943   2.524094
    21  H    5.125255   4.186336   5.038582   2.755412   2.189727
    22  H    5.211881   4.253558   4.678387   2.779915   2.180794
    23  H    6.415926   5.085975   5.519269   3.995631   2.584849
                    6          7          8          9         10
     6  C    0.000000
     7  N    1.298230   0.000000
     8  C    2.450976   3.699161   0.000000
     9  O    2.810636   3.971410   1.423849   0.000000
    10  H    5.279426   5.087290   5.993434   7.181827   0.000000
    11  H    4.804432   4.947857   5.200154   6.519939   1.771775
    12  H    5.222436   5.445795   5.168366   6.469754   1.770205
    13  H    3.551298   3.489756   4.194413   5.151876   2.495832
    14  H    3.011287   2.750730   4.532781   5.507966   3.035011
    15  H    3.864855   3.216403   5.479821   6.375753   2.359987
    16  H    3.514569   4.260966   2.680013   4.003907   3.743633
    17  H    2.870613   3.613270   2.751709   4.084113   3.772412
    18  H    2.120258   2.751657   2.156242   2.688515   4.907750
    19  H    1.097834   2.041681   2.537903   2.585943   6.214645
    20  H    1.901972   1.038071   3.969495   4.454259   4.224182
    21  H    3.428117   4.606446   1.094324   2.040860   6.115285
    22  H    2.723498   4.003911   1.096169   2.041501   6.203842
    23  H    3.056044   4.036231   1.961323   0.972807   7.219106
                   11         12         13         14         15
    11  H    0.000000
    12  H    1.776344   0.000000
    13  H    3.069956   2.489648   0.000000
    14  H    2.556025   3.704342   2.942199   0.000000
    15  H    2.943951   3.597191   2.451448   1.646225   0.000000
    16  H    3.083313   2.558409   2.476862   3.640692   4.196853
    17  H    2.572521   3.144848   3.072688   2.506250   3.676238
    18  H    4.771430   4.421951   2.588752   3.904731   4.211518
    19  H    5.532429   6.093699   4.613940   3.708042   4.780152
    20  H    4.358421   4.700489   2.601648   2.369988   2.392027
    21  H    5.343091   5.010922   4.349596   5.165446   5.994261
    22  H    5.131262   5.400786   4.760557   4.479903   5.694045
    23  H    6.782229   6.528803   4.985011   5.782425   6.416446
                   16         17         18         19         20
    16  H    0.000000
    17  H    1.754744   0.000000
    18  H    2.499335   3.076619   0.000000
    19  H    4.218858   3.371145   2.961379   0.000000
    20  H    3.878896   3.467184   2.570532   2.885994   0.000000
    21  H    2.457945   3.086476   2.518123   3.627010   4.707351
    22  H    3.048010   2.563212   3.073618   2.510366   4.386751
    23  H    4.136720   4.520038   2.405324   3.079989   4.401723
                   21         22         23
    21  H    0.000000
    22  H    1.771290   0.000000
    23  H    2.327629   2.849186   0.000000
 Stoichiometry    C6H14N2O
 Framework group  C1[X(C6H14N2O)]
 Deg. of freedom    63
 Full point group                 C1      NOp   1
 Largest Abelian subgroup         C1      NOp   1
 Largest concise Abelian subgroup C1      NOp   1
                         Standard orientation:                         
 ---------------------------------------------------------------------
 Center     Atomic      Atomic             Coordinates (Angstroms)
 Number     Number       Type             X           Y           Z
 ---------------------------------------------------------------------
      1          6           0       -2.989533   -1.089650    0.036007
      2          6           0       -1.752994   -0.303755   -0.373446
      3          7           0       -1.917702    1.048937    0.120010
      4          6           0       -0.458659   -0.939156    0.171668
      5          6           0        0.846686   -0.225807   -0.243023
      6          6           0        1.033529    1.191863    0.281971
      7          7           0        0.334080    2.220149   -0.090588
      8          6           0        2.053129   -1.036830    0.256908
      9          8           0        3.283033   -0.439419   -0.140313
     10          1           0       -3.894267   -0.597513   -0.340358
     11          1           0       -3.072390   -1.155564    1.126708
     12          1           0       -2.964720   -2.103697   -0.371574
     13          1           0       -1.692061   -0.265551   -1.466977
     14          1           0       -1.851255    1.089860    1.139563
     15          1           0       -2.796078    1.482702   -0.150026
     16          1           0       -0.415004   -1.972856   -0.206390
     17          1           0       -0.507097   -1.021707    1.265330
     18          1           0        0.891663   -0.168006   -1.338561
     19          1           0        1.842693    1.380877    0.999445
     20          1           0       -0.486770    1.882305   -0.628785
     21          1           0        2.040424   -2.058371   -0.135312
     22          1           0        2.053597   -1.095717    1.351494
     23          1           0        3.279411   -0.345002   -1.108520
 ---------------------------------------------------------------------
 Rotational constants (GHZ):           2.6925996           0.9466261           0.7374450
 Standard basis: 6-31G(2df,p) (6D, 7F)
 There are   349 symmetry adapted cartesian basis functions of A   symmetry.
 There are   322 symmetry adapted basis functions of A   symmetry.
   322 basis functions,   494 primitive gaussians,   349 cartesian basis functions
    36 alpha electrons       36 beta electrons
       nuclear repulsion energy       481.9602250293 Hartrees.
 NAtoms=   23 NActive=   23 NUniq=   23 SFac= 1.00D+00 NAtFMM=   60 NAOKFM=F Big=F
 Integral buffers will be    131072 words long.
 Raffenetti 2 integral format.
 Two-electron integral symmetry is turned on.
 One-electron integrals computed using PRISM.
 PrsmSu:  requested number of processors reduced to:  13 ShMem   1 Linda.
 NBasis=   322 RedAO= T EigKep=  3.36D-04  NBF=   322
 NBsUse=   322 1.00D-06 EigRej= -1.00D+00 NBFU=   322
 ExpMin= 1.61D-01 ExpMax= 5.48D+03 ExpMxC= 8.25D+02 IAcc=3 IRadAn=         5 AccDes= 0.00D+00
 Harris functional with IExCor=  402 and IRadAn=       5 diagonalized for initial guess.
 HarFok:  IExCor=  402 AccDes= 0.00D+00 IRadAn=         5 IDoV= 1 UseB2=F ITyADJ=14
 ICtDFT=  3500011 ScaDFX=  1.000000  1.000000  1.000000  1.000000
 FoFCou: FMM=F IPFlag=           0 FMFlag=      100000 FMFlg1=           0
         NFxFlg=           0 DoJE=T BraDBF=F KetDBF=T FulRan=T
         wScrn=  0.000000 ICntrl=       500 IOpCl=  0 I1Cent=   200000004 NGrid=           0
         NMat0=    1 NMatS0=      1 NMatT0=    0 NMatD0=    1 NMtDS0=    0 NMtDT0=    0
 Petite list used in FoFCou.
 Requested convergence on RMS density matrix=1.00D-08 within 128 cycles.
 Requested convergence on MAX density matrix=1.00D-06.
 Requested convergence on             energy=1.00D-06.
 No special actions if energy rises.
 Integral accuracy reduced to 1.0D-05 until final iterations.
 Initial convergence to 1.0D-05 achieved.  Increase integral accuracy.
 SCF Done:  E(RB3LYP) =  -421.771966967     A.U. after   13 cycles
            NFock= 13  Conv=0.64D-08     -V/T= 2.0076

 **********************************************************************

            Population analysis using the SCF density.

 **********************************************************************

 Orbital symmetries:
       Occupied  (A) (A) (A) (A) (A) (A) (A) (A) (A) (A) (A) (A)
                 (A) (A) (A) (A) (A) (A) (A) (A) (A) (A) (A) (A)
                 (A) (A) (A) (A) (A) (A) (A) (A) (A) (A) (A) (A)
       Virtual   (A) (A) (A) (A) (A) (A) (A) (A) (A) (A) (A) (A)
                 (A) (A) (A) (A) (A) (A) (A) (A) (A) (A) (A) (A)
                 (A) (A) (A) (A) (A) (A) (A) (A) (A) (A) (A) (A)
                 (A) (A) (A) (A) (A) (A) (A) (A) (A) (A) (A) (A)
                 (A) (A) (A) (A) (A) (A) (A) (A) (A) (A) (A) (A)
                 (A) (A) (A) (A) (A) (A) (A) (A) (A) (A) (A) (A)
                 (A) (A) (A) (A) (A) (A) (A) (A) (A) (A) (A) (A)
                 (A) (A) (A) (A) (A) (A) (A) (A) (A) (A) (A) (A)
                 (A) (A) (A) (A) (A) (A) (A) (A) (A) (A) (A) (A)
                 (A) (A) (A) (A) (A) (A) (A) (A) (A) (A) (A) (A)
                 (A) (A) (A) (A) (A) (A) (A) (A) (A) (A) (A) (A)
                 (A) (A) (A) (A) (A) (A) (A) (A) (A) (A) (A) (A)
                 (A) (A) (A) (A) (A) (A) (A) (A) (A) (A) (A) (A)
                 (A) (A) (A) (A) (A) (A) (A) (A) (A) (A) (A) (A)
                 (A) (A) (A) (A) (A) (A) (A) (A) (A) (A) (A) (A)
                 (A) (A) (A) (A) (A) (A) (A) (A) (A) (A) (A) (A)
                 (A) (A) (A) (A) (A) (A) (A) (A) (A) (A) (A) (A)
                 (A) (A) (A) (A) (A) (A) (A) (A) (A) (A) (A) (A)
                 (A) (A) (A) (A) (A) (A) (A) (A) (A) (A) (A) (A)
                 (A) (A) (A) (A) (A) (A) (A) (A) (A) (A) (A) (A)
                 (A) (A) (A) (A) (A) (A) (A) (A) (A) (A) (A) (A)
                 (A) (A) (A) (A) (A) (A) (A) (A) (A) (A) (A) (A)
                 (A) (A) (A) (A) (A) (A) (A) (A) (A) (A) (A) (A)
                 (A) (A) (A) (A) (A) (A) (A) (A) (A) (A)
 The electronic state is 1-A.
 Alpha  occ. eigenvalues --  -19.13377 -14.31390 -14.27982 -10.22741 -10.22286
 Alpha  occ. eigenvalues --  -10.20053 -10.19675 -10.19329 -10.17999  -1.01264
 Alpha  occ. eigenvalues --   -0.90603  -0.85807  -0.79110  -0.73869  -0.68191
 Alpha  occ. eigenvalues --   -0.62584  -0.59563  -0.56338  -0.51011  -0.49259
 Alpha  occ. eigenvalues --   -0.47733  -0.45084  -0.44523  -0.42101  -0.41456
 Alpha  occ. eigenvalues --   -0.40807  -0.38688  -0.37680  -0.36566  -0.35810
 Alpha  occ. eigenvalues --   -0.34764  -0.31527  -0.28684  -0.26999  -0.23931
 Alpha  occ. eigenvalues --   -0.21028
 Alpha virt. eigenvalues --    0.01098   0.06855   0.07267   0.09640   0.11138
 Alpha virt. eigenvalues --    0.12561   0.13121   0.13976   0.15394   0.16211
 Alpha virt. eigenvalues --    0.16572   0.17778   0.18055   0.19398   0.20674
 Alpha virt. eigenvalues --    0.20929   0.23724   0.24477   0.26102   0.27021
 Alpha virt. eigenvalues --    0.28294   0.30653   0.35576   0.44146   0.45738
 Alpha virt. eigenvalues --    0.47041   0.49110   0.49806   0.50272   0.51924
 Alpha virt. eigenvalues --    0.53921   0.54561   0.56000   0.58351   0.59514
 Alpha virt. eigenvalues --    0.60460   0.61202   0.62695   0.63368   0.64797
 Alpha virt. eigenvalues --    0.66032   0.67205   0.68834   0.70778   0.71803
 Alpha virt. eigenvalues --    0.72705   0.73504   0.74635   0.75455   0.76204
 Alpha virt. eigenvalues --    0.77092   0.78972   0.79589   0.80173   0.81022
 Alpha virt. eigenvalues --    0.81831   0.83472   0.84111   0.85041   0.86743
 Alpha virt. eigenvalues --    0.87413   0.88950   0.90057   0.90792   0.94681
 Alpha virt. eigenvalues --    0.94990   0.97683   0.98178   1.00149   1.01014
 Alpha virt. eigenvalues --    1.04392   1.09740   1.11413   1.15176   1.15971
 Alpha virt. eigenvalues --    1.18237   1.20349   1.23147   1.24137   1.25877
 Alpha virt. eigenvalues --    1.30442   1.32965   1.34719   1.35744   1.37724
 Alpha virt. eigenvalues --    1.39427   1.42720   1.44225   1.46591   1.47761
 Alpha virt. eigenvalues --    1.49512   1.50439   1.53333   1.54361   1.57914
 Alpha virt. eigenvalues --    1.58392   1.60695   1.63465   1.64191   1.65850
 Alpha virt. eigenvalues --    1.67418   1.70667   1.74041   1.75203   1.77347
 Alpha virt. eigenvalues --    1.78562   1.80539   1.84131   1.85386   1.88413
 Alpha virt. eigenvalues --    1.89928   1.92781   1.93937   1.98211   2.00191
 Alpha virt. eigenvalues --    2.04483   2.09337   2.12894   2.18923   2.21998
 Alpha virt. eigenvalues --    2.23012   2.25463   2.26997   2.30092   2.31325
 Alpha virt. eigenvalues --    2.35508   2.37869   2.41044   2.43957   2.45717
 Alpha virt. eigenvalues --    2.46860   2.49972   2.51463   2.54350   2.55859
 Alpha virt. eigenvalues --    2.60917   2.61941   2.64296   2.72011   2.72086
 Alpha virt. eigenvalues --    2.73716   2.74582   2.77401   2.78823   2.80178
 Alpha virt. eigenvalues --    2.81413   2.83109   2.85193   2.85982   2.87737
 Alpha virt. eigenvalues --    2.88616   2.90474   2.92660   2.93405   2.94188
 Alpha virt. eigenvalues --    2.95931   2.96480   2.99587   3.00404   3.03252
 Alpha virt. eigenvalues --    3.05128   3.07292   3.07757   3.10182   3.16643
 Alpha virt. eigenvalues --    3.16794   3.18919   3.24771   3.25259   3.27875
 Alpha virt. eigenvalues --    3.31319   3.32211   3.36253   3.38757   3.40185
 Alpha virt. eigenvalues --    3.41648   3.44801   3.48427   3.49536   3.51409
 Alpha virt. eigenvalues --    3.54050   3.55098   3.58777   3.59804   3.64049
 Alpha virt. eigenvalues --    3.65306   3.68561   3.71696   3.75047   3.75561
 Alpha virt. eigenvalues --    3.80835   3.82712   3.84845   3.89476   3.90190
 Alpha virt. eigenvalues --    3.92980   3.94165   3.97413   4.00172   4.01461
 Alpha virt. eigenvalues --    4.09276   4.11347   4.14567   4.15231   4.19512
 Alpha virt. eigenvalues --    4.23582   4.25465   4.28969   4.30919   4.32530
 Alpha virt. eigenvalues --    4.33679   4.34910   4.38129   4.39239   4.40550
 Alpha virt. eigenvalues --    4.41725   4.44772   4.47028   4.48156   4.49147
 Alpha virt. eigenvalues --    4.50242   4.51986   4.53169   4.55298   4.56217
 Alpha virt. eigenvalues --    4.58174   4.60504   4.61099   4.62815   4.65068
 Alpha virt. eigenvalues --    4.65650   4.67382   4.68836   4.72321   4.72567
 Alpha virt. eigenvalues --    4.74787   4.76581   4.77143   4.78961   4.79950
 Alpha virt. eigenvalues --    4.81206   4.83483   4.84632   4.85494   4.88692
 Alpha virt. eigenvalues --    4.91338   4.92974   4.93960   4.96807   5.01695
 Alpha virt. eigenvalues --    5.03551   5.07589   5.11511   5.15091   5.21325
 Alpha virt. eigenvalues --    5.24608   5.27238   5.32165   5.33900   5.36258
 Alpha virt. eigenvalues --    5.37068   5.44042   5.47119   5.48021   5.55489
 Alpha virt. eigenvalues --    5.58917   5.62400   5.67059   5.70537   5.74298
 Alpha virt. eigenvalues --    5.97002   6.05386   6.07454   6.21012   7.03188
 Alpha virt. eigenvalues --   10.27233  11.06891  11.32709  11.41503  11.60422
 Alpha virt. eigenvalues --   11.88470  12.28334  12.57476  12.78682  13.20845
 Alpha virt. eigenvalues --   16.71824
          Condensed to atoms (all electrons):
               1          2          3          4          5          6
     1  C    5.066803   0.407557  -0.067936  -0.037722   0.001541   0.000181
     2  C    0.407557   4.648882   0.391893   0.402009  -0.011644  -0.005571
     3  N   -0.067936   0.391893   6.584891  -0.026942  -0.002115   0.009840
     4  C   -0.037722   0.402009  -0.026942   4.924454   0.362570  -0.015207
     5  C    0.001541  -0.011644  -0.002115   0.362570   4.921570   0.391738
     6  C    0.000181  -0.005571   0.009840  -0.015207   0.391738   4.740745
     7  N   -0.000018  -0.000842  -0.078995  -0.005190  -0.054863   0.666569
     8  C   -0.000099   0.001574   0.000038  -0.032093   0.376747  -0.027177
     9  O    0.000000  -0.000049   0.000000   0.002815  -0.050156   0.003923
    10  H    0.366822  -0.021601  -0.002159   0.003668  -0.000115   0.000001
    11  H    0.368206  -0.024047  -0.001178  -0.007447   0.000180  -0.000013
    12  H    0.341386  -0.022951   0.006633  -0.001695   0.000109   0.000001
    13  H   -0.052623   0.361692  -0.035330  -0.044423  -0.003201  -0.001216
    14  H   -0.003267  -0.046948   0.337990  -0.007185  -0.000645   0.002322
    15  H   -0.005319  -0.049593   0.342409   0.005556   0.000130  -0.000187
    16  H   -0.002487  -0.030540   0.003039   0.358792  -0.028712   0.004086
    17  H   -0.005867  -0.028214  -0.006701   0.352823  -0.030802  -0.005059
    18  H    0.000059  -0.003437  -0.001464  -0.035293   0.349644  -0.041901
    19  H    0.000004   0.000161  -0.000652   0.002349  -0.071858   0.353878
    20  H    0.000702  -0.000534   0.030844  -0.000940  -0.015520  -0.096762
    21  H    0.000005  -0.000099  -0.000006  -0.000850  -0.035175   0.005501
    22  H    0.000006  -0.000061  -0.000012  -0.004552  -0.023242  -0.008031
    23  H    0.000000  -0.000005   0.000000  -0.000005  -0.000764  -0.001418
               7          8          9         10         11         12
     1  C   -0.000018  -0.000099   0.000000   0.366822   0.368206   0.341386
     2  C   -0.000842   0.001574  -0.000049  -0.021601  -0.024047  -0.022951
     3  N   -0.078995   0.000038   0.000000  -0.002159  -0.001178   0.006633
     4  C   -0.005190  -0.032093   0.002815   0.003668  -0.007447  -0.001695
     5  C   -0.054863   0.376747  -0.050156  -0.000115   0.000180   0.000109
     6  C    0.666569  -0.027177   0.003923   0.000001  -0.000013   0.000001
     7  N    6.550405   0.004234  -0.000332   0.000007   0.000004   0.000008
     8  C    0.004234   4.814165   0.347300   0.000001   0.000002   0.000005
     9  O   -0.000332   0.347300   7.854145  -0.000000  -0.000000  -0.000000
    10  H    0.000007   0.000001  -0.000000   0.604183  -0.033117  -0.027980
    11  H    0.000004   0.000002  -0.000000  -0.033117   0.598730  -0.028076
    12  H    0.000008   0.000005  -0.000000  -0.027980  -0.028076   0.625492
    13  H    0.001242   0.000166  -0.000001  -0.002809   0.006016   0.000363
    14  H    0.005516  -0.000007   0.000000   0.000078   0.004686   0.000003
    15  H    0.002405   0.000005  -0.000000   0.005839   0.000033   0.000125
    16  H   -0.000112  -0.005577   0.000079  -0.000053  -0.000072   0.003084
    17  H    0.000537  -0.004423   0.000024  -0.000077   0.005059   0.000239
    18  H   -0.003057  -0.039899  -0.001556   0.000001   0.000011   0.000025
    19  H   -0.023060  -0.007521   0.006870  -0.000000  -0.000000   0.000000
    20  H    0.329519   0.000125  -0.000029  -0.000021   0.000007  -0.000024
    21  H   -0.000191   0.352334  -0.027260  -0.000000   0.000000  -0.000001
    22  H    0.000302   0.356249  -0.016977  -0.000000  -0.000001   0.000001
    23  H   -0.000017  -0.064937   0.307417   0.000000  -0.000000  -0.000000
              13         14         15         16         17         18
     1  C   -0.052623  -0.003267  -0.005319  -0.002487  -0.005867   0.000059
     2  C    0.361692  -0.046948  -0.049593  -0.030540  -0.028214  -0.003437
     3  N   -0.035330   0.337990   0.342409   0.003039  -0.006701  -0.001464
     4  C   -0.044423  -0.007185   0.005556   0.358792   0.352823  -0.035293
     5  C   -0.003201  -0.000645   0.000130  -0.028712  -0.030802   0.349644
     6  C   -0.001216   0.002322  -0.000187   0.004086  -0.005059  -0.041901
     7  N    0.001242   0.005516   0.002405  -0.000112   0.000537  -0.003057
     8  C    0.000166  -0.000007   0.000005  -0.005577  -0.004423  -0.039899
     9  O   -0.000001   0.000000  -0.000000   0.000079   0.000024  -0.001556
    10  H   -0.002809   0.000078   0.005839  -0.000053  -0.000077   0.000001
    11  H    0.006016   0.004686   0.000033  -0.000072   0.005059   0.000011
    12  H    0.000363   0.000003   0.000125   0.003084   0.000239   0.000025
    13  H    0.674602   0.007197  -0.001642  -0.003265   0.006404   0.005294
    14  H    0.007197   0.495632  -0.028024  -0.000092   0.005747   0.000167
    15  H   -0.001642  -0.028024   0.500737  -0.000209  -0.000052   0.000002
    16  H   -0.003265  -0.000092  -0.000209   0.635186  -0.037406  -0.004186
    17  H    0.006404   0.005747  -0.000052  -0.037406   0.637802   0.006430
    18  H    0.005294   0.000167   0.000002  -0.004186   0.006430   0.673434
    19  H    0.000013   0.000081   0.000004  -0.000171   0.000571   0.005094
    20  H   -0.000106  -0.003891  -0.000488  -0.000242   0.000106   0.002583
    21  H   -0.000002   0.000001  -0.000000   0.006521  -0.000460  -0.005550
    22  H    0.000010   0.000006  -0.000000  -0.000439   0.004908   0.006215
    23  H   -0.000001  -0.000000  -0.000000   0.000004   0.000024   0.006282
              19         20         21         22         23
     1  C    0.000004   0.000702   0.000005   0.000006   0.000000
     2  C    0.000161  -0.000534  -0.000099  -0.000061  -0.000005
     3  N   -0.000652   0.030844  -0.000006  -0.000012   0.000000
     4  C    0.002349  -0.000940  -0.000850  -0.004552  -0.000005
     5  C   -0.071858  -0.015520  -0.035175  -0.023242  -0.000764
     6  C    0.353878  -0.096762   0.005501  -0.008031  -0.001418
     7  N   -0.023060   0.329519  -0.000191   0.000302  -0.000017
     8  C   -0.007521   0.000125   0.352334   0.356249  -0.064937
     9  O    0.006870  -0.000029  -0.027260  -0.016977   0.307417
    10  H   -0.000000  -0.000021  -0.000000  -0.000000   0.000000
    11  H   -0.000000   0.000007   0.000000  -0.000001  -0.000000
    12  H    0.000000  -0.000024  -0.000001   0.000001  -0.000000
    13  H    0.000013  -0.000106  -0.000002   0.000010  -0.000001
    14  H    0.000081  -0.003891   0.000001   0.000006  -0.000000
    15  H    0.000004  -0.000488  -0.000000  -0.000000  -0.000000
    16  H   -0.000171  -0.000242   0.006521  -0.000439   0.000004
    17  H    0.000571   0.000106  -0.000460   0.004908   0.000024
    18  H    0.005094   0.002583  -0.005550   0.006215   0.006282
    19  H    0.616784   0.008927   0.000311   0.002711  -0.000184
    20  H    0.008927   0.510342  -0.000012   0.000029   0.000007
    21  H    0.000311  -0.000012   0.672791  -0.047584  -0.003474
    22  H    0.002711   0.000029  -0.047584   0.608782   0.006796
    23  H   -0.000184   0.000007  -0.003474   0.006796   0.465516
 Mulliken charges:
               1
     1  C   -0.377934
     2  C    0.032369
     3  N   -0.484086
     4  C   -0.195491
     5  C   -0.075417
     6  C    0.023758
     7  N   -0.394068
     8  C   -0.071210
     9  O   -0.426214
    10  H    0.107334
    11  H    0.111017
    12  H    0.103253
    13  H    0.081622
    14  H    0.230634
    15  H    0.228268
    16  H    0.102772
    17  H    0.098386
    18  H    0.081101
    19  H    0.105688
    20  H    0.235378
    21  H    0.083199
    22  H    0.114883
    23  H    0.284758
 Sum of Mulliken charges =  -0.00000
 Mulliken charges with hydrogens summed into heavy atoms:
               1
     1  C   -0.056331
     2  C    0.113990
     3  N   -0.025184
     4  C    0.005667
     5  C    0.005684
     6  C    0.129446
     7  N   -0.158690
     8  C    0.126872
     9  O   -0.141455
 Electronic spatial extent (au):  <R**2>=           1581.3697
 Charge=             -0.0000 electrons
 Dipole moment (field-independent basis, Debye):
    X=             -2.8249    Y=             -3.0581    Z=             -0.8073  Tot=              4.2407
 Quadrupole moment (field-independent basis, Debye-Ang):
   XX=            -57.1044   YY=            -65.4913   ZZ=            -51.5111
   XY=             -3.8428   XZ=             -3.4813   YZ=              0.4865
 Traceless Quadrupole moment (field-independent basis, Debye-Ang):
   XX=              0.9312   YY=             -7.4557   ZZ=              6.5245
   XY=             -3.8428   XZ=             -3.4813   YZ=              0.4865
 Octapole moment (field-independent basis, Debye-Ang**2):
  XXX=            -29.2459  YYY=            -26.8995  ZZZ=             -1.2910  XYY=             -4.0472
  XXY=             13.3856  XXZ=            -13.3979  XZZ=              8.8791  YZZ=              1.3225
  YYZ=             -1.4035  XYZ=              1.2908
 Hexadecapole moment (field-independent basis, Debye-Ang**3):
 XXXX=          -1454.0131 YYYY=           -603.3510 ZZZZ=           -112.1103 XXXY=            -31.8994
 XXXZ=            -45.7655 YYYX=            -34.2972 YYYZ=              1.3354 ZZZX=            -15.1771
 ZZZY=              1.2248 XXYY=           -310.3851 XXZZ=           -217.6634 YYZZ=           -104.7922
 XXYZ=              5.7863 YYXZ=              1.0673 ZZXY=             -9.7429
 N-N= 4.819602250293D+02 E-N=-1.946019723399D+03  KE= 4.186067991591D+02
 PrsmSu:  requested number of processors reduced to:  13 ShMem   1 Linda.
 Calling FoFJK, ICntrl=      2127 FMM=F ISym2X=0 I1Cent= 0 IOpClX= 0 NMat=1 NMatS=1 NMatT=0.
 ***** Axes restored to original set *****
 -------------------------------------------------------------------
 Center     Atomic                   Forces (Hartrees/Bohr)
 Number     Number              X              Y              Z
 -------------------------------------------------------------------
      1        6          -0.007798285   -0.014484801    0.001251476
      2        6          -0.014329945    0.008781776    0.004964970
      3        7          -0.004014379    0.015077683   -0.006734899
      4        6           0.002505061   -0.002870227   -0.007433690
      5        6           0.000522801    0.005141843    0.017389741
      6        6           0.003157094    0.024099717   -0.042463638
      7        7           0.007670081   -0.015313770    0.034166119
      8        6           0.008691423   -0.013953315   -0.007021091
      9        8           0.004763940    0.000608834   -0.002127536
     10        1           0.000080629   -0.000804221    0.001026093
     11        1           0.000878390   -0.000284444    0.000249079
     12        1          -0.004625199   -0.001940565    0.001159138
     13        1           0.001422432   -0.001130064   -0.001069051
     14        1           0.002484794   -0.004724851   -0.005353992
     15        1          -0.003684947   -0.004201735    0.002744536
     16        1           0.000525897    0.002533356   -0.000374614
     17        1          -0.000367015    0.002224564   -0.001309164
     18        1          -0.001455626   -0.002099980   -0.000052177
     19        1          -0.001499510   -0.005936811   -0.000443986
     20        1           0.015763258    0.004564715    0.004019988
     21        1          -0.008373437   -0.001759736    0.000843866
     22        1           0.002700084    0.000700719   -0.000828910
     23        1          -0.005017541    0.005771314    0.007397740
 -------------------------------------------------------------------
 Cartesian Forces:  Max     0.042463638 RMS     0.009431022

 GradGradGradGradGradGradGradGradGradGradGradGradGradGradGradGradGradGrad
 Berny optimization.
 FormGI is forming the generalized inverse of G from B-inverse, IUseBI=4.
 Internal  Forces:  Max     0.083609692 RMS     0.014535581
 Search for a local minimum.
 Step number   1 out of a maximum of  123
 All quantities printed in internal units (Hartrees-Bohrs-Radians)
 Mixed Optimization -- RFO/linear search
 Second derivative matrix not updated -- first step.
 ITU=  0
     Eigenvalues ---    0.00230   0.00230   0.00273   0.00458   0.00484
     Eigenvalues ---    0.01040   0.01091   0.01376   0.03038   0.03158
     Eigenvalues ---    0.03811   0.03857   0.04157   0.04545   0.04635
     Eigenvalues ---    0.04696   0.04856   0.05544   0.05567   0.05695
     Eigenvalues ---    0.05875   0.06109   0.08700   0.11705   0.12497
     Eigenvalues ---    0.13900   0.15994   0.16000   0.16000   0.16000
     Eigenvalues ---    0.16000   0.16000   0.16000   0.16000   0.16050
     Eigenvalues ---    0.16583   0.17711   0.18399   0.21938   0.22002
     Eigenvalues ---    0.22016   0.28144   0.28387   0.28762   0.30055
     Eigenvalues ---    0.30243   0.33513   0.33906   0.33922   0.33923
     Eigenvalues ---    0.34068   0.34109   0.34140   0.34148   0.34318
     Eigenvalues ---    0.34448   0.38340   0.41576   0.41886   0.43936
     Eigenvalues ---    0.44954   0.52808   0.67687
 RFO step:  Lambda=-9.01768833D-02 EMin= 2.30000000D-03
 Linear search not attempted -- first point.
 Maximum step size (   0.300) exceeded in Quadratic search.
    -- Step size scaled by   0.644
 Iteration  1 RMS(Cart)=  0.24236447 RMS(Int)=  0.01280280
 Iteration  2 RMS(Cart)=  0.03544741 RMS(Int)=  0.00106076
 Iteration  3 RMS(Cart)=  0.00077239 RMS(Int)=  0.00102462
 Iteration  4 RMS(Cart)=  0.00000099 RMS(Int)=  0.00102462
 Variable       Old X    -DE/DX   Delta X   Delta X   Delta X     New X
                                 (Linear)    (Quad)   (Total)
    R1        2.87481   0.01224   0.00000   0.02006   0.02006   2.89488
    R2        2.07215  -0.00115   0.00000  -0.00172  -0.00172   2.07044
    R3        2.07081  -0.00033   0.00000  -0.00049  -0.00049   2.07032
    R4        2.06580   0.00351   0.00000   0.00520   0.00520   2.07100
    R5        2.73873   0.00703   0.00000   0.00956   0.00956   2.74829
    R6        2.91299   0.01279   0.00000   0.02201   0.02201   2.93500
    R7        2.07094   0.00194   0.00000   0.00290   0.00290   2.07384
    R8        1.93231  -0.00749   0.00000  -0.00910  -0.00910   1.92321
    R9        1.92030  -0.00193   0.00000  -0.00231  -0.00231   1.91799
   R10        2.91824   0.02709   0.00000   0.04692   0.04692   2.96516
   R11        2.08159  -0.00258   0.00000  -0.00390  -0.00390   2.07769
   R12        2.07462   0.00056   0.00000   0.00084   0.00084   2.07546
   R13        2.87854   0.01855   0.00000   0.03056   0.03056   2.90910
   R14        2.90502   0.00208   0.00000   0.00354   0.00354   2.90856
   R15        2.07489   0.00087   0.00000   0.00131   0.00131   2.07619
   R16        2.45330  -0.03844   0.00000  -0.03226  -0.03226   2.42104
   R17        2.07461  -0.00357   0.00000  -0.00535  -0.00535   2.06926
   R18        1.96167  -0.01497   0.00000  -0.01905  -0.01905   1.94262
   R19        2.69069  -0.00035   0.00000  -0.00044  -0.00044   2.69025
   R20        2.06797   0.00475   0.00000   0.00705   0.00705   2.07502
   R21        2.07146  -0.00098   0.00000  -0.00146  -0.00146   2.07000
   R22        1.83834  -0.01049   0.00000  -0.01092  -0.01092   1.82742
    A1        1.92454   0.00001   0.00000   0.00009   0.00008   1.92462
    A2        1.93952  -0.00233   0.00000  -0.00654  -0.00653   1.93299
    A3        1.93950   0.00557   0.00000   0.01480   0.01479   1.95429
    A4        1.88203   0.00057   0.00000   0.00058   0.00057   1.88260
    A5        1.88292  -0.00215   0.00000  -0.00450  -0.00452   1.87840
    A6        1.89338  -0.00184   0.00000  -0.00486  -0.00484   1.88854
    A7        1.87355   0.00122   0.00000   0.00638   0.00711   1.88066
    A8        1.95452  -0.01800   0.00000  -0.04333  -0.04377   1.91075
    A9        1.90898   0.00252   0.00000  -0.00764  -0.00816   1.90081
   A10        1.93880   0.01986   0.00000   0.05674   0.05691   1.99571
   A11        1.88971  -0.00524   0.00000  -0.00711  -0.00730   1.88241
   A12        1.89711  -0.00016   0.00000  -0.00462  -0.00547   1.89163
   A13        1.94922   0.00240   0.00000   0.00480   0.00477   1.95399
   A14        1.98905  -0.00895   0.00000  -0.02436  -0.02439   1.96466
   A15        1.87974   0.00207   0.00000   0.00299   0.00294   1.88268
   A16        2.00908   0.08361   0.00000   0.17979   0.17962   2.18870
   A17        1.87415  -0.02870   0.00000  -0.07241  -0.06907   1.80508
   A18        1.92435  -0.02328   0.00000  -0.03202  -0.03629   1.88806
   A19        1.88370  -0.02849   0.00000  -0.07164  -0.06809   1.81562
   A20        1.91723  -0.02156   0.00000  -0.02614  -0.02996   1.88726
   A21        1.84740   0.01289   0.00000   0.00685   0.00350   1.85090
   A22        2.02756   0.04316   0.00000   0.11916   0.11777   2.14533
   A23        1.90958  -0.02426   0.00000  -0.06296  -0.06157   1.84802
   A24        1.90380  -0.00401   0.00000  -0.00564  -0.00853   1.89527
   A25        1.85736  -0.01548   0.00000  -0.04166  -0.03914   1.81822
   A26        1.86488  -0.00710   0.00000  -0.00654  -0.00885   1.85603
   A27        1.89664   0.00674   0.00000  -0.00740  -0.00856   1.88808
   A28        2.17995   0.04112   0.00000   0.08503   0.08475   2.26469
   A29        2.06677  -0.02531   0.00000  -0.05525  -0.05553   2.01124
   A30        2.03564  -0.01608   0.00000  -0.03159  -0.03189   2.00375
   A31        1.89340   0.00735   0.00000   0.01892   0.01892   1.91231
   A32        1.94531   0.00584   0.00000   0.01317   0.01314   1.95845
   A33        1.94638  -0.00436   0.00000  -0.00900  -0.00916   1.93722
   A34        1.93201  -0.00134   0.00000  -0.00643  -0.00644   1.92557
   A35        1.87728   0.00411   0.00000   0.01888   0.01886   1.89614
   A36        1.87627  -0.00495   0.00000  -0.01535  -0.01529   1.86098
   A37        1.88363   0.00067   0.00000  -0.00127  -0.00130   1.88233
   A38        1.89143  -0.00325   0.00000  -0.00837  -0.00837   1.88305
    D1        0.97957  -0.00660   0.00000  -0.02046  -0.02044   0.95913
    D2        3.11199   0.00774   0.00000   0.02751   0.02734   3.13933
    D3       -1.06703  -0.00240   0.00000  -0.01150  -0.01137  -1.07839
    D4       -1.10637  -0.00581   0.00000  -0.01704  -0.01702  -1.12339
    D5        1.02606   0.00853   0.00000   0.03093   0.03075   1.05681
    D6        3.13022  -0.00162   0.00000  -0.00808  -0.00795   3.12228
    D7        3.06660  -0.00569   0.00000  -0.01649  -0.01645   3.05015
    D8       -1.08416   0.00865   0.00000   0.03148   0.03132  -1.05284
    D9        1.02001  -0.00149   0.00000  -0.00754  -0.00738   1.01263
   D10        1.21974  -0.00337   0.00000  -0.00036  -0.00005   1.21969
   D11       -0.91532  -0.00125   0.00000   0.01026   0.01054  -0.90478
   D12       -0.92244   0.00581   0.00000   0.01394   0.01372  -0.90873
   D13       -3.05750   0.00793   0.00000   0.02456   0.02431  -3.03319
   D14       -3.00430  -0.00252   0.00000  -0.00968  -0.00972  -3.01402
   D15        1.14383  -0.00040   0.00000   0.00094   0.00087   1.14471
   D16        3.10595  -0.01508   0.00000  -0.08582  -0.08635   3.01959
   D17        1.00817  -0.01107   0.00000  -0.05626  -0.05473   0.95343
   D18       -0.99667   0.00151   0.00000  -0.00788  -0.00780  -1.00447
   D19       -1.08252  -0.01205   0.00000  -0.06800  -0.06921  -1.15173
   D20        3.10288  -0.00805   0.00000  -0.03844  -0.03759   3.06529
   D21        1.09804   0.00453   0.00000   0.00993   0.00934   1.10739
   D22        0.99490  -0.00666   0.00000  -0.04554  -0.04647   0.94842
   D23       -1.10288  -0.00266   0.00000  -0.01598  -0.01485  -1.11774
   D24       -3.10772   0.00993   0.00000   0.03240   0.03208  -3.07564
   D25        1.13109   0.01973   0.00000   0.09599   0.09815   1.22923
   D26       -3.04950   0.01063   0.00000   0.07543   0.07562  -2.97388
   D27       -0.97690   0.00217   0.00000   0.02612   0.02712  -0.94978
   D28       -3.05957   0.01608   0.00000   0.06696   0.06699  -2.99258
   D29       -0.95697   0.00699   0.00000   0.04640   0.04446  -0.91251
   D30        1.11563  -0.00147   0.00000  -0.00292  -0.00403   1.11159
   D31       -1.05318   0.00442   0.00000   0.02205   0.02298  -1.03020
   D32        1.04942  -0.00467   0.00000   0.00149   0.00045   1.04987
   D33        3.12202  -0.01313   0.00000  -0.04782  -0.04804   3.07397
   D34       -1.20276  -0.02129   0.00000  -0.10277  -0.10340  -1.30616
   D35        1.98429  -0.01350   0.00000  -0.05248  -0.05327   1.93102
   D36        2.95002  -0.00638   0.00000  -0.06765  -0.06715   2.88287
   D37       -0.14612   0.00141   0.00000  -0.01736  -0.01702  -0.16314
   D38        0.92592  -0.00330   0.00000  -0.03603  -0.03566   0.89026
   D39       -2.17021   0.00449   0.00000   0.01426   0.01447  -2.15574
   D40        3.10835  -0.01119   0.00000  -0.02931  -0.02969   3.07867
   D41        1.00997  -0.01744   0.00000  -0.05623  -0.05657   0.95340
   D42       -1.08743  -0.01447   0.00000  -0.04427  -0.04468  -1.13211
   D43       -0.97132   0.01666   0.00000   0.05080   0.05130  -0.92002
   D44       -3.06970   0.01041   0.00000   0.02388   0.02441  -3.04529
   D45        1.11609   0.01337   0.00000   0.03583   0.03631   1.15239
   D46        1.03132   0.00379   0.00000   0.01850   0.01837   1.04969
   D47       -1.06707  -0.00246   0.00000  -0.00842  -0.00851  -1.07558
   D48        3.11872   0.00051   0.00000   0.00354   0.00338   3.12210
   D49        0.21467  -0.00243   0.00000  -0.00907  -0.00886   0.20581
   D50       -2.97165  -0.01035   0.00000  -0.05917  -0.05939  -3.03103
   D51       -0.97851  -0.00086   0.00000  -0.00712  -0.00725  -0.98576
   D52        1.16010   0.00012   0.00000   0.00254   0.00271   1.16280
   D53       -3.09864   0.00046   0.00000   0.00283   0.00280  -3.09584
         Item               Value     Threshold  Converged?
 Maximum Force            0.083610     0.000450     NO 
 RMS     Force            0.014536     0.000300     NO 
 Maximum Displacement     1.343290     0.001800     NO 
 RMS     Displacement     0.267921     0.001200     NO 
 Predicted change in Energy=-4.722229D-02
 GradGradGradGradGradGradGradGradGradGradGradGradGradGradGradGradGradGrad

                          Input orientation:                          
 ---------------------------------------------------------------------
 Center     Atomic      Atomic             Coordinates (Angstroms)
 Number     Number       Type             X           Y           Z
 ---------------------------------------------------------------------
      1          6           0        0.845429   -0.126732    0.071406
      2          6           0        2.338020    0.095135   -0.192558
      3          7           0        2.501075    1.444441   -0.710123
      4          6           0        3.141975   -0.194665    1.104326
      5          6           0        4.706722   -0.234528    1.214041
      6          6           0        5.585103    1.025333    1.108935
      7          7           0        5.904579    1.717881    0.079528
      8          6           0        5.016716   -0.794479    2.613798
      9          8           0        6.413721   -0.965773    2.827627
     10          1           0        0.265214    0.076576   -0.835467
     11          1           0        0.486172    0.545827    0.858086
     12          1           0        0.631925   -1.157037    0.377909
     13          1           0        2.669809   -0.605549   -0.969284
     14          1           0        2.324067    2.149259    0.002372
     15          1           0        1.889270    1.636415   -1.496875
     16          1           0        2.829750   -1.213277    1.375935
     17          1           0        2.760301    0.461660    1.897923
     18          1           0        5.092200   -0.943250    0.468251
     19          1           0        6.076000    1.331089    2.038758
     20          1           0        5.323558    1.434659   -0.719824
     21          1           0        4.516660   -1.759314    2.771156
     22          1           0        4.663740   -0.103337    3.386861
     23          1           0        6.752914   -1.541283    2.128429
 ---------------------------------------------------------------------
                    Distance matrix (angstroms):
                    1          2          3          4          5
     1  C    0.000000
     2  C    1.531903   0.000000
     3  N    2.412578   1.454334   0.000000
     4  C    2.519060   1.553137   2.527775   0.000000
     5  C    4.028253   2.774518   3.374348   1.569095   0.000000
     6  C    4.986805   3.619765   3.604976   2.730803   1.539431
     7  N    5.384947   3.927808   3.504591   3.512836   2.556145
     8  C    4.930444   3.980259   4.731772   2.480511   1.539143
     9  O    6.269499   5.182508   5.799449   3.777393   2.460127
    10  H    1.095628   2.170299   2.624089   3.480247   4.901455
    11  H    1.095567   2.176308   2.706773   2.768078   4.306821
    12  H    1.095928   2.191832   3.383079   2.784636   4.260765
    13  H    2.154220   1.097426   2.073185   2.166015   3.008917
    14  H    2.715008   2.063400   1.017718   2.716110   3.581567
    15  H    2.580270   2.068372   1.014957   3.418825   4.334458
    16  H    2.611495   2.100931   3.394574   1.099466   2.123013
    17  H    2.710923   2.163971   2.799099   1.098287   2.177367
    18  H    4.342724   3.016691   3.715315   2.183655   1.098674
    19  H    5.775343   4.525356   4.511018   3.436508   2.237462
    20  H    4.808079   3.314480   2.822517   3.277426   2.628023
    21  H    4.840652   4.119351   5.142561   2.667622   2.187625
    22  H    5.056905   4.273243   4.884466   2.744827   2.177201
    23  H    6.413320   5.249394   5.920309   3.987612   2.594343
                    6          7          8          9         10
     6  C    0.000000
     7  N    1.281158   0.000000
     8  C    2.428866   3.677333   0.000000
     9  O    2.757719   3.874697   1.423618   0.000000
    10  H    5.743000   5.944201   5.935734   7.232489   0.000000
    11  H    5.127567   5.598124   5.040315   6.426498   1.771198
    12  H    5.461786   6.012908   4.935285   6.282267   1.768773
    13  H    3.934171   4.118503   4.287440   5.344452   2.503054
    14  H    3.622436   3.607229   4.768175   5.866069   3.039222
    15  H    4.563205   4.314439   5.708572   6.778153   2.346938
    16  H    3.560144   4.441500   2.547648   3.874728   3.623654
    17  H    2.986592   3.843323   2.679883   4.031054   3.720909
    18  H    2.128086   2.809392   2.152023   2.704364   5.102893
    19  H    1.095006   2.004389   2.443521   2.451928   6.603045
    20  H    1.892171   1.027989   4.021970   4.419835   5.238761
    21  H    3.414500   4.611081   1.098055   2.057119   5.869669
    22  H    2.704025   3.974288   1.095397   2.029525   6.099791
    23  H    2.998444   3.942058   1.951329   0.967027   7.313850
                   11         12         13         14         15
    11  H    0.000000
    12  H    1.775263   0.000000
    13  H    3.071355   2.504404   0.000000
    14  H    2.584783   3.733091   2.941534   0.000000
    15  H    2.950239   3.591533   2.431870   1.643107   0.000000
    16  H    2.975731   2.414468   2.427955   3.667293   4.154309
    17  H    2.502001   3.075810   3.060718   2.575151   3.696403
    18  H    4.856421   4.466310   2.836992   4.176508   4.557976
    19  H    5.766871   6.211855   4.939738   4.346638   5.488408
    20  H    5.165281   5.471137   3.356645   3.166886   3.526875
    21  H    5.021787   4.602340   4.328154   5.267881   6.053944
    22  H    4.926276   5.140001   4.817050   4.690738   5.880076
    23  H    6.726207   6.377968   5.209911   6.144502   6.848038
                   16         17         18         19         20
    16  H    0.000000
    17  H    1.755764   0.000000
    18  H    2.452649   3.074978   0.000000
    19  H    4.177471   3.430685   2.933765   0.000000
    20  H    4.197958   3.790727   2.668239   2.861235   0.000000
    21  H    2.256205   2.963117   2.510096   3.538155   4.799947
    22  H    2.939269   2.481782   3.067135   2.422692   4.434597
    23  H    4.008123   4.472793   2.423181   2.952419   4.360256
                   21         22         23
    21  H    0.000000
    22  H    1.772846   0.000000
    23  H    2.336979   2.831252   0.000000
 Stoichiometry    C6H14N2O
 Framework group  C1[X(C6H14N2O)]
 Deg. of freedom    63
 Full point group                 C1      NOp   1
 Largest Abelian subgroup         C1      NOp   1
 Largest concise Abelian subgroup C1      NOp   1
                         Standard orientation:                         
 ---------------------------------------------------------------------
 Center     Atomic      Atomic             Coordinates (Angstroms)
 Number     Number       Type             X           Y           Z
 ---------------------------------------------------------------------
      1          6           0       -3.057604   -1.110548    0.061423
      2          6           0       -1.928167   -0.172855   -0.376560
      3          7           0       -2.237461    1.157515    0.122981
      4          6           0       -0.566553   -0.739209    0.110765
      5          6           0        0.844000   -0.162315   -0.262854
      6          6           0        1.364439    1.185222    0.269250
      7          7           0        1.042002    2.378627   -0.067180
      8          6           0        1.868633   -1.190647    0.248635
      9          8           0        3.203949   -0.836721   -0.095393
     10          1           0       -4.025418   -0.721695   -0.274034
     11          1           0       -3.089849   -1.195939    1.153182
     12          1           0       -2.940989   -2.116550   -0.357406
     13          1           0       -1.910670   -0.124974   -1.472802
     14          1           0       -2.152750    1.212928    1.135652
     15          1           0       -3.173094    1.460144   -0.128303
     16          1           0       -0.553754   -1.759891   -0.297732
     17          1           0       -0.612417   -0.849668    1.202521
     18          1           0        0.923959   -0.114099   -1.357553
     19          1           0        2.190220    1.116944    0.985115
     20          1           0        0.197761    2.354923   -0.653233
     21          1           0        1.656182   -2.190575   -0.152281
     22          1           0        1.832494   -1.252513    1.341687
     23          1           0        3.246470   -0.736161   -1.056237
 ---------------------------------------------------------------------
 Rotational constants (GHZ):           2.4035460           0.8768520           0.6725130
 Standard basis: 6-31G(2df,p) (6D, 7F)
 There are   349 symmetry adapted cartesian basis functions of A   symmetry.
 There are   322 symmetry adapted basis functions of A   symmetry.
   322 basis functions,   494 primitive gaussians,   349 cartesian basis functions
    36 alpha electrons       36 beta electrons
       nuclear repulsion energy       468.6750612558 Hartrees.
 NAtoms=   23 NActive=   23 NUniq=   23 SFac= 1.00D+00 NAtFMM=   60 NAOKFM=F Big=F
 Integral buffers will be    131072 words long.
 Raffenetti 2 integral format.
 Two-electron integral symmetry is turned on.
 One-electron integrals computed using PRISM.
 PrsmSu:  requested number of processors reduced to:  13 ShMem   1 Linda.
 NBasis=   322 RedAO= T EigKep=  3.74D-04  NBF=   322
 NBsUse=   322 1.00D-06 EigRej= -1.00D+00 NBFU=   322
 Initial guess from the checkpoint file:  "CCpNpCCpCdNpCO.chk"
 B after Tr=     0.000000    0.000000   -0.000000
         Rot=    0.999146   -0.003452    0.001375    0.041156 Ang=  -4.74 deg.
 ExpMin= 1.61D-01 ExpMax= 5.48D+03 ExpMxC= 8.25D+02 IAcc=2 IRadAn=         4 AccDes= 0.00D+00
 Harris functional with IExCor=  402 and IRadAn=       4 diagonalized for initial guess.
 HarFok:  IExCor=  402 AccDes= 0.00D+00 IRadAn=         4 IDoV= 1 UseB2=F ITyADJ=14
 ICtDFT=  3500011 ScaDFX=  1.000000  1.000000  1.000000  1.000000
 FoFCou: FMM=F IPFlag=           0 FMFlag=      100000 FMFlg1=           0
         NFxFlg=           0 DoJE=T BraDBF=F KetDBF=T FulRan=T
         wScrn=  0.000000 ICntrl=       500 IOpCl=  0 I1Cent=   200000004 NGrid=           0
         NMat0=    1 NMatS0=      1 NMatT0=    0 NMatD0=    1 NMtDS0=    0 NMtDT0=    0
 Petite list used in FoFCou.
 Requested convergence on RMS density matrix=1.00D-08 within 128 cycles.
 Requested convergence on MAX density matrix=1.00D-06.
 Requested convergence on             energy=1.00D-06.
 No special actions if energy rises.
 Integral accuracy reduced to 1.0D-05 until final iterations.
 Initial convergence to 1.0D-05 achieved.  Increase integral accuracy.
 SCF Done:  E(RB3LYP) =  -421.778803293     A.U. after   13 cycles
            NFock= 13  Conv=0.39D-08     -V/T= 2.0080
 PrsmSu:  requested number of processors reduced to:  13 ShMem   1 Linda.
 Calling FoFJK, ICntrl=      2127 FMM=F ISym2X=0 I1Cent= 0 IOpClX= 0 NMat=1 NMatS=1 NMatT=0.
 ***** Axes restored to original set *****
 -------------------------------------------------------------------
 Center     Atomic                   Forces (Hartrees/Bohr)
 Number     Number              X              Y              Z
 -------------------------------------------------------------------
      1        6          -0.002954293   -0.013505924    0.003114390
      2        6          -0.003753047    0.006255413    0.002327983
      3        7           0.023417215    0.011356512   -0.001784631
      4        6           0.001216446    0.002937071   -0.003307926
      5        6          -0.003912828    0.006467067    0.003993252
      6        6          -0.000083468    0.013982739   -0.017110017
      7        7          -0.016353527   -0.006052424    0.010415506
      8        6           0.007614752   -0.014372646   -0.002344155
      9        8           0.000845055    0.000638420   -0.000243164
     10        1           0.000635396   -0.000279579    0.000425928
     11        1           0.000479856    0.000180332    0.000215324
     12        1          -0.002491024   -0.000693744    0.000992588
     13        1           0.000829592   -0.000045123   -0.000803585
     14        1          -0.000910536   -0.003027448   -0.001561723
     15        1          -0.000364827   -0.002455250    0.002458073
     16        1          -0.000307591    0.002261900    0.002817161
     17        1          -0.000407159    0.000972164    0.000014109
     18        1          -0.001229838   -0.000858886   -0.001154223
     19        1          -0.000914240   -0.004252038    0.000244982
     20        1           0.004279014   -0.002833581   -0.001750750
     21        1          -0.004864097    0.000567962   -0.000022716
     22        1           0.001266451    0.000467081   -0.000287249
     23        1          -0.002037303    0.002289982    0.003350840
 -------------------------------------------------------------------
 Cartesian Forces:  Max     0.023417215 RMS     0.005840304

 GradGradGradGradGradGradGradGradGradGradGradGradGradGradGradGradGradGrad
 Berny optimization.
 Using GEDIIS/GDIIS optimizer.
 FormGI is forming the generalized inverse of G from B-inverse, IUseBI=4.
 Internal  Forces:  Max     0.029349411 RMS     0.006329188
 Search for a local minimum.
 Step number   2 out of a maximum of  123
 All quantities printed in internal units (Hartrees-Bohrs-Radians)
 Mixed Optimization -- RFO/linear search
 Update second derivatives using D2CorX and points    1    2
 DE= -6.84D-03 DEPred=-4.72D-02 R= 1.45D-01
 Trust test= 1.45D-01 RLast= 4.16D-01 DXMaxT set to 3.00D-01
 ITU=  0  0
 Use linear search instead of GDIIS.
     Eigenvalues ---    0.00230   0.00243   0.00273   0.00478   0.00484
     Eigenvalues ---    0.01041   0.01137   0.01376   0.02499   0.03034
     Eigenvalues ---    0.03507   0.03927   0.04108   0.04575   0.04715
     Eigenvalues ---    0.04765   0.05013   0.05510   0.05607   0.05692
     Eigenvalues ---    0.05962   0.06169   0.10385   0.11738   0.13616
     Eigenvalues ---    0.13933   0.15774   0.15902   0.15987   0.16000
     Eigenvalues ---    0.16000   0.16000   0.16000   0.16000   0.16006
     Eigenvalues ---    0.17137   0.18154   0.19275   0.21954   0.22035
     Eigenvalues ---    0.27482   0.28311   0.28737   0.29908   0.30122
     Eigenvalues ---    0.33508   0.33903   0.33914   0.33922   0.34067
     Eigenvalues ---    0.34109   0.34138   0.34148   0.34303   0.34441
     Eigenvalues ---    0.38191   0.41383   0.41883   0.43891   0.44940
     Eigenvalues ---    0.52700   0.57725   0.66344
 RFO step:  Lambda=-1.33450748D-02 EMin= 2.29909065D-03
 Quartic linear search produced a step of -0.50562.
 Iteration  1 RMS(Cart)=  0.15027191 RMS(Int)=  0.00889903
 Iteration  2 RMS(Cart)=  0.01638880 RMS(Int)=  0.00070880
 Iteration  3 RMS(Cart)=  0.00020808 RMS(Int)=  0.00069686
 Iteration  4 RMS(Cart)=  0.00000011 RMS(Int)=  0.00069686
 Variable       Old X    -DE/DX   Delta X   Delta X   Delta X     New X
                                 (Linear)    (Quad)   (Total)
    R1        2.89488   0.00711  -0.01014   0.03152   0.02137   2.91625
    R2        2.07044  -0.00074   0.00087  -0.00282  -0.00196   2.06848
    R3        2.07032   0.00011   0.00025  -0.00035  -0.00010   2.07022
    R4        2.07100   0.00142  -0.00263   0.00736   0.00473   2.07573
    R5        2.74829   0.00825  -0.00483   0.02057   0.01574   2.76403
    R6        2.93500  -0.01262  -0.01113   0.00016  -0.01096   2.92404
    R7        2.07384   0.00085  -0.00147   0.00419   0.00272   2.07656
    R8        1.92321  -0.00303   0.00460  -0.01315  -0.00854   1.91466
    R9        1.91799  -0.00215   0.00117  -0.00484  -0.00367   1.91432
   R10        2.96516  -0.01559  -0.02372   0.01935  -0.00437   2.96079
   R11        2.07769  -0.00131   0.00197  -0.00590  -0.00393   2.07376
   R12        2.07546   0.00073  -0.00042   0.00192   0.00149   2.07695
   R13        2.90910  -0.00621  -0.01545   0.02051   0.00506   2.91416
   R14        2.90856   0.00477  -0.00179   0.01155   0.00976   2.91832
   R15        2.07619   0.00091  -0.00066   0.00264   0.00198   2.07818
   R16        2.42104  -0.01478   0.01631  -0.04718  -0.03087   2.39017
   R17        2.06926  -0.00139   0.00270  -0.00748  -0.00478   2.06448
   R18        1.94262  -0.00028   0.00963  -0.02055  -0.01092   1.93170
   R19        2.69025  -0.00105   0.00022  -0.00170  -0.00148   2.68877
   R20        2.07502   0.00171  -0.00356   0.00968   0.00612   2.08114
   R21        2.07000  -0.00032   0.00074  -0.00195  -0.00121   2.06879
   R22        1.82742  -0.00450   0.00552  -0.01620  -0.01068   1.81674
    A1        1.92462  -0.00080  -0.00004  -0.00253  -0.00257   1.92205
    A2        1.93299  -0.00141   0.00330  -0.00942  -0.00612   1.92686
    A3        1.95429   0.00370  -0.00748   0.02310   0.01562   1.96992
    A4        1.88260   0.00060  -0.00029   0.00171   0.00140   1.88401
    A5        1.87840  -0.00105   0.00229  -0.00675  -0.00446   1.87394
    A6        1.88854  -0.00113   0.00245  -0.00677  -0.00431   1.88423
    A7        1.88066   0.01914  -0.00359   0.06215   0.05816   1.93882
    A8        1.91075  -0.00349   0.02213  -0.03825  -0.01539   1.89536
    A9        1.90081  -0.00421   0.00413   0.01050   0.01500   1.91582
   A10        1.99571  -0.01355  -0.02878  -0.00174  -0.03068   1.96503
   A11        1.88241  -0.00246   0.00369  -0.03072  -0.02788   1.85453
   A12        1.89163   0.00470   0.00277  -0.00102   0.00167   1.89330
   A13        1.95399  -0.00165  -0.00241  -0.00197  -0.00445   1.94955
   A14        1.96466  -0.00404   0.01233  -0.03271  -0.02044   1.94422
   A15        1.88268   0.00157  -0.00149   0.00508   0.00348   1.88615
   A16        2.18870  -0.02935  -0.09082   0.08864  -0.00372   2.18498
   A17        1.80508   0.00886   0.03492  -0.00328   0.02978   1.83487
   A18        1.88806   0.00949   0.01835  -0.05846  -0.03951   1.84855
   A19        1.81562   0.00856   0.03443  -0.00398   0.02848   1.84409
   A20        1.88726   0.00910   0.01515  -0.05610  -0.04057   1.84670
   A21        1.85090  -0.00427  -0.00177   0.03928   0.04020   1.89110
   A22        2.14533  -0.02008  -0.05955   0.02058  -0.03909   2.10623
   A23        1.84802   0.00589   0.03113  -0.01966   0.01143   1.85944
   A24        1.89527   0.00340   0.00431  -0.02062  -0.01605   1.87922
   A25        1.81822   0.01352   0.01979   0.01886   0.03771   1.85594
   A26        1.85603   0.00410   0.00448  -0.02242  -0.01855   1.83748
   A27        1.88808  -0.00601   0.00433   0.02927   0.03433   1.92242
   A28        2.26469  -0.00759  -0.04285   0.06428   0.01866   2.28336
   A29        2.01124   0.00010   0.02808  -0.04850  -0.02318   1.98806
   A30        2.00375   0.00759   0.01612  -0.00646   0.00687   2.01062
   A31        1.91231   0.00213  -0.00956   0.02162   0.01205   1.92437
   A32        1.95845   0.00488  -0.00664   0.02303   0.01640   1.97485
   A33        1.93722  -0.00286   0.00463  -0.01628  -0.01168   1.92554
   A34        1.92557  -0.00149   0.00326  -0.00859  -0.00533   1.92024
   A35        1.89614   0.00189  -0.00954   0.02118   0.01167   1.90782
   A36        1.86098  -0.00292   0.00773  -0.01853  -0.01078   1.85019
   A37        1.88233   0.00041   0.00066  -0.00128  -0.00067   1.88166
   A38        1.88305  -0.00075   0.00423  -0.00899  -0.00475   1.87830
    D1        0.95913   0.00362   0.01033  -0.00673   0.00386   0.96299
    D2        3.13933  -0.00285  -0.01382   0.00743  -0.00622   3.13310
    D3       -1.07839  -0.00167   0.00575  -0.00983  -0.00449  -1.08288
    D4       -1.12339   0.00428   0.00861  -0.00123   0.00762  -1.11577
    D5        1.05681  -0.00218  -0.01555   0.01293  -0.00246   1.05435
    D6        3.12228  -0.00100   0.00402  -0.00433  -0.00073   3.12155
    D7        3.05015   0.00418   0.00832  -0.00180   0.00677   3.05692
    D8       -1.05284  -0.00228  -0.01584   0.01237  -0.00331  -1.05615
    D9        1.01263  -0.00110   0.00373  -0.00490  -0.00158   1.01105
   D10        1.21969  -0.00222   0.00003  -0.03409  -0.03412   1.18557
   D11       -0.90478  -0.00009  -0.00533  -0.01538  -0.02082  -0.92560
   D12       -0.90873  -0.00284  -0.00693  -0.02952  -0.03579  -0.94452
   D13       -3.03319  -0.00071  -0.01229  -0.01080  -0.02249  -3.05568
   D14       -3.01402   0.00166   0.00491  -0.00509  -0.00069  -3.01470
   D15        1.14471   0.00378  -0.00044   0.01363   0.01261   1.15732
   D16        3.01959  -0.00334   0.04366   0.14914   0.19291  -3.07068
   D17        0.95343  -0.00430   0.02767   0.09965   0.12638   1.07981
   D18       -1.00447  -0.00722   0.00394   0.07991   0.08417  -0.92031
   D19       -1.15173   0.00956   0.03499   0.20002   0.23553  -0.91621
   D20        3.06529   0.00860   0.01901   0.15054   0.16900  -3.04890
   D21        1.10739   0.00568  -0.00472   0.13080   0.12679   1.23417
   D22        0.94842   0.00099   0.02350   0.15897   0.18270   1.13113
   D23       -1.11774   0.00003   0.00751   0.10949   0.11617  -1.00156
   D24       -3.07564  -0.00289  -0.01622   0.08974   0.07396  -3.00168
   D25        1.22923  -0.00705  -0.04962  -0.15227  -0.20254   1.02669
   D26       -2.97388   0.00304  -0.03823  -0.12989  -0.16807   3.14123
   D27       -0.94978   0.00073  -0.01371  -0.11595  -0.13019  -1.07997
   D28       -2.99258  -0.00612  -0.03387  -0.10182  -0.13528  -3.12786
   D29       -0.91251   0.00397  -0.02248  -0.07944  -0.10081  -1.01332
   D30        1.11159   0.00166   0.00204  -0.06550  -0.06293   1.04866
   D31       -1.03020  -0.00333  -0.01162  -0.08209  -0.09429  -1.12449
   D32        1.04987   0.00676  -0.00023  -0.05971  -0.05982   0.99005
   D33        3.07397   0.00444   0.02429  -0.04576  -0.02194   3.05203
   D34       -1.30616   0.00651   0.05228   0.22126   0.27312  -1.03304
   D35        1.93102   0.00463   0.02693   0.09565   0.12282   2.05384
   D36        2.88287  -0.00024   0.03395   0.21755   0.25104   3.13391
   D37       -0.16314  -0.00211   0.00861   0.09194   0.10073  -0.06240
   D38        0.89026  -0.00107   0.01803   0.18575   0.20368   1.09395
   D39       -2.15574  -0.00294  -0.00732   0.06014   0.05338  -2.10236
   D40        3.07867   0.00702   0.01501  -0.00517   0.00991   3.08858
   D41        0.95340   0.00321   0.02860  -0.03702  -0.00831   0.94509
   D42       -1.13211   0.00551   0.02259  -0.01936   0.00329  -1.12882
   D43       -0.92002  -0.00543  -0.02594   0.01915  -0.00712  -0.92714
   D44       -3.04529  -0.00924  -0.01234  -0.01270  -0.02534  -3.07063
   D45        1.15239  -0.00695  -0.01836   0.00496  -0.01374   1.13866
   D46        1.04969   0.00299  -0.00929   0.01461   0.00555   1.05524
   D47       -1.07558  -0.00083   0.00430  -0.01724  -0.01267  -1.08825
   D48        3.12210   0.00147  -0.00171   0.00042  -0.00107   3.12103
   D49        0.20581  -0.00562   0.00448  -0.10342  -0.09980   0.10601
   D50       -3.03103  -0.00408   0.03003   0.01985   0.05074  -2.98029
   D51       -0.98576  -0.00087   0.00367  -0.01031  -0.00667  -0.99243
   D52        1.16280   0.00009  -0.00137  -0.00060  -0.00195   1.16086
   D53       -3.09584  -0.00001  -0.00141  -0.00123  -0.00264  -3.09848
         Item               Value     Threshold  Converged?
 Maximum Force            0.029349     0.000450     NO 
 RMS     Force            0.006329     0.000300     NO 
 Maximum Displacement     0.781555     0.001800     NO 
 RMS     Displacement     0.160357     0.001200     NO 
 Predicted change in Energy=-2.341803D-03
 GradGradGradGradGradGradGradGradGradGradGradGradGradGradGradGradGradGrad

                          Input orientation:                          
 ---------------------------------------------------------------------
 Center     Atomic      Atomic             Coordinates (Angstroms)
 Number     Number       Type             X           Y           Z
 ---------------------------------------------------------------------
      1          6           0        0.854068   -0.040610    0.096271
      2          6           0        2.363992    0.053651   -0.208273
      3          7           0        2.721151    1.387277   -0.691243
      4          6           0        3.149741   -0.348361    1.062644
      5          6           0        4.708649   -0.302472    1.212657
      6          6           0        5.478660    1.020238    1.023924
[...]
 0.00107605,-0.00026348,0.00016254,-0.00022613,-0.00009643,-0.00007922,
 -0.00000094,0.00037998,-0.00019650,0.00001926,-0.00012691,0.00000388,-
 0.00003738,0.00008589,-0.00009202,0.00005810,-0.00004634,-0.00019719,-
 0.00001983,0.00000593,-0.00113349,0.00025933,0.00028974,0.00053294,0.0
 0053633,-0.00000987,-0.00253318,-0.00273970,0.00455968,-0.05538762,0.3
 7294806,-0.00071395,0.00073483,0.00030758,-0.00334897,0.02369334,0.009
 94146,0.01720609,-0.12694442,-0.11873366,-0.00050619,0.00121107,0.0022
 7600,-0.00018958,0.00012272,-0.00011293,-0.00031028,0.00011144,-0.0003
 5888,0.00001751,0.00003719,0.00004028,-0.00008826,0.00004221,-0.000143
 29,0.00011006,-0.00007016,0.00004146,-0.00000426,-0.00020307,-0.000107
 96,0.00012122,-0.00058162,0.00000376,0.00006759,-0.00003661,-0.0001298
 9,0.00170581,0.00446528,-0.00186096,-0.02433485,0.13396532,0.12354267,
 0.00202513,0.00041560,0.00170846,0.00075867,-0.00207606,0.01953209,-0.
 10549474,-0.01497349,-0.19337683,-0.00109856,-0.00103175,0.00103528,0.
 00038876,0.00001104,-0.00016087,-0.00009397,-0.00008411,0.00063830,-0.
 00108280,-0.00031434,-0.00052419,0.00029883,-0.00023872,0.00004143,-0.
 00022415,0.00012197,-0.00004250,-0.00039196,-0.00039730,-0.00051448,-0
 .00011858,0.00001613,0.00005743,0.00003977,0.00003251,-0.00042708,0.00
 021083,0.00045282,-0.00057459,-0.00101600,0.00401995,0.00944053,0.1043
 7342,0.00047110,0.00041974,0.00014933,0.01493427,0.00153862,0.02640124
 ,-0.00858413,-0.06011352,-0.00449494,-0.00260291,-0.00442899,0.0026722
 1,-0.00049091,-0.00006308,-0.00003948,-0.00024498,-0.00054116,0.000209
 12,-0.00028401,0.00045129,-0.00031487,-0.00012948,0.00011415,0.0000194
 4,0.00018642,-0.00002879,-0.00000568,-0.00061493,0.00020953,-0.0003106
 2,-0.00009008,-0.00000846,-0.00028351,0.00010917,-0.00013282,-0.000171
 53,0.00063162,0.00022688,-0.00051227,-0.01810468,-0.00091358,-0.034868
 56,0.01422146,0.06283039,-0.00071688,-0.00198992,0.00126640,-0.0131749
 0,-0.00019871,-0.02198897,-0.14282893,-0.01369596,-0.32951190,0.002882
 06,0.00470182,-0.00065580,0.00030033,-0.00018289,0.00017644,0.00002715
 ,0.00007826,0.00001047,0.00018119,0.00012571,0.00017129,-0.00001809,0.
 00006563,0.00007541,-0.00005855,0.00000308,-0.00000867,0.00123247,0.00
 021935,0.00022619,0.00017251,0.00003051,-0.00015341,-0.00057131,-0.000
 10766,0.00072726,-0.00009880,0.00004265,0.00082101,-0.01017956,0.00142
 631,-0.01428732,0.16391427,0.00975790,0.36381278,0.00016089,0.00051193
 ,-0.00039886,0.00385649,0.01103668,-0.00599419,-0.00066023,-0.00011928
 ,-0.00326008,-0.07537316,-0.06789570,0.04689620,-0.01599089,-0.0239926
 3,0.01336471,-0.00402510,0.00370929,0.00186385,0.00083031,-0.00241971,
 0.00022628,-0.00063357,-0.00262818,0.00118505,0.00146784,0.00059780,-0
 .00026882,0.00017746,-0.00000284,0.00018096,-0.00004429,0.00002354,-0.
 00004289,-0.00045190,-0.00006023,-0.00043574,0.00042692,-0.00019154,0.
 00053667,-0.00025963,-0.00025424,0.00019695,0.00045569,0.00056114,-0.0
 0076062,0.08926276,-0.00033863,-0.00034989,-0.00003138,-0.00030972,-0.
 00075262,-0.00171705,0.00053125,0.00140683,-0.00023488,-0.06647782,-0.
 19890651,0.10440203,-0.00015648,0.00234366,-0.00275120,-0.00037548,-0.
 00002240,0.00105648,-0.00003676,0.00019178,-0.00036609,0.00225946,0.00
 065016,0.00133520,-0.00033449,0.00022556,-0.00014048,0.00023640,0.0002
 4581,-0.00020005,-0.00006131,-0.00000988,0.00008510,0.00042141,0.00056
 806,-0.00012516,0.00025563,0.00096329,0.00028658,-0.00021248,0.0004640
 6,-0.00053394,-0.00022774,0.00024448,0.00000404,0.07372146,0.21449384,
 0.00090422,0.00034242,0.00058894,0.01120541,0.02498000,-0.01574100,-0.
 00334964,-0.00120118,-0.00656466,0.04557616,0.10269865,-0.11748288,0.0
 0041176,0.00060982,-0.00057083,-0.00050987,-0.00027262,0.00000764,0.00
 001056,-0.00008943,0.00016932,-0.00205129,0.00090857,0.00065933,0.0000
 2455,-0.00026813,-0.00013962,0.00017125,-0.00044819,0.00019370,-0.0000
 8940,-0.00012915,0.00002183,-0.00090047,-0.00034123,0.00033858,0.00087
 047,-0.00041142,0.00106018,-0.00011749,-0.00013414,-0.00001494,0.00018
 996,0.00185896,-0.00119543,-0.04769736,-0.11477417,0.12976519,0.001214
 28,-0.00114911,-0.00029390,0.00235230,-0.01278528,-0.00768409,0.000035
 73,-0.00015105,0.00100344,-0.06320837,0.05573955,0.03139985,-0.0120584
 3,0.02473055,0.01579135,0.00119471,0.00237901,0.00112092,0.00007565,-0
 .00082618,-0.00002673,-0.00082301,-0.00077955,0.00229071,-0.00099544,0
 .00021862,-0.00120932,0.00008105,0.00012786,0.00022785,-0.00008228,0.0
 0043630,-0.00005821,-0.00004282,-0.00010539,-0.00000437,-0.00097102,0.
 00005309,-0.00301176,0.00022876,0.00030128,0.00038138,-0.00004153,-0.0
 0014434,0.00014006,0.00270246,-0.00870363,-0.00531974,0.07519887,0.000
 09027,0.00022500,0.00039063,0.00000783,-0.00247824,-0.00062243,-0.0000
 4722,0.00158309,0.00011809,0.05574951,-0.22104128,-0.09980072,-0.00008
 016,0.00047305,-0.00009915,-0.00167203,-0.00055606,0.00097133,0.000280
 00,0.00080158,-0.00020869,0.00015437,-0.00036866,-0.00060326,0.0003903
 6,0.00014930,0.00033718,-0.00018303,0.00030489,0.00017780,-0.00067726,
 0.00036479,-0.00008641,0.00001102,-0.00004286,-0.00007939,-0.00040650,
 0.00150282,-0.00015513,0.00011000,0.00019798,-0.00079630,-0.00001400,0
 .00015671,-0.00013859,0.00640321,-0.02176469,-0.01251308,-0.06006974,0
 .23947046,0.00181139,-0.00015440,0.00098510,0.00675167,-0.02843781,-0.
 01738111,0.00021211,-0.00078385,0.00236775,0.03078027,-0.09942803,-0.1
 0462535,0.00185216,-0.00017782,-0.00135834,-0.00023186,-0.00103688,0.0
 0172453,-0.00010187,0.00046203,-0.00035100,0.00023171,0.00057757,0.000
 20006,-0.00040853,-0.00030264,-0.00016855,0.00017387,0.00044528,0.0002
 2461,-0.00084118,0.00062358,0.00041666,-0.00011900,0.00009512,0.000028
 97,-0.00280808,0.00017582,-0.00526746,-0.00005398,0.00108541,-0.000531
 57,-0.00001312,0.00018834,0.00044002,-0.00475597,0.01485957,0.00869179
 ,-0.03341791,0.11209085,0.11489470,0.00019874,-0.00027187,0.00010889,0
 .00055724,0.00109732,0.00211824,0.00009449,-0.00015412,-0.00041867,-0.
 01337450,0.01391953,0.02595252,-0.05812617,0.02383272,0.05552511,0.001
 69075,-0.00901570,-0.01241096,-0.00013916,0.00196215,-0.00124484,0.001
 25678,-0.00338948,-0.01033800,0.00227378,-0.00098315,0.00003563,0.0000
 6325,-0.00003690,-0.00011746,0.00020204,-0.00019111,-0.00005222,0.0000
 7962,0.00009534,0.00000353,-0.00024084,-0.00082610,-0.00070449,0.00020
 702,-0.00012021,0.00020959,0.00024024,-0.00000835,-0.00013282,-0.00126
 138,0.00008074,0.00038021,-0.00509451,-0.00042397,0.00073452,0.0718120
 4,-0.00008421,0.00000436,0.00002115,-0.00011007,0.00132775,-0.00040454
 ,-0.00002399,0.00032094,0.00002349,0.00168043,-0.00136376,-0.00241442,
 0.02391270,-0.08435621,-0.08297829,0.00605215,-0.01408279,-0.02971081,
 -0.00099088,0.00331921,0.00012407,-0.00456186,0.00721270,0.02201037,-0
 .00232798,0.00062976,-0.00093558,0.00002595,0.00001314,0.00001385,-0.0
 0007473,0.00000326,-0.00004444,-0.00006762,-0.00003075,0.00002964,0.00
 016038,-0.00005782,0.00038652,-0.00016414,-0.00007438,-0.00009809,-0.0
 0020591,0.00011644,0.00006712,0.00011120,-0.00023284,-0.00004849,0.001
 07097,0.00025128,-0.00013193,-0.02462229,0.09262614,0.00000963,0.00039
 521,0.00022583,-0.00151445,0.00088371,-0.00054435,-0.00132946,0.000230
 69,0.00000770,0.00112240,-0.00114878,-0.00026461,0.05647671,-0.0861575
 1,-0.24259809,0.00048897,-0.00117443,-0.00564507,-0.00050434,0.0015344
 1,0.00238687,0.00709682,-0.00858616,-0.02440591,-0.00004715,-0.0002146
 3,0.00299739,0.00007757,0.00000165,0.00004076,-0.00017245,-0.00004435,
 -0.00008453,0.00001592,-0.00004558,0.00002545,0.00038653,0.00013122,0.
 00066942,-0.00004937,0.00009785,0.00002175,0.00001407,-0.00014465,0.00
 004892,0.00020616,-0.00012701,-0.00015914,-0.00020194,0.00065561,-0.00
 001274,-0.05927689,0.09108185,0.26793745,0.00000745,0.00008518,0.00000
 748,0.00025417,-0.00007592,-0.00005890,0.00040294,0.00033597,0.0000327
 1,0.00163603,0.00081826,0.00019021,0.00555869,-0.00707987,-0.01205624,
 -0.05667758,-0.01819770,-0.04133988,-0.00347517,0.00562819,0.01247065,
 0.00002751,0.00027063,-0.00077000,0.00006883,0.00025090,0.00018078,0.0
 0000351,-0.00001299,-0.00000948,-0.00002710,0.00000903,0.00000439,0.00
 001798,-0.00000002,-0.00000799,-0.00001993,0.00012080,0.00007113,-0.00
 013032,0.00003543,0.00000633,0.00005167,0.00001569,0.00001151,0.000034
 31,0.00013587,0.00017465,-0.00029503,0.00047716,0.00036115,-0.00049879
 ,-0.00228214,-0.00010521,0.03925195,-0.00001596,0.00015610,-0.00015022
 ,-0.00014811,-0.00008285,0.00026801,0.00018739,0.00016866,-0.00013188,
 0.00110581,-0.00149016,-0.00034344,-0.00562858,-0.00857537,-0.02371924
 ,-0.01797397,-0.08231976,-0.08116146,0.00663895,0.00717520,0.02707172,
 -0.00080383,0.00113961,-0.00258891,0.00084194,0.00030253,0.00039254,-0
 .00007405,0.00001128,-0.00002272,-0.00004505,0.00001111,0.00000172,0.0
 0004345,0.00000429,-0.00001461,0.00005781,0.00012145,0.00015741,-0.000
 15849,0.00000376,-0.00000440,-0.00004349,0.00003494,-0.00000526,-0.000
 46844,0.00003888,0.00009490,-0.00042338,0.00050054,0.00028060,-0.00240
 354,-0.00433650,-0.00067254,0.02657656,0.08440293,-0.00004444,-0.00009
 287,-0.00001001,-0.00006094,0.00043704,-0.00004977,-0.00057015,-0.0002
 6659,0.00012091,0.00004556,-0.00071490,0.00004916,0.00035776,0.0011173
 6,-0.00382305,-0.03861125,-0.07971778,-0.25969461,0.00042896,0.0029112
 8,-0.03470575,-0.00091522,0.00056317,0.00036138,0.00060750,0.00058450,
 0.00047886,-0.00001360,0.00001954,0.00000170,-0.00001216,0.00002096,-0
 .00001056,-0.00004671,-0.00002009,0.00002096,0.00008415,-0.00004534,0.
 00010741,0.00017738,-0.00002926,-0.00004734,-0.00003591,-0.00001190,0.
 00000845,-0.00033444,-0.00008273,0.00001852,-0.00054877,0.00006260,-0.
 00014780,-0.00052469,-0.00030757,0.00035695,0.03888529,0.07418168,0.29
 892566,0.00008341,0.00052808,-0.00061515,-0.00011308,-0.00184202,0.001
 78569,0.00021676,0.00141156,-0.00001076,-0.00073875,-0.00207888,0.0005
 9081,-0.01044736,0.00490237,0.00061117,0.00432319,0.00025936,0.0143047
 7,-0.05794901,-0.03319796,-0.08602545,0.00137522,0.00092413,0.00021920
 ,-0.00047901,-0.00052791,0.00008342,-0.00016028,-0.00000123,0.00000225
 ,-0.00002822,-0.00004088,0.00001919,0.00036537,0.00012801,-0.00017523,
 0.00008824,0.00024566,-0.00007025,-0.00129530,0.00030286,0.00005955,0.
 00074391,0.00017303,-0.00034359,-0.00072276,-0.00005082,-0.00019783,-0
 .00008180,-0.00016338,-0.00002049,0.00057430,0.00058043,0.00062625,0.0
 1406561,-0.00682858,0.00093910,0.05028579,-0.00004847,-0.00011356,0.00
 016777,-0.00032942,0.00014551,-0.00049988,-0.00048563,-0.00127200,0.00
 066125,-0.00014022,0.00078962,0.00005881,0.00477689,0.00077282,0.00332
 552,0.00009030,0.00164515,0.03586312,-0.03399548,-0.10430651,-0.161139
 65,0.00010938,-0.00097437,0.00021839,-0.00035324,0.00024602,-0.0001046
 3,0.00008131,-0.00000515,0.00003693,0.00002903,-0.00001658,-0.00002285
 ,-0.00004616,-0.00001096,0.00001117,-0.00004902,-0.00011177,-0.0000063
 7,0.00120531,0.00012794,-0.00024852,0.00025217,-0.00012149,-0.00015252
 ,0.00033723,0.00003287,-0.00002208,0.00026392,-0.00006870,-0.00011827,
 0.00034396,-0.00082871,-0.00071629,-0.00720433,0.00234188,0.00198984,0
 .03505741,0.10191149,-0.00003402,0.00009055,-0.00016941,0.00059671,-0.
 00023771,0.00031719,-0.00155719,-0.00002962,-0.00187818,0.00041934,-0.
 00006200,0.00001137,-0.00012685,-0.00232550,0.00391177,-0.00838257,-0.
 01636305,-0.04365404,-0.06015277,-0.10744055,-0.30632535,-0.00101039,-
 0.00049102,-0.00013536,0.00022155,-0.00010427,0.00016550,-0.00005199,0
 .00000447,-0.00000664,0.00000022,-0.00000735,0.00000403,0.00003805,0.0
 0001099,-0.00000929,-0.00001251,-0.00002021,0.00000335,0.00057548,-0.0
 0019520,0.00014561,-0.00079922,-0.00008165,-0.00002610,-0.00020268,-0.
 00005595,0.00001586,-0.00005825,0.00002649,-0.00010956,0.00068957,0.00
 172922,0.00045766,0.00111351,0.00486919,-0.00273473,0.06875274,0.12086
 864,0.34949498,0.00001310,0.00000974,0.00004975,0.00011869,-0.00015097
 ,-0.00005766,-0.00001236,-0.00000683,-0.00000473,0.00139119,0.00110139
 ,0.00024754,0.00403816,0.00848363,0.00089078,-0.00135219,0.00146940,-0
 .00235417,0.00105887,0.00060371,-0.00013383,-0.07542982,-0.07581087,-0
 .00656728,-0.03611489,-0.03033930,-0.00433784,0.00001917,-0.00000044,0
 .00000026,0.00000018,0.00000528,0.00000503,-0.00000237,0.00000084,-0.0
 0000263,-0.00001762,-0.00000842,0.00000031,0.00001836,-0.00000943,0.00
 001477,-0.00000231,-0.00001399,0.00000017,-0.00008302,-0.00009239,0.00
 016021,0.00013828,0.00002007,-0.00017828,0.00018272,-0.00042304,0.0000
 2649,-0.00009198,-0.00012858,0.00011909,-0.00018643,0.00004985,0.00007
 017,0.10010566,0.00005400,0.00001255,0.00014088,0.00035741,-0.00003862
 ,0.00008182,0.00020717,0.00019082,-0.00015844,-0.00181804,-0.00000880,
 0.00065356,-0.00609494,-0.01998735,-0.00389520,0.00217666,-0.00022302,
 0.00452905,-0.00114830,-0.00139046,-0.00007842,-0.07653393,-0.25419211
 ,-0.02740757,-0.00399831,0.00973476,0.00167997,0.00003907,0.00000566,-
 0.00001246,-0.00002418,0.00002276,0.00000038,0.00006612,0.00002935,-0.
 00002960,0.00003769,0.00005388,0.00014922,-0.00018343,0.00002259,-0.00
 003784,0.00006439,0.00003688,-0.00003788,0.00132420,0.00037572,-0.0005
 4879,-0.00003867,0.00041621,-0.00026821,-0.00029508,0.00134591,0.00031
 838,0.00004117,0.00045940,-0.00013839,0.00007848,0.00003753,-0.0002071
 7,0.08981718,0.27282417,-0.00003513,-0.00005928,-0.00003274,0.00002146
 ,0.00016558,0.00004629,-0.00007909,-0.00011983,-0.00005265,0.00144025,
 -0.00025372,0.00007581,0.00593733,0.02680225,0.00127785,-0.00397567,0.
 00060231,-0.00426466,0.00208143,0.00166824,0.00019520,-0.00883734,-0.0
 2807108,-0.05591209,-0.00123549,0.00011014,0.00433276,-0.00000861,0.00
 001144,-0.00000544,0.00002021,-0.00000451,-0.00000416,-0.00000295,0.00
 000349,0.00000773,-0.00001546,-0.00007387,-0.00007010,0.00010300,-0.00
 002880,0.00002859,-0.00004695,0.00000493,-0.00000004,-0.00007310,-0.00
 055751,0.00033518,0.00006375,-0.00008443,0.00010506,0.00073333,-0.0008
 2232,0.00123956,0.00032728,0.00043700,0.00032046,-0.00036613,0.0000182
 4,0.00030122,0.01304295,0.02634295,0.05477359,-0.00001186,0.00002094,0
 .00002329,0.00019901,-0.00014533,0.00000831,-0.00012539,0.00011282,-0.
 00005719,0.00132871,-0.00028167,-0.00023788,0.00326879,-0.00367239,-0.
 01050992,-0.00008835,-0.00026915,0.00104271,0.00009268,0.00017594,-0.0
 0035818,-0.05954696,0.01746910,0.04916479,-0.02512893,0.01426616,0.036
 42662,0.00000929,0.00000179,0.00000543,-0.00001453,0.00000794,-0.00000
 309,-0.00001714,-0.00001473,-0.00000146,0.00001761,0.00004163,0.000066
 42,-0.00000270,0.00001114,-0.00001480,-0.00007495,0.00001529,0.0000245
 8,0.00004571,-0.00036820,0.00013975,0.00002055,0.00016740,0.00000501,-
 0.00037869,0.00207954,-0.00172261,-0.00005614,-0.00009773,0.00012144,-
 0.00003718,-0.00008571,0.00001860,0.00486481,-0.00342929,-0.00943853,0
 .08300776,0.00000073,-0.00000375,-0.00002632,-0.00030167,-0.00014887,0
 .00004550,0.00009729,-0.00006558,0.00015116,-0.00089182,0.00082305,-0.
 00031116,-0.00439676,0.00693290,0.01937353,-0.00030869,0.00179984,0.00
 149012,0.00023021,-0.00003186,-0.00030715,0.02229244,-0.08401917,-0.08
 186551,0.00344631,0.00190789,-0.00090472,-0.00001435,-0.00000613,0.000
 00699,0.00000475,0.00000850,-0.00000179,0.00000074,-0.00000719,-0.0000
 0981,-0.00000841,-0.00001638,0.00000839,0.00003797,0.00000729,0.000005
 62,0.00005546,-0.00003773,-0.00000994,-0.00005045,-0.00012217,-0.00044
 555,0.00008618,-0.00005687,-0.00007451,0.00106463,-0.00197979,0.003203
 04,-0.00007748,-0.00016360,-0.00055191,-0.00002277,-0.00012174,-0.0002
 0012,0.00608155,-0.01058881,-0.02737018,-0.02704165,0.08510263,-0.0000
 2551,0.00004508,-0.00003005,-0.00009081,-0.00006082,-0.00013245,-0.000
 20361,0.00011908,0.00009067,0.00142095,0.00025332,0.00086661,0.0046753
 4,-0.00764023,-0.02394797,-0.00080111,-0.00257639,0.00011128,0.0002068
 4,0.00049300,0.00065570,0.05934312,-0.08143732,-0.25493015,0.00387502,
 0.00036342,0.00275133,-0.00001254,-0.00000229,0.00000734,-0.00002593,0
 .00001554,-0.00000732,-0.00002087,-0.00002801,0.00000861,0.00008305,0.
 00008508,0.00014134,-0.00005168,0.00000576,-0.00002045,-0.00004764,-0.
 00003487,0.00004870,-0.00061167,-0.00033793,0.00011560,-0.00057928,0.0
 0033237,-0.00003469,-0.00175135,0.00348560,-0.00221243,0.00055885,0.00
 117770,0.00054632,-0.00011418,-0.00026187,0.00026503,0.00044880,-0.001
 12114,-0.00279816,-0.06516508,0.08668213,0.27638625,0.00001142,-0.0000
 3135,0.00013234,0.00001062,0.00006550,-0.00024306,0.00008728,-0.000051
 59,0.00008501,-0.00009725,-0.00094786,-0.00018075,0.00175002,0.0005474
 3,0.00070611,0.00047422,0.00116982,-0.00020595,-0.00041462,-0.00047170
 ,0.00018376,-0.02300530,0.01559455,0.04444385,-0.08236923,0.03453097,0
 .09865665,0.00007127,-0.00000029,0.00003507,0.00000572,-0.00000918,-0.
 00000884,-0.00001128,0.00000949,-0.00001082,-0.00003626,-0.00002537,-0
 .00002866,-0.00001458,0.00001569,-0.00002626,0.00005262,-0.00000641,-0
 .00000224,0.00008509,0.00010374,0.00001393,0.00045162,-0.00012393,0.00
 003642,-0.00031896,0.00026512,-0.00162365,-0.00010861,-0.00021013,-0.0
 0004798,0.00011737,0.00014092,-0.00010750,0.00134378,-0.00069940,0.000
 34346,-0.00737211,-0.00028422,-0.00111071,0.10928719,-0.00002006,-0.00
 000916,-0.00010524,0.00003764,0.00017567,0.00015765,-0.00022252,-0.000
 08394,-0.00006498,0.00037140,0.00030450,0.00000388,-0.00041300,0.00018
 953,-0.00141816,0.00032552,-0.00073746,-0.00111115,-0.00052301,0.00023
 392,0.00044131,-0.00134161,-0.00201786,-0.00197020,0.05083128,-0.04906
 649,-0.13733303,-0.00005492,0.00000629,-0.00002483,0.00001282,-0.00000
 935,0.00000126,-0.00001796,-0.00001432,0.00002764,0.00000479,-0.000038
 68,-0.00004585,0.00011759,-0.00003034,0.00003452,-0.00005658,0.0000095
 7,-0.00000304,-0.00025444,-0.00008399,0.00015432,-0.00023103,-0.000020
 33,0.00003019,0.00034546,0.00017265,0.00049829,0.00012959,0.00009567,0
 .00009134,0.00016305,-0.00009931,0.00022182,-0.00065839,0.00086098,0.0
 0127896,0.00103617,0.00078754,0.00044279,-0.04958178,0.04937493,-0.000
 00513,-0.00001437,-0.00004532,-0.00017253,0.00004505,0.00012806,0.0001
 0369,-0.00002687,-0.00004275,-0.00042881,0.00033686,-0.00056161,-0.002
 11635,0.00064226,0.00403821,0.00012449,-0.00015949,0.00008998,0.000127
 93,0.00000812,-0.00012256,-0.00538831,0.00039603,-0.00148138,0.1492313
 9,-0.13997511,-0.42550846,-0.00001846,-0.00000058,-0.00000116,0.000009
 67,-0.00000120,-0.00000172,0.00001650,0.00000823,-0.00000759,-0.000012
 87,-0.00002926,-0.00000631,0.00000306,-0.00000253,0.00000004,-0.000008
 44,0.00001306,-0.00000568,0.00017958,0.00000653,-0.00011318,-0.0000050
 3,0.00002463,-0.00009106,0.00048124,-0.00107642,-0.00048882,-0.0000482
 2,-0.00011779,-0.00009314,-0.00005509,0.00007324,-0.00004489,-0.001439
 90,0.00004491,0.00010076,0.00046178,0.00111218,0.00211891,-0.14104020,
 0.13869252,0.42213968\\0.00000153,0.00000128,-0.00000004,0.00000239,-0
 .00000033,-0.00000027,0.00000353,-0.00000205,0.00000048,0.00000030,0.0
 0000437,0.00000356,0.00000385,-0.00000430,-0.00000221,-0.00000259,-0.0
 0000531,0.00000739,0.00000107,0.00000189,-0.00000270,-0.00000148,0.000
 00169,-0.00000257,-0.00000167,0.00000139,-0.00000136,-0.00000115,-0.00
 000035,0.00000079,-0.00000047,-0.00000010,0.00000015,-0.00000076,-0.00
 000089,0.00000088,0.00000005,-0.00000007,-0.00000076,0.00000031,0.0000
 0107,0.00000080,-0.00000133,-0.00000160,-0.00000069,-0.00000028,-0.000
 00078,-0.00000066,0.00000068,-0.00000079,0.00000089,-0.00000207,0.0000
 0115,-0.00000082,-0.00000057,0.00000422,-0.00000290,-0.00000189,-0.000
 00077,-0.00000020,0.00000008,-0.00000149,0.00000171,-0.00000081,0.0000
 0067,-0.00000023,0.00000127,0.00000111,-0.00000124\\\@


 Experience is what you get when you don't get what you want.
 -- Dan Stanford
 Job cpu time:       0 days  2 hours 46 minutes  5.5 seconds.
 Elapsed time:       0 days  0 hours 41 minutes 32.2 seconds.
 File lengths (MBytes):  RWF=    181 Int=      0 D2E=      0 Chk=     10 Scr=      1
 Normal termination of Gaussian 16 at Mon Jul  4 00:33:03 2022.
### All Done ###
