### Starting Gaussian ###
 Entering Gaussian System, Link 0=g16
 Initial command:
 /cluster/software/gaussian/gaussian-16-A.03/avx2/g16/l1.exe "/local/scratch/ks29c/Gau-4251.inp" -scrdir="/local/scratch/ks29c/"
 Entering Link 1 = /cluster/software/gaussian/gaussian-16-A.03/avx2/g16/l1.exe PID=      4252.
  
 Copyright (c) 1988,1990,1992,1993,1995,1998,2003,2009,2016,
            Gaussian, Inc.  All Rights Reserved.
  
 This is part of the Gaussian(R) 16 program.  It is based on
 the Gaussian(R) 09 system (copyright 2009, Gaussian, Inc.),
 the Gaussian(R) 03 system (copyright 2003, Gaussian, Inc.),
 the Gaussian(R) 98 system (copyright 1998, Gaussian, Inc.),
 the Gaussian(R) 94 system (copyright 1995, Gaussian, Inc.),
 the Gaussian 92(TM) system (copyright 1992, Gaussian, Inc.),
 the Gaussian 90(TM) system (copyright 1990, Gaussian, Inc.),
 the Gaussian 88(TM) system (copyright 1988, Gaussian, Inc.),
 the Gaussian 86(TM) system (copyright 1986, Carnegie Mellon
 University), and the Gaussian 82(TM) system (copyright 1983,
 Carnegie Mellon University). Gaussian is a federally registered
 trademark of Gaussian, Inc.
  
 This software contains proprietary and confidential information,
 including trade secrets, belonging to Gaussian, Inc.
  
 This software is provided under written license and may be
 used, copied, transmitted, or stored only in accord with that
 written license.
  
 The following legend is applicable only to US Government
 contracts under FAR:
  
                    RESTRICTED RIGHTS LEGEND
  
 Use, reproduction and disclosure by the US Government is
 subject to restrictions as set forth in subparagraphs (a)
 and (c) of the Commercial Computer Software - Restricted
 Rights clause in FAR 52.227-19.
  
 Gaussian, Inc.
 340 Quinnipiac St., Bldg. 40, Wallingford CT 06492
  
  
 ---------------------------------------------------------------
 Warning -- This program may not be used in any manner that
 competes with the business of Gaussian, Inc. or will provide
 assistance to any competitor of Gaussian, Inc.  The licensee
 of this program is prohibited from giving any competitor of
 Gaussian, Inc. access to this program.  By using this program,
 the user acknowledges that Gaussian, Inc. is engaged in the
 business of creating and licensing software in the field of
 computational chemistry and represents and warrants to the
 licensee that it is not a competitor of Gaussian, Inc. and that
 it will not use this program in any manner prohibited above.
 ---------------------------------------------------------------
  

 Cite this work as:
 Gaussian 16, Revision A.03,
 M. J. Frisch, G. W. Trucks, H. B. Schlegel, G. E. Scuseria, 
 M. A. Robb, J. R. Cheeseman, G. Scalmani, V. Barone, 
 G. A. Petersson, H. Nakatsuji, X. Li, M. Caricato, A. V. Marenich, 
 J. Bloino, B. G. Janesko, R. Gomperts, B. Mennucci, H. P. Hratchian, 
 J. V. Ortiz, A. F. Izmaylov, J. L. Sonnenberg, D. Williams-Young, 
 F. Ding, F. Lipparini, F. Egidi, J. Goings, B. Peng, A. Petrone, 
 T. Henderson, D. Ranasinghe, V. G. Zakrzewski, J. Gao, N. Rega, 
 G. Zheng, W. Liang, M. Hada, M. Ehara, K. Toyota, R. Fukuda, 
 J. Hasegawa, M. Ishida, T. Nakajima, Y. Honda, O. Kitao, H. Nakai, 
 T. Vreven, K. Throssell, J. A. Montgomery, Jr., J. E. Peralta, 
 F. Ogliaro, M. J. Bearpark, J. J. Heyd, E. N. Brothers, K. N. Kudin, 
 V. N. Staroverov, T. A. Keith, R. Kobayashi, J. Normand, 
 K. Raghavachari, A. P. Rendell, J. C. Burant, S. S. Iyengar, 
 J. Tomasi, M. Cossi, J. M. Millam, M. Klene, C. Adamo, R. Cammi, 
 J. W. Ochterski, R. L. Martin, K. Morokuma, O. Farkas, 
 J. B. Foresman, and D. J. Fox, Gaussian, Inc., Wallingford CT, 2016.
 
 ******************************************
 Gaussian 16:  ES64L-G16RevA.03 25-Dec-2016
                 3-Jul-2022 
 ******************************************
 %chk=CCpOpCpOpCpOpCdN.chk
 %NProcShared=20
 Will use up to   20 processors via shared memory.
 -----------------------------
 # opt freq b3lyp/6-31g(2df,p)
 -----------------------------
 1/18=20,19=15,26=3,38=1/1,3;
 2/9=110,12=2,17=6,18=5,40=1/2;
 3/5=1,6=6,7=104,11=2,25=1,30=1,71=1,74=-5/1,2,3;
 4//1;
 5/5=2,38=5/2;
 6/7=2,8=2,9=2,10=2,28=1/1;
 7//1,2,3,16;
 1/18=20,19=15,26=3/3(2);
 2/9=110/2;
 99//99;
 2/9=110/2;
 3/5=1,6=6,7=104,11=2,25=1,30=1,71=1,74=-5/1,2,3;
 4/5=5,16=3,69=1/1;
 5/5=2,38=5/2;
 7//1,2,3,16;
 1/18=20,19=15,26=3/3(-5);
 2/9=110/2;
 6/7=2,8=2,9=2,10=2,19=2,28=1/1;
 99/9=1/99;
 -------------------
 Title Card Required
 -------------------
 Symbolic Z-matrix:
 Charge =  0 Multiplicity = 1
 C                     0.9297    0.07012   0.07821 
 C                     2.45336   0.04843   0.09319 
 O                     2.86715  -0.36798   1.38991 
 C                     3.02104  -0.85386  -1.02677 
 O                     2.53155  -0.41215  -2.30035 
 C                     4.55996  -0.8837   -1.04268 
 O                     5.13833  -1.36404   0.16548 
 C                     5.07117  -1.78223  -2.15435 
 N                     6.33652  -1.97672  -2.36301 
 H                     0.55267   0.71092   0.88213 
 H                     0.52991  -0.93361   0.25978 
 H                     0.53703   0.43846  -0.87349 
 H                     2.81264   1.07379  -0.05491 
 H                     2.59042  -1.28911   1.52613 
 H                     2.6511   -1.87547  -0.87216 
 H                     2.81367   0.51119  -2.43747 
 H                     4.95205   0.12232  -1.22923 
 H                     4.7375   -2.22462   0.37617 
 H                     4.33534  -2.28755  -2.7994 
 H                     6.87744  -1.4498   -1.66239 
 

 GradGradGradGradGradGradGradGradGradGradGradGradGradGradGradGradGradGrad
 Berny optimization.
 Initialization pass.
                           ----------------------------
                           !    Initial Parameters    !
                           ! (Angstroms and Degrees)  !
 --------------------------                            --------------------------
 ! Name  Definition              Value          Derivative Info.                !
 --------------------------------------------------------------------------------
 ! R1    R(1,2)                  1.5239         estimate D2E/DX2                !
 ! R2    R(1,10)                 1.095          estimate D2E/DX2                !
 ! R3    R(1,11)                 1.0956         estimate D2E/DX2                !
 ! R4    R(1,12)                 1.0934         estimate D2E/DX2                !
 ! R5    R(2,3)                  1.4234         estimate D2E/DX2                !
 ! R6    R(2,4)                  1.5462         estimate D2E/DX2                !
 ! R7    R(2,13)                 1.0965         estimate D2E/DX2                !
 ! R8    R(3,14)                 0.9714         estimate D2E/DX2                !
 ! R9    R(4,5)                  1.4341         estimate D2E/DX2                !
 ! R10   R(4,6)                  1.5393         estimate D2E/DX2                !
 ! R11   R(4,15)                 1.0975         estimate D2E/DX2                !
 ! R12   R(5,16)                 0.9752         estimate D2E/DX2                !
 ! R13   R(6,7)                  1.423          estimate D2E/DX2                !
 ! R14   R(6,8)                  1.5181         estimate D2E/DX2                !
 ! R15   R(6,17)                 1.0957         estimate D2E/DX2                !
 ! R16   R(7,18)                 0.9724         estimate D2E/DX2                !
 ! R17   R(8,9)                  1.2971         estimate D2E/DX2                !
 ! R18   R(8,19)                 1.1013         estimate D2E/DX2                !
 ! R19   R(9,20)                 1.0301         estimate D2E/DX2                !
 ! A1    A(2,1,10)             110.2047         estimate D2E/DX2                !
 ! A2    A(2,1,11)             110.499          estimate D2E/DX2                !
 ! A3    A(2,1,12)             111.8645         estimate D2E/DX2                !
 ! A4    A(10,1,11)            106.7874         estimate D2E/DX2                !
 ! A5    A(10,1,12)            108.5551         estimate D2E/DX2                !
 ! A6    A(11,1,12)            108.7735         estimate D2E/DX2                !
 ! A7    A(1,2,3)              107.6847         estimate D2E/DX2                !
 ! A8    A(1,2,4)              111.6095         estimate D2E/DX2                !
 ! A9    A(1,2,13)             108.238          estimate D2E/DX2                !
 ! A10   A(3,2,4)              112.4836         estimate D2E/DX2                !
 ! A11   A(3,2,13)             107.5386         estimate D2E/DX2                !
 ! A12   A(4,2,13)             109.1204         estimate D2E/DX2                !
 ! A13   A(2,3,14)             108.8045         estimate D2E/DX2                !
 ! A14   A(2,4,5)              109.7673         estimate D2E/DX2                !
 ! A15   A(2,4,6)              112.6971         estimate D2E/DX2                !
 ! A16   A(2,4,15)             108.5068         estimate D2E/DX2                !
 ! A17   A(5,4,6)              109.7566         estimate D2E/DX2                !
 ! A18   A(5,4,15)             107.2634         estimate D2E/DX2                !
 ! A19   A(6,4,15)             108.6879         estimate D2E/DX2                !
 ! A20   A(4,5,16)             108.5273         estimate D2E/DX2                !
 ! A21   A(4,6,7)              113.8359         estimate D2E/DX2                !
 ! A22   A(4,6,8)              110.8372         estimate D2E/DX2                !
 ! A23   A(4,6,17)             109.9812         estimate D2E/DX2                !
 ! A24   A(7,6,8)              106.5632         estimate D2E/DX2                !
 ! A25   A(7,6,17)             108.0008         estimate D2E/DX2                !
 ! A26   A(8,6,17)             107.3531         estimate D2E/DX2                !
 ! A27   A(6,7,18)             108.3695         estimate D2E/DX2                !
 ! A28   A(6,8,9)              122.348          estimate D2E/DX2                !
 ! A29   A(6,8,19)             118.3918         estimate D2E/DX2                !
 ! A30   A(9,8,19)             119.2594         estimate D2E/DX2                !
 ! A31   A(8,9,20)             109.0351         estimate D2E/DX2                !
 ! D1    D(10,1,2,3)            55.8094         estimate D2E/DX2                !
 ! D2    D(10,1,2,4)           179.7293         estimate D2E/DX2                !
 ! D3    D(10,1,2,13)          -60.1727         estimate D2E/DX2                !
 ! D4    D(11,1,2,3)           -61.9756         estimate D2E/DX2                !
 ! D5    D(11,1,2,4)            61.9443         estimate D2E/DX2                !
 ! D6    D(11,1,2,13)         -177.9577         estimate D2E/DX2                !
 ! D7    D(12,1,2,3)           176.6761         estimate D2E/DX2                !
 ! D8    D(12,1,2,4)           -59.404          estimate D2E/DX2                !
 ! D9    D(12,1,2,13)           60.694          estimate D2E/DX2                !
 ! D10   D(1,2,3,14)            65.9271         estimate D2E/DX2                !
 ! D11   D(4,2,3,14)           -57.4611         estimate D2E/DX2                !
 ! D12   D(13,2,3,14)         -177.6322         estimate D2E/DX2                !
 ! D13   D(1,2,4,5)             56.8117         estimate D2E/DX2                !
 ! D14   D(1,2,4,6)            179.4716         estimate D2E/DX2                !
 ! D15   D(1,2,4,15)           -60.1141         estimate D2E/DX2                !
 ! D16   D(3,2,4,5)            177.981          estimate D2E/DX2                !
 ! D17   D(3,2,4,6)            -59.3591         estimate D2E/DX2                !
 ! D18   D(3,2,4,15)            61.0551         estimate D2E/DX2                !
 ! D19   D(13,2,4,5)           -62.7662         estimate D2E/DX2                !
 ! D20   D(13,2,4,6)            59.8937         estimate D2E/DX2                !
 ! D21   D(13,2,4,15)         -179.6921         estimate D2E/DX2                !
 ! D22   D(2,4,5,16)            59.5697         estimate D2E/DX2                !
 ! D23   D(6,4,5,16)           -64.8146         estimate D2E/DX2                !
 ! D24   D(15,4,5,16)          177.2724         estimate D2E/DX2                !
 ! D25   D(2,4,6,7)             59.7825         estimate D2E/DX2                !
 ! D26   D(2,4,6,8)            179.8896         estimate D2E/DX2                !
 ! D27   D(2,4,6,17)           -61.558          estimate D2E/DX2                !
 ! D28   D(5,4,6,7)           -177.5516         estimate D2E/DX2                !
 ! D29   D(5,4,6,8)            -57.4445         estimate D2E/DX2                !
 ! D30   D(5,4,6,17)            61.1079         estimate D2E/DX2                !
 ! D31   D(15,4,6,7)           -60.5277         estimate D2E/DX2                !
 ! D32   D(15,4,6,8)            59.5794         estimate D2E/DX2                !
 ! D33   D(15,4,6,17)          178.1318         estimate D2E/DX2                !
 ! D34   D(4,6,7,18)            52.8268         estimate D2E/DX2                !
 ! D35   D(8,6,7,18)           -69.6607         estimate D2E/DX2                !
 ! D36   D(17,6,7,18)          175.2629         estimate D2E/DX2                !
 ! D37   D(4,6,8,9)           -179.4753         estimate D2E/DX2                !
 ! D38   D(4,6,8,19)             0.2125         estimate D2E/DX2                !
 ! D39   D(7,6,8,9)            -55.1205         estimate D2E/DX2                !
 ! D40   D(7,6,8,19)           124.5673         estimate D2E/DX2                !
 ! D41   D(17,6,8,9)            60.3927         estimate D2E/DX2                !
 ! D42   D(17,6,8,19)         -119.9195         estimate D2E/DX2                !
 ! D43   D(6,8,9,20)             0.9335         estimate D2E/DX2                !
 ! D44   D(19,8,9,20)         -178.7516         estimate D2E/DX2                !
 --------------------------------------------------------------------------------
 Trust Radius=3.00D-01 FncErr=1.00D-07 GrdErr=1.00D-06 EigMax=2.50D+02 EigMin=1.00D-04
 Number of steps in this run=    104 maximum allowed number of steps=    120.
 GradGradGradGradGradGradGradGradGradGradGradGradGradGradGradGradGradGrad

                          Input orientation:                          
 ---------------------------------------------------------------------
 Center     Atomic      Atomic             Coordinates (Angstroms)
 Number     Number       Type             X           Y           Z
 ---------------------------------------------------------------------
      1          6           0        0.929700    0.070120    0.078210
      2          6           0        2.453360    0.048430    0.093190
      3          8           0        2.867150   -0.367980    1.389910
      4          6           0        3.021040   -0.853860   -1.026770
      5          8           0        2.531550   -0.412150   -2.300350
      6          6           0        4.559960   -0.883700   -1.042680
      7          8           0        5.138330   -1.364040    0.165480
      8          6           0        5.071170   -1.782230   -2.154350
      9          7           0        6.336520   -1.976720   -2.363010
     10          1           0        0.552670    0.710920    0.882130
     11          1           0        0.529910   -0.933610    0.259780
     12          1           0        0.537030    0.438460   -0.873490
     13          1           0        2.812640    1.073790   -0.054910
     14          1           0        2.590420   -1.289110    1.526130
     15          1           0        2.651100   -1.875470   -0.872160
     16          1           0        2.813670    0.511190   -2.437470
     17          1           0        4.952050    0.122320   -1.229230
     18          1           0        4.737500   -2.224620    0.376170
     19          1           0        4.335340   -2.287550   -2.799400
     20          1           0        6.877440   -1.449800   -1.662390
 ---------------------------------------------------------------------
                    Distance matrix (angstroms):
                    1          2          3          4          5
     1  C    0.000000
     2  C    1.523888   0.000000
     3  O    2.380378   1.423412   0.000000
     4  C    2.539374   1.546188   2.469839   0.000000
     5  O    2.907930   2.438705   3.705752   1.434125   0.000000
     6  C    3.917264   2.568430   3.008167   1.539291   2.432805
     7  O    4.447134   3.034693   2.765795   2.482873   3.712373
     8  C    5.056412   3.905852   4.406766   2.517209   2.889309
     9  N    6.275573   5.021263   5.358076   3.746833   4.114560
    10  H    1.095018   2.161930   2.603590   3.490743   3.912216
    11  H    1.095570   2.166060   2.657033   2.804871   3.291314
    12  H    1.093434   2.181494   3.347056   2.804263   2.595684
    13  H    2.137882   1.096530   2.041856   2.168819   2.707218
    14  H    2.588816   1.964972   0.971399   2.625295   3.926127
    15  H    2.766178   2.161572   2.726933   1.097473   2.048249
    16  H    3.173725   2.597732   3.927421   1.973940   0.975167
    17  H    4.229825   2.828022   3.383356   2.173181   2.700329
    18  H    4.455777   3.234831   2.823648   2.606426   3.913441
    19  H    5.043573   4.167221   4.836388   2.631553   2.649497
    20  H    6.380866   4.989914   5.154541   3.953603   4.513366
                    6          7          8          9         10
     6  C    0.000000
     7  O    1.422986   0.000000
     8  C    1.518059   2.358178   0.000000
     9  N    2.468629   2.864315   1.297103   0.000000
    10  H    4.722931   5.084026   5.987725   7.155925   0.000000
    11  H    4.235587   4.629438   5.212602   6.456301   1.758498
    12  H    4.238006   5.049795   5.208694   6.456458   1.776705
    13  H    2.803673   3.376451   4.203029   5.201026   2.473294
    14  H    3.262243   2.889434   4.465783   5.443481   2.926992
    15  H    2.157877   2.743095   2.740336   3.976834   3.764353
    16  H    2.634518   3.961803   3.230517   4.313434   4.021412
    17  H    1.095724   2.046749   2.120695   2.758294   4.915164
    18  H    1.960286   0.972447   2.590478   3.181419   5.136749
    19  H    2.259937   3.207519   1.101310   2.071659   6.070674
    20  H    2.464797   2.524474   1.901354   1.030101   7.151644
                   11         12         13         14         15
    11  H    0.000000
    12  H    1.779586   0.000000
    13  H    3.056066   2.500424   0.000000
    14  H    2.444529   3.599873   2.851730   0.000000
    15  H    2.582215   3.134257   3.064658   2.469675   0.000000
    16  H    3.818136   2.763044   2.448083   4.359019   2.858806
    17  H    4.784084   4.440596   2.619427   3.893769   3.068067
    18  H    4.402734   5.128118   3.843231   2.609126   2.456277
    19  H    5.066856   5.056424   4.598853   4.769889   2.592437
    20  H    6.652242   6.662484   5.047286   5.345187   4.320603
                   16         17         18         19         20
    16  H    0.000000
    17  H    2.486711   0.000000
    18  H    4.370623   2.851573   0.000000
    19  H    3.206153   2.941639   3.201552   0.000000
    20  H    4.578259   2.523156   3.055391   2.908073   0.000000
 Stoichiometry    C5H11NO3
 Framework group  C1[X(C5H11NO3)]
 Deg. of freedom    54
 Full point group                 C1      NOp   1
 Largest Abelian subgroup         C1      NOp   1
 Largest concise Abelian subgroup C1      NOp   1
                         Standard orientation:                         
 ---------------------------------------------------------------------
 Center     Atomic      Atomic             Coordinates (Angstroms)
 Number     Number       Type             X           Y           Z
 ---------------------------------------------------------------------
      1          6           0       -2.872451    0.486095   -0.183629
      2          6           0       -1.606383   -0.174169    0.348683
      3          8           0       -1.683165   -1.563013    0.046493
      4          6           0       -0.333474    0.487060   -0.228533
      5          8           0       -0.338419    1.890068    0.068549
      6          6           0        0.961557   -0.152846    0.303286
      7          8           0        1.082228   -1.539150    0.005814
      8          6           0        2.182661    0.525249   -0.291352
      9          7           0        3.391762    0.155041   -0.002394
     10          1           0       -3.758483   -0.002223    0.235367
     11          1           0       -2.934703    0.374941   -1.271767
     12          1           0       -2.911772    1.550344    0.064208
     13          1           0       -1.599866   -0.073442    1.440558
     14          1           0       -1.652186   -1.675816   -0.917837
     15          1           0       -0.352981    0.385428   -1.321116
     16          1           0       -0.365299    2.001659    1.036937
     17          1           0        1.018790   -0.033694    1.391008
     18          1           0        0.956678   -1.659343   -0.950974
     19          1           0        2.028403    1.357159   -0.996344
     20          1           0        3.352470   -0.641873    0.649136
 ---------------------------------------------------------------------
 Rotational constants (GHZ):           2.8863111           1.0163227           0.7902671
 Standard basis: 6-31G(2df,p) (6D, 7F)
 There are   334 symmetry adapted cartesian basis functions of A   symmetry.
 There are   307 symmetry adapted basis functions of A   symmetry.
   307 basis functions,   473 primitive gaussians,   334 cartesian basis functions
    36 alpha electrons       36 beta electrons
       nuclear repulsion energy       489.6195603570 Hartrees.
 NAtoms=   20 NActive=   20 NUniq=   20 SFac= 1.00D+00 NAtFMM=   60 NAOKFM=F Big=F
 Integral buffers will be    131072 words long.
 Raffenetti 2 integral format.
 Two-electron integral symmetry is turned on.
 One-electron integrals computed using PRISM.
 PrsmSu:  requested number of processors reduced to:  13 ShMem   1 Linda.
 NBasis=   307 RedAO= T EigKep=  3.71D-04  NBF=   307
 NBsUse=   307 1.00D-06 EigRej= -1.00D+00 NBFU=   307
 ExpMin= 1.61D-01 ExpMax= 5.48D+03 ExpMxC= 8.25D+02 IAcc=3 IRadAn=         5 AccDes= 0.00D+00
 Harris functional with IExCor=  402 and IRadAn=       5 diagonalized for initial guess.
 HarFok:  IExCor=  402 AccDes= 0.00D+00 IRadAn=         5 IDoV= 1 UseB2=F ITyADJ=14
 ICtDFT=  3500011 ScaDFX=  1.000000  1.000000  1.000000  1.000000
 FoFCou: FMM=F IPFlag=           0 FMFlag=      100000 FMFlg1=           0
         NFxFlg=           0 DoJE=T BraDBF=F KetDBF=T FulRan=T
         wScrn=  0.000000 ICntrl=       500 IOpCl=  0 I1Cent=   200000004 NGrid=           0
         NMat0=    1 NMatS0=      1 NMatT0=    0 NMatD0=    1 NMtDS0=    0 NMtDT0=    0
 Petite list used in FoFCou.
 Requested convergence on RMS density matrix=1.00D-08 within 128 cycles.
 Requested convergence on MAX density matrix=1.00D-06.
 Requested convergence on             energy=1.00D-06.
 No special actions if energy rises.
 Integral accuracy reduced to 1.0D-05 until final iterations.
 Initial convergence to 1.0D-05 achieved.  Increase integral accuracy.
 SCF Done:  E(RB3LYP) =  -477.553580502     A.U. after   13 cycles
            NFock= 13  Conv=0.48D-08     -V/T= 2.0071

 **********************************************************************

            Population analysis using the SCF density.

 **********************************************************************

 Orbital symmetries:
       Occupied  (A) (A) (A) (A) (A) (A) (A) (A) (A) (A) (A) (A)
                 (A) (A) (A) (A) (A) (A) (A) (A) (A) (A) (A) (A)
                 (A) (A) (A) (A) (A) (A) (A) (A) (A) (A) (A) (A)
       Virtual   (A) (A) (A) (A) (A) (A) (A) (A) (A) (A) (A) (A)
                 (A) (A) (A) (A) (A) (A) (A) (A) (A) (A) (A) (A)
                 (A) (A) (A) (A) (A) (A) (A) (A) (A) (A) (A) (A)
                 (A) (A) (A) (A) (A) (A) (A) (A) (A) (A) (A) (A)
                 (A) (A) (A) (A) (A) (A) (A) (A) (A) (A) (A) (A)
                 (A) (A) (A) (A) (A) (A) (A) (A) (A) (A) (A) (A)
                 (A) (A) (A) (A) (A) (A) (A) (A) (A) (A) (A) (A)
                 (A) (A) (A) (A) (A) (A) (A) (A) (A) (A) (A) (A)
                 (A) (A) (A) (A) (A) (A) (A) (A) (A) (A) (A) (A)
                 (A) (A) (A) (A) (A) (A) (A) (A) (A) (A) (A) (A)
                 (A) (A) (A) (A) (A) (A) (A) (A) (A) (A) (A) (A)
                 (A) (A) (A) (A) (A) (A) (A) (A) (A) (A) (A) (A)
                 (A) (A) (A) (A) (A) (A) (A) (A) (A) (A) (A) (A)
                 (A) (A) (A) (A) (A) (A) (A) (A) (A) (A) (A) (A)
                 (A) (A) (A) (A) (A) (A) (A) (A) (A) (A) (A) (A)
                 (A) (A) (A) (A) (A) (A) (A) (A) (A) (A) (A) (A)
                 (A) (A) (A) (A) (A) (A) (A) (A) (A) (A) (A) (A)
                 (A) (A) (A) (A) (A) (A) (A) (A) (A) (A) (A) (A)
                 (A) (A) (A) (A) (A) (A) (A) (A) (A) (A) (A) (A)
                 (A) (A) (A) (A) (A) (A) (A) (A) (A) (A) (A) (A)
                 (A) (A) (A) (A) (A) (A) (A) (A) (A) (A) (A) (A)
                 (A) (A) (A) (A) (A) (A) (A) (A) (A) (A) (A) (A)
                 (A) (A) (A) (A) (A) (A) (A)
 The electronic state is 1-A.
 Alpha  occ. eigenvalues --  -19.16153 -19.15107 -19.14189 -14.31751 -10.25038
 Alpha  occ. eigenvalues --  -10.24798 -10.24367 -10.22714 -10.17898  -1.04501
 Alpha  occ. eigenvalues --   -1.02881  -1.02066  -0.88662  -0.77763  -0.73780
 Alpha  occ. eigenvalues --   -0.66223  -0.62287  -0.59379  -0.52255  -0.51504
 Alpha  occ. eigenvalues --   -0.50021  -0.48513  -0.45858  -0.43013  -0.42261
 Alpha  occ. eigenvalues --   -0.41452  -0.39315  -0.37857  -0.37454  -0.35608
 Alpha  occ. eigenvalues --   -0.32566  -0.31868  -0.30151  -0.29396  -0.26999
 Alpha  occ. eigenvalues --   -0.24004
 Alpha virt. eigenvalues --   -0.01888   0.03330   0.06467   0.09135   0.10189
 Alpha virt. eigenvalues --    0.12847   0.13141   0.14083   0.14900   0.15952
 Alpha virt. eigenvalues --    0.16681   0.17208   0.19459   0.22260   0.23417
 Alpha virt. eigenvalues --    0.24850   0.25120   0.28002   0.30140   0.33434
 Alpha virt. eigenvalues --    0.44705   0.44826   0.46380   0.49033   0.49900
 Alpha virt. eigenvalues --    0.51867   0.52128   0.53368   0.55609   0.56075
 Alpha virt. eigenvalues --    0.58474   0.59524   0.60279   0.61660   0.63289
 Alpha virt. eigenvalues --    0.66841   0.69481   0.69971   0.71376   0.72353
 Alpha virt. eigenvalues --    0.72700   0.73411   0.73614   0.74525   0.75510
 Alpha virt. eigenvalues --    0.77158   0.77502   0.77615   0.79266   0.81726
 Alpha virt. eigenvalues --    0.83257   0.83853   0.85087   0.86248   0.87637
 Alpha virt. eigenvalues --    0.90112   0.91127   0.92347   0.93486   0.95362
 Alpha virt. eigenvalues --    0.96370   0.97057   0.97635   0.99096   1.01153
 Alpha virt. eigenvalues --    1.03538   1.06529   1.08349   1.15017   1.17097
 Alpha virt. eigenvalues --    1.17741   1.19209   1.22548   1.25235   1.26573
 Alpha virt. eigenvalues --    1.26927   1.31501   1.34168   1.34234   1.36937
 Alpha virt. eigenvalues --    1.40014   1.41567   1.43360   1.46104   1.48843
 Alpha virt. eigenvalues --    1.50733   1.52018   1.52302   1.54872   1.57977
 Alpha virt. eigenvalues --    1.59829   1.60832   1.63507   1.68731   1.69372
 Alpha virt. eigenvalues --    1.73241   1.73435   1.75373   1.76280   1.79397
 Alpha virt. eigenvalues --    1.82740   1.86003   1.87591   1.91082   1.94879
 Alpha virt. eigenvalues --    1.95789   2.00566   2.01164   2.05688   2.10252
 Alpha virt. eigenvalues --    2.15795   2.18175   2.21949   2.25411   2.27103
 Alpha virt. eigenvalues --    2.29513   2.38919   2.39769   2.41791   2.44909
 Alpha virt. eigenvalues --    2.46409   2.46904   2.50682   2.51121   2.54005
 Alpha virt. eigenvalues --    2.55685   2.56875   2.62683   2.73215   2.73964
 Alpha virt. eigenvalues --    2.75658   2.76551   2.78862   2.79729   2.81001
 Alpha virt. eigenvalues --    2.83009   2.85348   2.87894   2.89404   2.90335
 Alpha virt. eigenvalues --    2.91715   2.94285   2.95207   2.98007   2.99359
 Alpha virt. eigenvalues --    3.00248   3.03354   3.05946   3.10081   3.11459
 Alpha virt. eigenvalues --    3.15004   3.17532   3.19864   3.22098   3.25798
 Alpha virt. eigenvalues --    3.31399   3.33053   3.35296   3.37498   3.38137
 Alpha virt. eigenvalues --    3.40747   3.44545   3.50532   3.52205   3.56123
 Alpha virt. eigenvalues --    3.56580   3.61172   3.63173   3.66693   3.67877
 Alpha virt. eigenvalues --    3.71618   3.76035   3.84653   3.86496   3.89179
 Alpha virt. eigenvalues --    3.90341   3.92866   3.96555   3.99636   4.02069
 Alpha virt. eigenvalues --    4.07282   4.10843   4.14776   4.15428   4.18860
 Alpha virt. eigenvalues --    4.19995   4.22899   4.23677   4.27295   4.28944
 Alpha virt. eigenvalues --    4.32291   4.35017   4.36768   4.38046   4.38445
 Alpha virt. eigenvalues --    4.40168   4.41872   4.46024   4.46872   4.48752
 Alpha virt. eigenvalues --    4.49839   4.52814   4.54404   4.55510   4.57667
 Alpha virt. eigenvalues --    4.59617   4.61886   4.63331   4.63577   4.65953
 Alpha virt. eigenvalues --    4.67799   4.70508   4.72308   4.73668   4.75586
 Alpha virt. eigenvalues --    4.77364   4.78849   4.80035   4.82893   4.85139
 Alpha virt. eigenvalues --    4.87084   4.88179   4.90983   4.93665   4.95551
 Alpha virt. eigenvalues --    4.96849   5.00220   5.10150   5.15488   5.18620
 Alpha virt. eigenvalues --    5.26794   5.28552   5.29455   5.31204   5.32516
 Alpha virt. eigenvalues --    5.36938   5.39854   5.43541   5.45412   5.46962
 Alpha virt. eigenvalues --    5.49252   5.53162   5.57602   5.60704   5.65713
 Alpha virt. eigenvalues --    5.66885   5.72487   5.75184   5.85312   5.89067
 Alpha virt. eigenvalues --    5.92503   5.95154   6.01744   6.05385   6.07005
 Alpha virt. eigenvalues --    6.09342   6.14694   6.53421   7.03083   7.08652
 Alpha virt. eigenvalues --    7.14224   9.84905  11.16148  11.28362  11.64000
 Alpha virt. eigenvalues --   11.81014  12.22691  12.64667  13.20421  13.34419
 Alpha virt. eigenvalues --   13.44574
          Condensed to atoms (all electrons):
               1          2          3          4          5          6
     1  C    5.074287   0.370635  -0.041220  -0.033169  -0.003458   0.003066
     2  C    0.370635   4.692392   0.339505   0.372883  -0.027941  -0.030979
     3  O   -0.041220   0.339505   7.857563  -0.038028   0.001533   0.003987
     4  C   -0.033169   0.372883  -0.038028   4.888317   0.294459   0.374471
     5  O   -0.003458  -0.027941   0.001533   0.294459   7.876412  -0.033415
     6  C    0.003066  -0.030979   0.003987   0.374471  -0.033415   4.825065
     7  O   -0.000027   0.002864  -0.005220  -0.028031   0.001446   0.324679
     8  C   -0.000086   0.003259  -0.000056  -0.028732   0.003114   0.378716
     9  N    0.000001  -0.000128  -0.000000   0.003160   0.000045  -0.033900
    10  H    0.369014  -0.016608   0.001067   0.003288   0.000210  -0.000091
    11  H    0.365100  -0.025295  -0.001473  -0.007210   0.000105   0.000210
    12  H    0.347115  -0.017328   0.003650  -0.000901   0.009448   0.000231
    13  H   -0.054529   0.345458  -0.012813  -0.042153  -0.000467  -0.005045
    14  H   -0.003082  -0.071891   0.307083  -0.004178   0.000122  -0.000930
    15  H   -0.006470  -0.037654  -0.000979   0.318599  -0.008902  -0.043590
    16  H    0.000088  -0.001810   0.000041  -0.074427   0.312237  -0.001962
    17  H   -0.000024  -0.005757  -0.000133  -0.035987  -0.000131   0.334387
    18  H    0.000057  -0.000850   0.004366  -0.003630   0.000145  -0.072829
    19  H   -0.000002   0.000152  -0.000004  -0.003815   0.005543  -0.058479
    20  H    0.000000  -0.000019   0.000002   0.000937  -0.000030  -0.014064
               7          8          9         10         11         12
     1  C   -0.000027  -0.000086   0.000001   0.369014   0.365100   0.347115
     2  C    0.002864   0.003259  -0.000128  -0.016608  -0.025295  -0.017328
     3  O   -0.005220  -0.000056  -0.000000   0.001067  -0.001473   0.003650
     4  C   -0.028031  -0.028732   0.003160   0.003288  -0.007210  -0.000901
     5  O    0.001446   0.003114   0.000045   0.000210   0.000105   0.009448
     6  C    0.324679   0.378716  -0.033900  -0.000091   0.000210   0.000231
     7  O    7.855925  -0.034397  -0.014275   0.000002  -0.000011  -0.000002
     8  C   -0.034397   4.768539   0.667614   0.000001  -0.000002  -0.000004
     9  N   -0.014275   0.667614   6.476102  -0.000000  -0.000000   0.000000
    10  H    0.000002   0.000001  -0.000000   0.585428  -0.033628  -0.028555
    11  H   -0.000011  -0.000002  -0.000000  -0.033628   0.608107  -0.025963
    12  H   -0.000002  -0.000004   0.000000  -0.028555  -0.025963   0.590810
    13  H   -0.000143   0.000050  -0.000003  -0.003907   0.005940   0.000563
    14  H    0.003135   0.000058   0.000001  -0.000176   0.005359  -0.000111
    15  H   -0.000552  -0.005256   0.000195  -0.000176   0.005535   0.000020
    16  H    0.000046  -0.000622  -0.000017  -0.000060   0.000056   0.000347
    17  H   -0.013423  -0.039196  -0.004070  -0.000002   0.000011  -0.000015
    18  H    0.305231   0.002367   0.001223   0.000000  -0.000013  -0.000004
    19  H    0.002332   0.346654  -0.023611  -0.000000  -0.000001  -0.000002
    20  H    0.010715  -0.099539   0.333416  -0.000000  -0.000000   0.000000
              13         14         15         16         17         18
     1  C   -0.054529  -0.003082  -0.006470   0.000088  -0.000024   0.000057
     2  C    0.345458  -0.071891  -0.037654  -0.001810  -0.005757  -0.000850
     3  O   -0.012813   0.307083  -0.000979   0.000041  -0.000133   0.004366
     4  C   -0.042153  -0.004178   0.318599  -0.074427  -0.035987  -0.003630
     5  O   -0.000467   0.000122  -0.008902   0.312237  -0.000131   0.000145
     6  C   -0.005045  -0.000930  -0.043590  -0.001962   0.334387  -0.072829
     7  O   -0.000143   0.003135  -0.000552   0.000046  -0.013423   0.305231
     8  C    0.000050   0.000058  -0.005256  -0.000622  -0.039196   0.002367
     9  N   -0.000003   0.000001   0.000195  -0.000017  -0.004070   0.001223
    10  H   -0.003907  -0.000176  -0.000176  -0.000060  -0.000002   0.000000
    11  H    0.005940   0.005359   0.005535   0.000056   0.000011  -0.000013
    12  H    0.000563  -0.000111   0.000020   0.000347  -0.000015  -0.000004
    13  H    0.657293   0.007421   0.006832   0.004517   0.004916   0.000069
    14  H    0.007421   0.477975   0.004745   0.000021   0.000039   0.000639
    15  H    0.006832   0.004745   0.665052   0.006962   0.006616   0.005469
    16  H    0.004517   0.000021   0.006962   0.457669   0.004132   0.000023
    17  H    0.004916   0.000039   0.006616   0.004132   0.629551   0.007235
    18  H    0.000069   0.000639   0.005469   0.000023   0.007235   0.471362
    19  H    0.000007  -0.000004   0.003390  -0.000154   0.005658   0.000661
    20  H   -0.000001  -0.000001   0.000040   0.000002   0.003716   0.000079
              19         20
     1  C   -0.000002   0.000000
     2  C    0.000152  -0.000019
     3  O   -0.000004   0.000002
     4  C   -0.003815   0.000937
     5  O    0.005543  -0.000030
     6  C   -0.058479  -0.014064
     7  O    0.002332   0.010715
     8  C    0.346654  -0.099539
     9  N   -0.023611   0.333416
    10  H   -0.000000  -0.000000
    11  H   -0.000001  -0.000000
    12  H   -0.000002   0.000000
    13  H    0.000007  -0.000001
    14  H   -0.000004  -0.000001
    15  H    0.003390   0.000040
    16  H   -0.000154   0.000002
    17  H    0.005658   0.003716
    18  H    0.000661   0.000079
    19  H    0.591430   0.008555
    20  H    0.008555   0.528197
 Mulliken charges:
               1
     1  C   -0.387295
     2  C    0.109113
     3  O   -0.418868
     4  C    0.044148
     5  O   -0.430474
     6  C    0.050473
     7  O   -0.410292
     8  C    0.037520
     9  N   -0.405753
    10  H    0.124191
    11  H    0.103174
    12  H    0.120701
    13  H    0.085997
    14  H    0.273774
    15  H    0.080122
    16  H    0.292911
    17  H    0.102478
    18  H    0.278399
    19  H    0.121688
    20  H    0.227995
 Sum of Mulliken charges =  -0.00000
 Mulliken charges with hydrogens summed into heavy atoms:
               1
     1  C   -0.039230
     2  C    0.195110
     3  O   -0.145094
     4  C    0.124270
     5  O   -0.137564
     6  C    0.152951
     7  O   -0.131893
     8  C    0.159208
     9  N   -0.177758
 Electronic spatial extent (au):  <R**2>=           1442.5299
 Charge=              0.0000 electrons
 Dipole moment (field-independent basis, Debye):
    X=             -2.5703    Y=              0.3760    Z=             -0.3816  Tot=              2.6255
 Quadrupole moment (field-independent basis, Debye-Ang):
   XX=            -66.9894   YY=            -59.0620   ZZ=            -46.8595
   XY=             -3.1574   XZ=              2.4762   YZ=              6.9485
 Traceless Quadrupole moment (field-independent basis, Debye-Ang):
   XX=             -9.3525   YY=             -1.4250   ZZ=             10.7775
   XY=             -3.1574   XZ=              2.4762   YZ=              6.9485
 Octapole moment (field-independent basis, Debye-Ang**2):
  XXX=            -57.2022  YYY=             -3.9797  ZZZ=              0.7103  XYY=              3.1194
  XXY=            -10.0931  XXZ=              7.1913  XZZ=             -0.9847  YZZ=             -3.2231
  YYZ=             -3.0552  XYZ=             -6.1071
 Hexadecapole moment (field-independent basis, Debye-Ang**3):
 XXXX=          -1546.9333 YYYY=           -409.6638 ZZZZ=            -97.8654 XXXY=            -49.3656
 XXXZ=             36.8401 YYYX=             -2.2159 YYYZ=             34.7654 ZZZX=              3.2395
 ZZZY=             11.9051 XXYY=           -291.6745 XXZZ=           -224.2415 YYZZ=            -66.1074
 XXYZ=              2.3894 YYXZ=             -0.5067 ZZXY=              0.7887
 N-N= 4.896195603570D+02 E-N=-2.096773659076D+03  KE= 4.741957539950D+02
 PrsmSu:  requested number of processors reduced to:  13 ShMem   1 Linda.
 Calling FoFJK, ICntrl=      2127 FMM=F ISym2X=0 I1Cent= 0 IOpClX= 0 NMat=1 NMatS=1 NMatT=0.
 ***** Axes restored to original set *****
 -------------------------------------------------------------------
 Center     Atomic                   Forces (Hartrees/Bohr)
 Number     Number              X              Y              Z
 -------------------------------------------------------------------
      1        6          -0.006714150    0.005248971   -0.003756180
      2        6          -0.013499115   -0.013230520    0.006737213
      3        8           0.005081888   -0.000651399    0.002167681
      4        6           0.003668951    0.021295499    0.002533520
      5        8           0.004425472    0.000635417    0.001902757
      6        6          -0.004228150   -0.019386468   -0.001668907
      7        8          -0.000775546    0.002632639    0.005511943
      8        6           0.036202829   -0.001993396   -0.015589459
      9        7          -0.034398405   -0.000515776    0.003216909
     10        1           0.002167404    0.000337237   -0.000630617
     11        1          -0.000096347   -0.001493107   -0.002140696
     12        1          -0.000923171   -0.001933821   -0.000120518
     13        1           0.005513037   -0.000602049    0.003078881
     14        1           0.000218946    0.008906068   -0.002757884
     15        1          -0.002474055   -0.001039968   -0.003672314
     16        1          -0.001884449   -0.010396316    0.003156362
     17        1          -0.000150733    0.002129411    0.005960595
     18        1           0.004505538    0.007981028   -0.003717519
     19        1           0.005476937    0.002846143    0.001924219
     20        1          -0.002116881   -0.000769592   -0.002135987
 -------------------------------------------------------------------
 Cartesian Forces:  Max     0.036202829 RMS     0.008830565

 GradGradGradGradGradGradGradGradGradGradGradGradGradGradGradGradGradGrad
 Berny optimization.
 FormGI is forming the generalized inverse of G from B-inverse, IUseBI=4.
 Internal  Forces:  Max     0.035602467 RMS     0.005591145
 Search for a local minimum.
 Step number   1 out of a maximum of  104
 All quantities printed in internal units (Hartrees-Bohrs-Radians)
 Mixed Optimization -- RFO/linear search
 Second derivative matrix not updated -- first step.
 ITU=  0
     Eigenvalues ---    0.00230   0.00246   0.00450   0.00527   0.01167
     Eigenvalues ---    0.01240   0.01382   0.01388   0.03053   0.04103
     Eigenvalues ---    0.04305   0.04698   0.04750   0.04937   0.05007
     Eigenvalues ---    0.05470   0.05735   0.07330   0.07362   0.08187
     Eigenvalues ---    0.16000   0.16000   0.16000   0.16000   0.16000
     Eigenvalues ---    0.16000   0.16000   0.16000   0.16700   0.16931
     Eigenvalues ---    0.17640   0.19926   0.20009   0.20082   0.22000
     Eigenvalues ---    0.27978   0.28582   0.29995   0.30554   0.33538
     Eigenvalues ---    0.33963   0.34069   0.34159   0.34177   0.34239
     Eigenvalues ---    0.34419   0.40402   0.41951   0.42014   0.42765
     Eigenvalues ---    0.52335   0.52880   0.53092   0.68004
 RFO step:  Lambda=-1.36768785D-02 EMin= 2.30000000D-03
 Linear search not attempted -- first point.
 Iteration  1 RMS(Cart)=  0.11231285 RMS(Int)=  0.00340495
 Iteration  2 RMS(Cart)=  0.00646844 RMS(Int)=  0.00058050
 Iteration  3 RMS(Cart)=  0.00001218 RMS(Int)=  0.00058045
 Iteration  4 RMS(Cart)=  0.00000000 RMS(Int)=  0.00058045
 Variable       Old X    -DE/DX   Delta X   Delta X   Delta X     New X
                                 (Linear)    (Quad)   (Total)
    R1        2.87973   0.00566   0.00000   0.01805   0.01805   2.89778
    R2        2.06928  -0.00101   0.00000  -0.00284  -0.00284   2.06644
    R3        2.07033   0.00105   0.00000   0.00295   0.00295   2.07328
    R4        2.06629  -0.00021   0.00000  -0.00060  -0.00060   2.06569
    R5        2.68986  -0.00141   0.00000  -0.00326  -0.00326   2.68660
    R6        2.92187   0.00290   0.00000   0.00989   0.00989   2.93176
    R7        2.07214   0.00083   0.00000   0.00233   0.00233   2.07448
    R8        1.83568  -0.00889   0.00000  -0.01633  -0.01633   1.81935
    R9        2.71010  -0.00837   0.00000  -0.02003  -0.02003   2.69007
   R10        2.90884   0.00472   0.00000   0.01575   0.01575   2.92459
   R11        2.07392   0.00128   0.00000   0.00364   0.00364   2.07756
   R12        1.84280  -0.01083   0.00000  -0.02017  -0.02017   1.82263
   R13        2.68905  -0.00054   0.00000  -0.00125  -0.00125   2.68780
   R14        2.86872   0.01121   0.00000   0.03512   0.03512   2.90383
   R15        2.07062   0.00089   0.00000   0.00249   0.00249   2.07311
   R16        1.83766  -0.00972   0.00000  -0.01793  -0.01793   1.81973
   R17        2.45117  -0.03560   0.00000  -0.05132  -0.05132   2.39985
   R18        2.08117  -0.00609   0.00000  -0.01745  -0.01745   2.06372
   R19        1.94661  -0.00296   0.00000  -0.00670  -0.00670   1.93991
    A1        1.92343  -0.00253   0.00000  -0.01131  -0.01130   1.91214
    A2        1.92857  -0.00045   0.00000  -0.00401  -0.00400   1.92457
    A3        1.95240   0.00175   0.00000   0.00823   0.00825   1.96065
    A4        1.86379   0.00204   0.00000   0.01544   0.01544   1.87923
    A5        1.89464   0.00080   0.00000   0.00718   0.00721   1.90185
    A6        1.89846  -0.00158   0.00000  -0.01509  -0.01508   1.88337
    A7        1.87945   0.00517   0.00000   0.04930   0.04857   1.92802
    A8        1.94795  -0.00475   0.00000  -0.00403  -0.00532   1.94263
    A9        1.88911   0.00225   0.00000   0.00903   0.00932   1.89843
   A10        1.96321   0.00308   0.00000   0.03051   0.02955   1.99276
   A11        1.87690  -0.00481   0.00000  -0.05485  -0.05460   1.82230
   A12        1.90451  -0.00093   0.00000  -0.03179  -0.03163   1.87288
   A13        1.89900  -0.00424   0.00000  -0.02443  -0.02443   1.87456
   A14        1.91580  -0.00090   0.00000   0.00223   0.00271   1.91851
   A15        1.96693   0.01269   0.00000   0.07772   0.07706   2.04399
   A16        1.89380  -0.00298   0.00000   0.00140   0.00008   1.89388
   A17        1.91561  -0.00738   0.00000  -0.03506  -0.03588   1.87973
   A18        1.87210  -0.00073   0.00000  -0.05673  -0.05716   1.81494
   A19        1.89696  -0.00126   0.00000   0.00425   0.00210   1.89906
   A20        1.89416  -0.00373   0.00000  -0.02149  -0.02149   1.87267
   A21        1.98681   0.00437   0.00000   0.03817   0.03666   2.02347
   A22        1.93447  -0.00566   0.00000  -0.00321  -0.00533   1.92914
   A23        1.91953  -0.00097   0.00000  -0.03464  -0.03448   1.88505
   A24        1.85988   0.00650   0.00000   0.06255   0.06133   1.92121
   A25        1.88497  -0.00603   0.00000  -0.06614  -0.06560   1.81937
   A26        1.87366   0.00185   0.00000   0.00267   0.00318   1.87684
   A27        1.89141  -0.00185   0.00000  -0.01065  -0.01065   1.88076
   A28        2.13538   0.01082   0.00000   0.04626   0.04615   2.18152
   A29        2.06633  -0.00346   0.00000  -0.01198  -0.01209   2.05423
   A30        2.08147  -0.00736   0.00000  -0.03442  -0.03453   2.04694
   A31        1.90302  -0.00132   0.00000  -0.00760  -0.00760   1.89542
    D1        0.97406  -0.00194   0.00000  -0.03184  -0.03190   0.94216
    D2        3.13687   0.00242   0.00000   0.03799   0.03818  -3.10814
    D3       -1.05021  -0.00016   0.00000   0.00207   0.00196  -1.04825
    D4       -1.08168  -0.00262   0.00000  -0.04143  -0.04149  -1.12317
    D5        1.08113   0.00174   0.00000   0.02841   0.02859   1.10972
    D6       -3.10595  -0.00084   0.00000  -0.00751  -0.00763  -3.11358
    D7        3.08358  -0.00148   0.00000  -0.02500  -0.02507   3.05851
    D8       -1.03680   0.00288   0.00000   0.04483   0.04501  -0.99179
    D9        1.05931   0.00030   0.00000   0.00891   0.00879   1.06810
   D10        1.15064  -0.00197   0.00000  -0.01945  -0.01824   1.13241
   D11       -1.00288  -0.00163   0.00000  -0.06913  -0.06985  -1.07274
   D12       -3.10027   0.00084   0.00000  -0.01184  -0.01234  -3.11260
   D13        0.99155  -0.00353   0.00000  -0.11163  -0.11190   0.87965
   D14        3.13237  -0.00487   0.00000  -0.10113  -0.10089   3.03148
   D15       -1.04919  -0.00044   0.00000  -0.04559  -0.04530  -1.09449
   D16        3.10635   0.00193   0.00000  -0.02889  -0.02919   3.07716
   D17       -1.03601   0.00059   0.00000  -0.01838  -0.01818  -1.05420
   D18        1.06561   0.00502   0.00000   0.03716   0.03741   1.10302
   D19       -1.09548  -0.00277   0.00000  -0.09961  -0.10010  -1.19558
   D20        1.04534  -0.00411   0.00000  -0.08911  -0.08909   0.95625
   D21       -3.13622   0.00032   0.00000  -0.03357  -0.03350   3.11347
   D22        1.03969   0.00517   0.00000   0.04367   0.04334   1.08302
   D23       -1.13123  -0.00521   0.00000  -0.03208  -0.03105  -1.16227
   D24        3.09399   0.00071   0.00000   0.01425   0.01355   3.10754
   D25        1.04340  -0.00290   0.00000   0.00526   0.00565   1.04905
   D26        3.13967   0.00443   0.00000   0.11055   0.11096  -3.03256
   D27       -1.07439   0.00260   0.00000   0.09000   0.09065  -0.98374
   D28       -3.09886  -0.00061   0.00000   0.03665   0.03625  -3.06261
   D29       -1.00260   0.00672   0.00000   0.14194   0.14156  -0.86104
   D30        1.06653   0.00489   0.00000   0.12139   0.12124   1.18778
   D31       -1.05641  -0.00636   0.00000  -0.04885  -0.04912  -1.10553
   D32        1.03986   0.00097   0.00000   0.05644   0.05619   1.09605
   D33        3.10899  -0.00087   0.00000   0.03588   0.03588  -3.13832
   D34        0.92200   0.00186   0.00000   0.07543   0.07659   0.99859
   D35       -1.21581   0.00161   0.00000   0.01068   0.00882  -1.20699
   D36        3.05891  -0.00087   0.00000   0.00823   0.00893   3.06785
   D37       -3.13243  -0.00184   0.00000   0.02258   0.02231  -3.11013
   D38        0.00371  -0.00258   0.00000  -0.00668  -0.00704  -0.00334
   D39       -0.96203   0.00437   0.00000   0.10936   0.10960  -0.85243
   D40        2.17411   0.00363   0.00000   0.08009   0.08025   2.25436
   D41        1.05405   0.00148   0.00000   0.06499   0.06514   1.11920
   D42       -2.09299   0.00074   0.00000   0.03572   0.03579  -2.05720
   D43        0.01629  -0.00097   0.00000  -0.02828  -0.02815  -0.01186
   D44       -3.11980  -0.00023   0.00000   0.00116   0.00103  -3.11878
         Item               Value     Threshold  Converged?
 Maximum Force            0.035602     0.000450     NO 
 RMS     Force            0.005591     0.000300     NO 
 Maximum Displacement     0.368069     0.001800     NO 
 RMS     Displacement     0.112242     0.001200     NO 
 Predicted change in Energy=-8.241672D-03
 GradGradGradGradGradGradGradGradGradGradGradGradGradGradGradGradGradGrad

                          Input orientation:                          
 ---------------------------------------------------------------------
 Center     Atomic      Atomic             Coordinates (Angstroms)
 Number     Number       Type             X           Y           Z
 ---------------------------------------------------------------------
      1          6           0        0.892431    0.091400    0.009277
      2          6           0        2.417530    0.030452    0.156921
      3          8           0        2.774560   -0.319098    1.487913
      4          6           0        3.053327   -0.875507   -0.930233
      5          8           0        2.570841   -0.501561   -2.216233
      6          6           0        4.598871   -0.914325   -1.000517
      7          8           0        5.263704   -1.368517    0.171963
      8          6           0        5.062703   -1.728097   -2.218674
      9          7           0        6.274024   -1.962571   -2.519478
     10          1           0        0.477903    0.762725    0.766418
     11          1           0        0.455053   -0.901933    0.169543
     12          1           0        0.584402    0.438624   -0.980397
     13          1           0        2.826269    1.040129    0.020639
     14          1           0        2.457439   -1.214372    1.645461
     15          1           0        2.678891   -1.900093   -0.793507
     16          1           0        2.848249    0.408776   -2.373016
     17          1           0        4.958207    0.113638   -1.133467
     18          1           0        4.932274   -2.249574    0.374907
     19          1           0        4.294133   -2.165479   -2.859472
     20          1           0        6.877740   -1.510226   -1.823256
 ---------------------------------------------------------------------
                    Distance matrix (angstroms):
                    1          2          3          4          5
     1  C    0.000000
     2  C    1.533440   0.000000
     3  O    2.428432   1.421688   0.000000
     4  C    2.546971   1.551420   2.496945   0.000000
     5  O    2.849835   2.436883   3.714229   1.423525   0.000000
     6  C    3.971003   2.643958   3.142403   1.547628   2.400259
     7  O    4.611491   3.171443   3.004804   2.518663   3.702243
     8  C    5.066113   3.966470   4.578173   2.534675   2.777368
     9  N    6.290861   5.099784   5.568342   3.752372   3.992502
    10  H    1.093514   2.160987   2.639229   3.492168   3.856814
    11  H    1.097130   2.172744   2.730917   2.821565   3.213842
    12  H    1.093116   2.195554   3.385778   2.797329   2.521345
    13  H    2.154054   1.097766   2.000766   2.150669   2.728672
    14  H    2.613692   1.940858   0.962758   2.665354   3.928567
    15  H    2.793196   2.167632   2.777333   1.099397   1.997928
    16  H    3.098592   2.594076   3.929632   1.942437   0.964494
    17  H    4.223374   2.850800   3.439071   2.155987   2.692650
    18  H    4.683393   3.401466   3.101814   2.668687   3.917387
    19  H    4.989469   4.176407   4.961651   2.631651   2.480346
    20  H    6.461216   5.117447   5.405434   3.978253   4.440858
                    6          7          8          9         10
     6  C    0.000000
     7  O    1.422323   0.000000
     8  C    1.536642   2.425870   0.000000
     9  N    2.492428   2.935558   1.269945   0.000000
    10  H    4.787163   5.272520   6.011269   7.198567   0.000000
    11  H    4.305859   4.831235   5.255146   6.497400   1.768578
    12  H    4.236371   5.146801   5.126713   6.364456   1.779816
    13  H    2.829270   3.430097   4.204668   5.230240   2.479509
    14  H    3.417156   3.173338   4.688587   5.698494   2.932609
    15  H    2.168160   2.809976   2.782668   3.988466   3.790556
    16  H    2.588248   3.933206   3.081209   4.169013   3.949667
    17  H    1.097044   1.998565   2.140229   2.821887   4.909582
    18  H    1.945723   0.962961   2.648700   3.203143   5.391535
    19  H    2.261407   3.280978   1.092074   2.019093   6.023708
    20  H    2.495044   2.570232   1.870343   1.026554   7.268469
                   11         12         13         14         15
    11  H    0.000000
    12  H    1.770928   0.000000
    13  H    3.068623   2.527816   0.000000
    14  H    2.507090   3.624334   2.803365   0.000000
    15  H    2.620924   3.145061   3.054417   2.543190   0.000000
    16  H    3.729605   2.658060   2.475617   4.351494   2.802571
    17  H    4.796625   4.388532   2.595285   3.967353   3.060387
    18  H    4.680151   5.288407   3.922105   2.968291   2.562238
    19  H    5.050744   4.906565   4.552536   4.957062   2.635839
    20  H    6.752198   6.641878   5.130173   5.626596   4.340820
                   16         17         18         19         20
    16  H    0.000000
    17  H    2.464855   0.000000
    18  H    4.354430   2.803683   0.000000
    19  H    2.992324   2.935040   3.297803   0.000000
    20  H    4.496844   2.607174   3.027110   2.859742   0.000000
 Stoichiometry    C5H11NO3
 Framework group  C1[X(C5H11NO3)]
 Deg. of freedom    54
 Full point group                 C1      NOp   1
 Largest Abelian subgroup         C1      NOp   1
 Largest concise Abelian subgroup C1      NOp   1
                         Standard orientation:                         
 ---------------------------------------------------------------------
 Center     Atomic      Atomic             Coordinates (Angstroms)
 Number     Number       Type             X           Y           Z
 ---------------------------------------------------------------------
      1          6           0       -2.863653    0.651986   -0.140960
      2          6           0       -1.658434   -0.175954    0.320994
      3          8           0       -1.856272   -1.551644    0.021770
      4          6           0       -0.329773    0.408687   -0.226508
      5          8           0       -0.263862    1.803800    0.048700
      6          6           0        0.984570   -0.233261    0.279021
      7          8           0        1.147713   -1.618440    0.000333
      8          6           0        2.200695    0.554542   -0.232521
      9          7           0        3.412891    0.248744   -0.009296
     10          1           0       -3.779527    0.236033    0.287911
     11          1           0       -2.958010    0.609181   -1.233187
     12          1           0       -2.781213    1.702883    0.148387
     13          1           0       -1.604145   -0.139790    1.416820
     14          1           0       -1.884035   -1.636758   -0.936816
     15          1           0       -0.351026    0.355098   -1.324392
     16          1           0       -0.274182    1.907734    1.007522
     17          1           0        0.990545   -0.175838    1.374545
     18          1           0        1.082556   -1.735867   -0.953218
     19          1           0        2.012262    1.426857   -0.861953
     20          1           0        3.435483   -0.596475    0.572862
 ---------------------------------------------------------------------
 Rotational constants (GHZ):           2.8831607           0.9848591           0.7673387
 Standard basis: 6-31G(2df,p) (6D, 7F)
 There are   334 symmetry adapted cartesian basis functions of A   symmetry.
 There are   307 symmetry adapted basis functions of A   symmetry.
   307 basis functions,   473 primitive gaussians,   334 cartesian basis functions
    36 alpha electrons       36 beta electrons
       nuclear repulsion energy       486.3830257058 Hartrees.
 NAtoms=   20 NActive=   20 NUniq=   20 SFac= 1.00D+00 NAtFMM=   60 NAOKFM=F Big=F
 Integral buffers will be    131072 words long.
 Raffenetti 2 integral format.
 Two-electron integral symmetry is turned on.
 One-electron integrals computed using PRISM.
 PrsmSu:  requested number of processors reduced to:  13 ShMem   1 Linda.
 NBasis=   307 RedAO= T EigKep=  3.46D-04  NBF=   307
 NBsUse=   307 1.00D-06 EigRej= -1.00D+00 NBFU=   307
 Initial guess from the checkpoint file:  "CCpOpCpOpCpOpCdN.chk"
 B after Tr=     0.000000   -0.000000    0.000000
         Rot=    0.999928   -0.008469   -0.000445    0.008545 Ang=  -1.38 deg.
 ExpMin= 1.61D-01 ExpMax= 5.48D+03 ExpMxC= 8.25D+02 IAcc=2 IRadAn=         4 AccDes= 0.00D+00
 Harris functional with IExCor=  402 and IRadAn=       4 diagonalized for initial guess.
 HarFok:  IExCor=  402 AccDes= 0.00D+00 IRadAn=         4 IDoV= 1 UseB2=F ITyADJ=14
 ICtDFT=  3500011 ScaDFX=  1.000000  1.000000  1.000000  1.000000
 FoFCou: FMM=F IPFlag=           0 FMFlag=      100000 FMFlg1=           0
         NFxFlg=           0 DoJE=T BraDBF=F KetDBF=T FulRan=T
         wScrn=  0.000000 ICntrl=       500 IOpCl=  0 I1Cent=   200000004 NGrid=           0
         NMat0=    1 NMatS0=      1 NMatT0=    0 NMatD0=    1 NMtDS0=    0 NMtDT0=    0
 Petite list used in FoFCou.
 Requested convergence on RMS density matrix=1.00D-08 within 128 cycles.
 Requested convergence on MAX density matrix=1.00D-06.
 Requested convergence on             energy=1.00D-06.
 No special actions if energy rises.
 Integral accuracy reduced to 1.0D-05 until final iterations.
 Initial convergence to 1.0D-05 achieved.  Increase integral accuracy.
 SCF Done:  E(RB3LYP) =  -477.559502241     A.U. after   12 cycles
            NFock= 12  Conv=0.82D-08     -V/T= 2.0069
 PrsmSu:  requested number of processors reduced to:  13 ShMem   1 Linda.
 Calling FoFJK, ICntrl=      2127 FMM=F ISym2X=0 I1Cent= 0 IOpClX= 0 NMat=1 NMatS=1 NMatT=0.
 ***** Axes restored to original set *****
 -------------------------------------------------------------------
 Center     Atomic                   Forces (Hartrees/Bohr)
 Number     Number              X              Y              Z
 -------------------------------------------------------------------
      1        6          -0.000426610    0.000504281    0.000294279
      2        6          -0.001117394    0.000957785   -0.000277711
      3        8           0.003094159   -0.001862759   -0.004738915
      4        6           0.000022599   -0.001370170    0.001862637
      5        8          -0.000260157    0.002238275   -0.000781991
      6        6           0.000404631   -0.002612544    0.001052435
      7        8          -0.003638759    0.003170573   -0.001093722
      8        6           0.001147934   -0.003175334   -0.002484983
      9        7          -0.002293254    0.001309465    0.004063061
     10        1           0.000800785   -0.000017022    0.000093640
     11        1          -0.000109497   -0.000421899   -0.000765198
     12        1           0.000911557   -0.001015709    0.000685257
     13        1           0.001066922    0.001111466    0.000164226
     14        1          -0.000941389   -0.000502968    0.001381986
     15        1           0.000197602   -0.001708195    0.001826812
     16        1          -0.000325651    0.000329854   -0.001418780
     17        1          -0.000469553    0.002228898    0.000069294
     18        1           0.001075616   -0.001110973    0.000016965
     19        1          -0.001784660    0.002317520    0.000204448
     20        1           0.002645120   -0.000370544   -0.000153739
 -------------------------------------------------------------------
 Cartesian Forces:  Max     0.004738915 RMS     0.001653365

 GradGradGradGradGradGradGradGradGradGradGradGradGradGradGradGradGradGrad
 Berny optimization.
 Using GEDIIS/GDIIS optimizer.
 FormGI is forming the generalized inverse of G from B-inverse, IUseBI=4.
 Internal  Forces:  Max     0.006387589 RMS     0.001681580
 Search for a local minimum.
 Step number   2 out of a maximum of  104
 All quantities printed in internal units (Hartrees-Bohrs-Radians)
 Mixed Optimization -- RFO/linear search
 Update second derivatives using D2CorX and points    1    2
 DE= -5.92D-03 DEPred=-8.24D-03 R= 7.19D-01
 TightC=F SS=  1.41D+00  RLast= 4.45D-01 DXNew= 5.0454D-01 1.3338D+00
 Trust test= 7.19D-01 RLast= 4.45D-01 DXMaxT set to 5.05D-01
 ITU=  1  0
 Use linear search instead of GDIIS.
     Eigenvalues ---    0.00235   0.00273   0.00450   0.00519   0.01161
     Eigenvalues ---    0.01240   0.01373   0.01385   0.03055   0.03543
     Eigenvalues ---    0.04054   0.04371   0.04768   0.05162   0.05361
     Eigenvalues ---    0.05465   0.05777   0.07212   0.08047   0.08111
     Eigenvalues ---    0.15791   0.15998   0.16000   0.16000   0.16000
     Eigenvalues ---    0.16000   0.16000   0.16335   0.17033   0.17780
     Eigenvalues ---    0.18191   0.20280   0.20641   0.21546   0.23122
     Eigenvalues ---    0.28166   0.28931   0.30089   0.30778   0.33450
     Eigenvalues ---    0.33979   0.34081   0.34169   0.34202   0.34238
     Eigenvalues ---    0.34443   0.40663   0.41945   0.42077   0.42852
     Eigenvalues ---    0.52113   0.52797   0.53084   0.65105
 RFO step:  Lambda=-2.13769779D-03 EMin= 2.34594858D-03
 Quartic linear search produced a step of -0.10689.
 Iteration  1 RMS(Cart)=  0.07282321 RMS(Int)=  0.00236093
 Iteration  2 RMS(Cart)=  0.00375296 RMS(Int)=  0.00008477
 Iteration  3 RMS(Cart)=  0.00000800 RMS(Int)=  0.00008447
 Iteration  4 RMS(Cart)=  0.00000000 RMS(Int)=  0.00008447
 Variable       Old X    -DE/DX   Delta X   Delta X   Delta X     New X
                                 (Linear)    (Quad)   (Total)
    R1        2.89778  -0.00124  -0.00193   0.00088  -0.00105   2.89673
    R2        2.06644  -0.00025   0.00030  -0.00135  -0.00105   2.06539
    R3        2.07328   0.00031  -0.00032   0.00154   0.00123   2.07451
    R4        2.06569  -0.00120   0.00006  -0.00322  -0.00316   2.06253
    R5        2.68660  -0.00202   0.00035  -0.00506  -0.00472   2.68189
    R6        2.93176  -0.00429  -0.00106  -0.01102  -0.01208   2.91968
    R7        2.07448   0.00140  -0.00025   0.00420   0.00395   2.07843
    R8        1.81935   0.00100   0.00175  -0.00240  -0.00065   1.81870
    R9        2.69007   0.00286   0.00214   0.00126   0.00340   2.69347
   R10        2.92459  -0.00303  -0.00168  -0.00539  -0.00708   2.91752
   R11        2.07756   0.00175  -0.00039   0.00545   0.00507   2.08262
   R12        1.82263   0.00045   0.00216  -0.00426  -0.00211   1.82052
   R13        2.68780  -0.00274   0.00013  -0.00607  -0.00594   2.68186
   R14        2.90383  -0.00142  -0.00375   0.00467   0.00092   2.90475
   R15        2.07311   0.00193  -0.00027   0.00559   0.00533   2.07844
   R16        1.81973   0.00065   0.00192  -0.00338  -0.00146   1.81827
   R17        2.39985  -0.00076   0.00549  -0.01375  -0.00827   2.39158
   R18        2.06372   0.00021   0.00187  -0.00381  -0.00194   2.06178
   R19        1.93991   0.00129   0.00072   0.00099   0.00171   1.94161
    A1        1.91214  -0.00078   0.00121  -0.00543  -0.00423   1.90791
    A2        1.92457   0.00033   0.00043   0.00039   0.00081   1.92538
    A3        1.96065  -0.00083  -0.00088  -0.00379  -0.00468   1.95597
    A4        1.87923   0.00058  -0.00165   0.00970   0.00806   1.88729
    A5        1.90185   0.00094  -0.00077   0.00759   0.00681   1.90866
    A6        1.88337  -0.00015   0.00161  -0.00776  -0.00616   1.87721
    A7        1.92802   0.00215  -0.00519   0.02082   0.01575   1.94377
    A8        1.94263   0.00184   0.00057   0.00607   0.00684   1.94948
    A9        1.89843  -0.00038  -0.00100   0.01355   0.01251   1.91094
   A10        1.99276  -0.00445  -0.00316  -0.02077  -0.02390   1.96886
   A11        1.82230   0.00049   0.00584  -0.01448  -0.00892   1.81337
   A12        1.87288   0.00033   0.00338  -0.00577  -0.00261   1.87027
   A13        1.87456   0.00168   0.00261   0.00304   0.00565   1.88022
   A14        1.91851   0.00203  -0.00029   0.01150   0.01123   1.92974
   A15        2.04399  -0.00639  -0.00824  -0.01490  -0.02317   2.02083
   A16        1.89388   0.00123  -0.00001  -0.00408  -0.00418   1.88970
   A17        1.87973   0.00273   0.00384   0.00544   0.00945   1.88918
   A18        1.81494  -0.00033   0.00611   0.00578   0.01192   1.82686
   A19        1.89906   0.00137  -0.00022  -0.00137  -0.00160   1.89745
   A20        1.87267   0.00257   0.00230   0.00865   0.01095   1.88361
   A21        2.02347  -0.00255  -0.00392  -0.00521  -0.00913   2.01434
   A22        1.92914   0.00162   0.00057   0.00802   0.00882   1.93796
   A23        1.88505  -0.00025   0.00369  -0.01275  -0.00926   1.87579
   A24        1.92121   0.00081  -0.00656   0.02028   0.01389   1.93510
   A25        1.81937   0.00020   0.00701  -0.02355  -0.01678   1.80258
   A26        1.87684   0.00022  -0.00034   0.01179   0.01147   1.88831
   A27        1.88076   0.00129   0.00114   0.00437   0.00550   1.88626
   A28        2.18152  -0.00136  -0.00493   0.00614   0.00122   2.18274
   A29        2.05423  -0.00167   0.00129  -0.01316  -0.01186   2.04238
   A30        2.04694   0.00304   0.00369   0.00701   0.01071   2.05765
   A31        1.89542   0.00454   0.00081   0.02291   0.02372   1.91914
    D1        0.94216   0.00153   0.00341   0.00212   0.00555   0.94771
    D2       -3.10814  -0.00126  -0.00408  -0.00433  -0.00844  -3.11657
    D3       -1.04825   0.00000  -0.00021   0.00063   0.00041  -1.04784
    D4       -1.12317   0.00110   0.00444  -0.00667  -0.00221  -1.12538
    D5        1.10972  -0.00168  -0.00306  -0.01313  -0.01620   1.09352
    D6       -3.11358  -0.00043   0.00082  -0.00817  -0.00735  -3.12093
    D7        3.05851   0.00161   0.00268   0.00545   0.00815   3.06666
    D8       -0.99179  -0.00117  -0.00481  -0.00100  -0.00584  -0.99762
    D9        1.06810   0.00009  -0.00094   0.00396   0.00301   1.07111
   D10        1.13241  -0.00066   0.00195  -0.04759  -0.04578   1.08663
   D11       -1.07274  -0.00141   0.00747  -0.05664  -0.04895  -1.12169
   D12       -3.11260   0.00018   0.00132  -0.02977  -0.02852  -3.14113
   D13        0.87965   0.00036   0.01196   0.00525   0.01727   0.89692
   D14        3.03148   0.00090   0.01078   0.01096   0.02168   3.05316
   D15       -1.09449  -0.00097   0.00484  -0.00536  -0.00049  -1.09497
   D16        3.07716   0.00124   0.00312   0.02191   0.02503   3.10219
   D17       -1.05420   0.00177   0.00194   0.02762   0.02943  -1.02476
   D18        1.10302  -0.00010  -0.00400   0.01130   0.00727   1.11029
   D19       -1.19558  -0.00043   0.01070  -0.01112  -0.00032  -1.19590
   D20        0.95625   0.00010   0.00952  -0.00541   0.00409   0.96034
   D21        3.11347  -0.00176   0.00358  -0.02173  -0.01807   3.09539
   D22        1.08302  -0.00219  -0.00463   0.00616   0.00156   1.08458
   D23       -1.16227   0.00255   0.00332   0.01319   0.01639  -1.14588
   D24        3.10754  -0.00001  -0.00145   0.00969   0.00833   3.11587
   D25        1.04905  -0.00171  -0.00060  -0.07156  -0.07211   0.97694
   D26       -3.03256  -0.00127  -0.01186  -0.04079  -0.05266  -3.08522
   D27       -0.98374  -0.00024  -0.00969  -0.02961  -0.03938  -1.02313
   D28       -3.06261  -0.00140  -0.00387  -0.06254  -0.06633  -3.12895
   D29       -0.86104  -0.00096  -0.01513  -0.03177  -0.04688  -0.90792
   D30        1.18778   0.00007  -0.01296  -0.02059  -0.03360   1.15417
   D31       -1.10553   0.00024   0.00525  -0.05378  -0.04847  -1.15400
   D32        1.09605   0.00068  -0.00601  -0.02301  -0.02902   1.06702
   D33       -3.13832   0.00171  -0.00383  -0.01183  -0.01574   3.12912
   D34        0.99859   0.00152  -0.00819   0.06760   0.05919   1.05778
   D35       -1.20699   0.00065  -0.00094   0.04307   0.04230  -1.16469
   D36        3.06785  -0.00007  -0.00095   0.03259   0.03168   3.09953
   D37       -3.11013   0.00171  -0.00238   0.13605   0.13366  -2.97646
   D38       -0.00334   0.00186   0.00075   0.13579   0.13654   0.13320
   D39       -0.85243   0.00023  -0.01172   0.15132   0.13963  -0.71281
   D40        2.25436   0.00038  -0.00858   0.15106   0.14250   2.39686
   D41        1.11920   0.00098  -0.00696   0.14001   0.13303   1.25222
   D42       -2.05720   0.00113  -0.00383   0.13975   0.13591  -1.92129
   D43       -0.01186   0.00018   0.00301   0.00017   0.00317  -0.00868
   D44       -3.11878   0.00012  -0.00011   0.00079   0.00068  -3.11810
         Item               Value     Threshold  Converged?
 Maximum Force            0.006388     0.000450     NO 
 RMS     Force            0.001682     0.000300     NO 
 Maximum Displacement     0.320103     0.001800     NO 
 RMS     Displacement     0.073271     0.001200     NO 
 Predicted change in Energy=-1.332209D-03
 GradGradGradGradGradGradGradGradGradGradGradGradGradGradGradGradGradGrad

                          Input orientation:                          
 ---------------------------------------------------------------------
 Center     Atomic      Atomic             Coordinates (Angstroms)
 Number     Number       Type             X           Y           Z
 ---------------------------------------------------------------------
      1          6           0        0.891638    0.072912    0.039489
      2          6           0        2.420339    0.021100    0.140079
      3          8           0        2.840383   -0.359383    1.441195
      4          6           0        3.036249   -0.859957   -0.969656
      5          8           0        2.543379   -0.470875   -2.249202
      6          6           0        4.578735   -0.881005   -1.031863
      7          8           0        5.231413   -1.267503    0.167597
      8          6           0        5.071635   -1.723267   -2.219471
      9          7           0        6.274648   -2.059689   -2.422570
     10          1           0        0.499583    0.724712    0.824352
     11          1           0        0.466057   -0.928792    0.182992
     12          1           0        0.556792    0.436575   -0.933589
     13          1           0        2.830799    1.033871    0.015563
     14          1           0        2.507912   -1.246885    1.608657
     15          1           0        2.673737   -1.891670   -0.832808
     16          1           0        2.815736    0.439540   -2.407519
     17          1           0        4.917416    0.154679   -1.181368
     18          1           0        4.950363   -2.161519    0.385664
     19          1           0        4.316578   -2.078835   -2.922207
     20          1           0        6.875159   -1.679617   -1.680546
 ---------------------------------------------------------------------
                    Distance matrix (angstroms):
                    1          2          3          4          5
     1  C    0.000000
     2  C    1.532884   0.000000
     3  O    2.439112   1.419193   0.000000
     4  C    2.547150   1.545029   2.470049   0.000000
     5  O    2.874380   2.442507   3.704008   1.425323   0.000000
     6  C    3.956316   2.616469   3.067568   1.543884   2.406823
     7  O    4.543873   3.092473   2.857230   2.505631   3.701495
     8  C    5.079521   3.954701   4.498794   2.539713   2.821604
     9  N    6.291781   5.074696   5.441865   3.746671   4.059157
    10  H    1.092960   2.156990   2.652377   3.487738   3.879853
    11  H    1.097781   2.173328   2.746766   2.817662   3.231180
    12  H    1.091445   2.190478   3.389386   2.798215   2.549673
    13  H    2.164339   1.099858   1.993408   2.144633   2.734233
    14  H    2.610842   1.942209   0.962414   2.660178   3.935293
    15  H    2.792197   2.160881   2.747138   1.102077   2.010430
    16  H    3.134393   2.611835   3.930838   1.950582   0.963378
    17  H    4.207621   2.828331   3.384696   2.147813   2.677245
    18  H    4.646049   3.350397   2.968815   2.682311   3.948971
    19  H    5.013169   4.169297   4.916802   2.633887   2.486505
    20  H    6.467797   5.104168   5.269507   3.989290   4.533072
                    6          7          8          9         10
     6  C    0.000000
     7  O    1.419180   0.000000
     8  C    1.537130   2.435434   0.000000
     9  N    2.489875   2.902560   1.265570   0.000000
    10  H    4.760603   5.175951   6.013412   7.186568   0.000000
    11  H    4.288622   4.777403   5.254938   6.465880   1.773850
    12  H    4.233403   5.095938   5.167420   6.414225   1.782316
    13  H    2.796271   3.329022   4.197443   5.232083   2.486823
    14  H    3.375577   3.081321   4.631865   5.576714   2.921595
    15  H    2.165660   2.816398   2.775087   3.939813   3.783990
    16  H    2.597005   3.921825   3.130843   4.267369   3.986336
    17  H    1.099863   1.985171   2.151307   2.878555   4.885192
    18  H    1.946075   0.962188   2.644523   3.106489   5.322803
    19  H    2.253203   3.322961   1.091045   2.020901   6.038711
    20  H    2.516373   2.507463   1.882828   1.027456   7.259703
                   11         12         13         14         15
    11  H    0.000000
    12  H    1.766130   0.000000
    13  H    3.077675   2.535500   0.000000
    14  H    2.510553   3.619934   2.800724   0.000000
    15  H    2.613969   3.148387   3.050114   2.530612   0.000000
    16  H    3.755539   2.697278   2.494951   4.366744   2.816810
    17  H    4.780166   4.376746   2.561170   3.943898   3.056654
    18  H    4.655072   5.272001   3.852278   2.880596   2.596251
    19  H    5.078520   4.941445   4.530669   4.948953   2.664497
    20  H    6.716628   6.705071   5.157194   5.484429   4.291336
                   16         17         18         19         20
    16  H    0.000000
    17  H    2.449827   0.000000
    18  H    4.373101   2.796685   0.000000
    19  H    2.976515   2.894842   3.369055   0.000000
    20  H    4.636618   2.728841   2.864662   2.871834   0.000000
 Stoichiometry    C5H11NO3
 Framework group  C1[X(C5H11NO3)]
 Deg. of freedom    54
 Full point group                 C1      NOp   1
 Largest Abelian subgroup         C1      NOp   1
 Largest concise Abelian subgroup C1      NOp   1
                         Standard orientation:                         
 ---------------------------------------------------------------------
 Center     Atomic      Atomic             Coordinates (Angstroms)
 Number     Number       Type             X           Y           Z
 ---------------------------------------------------------------------
      1          6           0       -2.879480    0.581150   -0.169560
      2          6           0       -1.644001   -0.192654    0.304310
      3          8           0       -1.745746   -1.572631   -0.010996
      4          6           0       -0.336351    0.445551   -0.215170
      5          8           0       -0.307334    1.839429    0.081152
      6          6           0        0.972461   -0.186557    0.305435
      7          8           0        1.110226   -1.579859    0.073475
      8          6           0        2.199845    0.579154   -0.214163
      9          7           0        3.400048    0.195901   -0.094593
     10          1           0       -3.778259    0.112932    0.239744
     11          1           0       -2.948930    0.554574   -1.264819
     12          1           0       -2.847809    1.629347    0.132983
     13          1           0       -1.599325   -0.175311    1.403124
     14          1           0       -1.788429   -1.651942   -0.969186
     15          1           0       -0.340386    0.394239   -1.316045
     16          1           0       -0.326284    1.939321    1.039150
     17          1           0        0.961087   -0.113020    1.402777
     18          1           0        1.089697   -1.727713   -0.877063
     19          1           0        2.012394    1.510089   -0.751378
     20          1           0        3.433895   -0.699204    0.408703
 ---------------------------------------------------------------------
 Rotational constants (GHZ):           2.8745027           1.0012828           0.7766145
 Standard basis: 6-31G(2df,p) (6D, 7F)
 There are   334 symmetry adapted cartesian basis functions of A   symmetry.
 There are   307 symmetry adapted basis functions of A   symmetry.
   307 basis functions,   473 primitive gaussians,   334 cartesian basis functions
    36 alpha electrons       36 beta electrons
       nuclear repulsion energy       488.0163672721 Hartrees.
 NAtoms=   20 NActive=   20 NUniq=   20 SFac= 1.00D+00 NAtFMM=   60 NAOKFM=F Big=F
 Integral buffers will be    131072 words long.
 Raffenetti 2 integral format.
 Two-electron integral symmetry is turned on.
 One-electron integrals computed using PRISM.
 PrsmSu:  requested number of processors reduced to:  13 ShMem   1 Linda.
 NBasis=   307 RedAO= T EigKep=  3.49D-04  NBF=   307
 NBsUse=   307 1.00D-06 EigRej= -1.00D+00 NBFU=   307
 Initial guess from the checkpoint file:  "CCpOpCpOpCpOpCdN.chk"
 B after Tr=    -0.000000    0.000000    0.000000
         Rot=    0.999984    0.000153    0.000747   -0.005523 Ang=   0.64 deg.
 ExpMin= 1.61D-01 ExpMax= 5.48D+03 ExpMxC= 8.25D+02 IAcc=2 IRadAn=         4 AccDes= 0.00D+00
 Harris functional with IExCor=  402 and IRadAn=       4 diagonalized for initial guess.
 HarFok:  IExCor=  402 AccDes= 0.00D+00 IRadAn=         4 IDoV= 1 UseB2=F ITyADJ=14
 ICtDFT=  3500011 ScaDFX=  1.000000  1.000000  1.000000  1.000000
 FoFCou: FMM=F IPFlag=           0 FMFlag=      100000 FMFlg1=           0
         NFxFlg=           0 DoJE=T BraDBF=F KetDBF=T FulRan=T
         wScrn=  0.000000 ICntrl=       500 IOpCl=  0 I1Cent=   200000004 NGrid=           0
         NMat0=    1 NMatS0=      1 NMatT0=    0 NMatD0=    1 NMtDS0=    0 NMtDT0=    0
 Petite list used in FoFCou.
 Requested convergence on RMS density matrix=1.00D-08 within 128 cycles.
 Requested convergence on MAX density matrix=1.00D-06.
 Requested convergence on             energy=1.00D-06.
 No special actions if energy rises.
 Integral accuracy reduced to 1.0D-05 until final iterations.
 Initial convergence to 1.0D-05 achieved.  Increase integral accuracy.
 SCF Done:  E(RB3LYP) =  -477.561175315     A.U. after   12 cycles
            NFock= 12  Conv=0.39D-08     -V/T= 2.0069
 PrsmSu:  requested number of processors reduced to:  13 ShMem   1 Linda.
 Calling FoFJK, ICntrl=      2127 FMM=F ISym2X=0 I1Cent= 0 IOpClX= 0 NMat=1 NMatS=1 NMatT=0.
 ***** Axes restored to original set *****
 -------------------------------------------------------------------
 Center     Atomic                   Forces (Hartrees/Bohr)
 Number     Number              X              Y              Z
 -------------------------------------------------------------------
      1        6           0.001372817   -0.000189292    0.001343938
      2        6           0.001168172    0.001858824   -0.000628099
      3        8          -0.000828238   -0.000656233   -0.000932656
      4        6          -0.000590261   -0.002333628    0.000048555
      5        8          -0.000956202   -0.001299316    0.000320150
      6        6           0.002106757    0.000642832    0.001716921
      7        8           0.000544315    0.000968034   -0.002673238
      8        6          -0.002253168    0.000171494    0.002082998
      9        7           0.003426455   -0.001569831    0.001028604
     10        1          -0.000240490   -0.000056346   -0.000040848
     11        1           0.000118934    0.000095553   -0.000063311
     12        1           0.000585776    0.000000257   -0.000230807
[...]
 91200,0.00088251,-0.00044037,-0.00030759,-0.01888694,0.02150181,0.0280
 3772,0.00146516,0.00063957,0.00076886,-0.08788199,0.01148702,0.0215778
 3,0.00663324,-0.00409167,-0.01753346,0.50965916,-0.00018195,0.00105653
 ,0.00096440,-0.00256828,-0.00140641,-0.00184414,0.00035549,-0.00024102
 ,0.00060814,0.00911899,0.00127839,0.00507140,0.00049551,0.00029840,-0.
 00163968,0.00727345,-0.10356429,-0.04026915,-0.00045959,0.00633581,0.0
 0769216,-0.35702564,0.57765202,-0.00016640,0.00051286,0.00164446,-0.00
 353758,-0.00043386,-0.00183622,0.00079222,-0.00044610,0.00024530,0.014
 99905,-0.00187812,0.00734439,0.00201811,-0.00023686,-0.00615177,0.0065
 5064,-0.02841837,-0.14067534,0.00970140,-0.01756660,-0.05183773,0.1179
 0382,-0.04930738,0.58620839,-0.00004142,-0.00009483,0.00013003,0.00022
 959,-0.00005782,-0.00040758,0.00011612,-0.00008265,0.00050747,0.003908
 23,-0.00116032,-0.00319126,-0.00149846,0.00038156,0.00071578,0.0036690
 4,0.03718783,0.00385520,0.00093430,-0.00178758,-0.00216222,-0.31307297
 ,0.29422327,-0.02117901,0.38669211,0.00002848,-0.00079656,-0.00114480,
 0.00299961,0.00142447,0.00184382,-0.00020953,0.00024105,-0.00073430,-0
 .00535238,-0.00504998,-0.00644132,0.00074091,0.00000374,0.00066897,0.0
 4099642,-0.01331974,-0.01094423,-0.00103534,0.00211465,0.00210016,0.28
 736397,-0.38416929,0.01262435,-0.34218907,0.45190927,0.00007645,-0.000
 21092,-0.00052123,0.00126376,0.00042324,0.00026252,0.00079395,-0.00018
 458,-0.00014663,-0.00188373,-0.00217122,-0.00451467,-0.00083096,0.0000
 8836,0.00264485,0.01604331,-0.02216105,0.00836873,0.00250085,-0.001636
 85,-0.00136470,-0.05767884,0.05365419,-0.11790022,0.12712425,-0.058207
 88,0.47551927,-0.07593809,0.05151856,0.06538293,-0.01399647,0.02132147
 ,0.02771319,0.00413276,-0.00145823,-0.00064704,-0.00692422,-0.00152861
 ,-0.00251561,0.00104681,-0.00037149,-0.00021632,0.00012584,0.00121595,
 0.00244157,0.00021688,-0.00009676,-0.00058780,-0.00063265,-0.00048322,
 -0.00067155,-0.00004802,0.00051132,0.00025326,0.08396504,0.05242922,-0
 .13833241,-0.11567957,-0.00124542,0.00054071,0.00205055,-0.00036853,0.
 00014862,0.00080741,0.00000500,0.00048903,0.00014578,-0.00047812,0.000
 31611,0.00004156,-0.00024035,0.00036598,-0.00023419,-0.00005972,0.0000
 1370,0.00023252,-0.00006619,0.00002334,0.00003681,0.00002078,0.0000142
 9,-0.00000516,-0.05671992,0.14620001,0.06782564,-0.11531817,-0.1933124
 2,-0.00136015,0.00036831,-0.00176796,0.00008041,0.00008568,0.00154184,
 -0.00057369,0.00100240,-0.00040792,0.00128917,-0.00055629,0.00005389,-
 0.00042260,-0.00010615,-0.00013423,0.00015642,-0.00004260,0.00021363,0
 .00007411,0.00005325,0.00004697,0.00004826,-0.00006186,-0.00003015,-0.
 07455674,0.12669703,0.20705879,-0.06970054,-0.07059076,0.01188880,-0.0
 1313029,-0.03485242,0.00624609,0.00324203,0.00036298,0.00191432,0.0018
 2414,-0.00172652,-0.00123989,0.00004832,0.00018958,0.00022853,-0.00011
 388,0.00010606,-0.00007651,0.00010054,0.00008824,-0.00003628,0.0000239
 3,0.00010766,-0.00007984,-0.00004781,0.00003495,0.00004367,0.00283045,
 0.01059041,-0.00283940,0.07788074,-0.07100655,-0.27297455,0.03775732,-
 0.00039955,-0.00288887,0.00169979,0.00038389,0.00219960,-0.00176355,0.
 00031601,0.00058110,-0.00055834,-0.00030962,0.00028970,0.00032023,0.00
 010276,0.00034317,0.00018385,-0.00001502,0.00002998,-0.00008995,-0.000
 06080,-0.00006852,-0.00006382,-0.00002293,0.00009928,0.00003146,-0.005
 29092,-0.01664008,0.00434147,0.08083776,0.29694010,0.01268717,0.036841
 33,-0.05283435,-0.00029076,0.00202985,-0.00243591,0.00014452,-0.001320
 70,0.00084848,0.00007606,0.00148153,0.00023023,0.00027769,-0.00074259,
 -0.00045412,0.00009770,-0.00015882,0.00005241,0.00004762,-0.00004728,-
 0.00013350,0.00001366,-0.00001171,0.00001733,-0.00000058,-0.00003435,-
 0.00001990,-0.00792709,-0.02247559,0.00456029,-0.01390908,-0.04198860,
 0.05213210,-0.08723825,0.03140389,-0.08949114,-0.00601117,0.01128473,-
 0.02876652,-0.01021101,0.00140834,-0.00270199,-0.00012996,0.00093624,-
 0.00172026,0.00143315,-0.00115411,0.00105600,-0.00032524,0.00003520,-0
 .00053735,-0.00002081,0.00001630,0.00090232,0.00001521,0.00010974,0.00
 007579,0.00010130,-0.00013023,0.00003022,0.00429534,-0.00475245,0.0100
 6270,0.00375809,-0.00278344,0.00920595,0.09349432,0.03225731,-0.071539
 40,0.07254969,-0.00038894,-0.00170626,-0.00176154,-0.00048871,0.001707
 10,-0.00022163,0.00050729,-0.00024564,0.00094831,-0.00081775,0.0000547
 3,-0.00032219,0.00007298,0.00002088,-0.00004827,-0.00011508,0.00000165
 ,-0.00015208,0.00003002,-0.00004113,0.00006591,-0.00003795,0.00002387,
 -0.00003638,-0.00887116,0.00629172,-0.01669371,0.01252881,-0.00942778,
 0.02675081,-0.03414920,0.07415794,-0.09290865,0.07379830,-0.25266784,-
 0.00039561,-0.00043983,0.00070890,0.00070250,-0.00027808,0.00160802,-0
 .00079752,-0.00012375,-0.00027643,0.00244071,-0.00081913,-0.00199333,-
 0.00007377,0.00026731,-0.00000064,-0.00014357,-0.00000133,0.00011284,-
 0.00000388,-0.00011040,-0.00010893,-0.00004176,0.00010128,0.00004815,-
 0.00878569,0.00812138,-0.01796581,-0.00098972,0.00037706,-0.00329226,0
 .10074344,-0.08032938,0.27362380,-0.01216097,-0.03167366,0.00373651,-0
 .07347625,-0.07507724,0.01045494,0.00510803,0.01431505,-0.00648282,0.0
 0371609,0.01351580,0.00112370,-0.00038027,-0.00023934,-0.00100522,0.00
 134882,0.00102520,-0.00084761,-0.00022288,-0.00014782,0.00016114,0.000
 02126,-0.00002467,0.00012483,0.00002160,-0.00012384,-0.00005560,0.0015
 3723,0.00044861,0.00030855,-0.00650909,-0.00020899,0.00026570,0.001053
 43,0.00041581,-0.00039016,0.08070889,-0.00035377,-0.00031486,-0.000810
 76,-0.07122717,-0.26940470,0.02224999,-0.00062228,-0.01005013,0.009862
 39,-0.00547137,-0.02259309,0.00139157,0.00003610,0.00299850,-0.0003440
 9,-0.00138068,0.00012257,0.00088087,0.00054470,0.00042125,-0.00026785,
 0.00024468,0.00039549,-0.00027237,-0.00025266,0.00011132,0.00014614,-0
 .00030561,0.00072020,0.00024341,0.00032109,0.00143384,-0.00024682,-0.0
 0076550,0.00014627,-0.00012873,0.07509122,0.29602881,0.00119091,0.0006
 2722,0.00125858,0.00624508,0.01264161,-0.04740818,0.00630640,0.0367360
 2,-0.01689190,-0.00526953,-0.02502151,0.00091250,0.00051373,0.00059249
 ,0.00311199,-0.00162717,0.00002048,0.00084698,-0.00004303,0.00011278,0
 .00052936,-0.00005359,0.00005036,-0.00012470,-0.00004813,0.00015986,0.
 00008748,-0.00017073,0.00059377,0.00003540,0.00000038,0.00009141,0.000
 87605,0.00034755,-0.00017472,0.00036726,-0.00664062,-0.02878206,0.0659
 3528,0.00217835,0.00351030,-0.00048682,0.00642158,0.01642115,-0.007825
 66,-0.12195417,-0.20393581,0.05214095,-0.00041209,-0.00065490,0.000443
 46,-0.00040486,0.00033041,-0.00058056,0.00025086,-0.00060622,0.0009107
 7,-0.00013183,0.00231347,-0.00060492,-0.00003709,0.00008246,0.00001968
 ,0.00001468,0.00003452,-0.00005622,-0.00031612,0.00029507,0.00005780,-
 0.00025691,-0.00159492,-0.00033014,-0.00032904,-0.00068452,0.00023870,
 -0.00079597,0.00222179,-0.00345835,0.11704421,0.00019239,0.00259383,-0
 .00238850,-0.00606639,-0.01475373,0.00195017,-0.18213812,-0.36947430,0
 .12775375,-0.00064489,0.00317949,-0.00035597,0.00017271,-0.00044217,-0
 .00122493,0.00009350,-0.00011900,-0.00006319,0.00100745,-0.00116236,-0
 .00083854,0.00001079,0.00014574,0.00001225,0.00001682,-0.00017393,-0.0
 0003947,0.00043680,-0.00052432,0.00011283,0.00087162,-0.00028633,0.000
 24106,-0.00099855,0.00027776,-0.00043082,0.00190269,0.00076983,0.00357
 837,0.18687143,0.37872703,0.00045090,0.00002375,0.00235107,0.01580133,
 0.03687896,-0.01602099,0.02651260,0.09301093,-0.06262805,0.00076686,0.
 00286236,-0.00083484,-0.00024100,-0.00123105,0.00040831,0.00023628,0.0
 0033582,-0.00046682,-0.00079374,-0.00052585,0.00053814,0.00004146,-0.0
 0027360,-0.00025901,-0.00015028,0.00020862,0.00017289,-0.00005508,-0.0
 0044838,0.00001236,-0.00127675,-0.00056609,0.00016970,0.00066550,-0.00
 055365,-0.00002579,-0.00228003,0.00040710,-0.00474054,-0.04148497,-0.1
 2909714,0.08173760,0.00122169,0.00079107,-0.00040034,0.00323989,0.0125
 5143,0.00067249,-0.00027597,-0.00058932,-0.00073197,-0.06993201,-0.072
 07073,0.00885850,0.00483158,0.01647342,-0.00583343,-0.01259637,-0.0311
 9428,0.00602698,0.00310898,0.00234851,0.00006677,0.00223269,-0.0022926
 1,-0.00126786,-0.00042726,0.00113010,-0.00007384,0.00003784,-0.0002121
 7,-0.00005479,-0.00003024,-0.00030772,0.00018157,-0.00000385,0.0000775
 7,-0.00005038,-0.00042744,0.00159142,0.00154035,0.00020485,-0.00035706
 ,-0.00011080,0.07640742,-0.00100854,0.00063244,0.00051740,-0.00536779,
 -0.02038651,0.00167909,-0.00010136,0.00272774,-0.00052556,-0.06728007,
 -0.27603526,0.02142152,-0.00024567,-0.01064602,0.00854069,-0.00060990,
 -0.00202671,0.00097879,-0.00027254,0.00113272,-0.00140561,0.00052303,0
 .00028498,-0.00051217,-0.00055006,0.00052050,0.00026188,0.00009509,0.0
 0046546,-0.00007259,0.00100928,0.00051901,-0.00034173,-0.00005917,0.00
 003504,-0.00001608,0.00155426,-0.00099497,-0.00242825,0.00005049,-0.00
 027661,-0.00124391,0.07110283,0.30262925,-0.00135151,0.00031089,0.0007
 9196,-0.00566624,-0.02559545,0.00180005,0.00022692,0.00132749,0.002797
 45,0.00571339,0.01092957,-0.04803798,0.00549260,0.03638604,-0.01306226
 ,0.00168164,0.00263022,0.00035139,0.00034120,-0.00050725,0.00077026,0.
 00014337,0.00092304,0.00031038,-0.00005239,-0.00040246,-0.00000175,-0.
 00015959,0.00028569,-0.00000269,0.00032640,0.00049551,-0.00001876,0.00
 021171,-0.00002062,-0.00003493,0.00182966,-0.00284235,-0.00357602,0.00
 024237,0.00028444,-0.00066179,-0.00671919,-0.02780177,0.06352321,-0.00
 013940,0.00003230,0.00058723,0.00056476,-0.00104786,0.00068930,-0.0007
 6602,0.00056579,-0.00059947,0.00342715,0.01899867,-0.00673301,-0.07062
 164,-0.16927785,0.01940639,0.00165264,0.00530651,-0.00272785,-0.000475
 82,-0.00145210,0.00189670,-0.00117648,0.00061246,-0.00011628,0.0006148
 5,-0.00056236,0.00013615,-0.00001756,0.00007885,-0.00006584,-0.0000422
 1,0.00020816,-0.00033827,-0.00071041,-0.00027520,0.00021364,0.00029230
 ,-0.00003946,0.00020578,0.00005610,-0.00008301,-0.00002376,-0.00083890
 ,0.00140263,-0.00251802,0.06801209,0.00002105,-0.00024395,-0.00012473,
 -0.00059687,0.00354620,-0.00062279,0.00034591,-0.00032825,-0.00115848,
 -0.00554418,-0.01667705,0.00134842,-0.14344358,-0.43174536,0.09808744,
 0.00042183,0.00139823,-0.00167143,-0.00120320,0.00065682,-0.00088995,0
 .00049502,-0.00068232,0.00063772,-0.00040520,0.00056130,-0.00025361,0.
 00007696,-0.00000713,-0.00007051,0.00000699,-0.00005521,0.00000589,-0.
 00008533,0.00015279,0.00010638,-0.00056281,-0.00012145,0.00064682,-0.0
 0004891,-0.00021751,-0.00006754,0.00200267,0.00095983,0.00334063,0.147
 29574,0.44330561,0.00028359,-0.00023918,-0.00016568,0.00089257,0.00362
 321,-0.00093099,-0.00007679,-0.00145787,0.00095529,0.01147234,0.040434
 99,-0.01323912,0.00051300,0.05893357,-0.04553196,0.00000323,0.00060085
 ,0.00105538,0.00069856,-0.00087982,0.00002813,0.00017689,-0.00018607,0
 .00130336,0.00005435,0.00003541,-0.00062480,-0.00002592,-0.00005997,0.
 00010894,-0.00024542,-0.00020846,0.00022028,0.00054026,-0.00000188,-0.
 00008211,-0.00031863,-0.00148311,-0.00066843,0.00003462,0.00000723,0.0
 0034411,-0.00260005,0.00077491,-0.00499202,-0.01007534,-0.09917245,0.0
 6227667,-0.00004754,0.00016871,-0.00008451,0.00186332,-0.00161849,-0.0
 0149043,0.00038791,-0.00000761,0.00038553,-0.01581156,-0.03392465,0.00
 524078,0.00290500,0.00034236,0.00190224,-0.06003538,-0.05481212,0.0094
 7914,0.00447795,0.01910748,-0.01011652,0.00370720,0.01298887,-0.000388
 65,-0.00241440,-0.00107876,0.00182276,0.00000292,0.00013482,0.00001887
 ,0.00020774,0.00016845,-0.00007464,-0.00000040,-0.00001918,0.00000940,
 0.00002041,0.00105038,0.00025440,-0.00004417,0.00000329,-0.00017126,-0
 .00622557,0.00009527,0.00026145,-0.00042223,0.00118022,-0.00099052,0.0
 7098167,-0.00002299,0.00047620,-0.00002051,0.00065592,-0.00001147,0.00
 008149,-0.00085077,0.00069591,-0.00012391,-0.00108391,-0.00675990,0.00
 211766,0.00036170,0.00260418,-0.00217722,-0.05665864,-0.24102673,0.026
 85020,0.00574234,-0.00753119,0.01703950,-0.00428417,-0.02162159,0.0027
 0821,0.00245731,0.00174196,-0.00357312,-0.00008470,-0.00000404,0.00000
 326,0.00022996,-0.00003675,-0.00006358,-0.00007407,0.00000435,-0.00002
 319,-0.00044479,0.00082499,0.00060413,0.00021953,-0.00008787,-0.000237
 44,-0.00064124,0.00084428,0.00039583,-0.00198169,-0.00013340,-0.000753
 11,0.05599551,0.27084073,0.00005547,-0.00020096,0.00013760,-0.00052213
 ,0.00149681,-0.00030168,0.00106047,-0.00078158,-0.00003730,0.00197497,
 0.00628451,0.00064713,0.00012878,-0.00167458,0.00124659,0.00897287,0.0
 2220582,-0.05014915,-0.00318345,0.03463904,-0.02116421,-0.00483550,-0.
 02434999,0.00684968,0.00461110,0.00106241,-0.00311787,0.00000152,-0.00
 000695,-0.00001852,-0.00008509,-0.00007794,-0.00001248,0.00003430,0.00
 000008,0.00001511,0.00010533,-0.00043474,-0.00008069,-0.00023659,0.000
 02300,0.00015417,0.00054427,0.00012054,0.00004881,-0.00000727,0.000187
 83,0.00027854,-0.00655384,-0.04115588,0.06459306,0.00042016,-0.0002910
 7,0.00199525,-0.00646902,0.00577934,-0.01057602,0.00452876,-0.00394761
 ,0.00278591,0.00243928,-0.00079767,-0.00409000,-0.00185073,0.00040950,
 0.00248504,0.01120305,-0.00928170,-0.01741987,-0.16459620,0.09786934,0
 .20054507,-0.00329562,0.00218404,-0.00526479,0.00034940,0.00031809,-0.
 00016378,-0.00034515,0.00014694,0.00000177,-0.00008821,-0.00002207,-0.
 00012801,0.00087732,-0.00006587,0.00020088,0.00011909,-0.00066701,0.00
 072332,-0.00139803,-0.00130670,0.00197328,-0.00022308,-0.00031025,0.00
 000597,0.00075571,-0.00024559,-0.00028790,-0.00050926,0.00162586,-0.00
 114043,0.15791172,-0.00008397,-0.00011929,-0.00064348,0.00244426,-0.00
 037228,0.00272840,0.00067268,-0.00673578,-0.00026159,0.00033776,0.0021
 6399,0.00071330,0.00092219,-0.00090755,-0.00019622,-0.00822117,0.00309
 355,0.01285766,0.09838181,-0.06614528,-0.12055666,0.00205560,-0.002245
 52,0.00050742,-0.00020336,0.00001495,-0.00152169,0.00013530,-0.0000699
 8,-0.00001422,-0.00010666,-0.00002929,0.00006269,-0.00025575,0.0000858
 1,-0.00004206,0.00021888,-0.00048637,-0.00001629,-0.00484762,0.0017525
 2,0.00061669,-0.00040039,-0.00037121,-0.00030858,-0.00020127,0.0000423
 7,0.00022347,0.00050409,-0.00095412,0.00221586,-0.09055626,0.06994848,
 -0.00039532,0.00025798,-0.00209513,-0.00276706,-0.00107031,0.00701314,
 -0.00030230,0.00156853,-0.00942699,-0.00347245,-0.00040114,0.00158924,
 0.00326678,-0.00088656,0.00033365,0.01471541,-0.00920031,-0.03928837,0
 .16088616,-0.09538773,-0.29168086,-0.00262151,0.00275137,-0.00385734,-
 0.00054396,0.00123878,0.00179869,0.00042652,-0.00009495,-0.00003469,0.
 00011790,0.00002831,0.00009120,-0.00074727,0.00005750,-0.00004811,-0.0
 0005651,0.00041173,-0.00048719,0.00096243,0.00045239,-0.00024812,-0.00
 022981,-0.00001194,-0.00004691,-0.00045665,0.00036271,-0.00003507,0.00
 085260,-0.00102614,0.00129489,-0.17084924,0.10304440,0.33614876,-0.000
 02851,-0.00009616,-0.00012068,0.00027100,0.00007103,0.00036021,-0.0001
 7169,0.00005230,-0.00022560,0.00082279,-0.00118694,-0.00080366,-0.0018
 1932,0.00090798,0.00008395,0.00791250,0.00007032,0.00593805,-0.0004278
 9,0.00111581,0.00279721,-0.08059618,0.02256828,-0.08379820,-0.01709122
 ,0.00742903,-0.02139766,0.00005582,0.00000217,-0.00003040,-0.00000396,
 0.00001140,-0.00000206,-0.00006016,0.00002308,0.00001745,0.00002443,-0
 .00006454,-0.00002841,-0.00000455,-0.00000687,0.00001896,-0.00023975,-
 0.00006225,-0.00009203,-0.00011271,0.00035388,0.00012675,-0.00022567,0
 .00059493,0.00007624,0.00076824,0.00008917,0.00042405,0.08347464,0.000
 02927,-0.00003680,-0.00000824,0.00015354,0.00009467,-0.00007528,0.0001
 8974,-0.00007781,0.00009054,-0.00016742,-0.00013531,-0.00110070,0.0006
 3379,-0.00053385,0.00053840,-0.00359519,0.00843042,-0.01263947,0.00240
 858,-0.00132972,-0.00394810,0.02101294,-0.06269747,0.04474187,0.012062
 88,-0.01434870,0.02789666,0.00001429,-0.00000698,0.00000897,-0.0000052
 5,-0.00000148,0.00000271,0.00003601,-0.00000650,0.00000056,-0.00000455
 ,-0.00002584,-0.00000243,-0.00002032,-0.00000814,0.00002385,-0.0000049
 0,-0.00003223,0.00007016,0.00040669,-0.00034738,-0.00029384,-0.0008896
 2,0.00067454,0.00176238,-0.00078795,0.00075052,-0.00075129,-0.04275965
 ,0.06559112,0.00002537,-0.00001036,-0.00007630,0.00020535,0.00013506,-
 0.00025471,0.00055982,-0.00020644,0.00034882,-0.00165294,0.00043317,-0
 .00241939,-0.00154577,0.00053727,0.00301405,-0.01013162,0.00829667,-0.
 01522354,0.00240432,-0.00252635,-0.00378295,-0.08333248,0.04652671,-0.
 27217213,-0.00394583,0.00678898,0.00456806,0.00004654,-0.00000690,0.00
 003150,0.00000834,-0.00001067,-0.00000423,0.00011689,-0.00005448,0.000
 01158,-0.00004291,0.00002475,0.00004905,-0.00006632,0.00001024,0.00003
 425,0.00022552,0.00004068,-0.00000208,0.00046063,-0.00059875,-0.000325
 68,0.00023712,-0.00145898,0.00020657,-0.00169467,0.00030341,-0.0002548
 2,0.09929314,-0.05623089,0.28475587,0.00002614,0.00009546,0.00009651,-
 0.00066389,0.00004464,-0.00030672,0.00066142,-0.00024044,-0.00014261,-
 0.00062983,0.00125813,0.00143160,0.00016566,-0.00019152,0.00023346,-0.
 00770882,-0.00565244,-0.00112730,0.00032497,-0.00090810,-0.00022375,-0
 .01298610,0.01291574,-0.03571538,-0.06200965,0.00909411,-0.06794800,-0
 .00002867,-0.00000899,-0.00002009,0.00000716,-0.00000589,0.00000299,0.
 00001215,0.00000069,0.00001398,0.00000129,0.00004866,0.00001164,-0.000
 08578,0.00002210,0.00012048,-0.00006450,0.00003474,0.00008228,-0.00005
 222,-0.00006460,-0.00017558,0.00118205,-0.00175609,-0.00100102,-0.0005
 9742,-0.00088528,0.00079025,0.00745217,0.01128712,-0.00117052,0.074993
 87,-0.00003648,0.00020212,0.00016448,-0.00039053,-0.00040530,-0.000020
 88,-0.00088808,0.00027287,0.00025737,0.00062150,0.00142869,0.00197793,
 -0.00017103,0.00000380,-0.00101748,-0.00568813,-0.00627202,0.00422495,
 -0.00065611,-0.00133994,0.00098325,0.02042262,-0.01073317,0.03728829,0
 .00049398,-0.04092246,0.00749999,-0.00011511,-0.00000423,0.00001950,-0
 .00000379,-0.00002691,0.00001589,-0.00002262,0.00000679,-0.00002948,0.
 00002019,0.00001834,-0.00003006,0.00004261,0.00008007,-0.00012344,0.00
 000139,0.00001828,0.00009898,0.00001301,-0.00006415,0.00010212,0.00061
 098,-0.00054009,-0.00131565,-0.00005336,0.00058448,-0.00134331,0.01088
 702,0.00404691,-0.00199311,-0.02508804,0.05364594,-0.00003779,-0.00003
 901,-0.00018033,0.00047879,-0.00017015,0.00038634,-0.00056781,0.000226
 85,0.00009786,-0.00021271,0.00007432,-0.00118123,-0.00060757,0.0001074
 9,0.00001459,0.00379139,-0.00211389,-0.00084189,0.00162567,-0.00311308
 ,0.00023475,-0.00200182,-0.00030290,-0.00904685,-0.10532347,0.05113856
 ,-0.36522873,0.00005364,-0.00000084,0.00001076,0.00000353,0.00000100,0
 .00000745,-0.00002812,-0.00000176,0.00000052,0.00000975,-0.00000507,-0
 .00003227,0.00007977,0.00001283,-0.00003664,-0.00004398,0.00002412,0.0
 0004368,0.00006596,-0.00009359,0.00002519,-0.00059393,0.00081281,-0.00
 059025,0.00089823,0.00028751,-0.00076595,-0.00263730,-0.00008586,0.001
 49606,0.10504777,-0.04675933,0.37558694\\-0.00002757,0.00001374,-0.000
 01474,0.00002992,-0.00000637,0.00003978,-0.00001975,0.00000469,-0.0000
 4701,0.00000608,0.00000553,-0.00000339,-0.00000424,0.00000052,-0.00001
 207,0.00001805,-0.00000754,0.00004638,-0.00002257,0.00000499,-0.000014
 51,0.00001602,-0.00002265,-0.00004064,-0.00000641,0.00002366,-0.000001
 12,0.00001392,-0.00000036,0.00000397,0.00000006,-0.00000489,-0.0000058
 2,0.00000052,-0.00000218,0.00000440,0.00000336,0.00000418,-0.00001138,
 0.00001170,-0.00001100,0.00000498,-0.00000931,-0.00000391,0.00000315,-
 0.00000914,0.00000311,0.00000436,-0.00000726,0.00001147,-0.00001333,0.
 00001836,-0.00000248,0.00003541,-0.00001451,0.00000503,0.00000318,0.00
 000276,-0.00001556,0.00001840\\\@


 ONE OF THE BENEFITS OF A COLLEGE EDUCATION
 IS TO SHOW THE BOY ITS LITTLE AVAIL 
                                    EMERSON IN 'CULTURE'
 Job cpu time:       0 days  2 hours 19 minutes 31.2 seconds.
 Elapsed time:       0 days  0 hours 34 minutes 56.9 seconds.
 File lengths (MBytes):  RWF=    151 Int=      0 D2E=      0 Chk=      9 Scr=      1
 Normal termination of Gaussian 16 at Mon Jul  4 00:06:12 2022.
### All Done ###
