### Starting Gaussian ###
 Entering Gaussian System, Link 0=g16
 Initial command:
 /cluster/software/gaussian/gaussian-16-A.03/avx2/g16/l1.exe "/local/scratch/ks29c/Gau-8766.inp" -scrdir="/local/scratch/ks29c/"
 Entering Link 1 = /cluster/software/gaussian/gaussian-16-A.03/avx2/g16/l1.exe PID=      8767.
  
 Copyright (c) 1988,1990,1992,1993,1995,1998,2003,2009,2016,
            Gaussian, Inc.  All Rights Reserved.
  
 This is part of the Gaussian(R) 16 program.  It is based on
 the Gaussian(R) 09 system (copyright 2009, Gaussian, Inc.),
 the Gaussian(R) 03 system (copyright 2003, Gaussian, Inc.),
 the Gaussian(R) 98 system (copyright 1998, Gaussian, Inc.),
 the Gaussian(R) 94 system (copyright 1995, Gaussian, Inc.),
 the Gaussian 92(TM) system (copyright 1992, Gaussian, Inc.),
 the Gaussian 90(TM) system (copyright 1990, Gaussian, Inc.),
 the Gaussian 88(TM) system (copyright 1988, Gaussian, Inc.),
 the Gaussian 86(TM) system (copyright 1986, Carnegie Mellon
 University), and the Gaussian 82(TM) system (copyright 1983,
 Carnegie Mellon University). Gaussian is a federally registered
 trademark of Gaussian, Inc.
  
 This software contains proprietary and confidential information,
 including trade secrets, belonging to Gaussian, Inc.
  
 This software is provided under written license and may be
 used, copied, transmitted, or stored only in accord with that
 written license.
  
 The following legend is applicable only to US Government
 contracts under FAR:
  
                    RESTRICTED RIGHTS LEGEND
  
 Use, reproduction and disclosure by the US Government is
 subject to restrictions as set forth in subparagraphs (a)
 and (c) of the Commercial Computer Software - Restricted
 Rights clause in FAR 52.227-19.
  
 Gaussian, Inc.
 340 Quinnipiac St., Bldg. 40, Wallingford CT 06492
  
  
 ---------------------------------------------------------------
 Warning -- This program may not be used in any manner that
 competes with the business of Gaussian, Inc. or will provide
 assistance to any competitor of Gaussian, Inc.  The licensee
 of this program is prohibited from giving any competitor of
 Gaussian, Inc. access to this program.  By using this program,
 the user acknowledges that Gaussian, Inc. is engaged in the
 business of creating and licensing software in the field of
 computational chemistry and represents and warrants to the
 licensee that it is not a competitor of Gaussian, Inc. and that
 it will not use this program in any manner prohibited above.
 ---------------------------------------------------------------
  

 Cite this work as:
 Gaussian 16, Revision A.03,
 M. J. Frisch, G. W. Trucks, H. B. Schlegel, G. E. Scuseria, 
 M. A. Robb, J. R. Cheeseman, G. Scalmani, V. Barone, 
 G. A. Petersson, H. Nakatsuji, X. Li, M. Caricato, A. V. Marenich, 
 J. Bloino, B. G. Janesko, R. Gomperts, B. Mennucci, H. P. Hratchian, 
 J. V. Ortiz, A. F. Izmaylov, J. L. Sonnenberg, D. Williams-Young, 
 F. Ding, F. Lipparini, F. Egidi, J. Goings, B. Peng, A. Petrone, 
 T. Henderson, D. Ranasinghe, V. G. Zakrzewski, J. Gao, N. Rega, 
 G. Zheng, W. Liang, M. Hada, M. Ehara, K. Toyota, R. Fukuda, 
 J. Hasegawa, M. Ishida, T. Nakajima, Y. Honda, O. Kitao, H. Nakai, 
 T. Vreven, K. Throssell, J. A. Montgomery, Jr., J. E. Peralta, 
 F. Ogliaro, M. J. Bearpark, J. J. Heyd, E. N. Brothers, K. N. Kudin, 
 V. N. Staroverov, T. A. Keith, R. Kobayashi, J. Normand, 
 K. Raghavachari, A. P. Rendell, J. C. Burant, S. S. Iyengar, 
 J. Tomasi, M. Cossi, J. M. Millam, M. Klene, C. Adamo, R. Cammi, 
 J. W. Ochterski, R. L. Martin, K. Morokuma, O. Farkas, 
 J. B. Foresman, and D. J. Fox, Gaussian, Inc., Wallingford CT, 2016.
 
 ******************************************
 Gaussian 16:  ES64L-G16RevA.03 25-Dec-2016
                 3-Jul-2022 
 ******************************************
 %chk=CCtCCpCtNpNOC.chk
 %NProcShared=20
 Will use up to   20 processors via shared memory.
 -----------------------------
 # opt freq b3lyp/6-31g(2df,p)
 -----------------------------
 1/18=20,19=15,26=3,38=1/1,3;
 2/9=110,12=2,17=6,18=5,40=1/2;
 3/5=1,6=6,7=104,11=2,25=1,30=1,71=1,74=-5/1,2,3;
 4//1;
 5/5=2,38=5/2;
 6/7=2,8=2,9=2,10=2,28=1/1;
 7//1,2,3,16;
 1/18=20,19=15,26=3/3(2);
 2/9=110/2;
 99//99;
 2/9=110/2;
 3/5=1,6=6,7=104,11=2,25=1,30=1,71=1,74=-5/1,2,3;
 4/5=5,16=3,69=1/1;
 5/5=2,38=5/2;
 7//1,2,3,16;
 1/18=20,19=15,26=3/3(-5);
 2/9=110/2;
 6/7=2,8=2,9=2,10=2,19=2,28=1/1;
 99/9=1/99;
 -------------------
 Title Card Required
 -------------------
 Symbolic Z-matrix:
 Charge =  0 Multiplicity = 1
 C                     1.03225  -0.05865  -0.07429 
 C                     2.55225  -0.05865  -0.07429 
 C                     3.85611  -0.05865  -0.07429 
 C                     5.37611  -0.05865  -0.07429 
 C                     5.88278  -0.3854    1.32103 
 N                     6.3031   -0.65647   2.47856 
 N                     5.80038  -1.06422  -1.07198 
 O                     7.25061  -0.95142  -1.18003 
 C                     7.73023  -2.04678  -1.96089 
 H                     0.65917  -1.06693  -0.27435 
 H                     0.65912   0.61872  -0.84745 
 H                     0.65914   0.2722    0.89893 
 H                     5.73256   0.93559  -0.36895 
 H                     5.49049  -0.7205   -1.98457 
 H                     8.82202  -2.04772  -1.92427 
 H                     7.41563  -1.90806  -3.00026 
 H                     7.36167  -3.00603  -1.58078 
 

 GradGradGradGradGradGradGradGradGradGradGradGradGradGradGradGradGradGrad
 Berny optimization.
 Initialization pass.
                           ----------------------------
                           !    Initial Parameters    !
                           ! (Angstroms and Degrees)  !
 --------------------------                            --------------------------
 ! Name  Definition              Value          Derivative Info.                !
 --------------------------------------------------------------------------------
 ! R1    R(1,2)                  1.52           estimate D2E/DX2                !
 ! R2    R(1,10)                 1.0935         estimate D2E/DX2                !
 ! R3    R(1,11)                 1.0935         estimate D2E/DX2                !
 ! R4    R(1,12)                 1.0935         estimate D2E/DX2                !
 ! R5    R(2,3)                  1.3039         estimate D2E/DX2                !
 ! R6    R(3,4)                  1.52           estimate D2E/DX2                !
 ! R7    R(4,5)                  1.52           estimate D2E/DX2                !
 ! R8    R(4,7)                  1.4787         estimate D2E/DX2                !
 ! R9    R(4,13)                 1.0965         estimate D2E/DX2                !
 ! R10   R(5,6)                  1.261          estimate D2E/DX2                !
 ! R11   R(7,8)                  1.4586         estimate D2E/DX2                !
 ! R12   R(7,14)                 1.0232         estimate D2E/DX2                !
 ! R13   R(8,9)                  1.4281         estimate D2E/DX2                !
 ! R14   R(9,15)                 1.0924         estimate D2E/DX2                !
 ! R15   R(9,16)                 1.0948         estimate D2E/DX2                !
 ! R16   R(9,17)                 1.0957         estimate D2E/DX2                !
 ! A1    A(2,1,10)             109.9479         estimate D2E/DX2                !
 ! A2    A(2,1,11)             109.9508         estimate D2E/DX2                !
 ! A3    A(2,1,12)             109.9497         estimate D2E/DX2                !
 ! A4    A(10,1,11)            108.9882         estimate D2E/DX2                !
 ! A5    A(10,1,12)            108.9881         estimate D2E/DX2                !
 ! A6    A(11,1,12)            108.9901         estimate D2E/DX2                !
 ! A7    A(3,4,5)              109.4714         estimate D2E/DX2                !
 ! A8    A(3,4,7)              106.6737         estimate D2E/DX2                !
 ! A9    A(3,4,13)             108.9697         estimate D2E/DX2                !
 ! A10   A(5,4,7)              112.1812         estimate D2E/DX2                !
 ! A11   A(5,4,13)             109.4651         estimate D2E/DX2                !
 ! A12   A(7,4,13)             109.9999         estimate D2E/DX2                !
 ! A13   A(4,7,8)              106.4191         estimate D2E/DX2                !
 ! A14   A(4,7,14)             106.6438         estimate D2E/DX2                !
 ! A15   A(8,7,14)             102.0678         estimate D2E/DX2                !
 ! A16   A(7,8,9)              108.3664         estimate D2E/DX2                !
 ! A17   A(8,9,15)             108.5406         estimate D2E/DX2                !
 ! A18   A(8,9,16)             108.9902         estimate D2E/DX2                !
 ! A19   A(8,9,17)             111.6439         estimate D2E/DX2                !
 ! A20   A(15,9,16)            108.611          estimate D2E/DX2                !
 ! A21   A(15,9,17)            108.8934         estimate D2E/DX2                !
 ! A22   A(16,9,17)            110.0988         estimate D2E/DX2                !
 ! A23   L(1,2,3,16,-1)        180.0            estimate D2E/DX2                !
 ! A24   L(2,3,4,14,-1)        180.0            estimate D2E/DX2                !
 ! A25   L(4,5,6,15,-1)        180.0            estimate D2E/DX2                !
 ! A26   L(1,2,3,16,-2)        180.0            estimate D2E/DX2                !
 ! A27   L(2,3,4,14,-2)        180.0            estimate D2E/DX2                !
 ! A28   L(4,5,6,15,-2)        180.0003         estimate D2E/DX2                !
 ! D1    D(10,1,4,5)           -88.0429         estimate D2E/DX2                !
 ! D2    D(10,1,4,7)            33.5519         estimate D2E/DX2                !
 ! D3    D(10,1,4,13)          152.2692         estimate D2E/DX2                !
 ! D4    D(11,1,4,5)           151.958          estimate D2E/DX2                !
 ! D5    D(11,1,4,7)           -86.4472         estimate D2E/DX2                !
 ! D6    D(11,1,4,13)           32.2701         estimate D2E/DX2                !
 ! D7    D(12,1,4,5)            31.9555         estimate D2E/DX2                !
 ! D8    D(12,1,4,7)           153.5503         estimate D2E/DX2                !
 ! D9    D(12,1,4,13)          -87.7324         estimate D2E/DX2                !
 ! D10   D(3,4,7,8)            173.5922         estimate D2E/DX2                !
 ! D11   D(3,4,7,14)            65.1963         estimate D2E/DX2                !
 ! D12   D(5,4,7,8)            -66.5473         estimate D2E/DX2                !
 ! D13   D(5,4,7,14)          -174.9432         estimate D2E/DX2                !
 ! D14   D(13,4,7,8)            55.5496         estimate D2E/DX2                !
 ! D15   D(13,4,7,14)          -52.8463         estimate D2E/DX2                !
 ! D16   D(4,7,8,9)            170.4627         estimate D2E/DX2                !
 ! D17   D(14,7,8,9)           -77.9236         estimate D2E/DX2                !
 ! D18   D(7,8,9,15)          -171.9553         estimate D2E/DX2                !
 ! D19   D(7,8,9,16)            69.9192         estimate D2E/DX2                !
 ! D20   D(7,8,9,17)           -51.9205         estimate D2E/DX2                !
 --------------------------------------------------------------------------------
 Trust Radius=3.00D-01 FncErr=1.00D-07 GrdErr=1.00D-06 EigMax=2.50D+02 EigMin=1.00D-04
 Number of steps in this run=     74 maximum allowed number of steps=    102.
 GradGradGradGradGradGradGradGradGradGradGradGradGradGradGradGradGradGrad

                          Input orientation:                          
 ---------------------------------------------------------------------
 Center     Atomic      Atomic             Coordinates (Angstroms)
 Number     Number       Type             X           Y           Z
 ---------------------------------------------------------------------
      1          6           0        1.032250   -0.058650   -0.074290
      2          6           0        2.552250   -0.058650   -0.074290
      3          6           0        3.856110   -0.058650   -0.074290
      4          6           0        5.376110   -0.058650   -0.074290
      5          6           0        5.882780   -0.385400    1.321030
      6          7           0        6.303100   -0.656470    2.478560
      7          7           0        5.800380   -1.064220   -1.071980
      8          8           0        7.250610   -0.951420   -1.180030
      9          6           0        7.730230   -2.046780   -1.960890
     10          1           0        0.659170   -1.066930   -0.274350
     11          1           0        0.659120    0.618720   -0.847450
     12          1           0        0.659140    0.272200    0.898930
     13          1           0        5.732560    0.935590   -0.368950
     14          1           0        5.490490   -0.720500   -1.984570
     15          1           0        8.822020   -2.047720   -1.924270
     16          1           0        7.415630   -1.908060   -3.000260
     17          1           0        7.361670   -3.006030   -1.580780
 ---------------------------------------------------------------------
                    Distance matrix (angstroms):
                    1          2          3          4          5
     1  C    0.000000
     2  C    1.520000   0.000000
     3  C    2.823860   1.303860   0.000000
     4  C    4.343860   2.823860   1.520000   0.000000
     5  C    5.057798   3.625757   2.482151   1.519999   0.000000
     6  N    5.886959   4.576386   3.586390   2.780961   1.260961
     7  N    4.974095   3.543572   2.405565   1.478703   2.488792
     8  O    6.378691   4.908593   3.679990   2.352329   2.906310
     9  C    7.237048   5.858617   4.745601   3.613004   4.116340
    10  H    1.093545   2.154160   3.358136   4.827647   5.504164
    11  H    1.093541   2.154193   3.358177   4.827691   5.744318
    12  H    1.093540   2.154178   3.358160   4.827673   5.281763
    13  H    4.813341   3.345102   2.143922   1.096537   2.150259
    14  H    4.895214   3.566577   2.599695   2.024919   3.345620
    15  H    8.249809   6.832923   5.660308   4.387838   4.683419
    16  H    7.261485   5.969429   4.965058   4.017619   4.831322
    17  H    7.142697   5.838414   4.821360   3.859924   4.180349
                    6          7          8          9         10
     6  N    0.000000
     7  N    3.609061   0.000000
     8  O    3.790785   1.458618   0.000000
     9  C    4.866043   2.340920   1.428143   0.000000
    10  H    6.292928   5.202717   6.654373   7.335149   0.000000
    11  H    6.674051   5.414356   6.784076   7.638405   1.780410
    12  H    5.933965   5.665938   7.019031   7.972236   1.780409
    13  H    3.311870   2.120870   2.554043   3.926766   5.455119
    14  H    4.536955   1.023228   1.949008   2.603078   5.136781
    15  H    5.259795   3.289982   2.055504   1.092404   8.385482
    16  H    5.729020   2.653180   2.062918   1.094763   7.334019
    17  H    4.808247   2.543055   2.096272   1.095664   7.098618
                   11         12         13         14         15
    11  H    0.000000
    12  H    1.780427   0.000000
    13  H    5.105797   5.271356   0.000000
    14  H    5.140884   5.713315   2.326254   0.000000
    15  H    8.654616   8.943439   4.567704   3.586676   0.000000
    16  H    7.527924   8.099838   4.224081   2.479534   1.776286
    17  H    7.655113   7.862548   4.433836   2.981276   1.780159
                   16         17
    16  H    0.000000
    17  H    1.795376   0.000000
 Stoichiometry    C6H8N2O
 Framework group  C1[X(C6H8N2O)]
 Deg. of freedom    45
 Full point group                 C1      NOp   1
 Largest Abelian subgroup         C1      NOp   1
 Largest concise Abelian subgroup C1      NOp   1
                         Standard orientation:                         
 ---------------------------------------------------------------------
 Center     Atomic      Atomic             Coordinates (Angstroms)
 Number     Number       Type             X           Y           Z
 ---------------------------------------------------------------------
      1          6           0       -4.051056   -0.780047    0.278625
      2          6           0       -2.609722   -0.401365   -0.020634
      3          6           0       -1.373342   -0.076530   -0.277340
      4          6           0        0.067992    0.302153   -0.576599
      5          6           0        0.345303    1.699415   -0.046359
      6          7           0        0.575353    2.858555    0.393522
      7          7           0        0.918336   -0.719665    0.070985
      8          8           0        2.287862   -0.441348   -0.346751
      9          6           0        3.168657   -1.258745    0.425035
     10          1           0       -4.117895   -1.241443    1.267810
     11          1           0       -4.413584   -1.489709   -0.470232
     12          1           0       -4.683066    0.112140    0.258726
     13          1           0        0.222821    0.285828   -1.662028
     14          1           0        0.725575   -1.605226   -0.404009
     15          1           0        4.196746   -0.952038    0.219336
     16          1           0        3.047231   -2.302385    0.117501
     17          1           0        2.976466   -1.157893    1.498986
 ---------------------------------------------------------------------
 Rotational constants (GHZ):           2.2791725           0.7918534           0.6153515
 Standard basis: 6-31G(2df,p) (6D, 7F)
 There are   319 symmetry adapted cartesian basis functions of A   symmetry.
 There are   292 symmetry adapted basis functions of A   symmetry.
   292 basis functions,   452 primitive gaussians,   319 cartesian basis functions
    33 alpha electrons       33 beta electrons
       nuclear repulsion energy       380.3741035221 Hartrees.
 NAtoms=   17 NActive=   17 NUniq=   17 SFac= 1.00D+00 NAtFMM=   60 NAOKFM=F Big=F
 Integral buffers will be    131072 words long.
 Raffenetti 2 integral format.
 Two-electron integral symmetry is turned on.
 One-electron integrals computed using PRISM.
 PrsmSu:  requested number of processors reduced to:  13 ShMem   1 Linda.
 NBasis=   292 RedAO= T EigKep=  1.11D-04  NBF=   292
 NBsUse=   292 1.00D-06 EigRej= -1.00D+00 NBFU=   292
 ExpMin= 1.61D-01 ExpMax= 5.48D+03 ExpMxC= 8.25D+02 IAcc=3 IRadAn=         5 AccDes= 0.00D+00
 Harris functional with IExCor=  402 and IRadAn=       5 diagonalized for initial guess.
 HarFok:  IExCor=  402 AccDes= 0.00D+00 IRadAn=         5 IDoV= 1 UseB2=F ITyADJ=14
 ICtDFT=  3500011 ScaDFX=  1.000000  1.000000  1.000000  1.000000
 FoFCou: FMM=F IPFlag=           0 FMFlag=      100000 FMFlg1=           0
         NFxFlg=           0 DoJE=T BraDBF=F KetDBF=T FulRan=T
         wScrn=  0.000000 ICntrl=       500 IOpCl=  0 I1Cent=   200000004 NGrid=           0
         NMat0=    1 NMatS0=      1 NMatT0=    0 NMatD0=    1 NMtDS0=    0 NMtDT0=    0
 Petite list used in FoFCou.
 Requested convergence on RMS density matrix=1.00D-08 within 128 cycles.
 Requested convergence on MAX density matrix=1.00D-06.
 Requested convergence on             energy=1.00D-06.
 No special actions if energy rises.
 Integral accuracy reduced to 1.0D-05 until final iterations.
 Initial convergence to 1.0D-05 achieved.  Increase integral accuracy.
 SCF Done:  E(RB3LYP) =  -418.003252517     A.U. after   16 cycles
            NFock= 16  Conv=0.22D-08     -V/T= 2.0101

 **********************************************************************

            Population analysis using the SCF density.

 **********************************************************************

 Orbital symmetries:
       Occupied  (A) (A) (A) (A) (A) (A) (A) (A) (A) (A) (A) (A)
                 (A) (A) (A) (A) (A) (A) (A) (A) (A) (A) (A) (A)
                 (A) (A) (A) (A) (A) (A) (A) (A) (A)
       Virtual   (A) (A) (A) (A) (A) (A) (A) (A) (A) (A) (A) (A)
                 (A) (A) (A) (A) (A) (A) (A) (A) (A) (A) (A) (A)
                 (A) (A) (A) (A) (A) (A) (A) (A) (A) (A) (A) (A)
                 (A) (A) (A) (A) (A) (A) (A) (A) (A) (A) (A) (A)
                 (A) (A) (A) (A) (A) (A) (A) (A) (A) (A) (A) (A)
                 (A) (A) (A) (A) (A) (A) (A) (A) (A) (A) (A) (A)
                 (A) (A) (A) (A) (A) (A) (A) (A) (A) (A) (A) (A)
                 (A) (A) (A) (A) (A) (A) (A) (A) (A) (A) (A) (A)
                 (A) (A) (A) (A) (A) (A) (A) (A) (A) (A) (A) (A)
                 (A) (A) (A) (A) (A) (A) (A) (A) (A) (A) (A) (A)
                 (A) (A) (A) (A) (A) (A) (A) (A) (A) (A) (A) (A)
                 (A) (A) (A) (A) (A) (A) (A) (A) (A) (A) (A) (A)
                 (A) (A) (A) (A) (A) (A) (A) (A) (A) (A) (A) (A)
                 (A) (A) (A) (A) (A) (A) (A) (A) (A) (A) (A) (A)
                 (A) (A) (A) (A) (A) (A) (A) (A) (A) (A) (A) (A)
                 (A) (A) (A) (A) (A) (A) (A) (A) (A) (A) (A) (A)
                 (A) (A) (A) (A) (A) (A) (A) (A) (A) (A) (A) (A)
                 (A) (A) (A) (A) (A) (A) (A) (A) (A) (A) (A) (A)
                 (A) (A) (A) (A) (A) (A) (A) (A) (A) (A) (A) (A)
                 (A) (A) (A) (A) (A) (A) (A) (A) (A) (A) (A) (A)
                 (A) (A) (A) (A) (A) (A) (A) (A) (A) (A) (A) (A)
                 (A) (A) (A) (A) (A) (A) (A)
 The electronic state is 1-A.
 Alpha  occ. eigenvalues --  -19.17688 -14.39395 -14.35524 -10.30278 -10.25056
 Alpha  occ. eigenvalues --  -10.23337 -10.23008 -10.22985 -10.22060  -1.06975
 Alpha  occ. eigenvalues --   -0.89287  -0.85511  -0.78016  -0.74634  -0.68263
 Alpha  occ. eigenvalues --   -0.67276  -0.55713  -0.51779  -0.51632  -0.48924
 Alpha  occ. eigenvalues --   -0.45886  -0.44573  -0.44311  -0.44264  -0.42379
 Alpha  occ. eigenvalues --   -0.37341  -0.36272  -0.31940  -0.31387  -0.30377
 Alpha  occ. eigenvalues --   -0.26700  -0.26364  -0.24531
 Alpha virt. eigenvalues --   -0.02000  -0.00306   0.01555   0.03071   0.07723
 Alpha virt. eigenvalues --    0.09015   0.09194   0.10585   0.13107   0.14933
 Alpha virt. eigenvalues --    0.15235   0.15313   0.16250   0.17234   0.17448
 Alpha virt. eigenvalues --    0.18742   0.22299   0.24266   0.32722   0.34105
 Alpha virt. eigenvalues --    0.41172   0.44701   0.45324   0.47993   0.49109
 Alpha virt. eigenvalues --    0.50709   0.51339   0.52104   0.52933   0.53686
 Alpha virt. eigenvalues --    0.57963   0.60194   0.60803   0.62598   0.63019
 Alpha virt. eigenvalues --    0.64941   0.66201   0.66788   0.67584   0.68135
 Alpha virt. eigenvalues --    0.69520   0.70942   0.71499   0.72159   0.73184
 Alpha virt. eigenvalues --    0.73235   0.74352   0.75333   0.77127   0.77465
 Alpha virt. eigenvalues --    0.78155   0.79200   0.79959   0.80260   0.81568
 Alpha virt. eigenvalues --    0.82522   0.83313   0.85209   0.87696   0.89396
 Alpha virt. eigenvalues --    0.91805   0.92731   0.94049   0.97085   1.00894
 Alpha virt. eigenvalues --    1.02287   1.03005   1.09009   1.09828   1.12330
 Alpha virt. eigenvalues --    1.13276   1.16834   1.19235   1.24780   1.26115
 Alpha virt. eigenvalues --    1.27928   1.30149   1.31523   1.35301   1.37438
 Alpha virt. eigenvalues --    1.39707   1.40486   1.42473   1.43435   1.44487
 Alpha virt. eigenvalues --    1.47732   1.49192   1.52889   1.54296   1.58653
 Alpha virt. eigenvalues --    1.64036   1.67028   1.69538   1.71644   1.72915
 Alpha virt. eigenvalues --    1.75056   1.76805   1.78681   1.80108   1.81628
 Alpha virt. eigenvalues --    1.82489   1.85523   1.87945   1.91484   1.91672
 Alpha virt. eigenvalues --    1.94355   1.96833   1.99427   2.18259   2.21762
 Alpha virt. eigenvalues --    2.26586   2.27397   2.29198   2.30569   2.33358
 Alpha virt. eigenvalues --    2.40561   2.42280   2.45101   2.49722   2.50892
 Alpha virt. eigenvalues --    2.55096   2.58934   2.61819   2.63202   2.66840
 Alpha virt. eigenvalues --    2.67935   2.69097   2.70759   2.71935   2.74223
 Alpha virt. eigenvalues --    2.75067   2.79006   2.80671   2.82166   2.84315
 Alpha virt. eigenvalues --    2.86175   2.88372   2.89781   2.91229   2.91972
 Alpha virt. eigenvalues --    2.94017   2.94959   2.98439   2.99697   3.02157
 Alpha virt. eigenvalues --    3.03732   3.06554   3.09754   3.13125   3.18822
 Alpha virt. eigenvalues --    3.21803   3.28313   3.32503   3.35183   3.36588
 Alpha virt. eigenvalues --    3.38417   3.40456   3.42587   3.44488   3.49900
 Alpha virt. eigenvalues --    3.51947   3.52335   3.61124   3.63100   3.64535
 Alpha virt. eigenvalues --    3.64830   3.65818   3.67174   3.67972   3.69171
 Alpha virt. eigenvalues --    3.69437   3.72461   3.78784   3.81394   3.83595
 Alpha virt. eigenvalues --    3.84491   3.86256   3.90081   3.91857   3.92197
 Alpha virt. eigenvalues --    3.95935   4.00235   4.02211   4.04170   4.06990
 Alpha virt. eigenvalues --    4.09350   4.12717   4.14354   4.15899   4.18055
 Alpha virt. eigenvalues --    4.21208   4.22276   4.22521   4.25996   4.27052
 Alpha virt. eigenvalues --    4.29683   4.30156   4.32691   4.33891   4.35361
 Alpha virt. eigenvalues --    4.36531   4.37461   4.40763   4.41575   4.42195
 Alpha virt. eigenvalues --    4.43742   4.46285   4.48449   4.51859   4.57034
 Alpha virt. eigenvalues --    4.58326   4.63495   4.67289   4.68644   4.70199
 Alpha virt. eigenvalues --    4.71748   4.72156   4.72578   4.74871   4.76711
 Alpha virt. eigenvalues --    4.78156   4.81336   4.83060   4.86584   4.90284
 Alpha virt. eigenvalues --    5.04251   5.06083   5.09345   5.10104   5.13661
 Alpha virt. eigenvalues --    5.18850   5.22316   5.27109   5.30193   5.31052
 Alpha virt. eigenvalues --    5.35338   5.40569   5.50622   5.68370   5.80865
 Alpha virt. eigenvalues --    5.81626   5.89533   5.93699   6.01557   6.11143
 Alpha virt. eigenvalues --    6.15246   6.61284   6.97775   9.72035  10.10984
 Alpha virt. eigenvalues --   10.76204  11.09605  11.23346  11.32781  11.50802
 Alpha virt. eigenvalues --   11.80824  12.60906  13.39590  14.46261
          Condensed to atoms (all electrons):
               1          2          3          4          5          6
     1  C    4.983107   0.427232  -0.045762  -0.000735   0.000012  -0.000002
     2  C    0.427232   4.814179   0.822775  -0.045032  -0.005075  -0.000709
     3  C   -0.045762   0.822775   4.941167   0.336976  -0.034483  -0.007107
     4  C   -0.000735  -0.045032   0.336976   5.025315   0.322205  -0.029435
     5  C    0.000012  -0.005075  -0.034483   0.322205   4.519589   0.910575
     6  N   -0.000002  -0.000709  -0.007107  -0.029435   0.910575   6.509332
     7  N    0.000031  -0.000699  -0.039800   0.310844  -0.040191  -0.001460
     8  O   -0.000000  -0.000037   0.002188  -0.032137   0.007561  -0.001157
     9  C   -0.000000  -0.000012  -0.000560   0.002569   0.000513   0.000021
    10  H    0.378264  -0.024321  -0.001514   0.000031   0.000000   0.000000
    11  H    0.376363  -0.023666  -0.001489  -0.000038  -0.000003  -0.000000
    12  H    0.375553  -0.022082  -0.000318  -0.000001   0.000006   0.000000
    13  H   -0.000054  -0.003740  -0.038746   0.385888  -0.052862   0.000439
    14  H    0.000029   0.004404   0.014041  -0.055295   0.006592  -0.000062
    15  H    0.000000  -0.000000   0.000000  -0.000274  -0.000012   0.000002
    16  H    0.000000   0.000003   0.000072  -0.000374   0.000051  -0.000001
    17  H    0.000000   0.000002   0.000077   0.001071  -0.000338   0.000011
               7          8          9         10         11         12
     1  C    0.000031  -0.000000  -0.000000   0.378264   0.376363   0.375553
     2  C   -0.000699  -0.000037  -0.000012  -0.024321  -0.023666  -0.022082
     3  C   -0.039800   0.002188  -0.000560  -0.001514  -0.001489  -0.000318
     4  C    0.310844  -0.032137   0.002569   0.000031  -0.000038  -0.000001
     5  C   -0.040191   0.007561   0.000513   0.000000  -0.000003   0.000006
     6  N   -0.001460  -0.001157   0.000021   0.000000  -0.000000   0.000000
     7  N    6.549713   0.182331  -0.062512   0.000002  -0.000000  -0.000001
     8  O    0.182331   7.859114   0.351312  -0.000000  -0.000000   0.000000
     9  C   -0.062512   0.351312   4.804126   0.000000   0.000000  -0.000000
    10  H    0.000002  -0.000000   0.000000   0.538803  -0.029976  -0.028594
    11  H   -0.000000  -0.000000   0.000000  -0.029976   0.545212  -0.029111
    12  H   -0.000001   0.000000  -0.000000  -0.028594  -0.029111   0.534798
    13  H   -0.043680   0.007815   0.000223  -0.000002   0.000009   0.000001
    14  H    0.317105  -0.032825  -0.002947  -0.000002  -0.000002   0.000001
    15  H    0.003814  -0.017524   0.382231  -0.000000  -0.000000   0.000000
    16  H   -0.003822  -0.034910   0.372062  -0.000000   0.000000  -0.000000
    17  H    0.008204  -0.028177   0.369732   0.000000  -0.000000  -0.000000
              13         14         15         16         17
     1  C   -0.000054   0.000029   0.000000   0.000000   0.000000
     2  C   -0.003740   0.004404  -0.000000   0.000003   0.000002
     3  C   -0.038746   0.014041   0.000000   0.000072   0.000077
     4  C    0.385888  -0.055295  -0.000274  -0.000374   0.001071
     5  C   -0.052862   0.006592  -0.000012   0.000051  -0.000338
     6  N    0.000439  -0.000062   0.000002  -0.000001   0.000011
     7  N   -0.043680   0.317105   0.003814  -0.003822   0.008204
     8  O    0.007815  -0.032825  -0.017524  -0.034910  -0.028177
     9  C    0.000223  -0.002947   0.382231   0.372062   0.369732
    10  H   -0.000002  -0.000002  -0.000000  -0.000000   0.000000
    11  H    0.000009  -0.000002  -0.000000   0.000000  -0.000000
    12  H    0.000001   0.000001   0.000000  -0.000000  -0.000000
    13  H    0.596877  -0.008488   0.000031  -0.000081   0.000114
    14  H   -0.008488   0.504806  -0.000442   0.007711  -0.001512
    15  H    0.000031  -0.000442   0.558281  -0.036858  -0.028883
    16  H   -0.000081   0.007711  -0.036858   0.637563  -0.046794
    17  H    0.000114  -0.001512  -0.028883  -0.046794   0.593275
 Mulliken charges:
               1
     1  C   -0.494039
     2  C    0.056779
     3  C    0.052484
     4  C   -0.221577
     5  C    0.365859
     6  N   -0.380448
     7  N   -0.179880
     8  O   -0.263553
     9  C   -0.216758
    10  H    0.167310
    11  H    0.162701
    12  H    0.169748
    13  H    0.156257
    14  H    0.246888
    15  H    0.139633
    16  H    0.105378
    17  H    0.133219
 Sum of Mulliken charges =  -0.00000
 Mulliken charges with hydrogens summed into heavy atoms:
               1
     1  C    0.005720
     2  C    0.056779
     3  C    0.052484
     4  C   -0.065321
     5  C    0.365859
     6  N   -0.380448
     7  N    0.067007
     8  O   -0.263553
     9  C    0.161473
 Electronic spatial extent (au):  <R**2>=           1819.0307
 Charge=             -0.0000 electrons
 Dipole moment (field-independent basis, Debye):
    X=             -1.8182    Y=             -4.6907    Z=             -1.1564  Tot=              5.1619
 Quadrupole moment (field-independent basis, Debye-Ang):
   XX=            -37.4312   YY=            -60.5094   ZZ=            -52.5029
   XY=             -2.7787   XZ=             -0.2371   YZ=             -1.8933
 Traceless Quadrupole moment (field-independent basis, Debye-Ang):
   XX=             12.7166   YY=            -10.3616   ZZ=             -2.3551
   XY=             -2.7787   XZ=             -0.2371   YZ=             -1.8933
 Octapole moment (field-independent basis, Debye-Ang**2):
  XXX=            -21.8098  YYY=            -47.9736  ZZZ=             -2.1206  XYY=             -0.6779
  XXY=            -23.7652  XXZ=             12.3420  XZZ=              3.8729  YZZ=             -3.0131
  YYZ=             -7.5278  XYZ=             -1.2688
 Hexadecapole moment (field-independent basis, Debye-Ang**3):
 XXXX=          -1372.4778 YYYY=           -684.5498 ZZZZ=           -104.2245 XXXY=              2.2281
 XXXZ=             -4.2123 YYYX=            -33.0887 YYYZ=            -14.2431 ZZZX=             -6.3085
 ZZZY=             -2.8240 XXYY=           -364.3752 XXZZ=           -303.8850 YYZZ=           -116.9246
 XXYZ=             -7.6217 YYXZ=             -5.6572 ZZXY=              1.4299
 N-N= 3.803741035221D+02 E-N=-1.733400476005D+03  KE= 4.138132251706D+02
 PrsmSu:  requested number of processors reduced to:  13 ShMem   1 Linda.
 Calling FoFJK, ICntrl=      2127 FMM=F ISym2X=0 I1Cent= 0 IOpClX= 0 NMat=1 NMatS=1 NMatT=0.
 ***** Axes restored to original set *****
 -------------------------------------------------------------------
 Center     Atomic                   Forces (Hartrees/Bohr)
 Number     Number              X              Y              Z
 -------------------------------------------------------------------
      1        6           0.034270008   -0.000054504   -0.000732424
      2        6           0.124520048    0.000158717    0.000207268
      3        6          -0.128698490    0.001837171    0.001088951
      4        6          -0.025477857   -0.007704991    0.008062241
      5        6           0.056268684   -0.037225192    0.141607979
      6        7          -0.061462647    0.040303087   -0.167023075
      7        7           0.013789601   -0.006964253   -0.000118286
      8        8          -0.000018408   -0.001467868    0.004314338
      9        6          -0.007276496    0.004078147    0.004553030
     10        1           0.000155096    0.000082019    0.000211940
     11        1          -0.000129885    0.000037216    0.000180501
     12        1           0.000445857   -0.000066225   -0.000013905
     13        1           0.002670114    0.002882687    0.006318893
     14        1          -0.007034348    0.001983921    0.002871013
     15        1          -0.000328384    0.004927333    0.002783738
     16        1          -0.000210978   -0.003786516   -0.004274483
     17        1          -0.001481913    0.000979251   -0.000037720
 -------------------------------------------------------------------
 Cartesian Forces:  Max     0.167023075 RMS     0.042578667

 GradGradGradGradGradGradGradGradGradGradGradGradGradGradGradGradGradGrad
 Berny optimization.
 FormGI is forming the generalized inverse of G from B-inverse, IUseBI=4.
 Internal  Forces:  Max     0.182474349 RMS     0.031225761
 Search for a local minimum.
 Step number   1 out of a maximum of   74
 All quantities printed in internal units (Hartrees-Bohrs-Radians)
 Mixed Optimization -- RFO/linear search
 Second derivative matrix not updated -- first step.
 ITU=  0
     Eigenvalues ---    0.00230   0.00438   0.00462   0.00519   0.00651
     Eigenvalues ---    0.01320   0.02530   0.02970   0.03531   0.03531
     Eigenvalues ---    0.04838   0.05724   0.06023   0.06746   0.07403
     Eigenvalues ---    0.09749   0.10115   0.10482   0.12035   0.16000
     Eigenvalues ---    0.16000   0.16000   0.16000   0.16000   0.16000
     Eigenvalues ---    0.17069   0.23335   0.24089   0.25000   0.30367
     Eigenvalues ---    0.30367   0.30367   0.34068   0.34166   0.34268
     Eigenvalues ---    0.34406   0.34407   0.34407   0.34536   0.34719
     Eigenvalues ---    0.37138   0.41257   0.43827   0.66132   0.79315
 RFO step:  Lambda=-8.28838472D-02 EMin= 2.30000000D-03
 Linear search not attempted -- first point.
 Maximum step size (   0.300) exceeded in Quadratic search.
    -- Step size scaled by   0.871
 Iteration  1 RMS(Cart)=  0.09288857 RMS(Int)=  0.00093996
 Iteration  2 RMS(Cart)=  0.00148236 RMS(Int)=  0.00011283
 Iteration  3 RMS(Cart)=  0.00000110 RMS(Int)=  0.00011283
 Iteration  4 RMS(Cart)=  0.00000000 RMS(Int)=  0.00011283
 Variable       Old X    -DE/DX   Delta X   Delta X   Delta X     New X
                                 (Linear)    (Quad)   (Total)
    R1        2.87238  -0.03474   0.00000  -0.07830  -0.07830   2.79408
    R2        2.06650  -0.00017   0.00000  -0.00034  -0.00034   2.06616
    R3        2.06649  -0.00006   0.00000  -0.00012  -0.00012   2.06637
    R4        2.06649  -0.00018   0.00000  -0.00038  -0.00038   2.06611
    R5        2.46394  -0.15926   0.00000  -0.18644  -0.18644   2.27750
    R6        2.87238  -0.03056   0.00000  -0.06888  -0.06888   2.80350
    R7        2.87238  -0.02572   0.00000  -0.05798  -0.05798   2.81441
    R8        2.79434  -0.00737   0.00000  -0.01494  -0.01494   2.77941
    R9        2.07216   0.00178   0.00000   0.00367   0.00367   2.07582
   R10        2.38287  -0.18247   0.00000  -0.18147  -0.18147   2.20140
   R11        2.75639  -0.00944   0.00000  -0.01811  -0.01811   2.73828
   R12        1.93362   0.00024   0.00000   0.00039   0.00039   1.93402
   R13        2.69880  -0.00953   0.00000  -0.01676  -0.01676   2.68204
   R14        2.06435  -0.00024   0.00000  -0.00049  -0.00049   2.06386
   R15        2.06880   0.00364   0.00000   0.00745   0.00745   2.07625
   R16        2.07051  -0.00037   0.00000  -0.00076  -0.00076   2.06974
    A1        1.91895  -0.00007   0.00000  -0.00018  -0.00018   1.91878
    A2        1.91900   0.00055   0.00000   0.00207   0.00207   1.92107
    A3        1.91898  -0.00084   0.00000  -0.00317  -0.00318   1.91581
    A4        1.90220   0.00035   0.00000   0.00160   0.00161   1.90382
    A5        1.90220  -0.00007   0.00000  -0.00043  -0.00044   1.90176
    A6        1.90224   0.00008   0.00000   0.00014   0.00012   1.90236
    A7        1.91064   0.00241   0.00000   0.00709   0.00720   1.91783
    A8        1.86181   0.00517   0.00000   0.01664   0.01653   1.87834
    A9        1.90188  -0.00184   0.00000  -0.00086  -0.00113   1.90075
   A10        1.95793  -0.00680   0.00000  -0.02468  -0.02468   1.93325
   A11        1.91053  -0.00183   0.00000  -0.01477  -0.01472   1.89580
   A12        1.91986   0.00315   0.00000   0.01789   0.01780   1.93766
   A13        1.85736  -0.01429   0.00000  -0.03813  -0.03818   1.81918
   A14        1.86129  -0.00281   0.00000  -0.01529  -0.01513   1.84616
   A15        1.78142   0.00741   0.00000   0.02689   0.02655   1.80797
   A16        1.89135  -0.00554   0.00000  -0.01451  -0.01451   1.87684
   A17        1.89439  -0.00922   0.00000  -0.03385  -0.03386   1.86054
   A18        1.90224   0.00817   0.00000   0.03030   0.03036   1.93259
   A19        1.94855  -0.00169   0.00000  -0.00628  -0.00638   1.94218
   A20        1.89562   0.00111   0.00000   0.00446   0.00463   1.90025
   A21        1.90055   0.00355   0.00000   0.01083   0.01066   1.91121
   A22        1.92159  -0.00198   0.00000  -0.00570  -0.00573   1.91585
   A23        3.14159  -0.00065   0.00000  -0.00267  -0.00266   3.13893
   A24        3.14159  -0.00188   0.00000  -0.01123  -0.01122   3.13037
   A25        3.14159   0.00284   0.00000   0.02096   0.02096   3.16255
   A26        3.14159  -0.00055   0.00000  -0.00120  -0.00119   3.14040
   A27        3.14159  -0.00164   0.00000  -0.00788  -0.00785   3.13374
   A28        3.14160  -0.00137   0.00000  -0.01008  -0.01008   3.13152
    D1       -1.53664   0.00066   0.00000   0.00067   0.00064  -1.53600
    D2        0.58559  -0.00265   0.00000  -0.01322  -0.01319   0.57240
    D3        2.65760   0.00203   0.00000   0.01168   0.01167   2.66927
    D4        2.65217   0.00062   0.00000   0.00111   0.00109   2.65326
    D5       -1.50879  -0.00268   0.00000  -0.01277  -0.01273  -1.52152
    D6        0.56322   0.00199   0.00000   0.01212   0.01212   0.57534
    D7        0.55773   0.00065   0.00000   0.00101   0.00098   0.55871
    D8        2.67996  -0.00266   0.00000  -0.01288  -0.01285   2.66711
    D9       -1.53122   0.00202   0.00000   0.01201   0.01201  -1.51921
   D10        3.02975  -0.00056   0.00000  -0.00358  -0.00327   3.02648
   D11        1.13789  -0.00182   0.00000  -0.01171  -0.01167   1.12622
   D12       -1.16147   0.00177   0.00000   0.00150   0.00159  -1.15988
   D13       -3.05334   0.00051   0.00000  -0.00663  -0.00681  -3.06015
   D14        0.96952  -0.00301   0.00000  -0.02162  -0.02161   0.94791
   D15       -0.92234  -0.00426   0.00000  -0.02975  -0.03001  -0.95235
   D16        2.97514  -0.00053   0.00000  -0.02067  -0.02039   2.95474
   D17       -1.36002  -0.00559   0.00000  -0.03989  -0.04017  -1.40020
   D18       -3.00119   0.00068   0.00000   0.00133   0.00104  -3.00014
   D19        1.22032  -0.00000   0.00000  -0.00183  -0.00167   1.21865
   D20       -0.90618  -0.00197   0.00000  -0.01119  -0.01108  -0.91726
         Item               Value     Threshold  Converged?
 Maximum Force            0.182474     0.000450     NO 
 RMS     Force            0.031226     0.000300     NO 
 Maximum Displacement     0.295721     0.001800     NO 
 RMS     Displacement     0.093223     0.001200     NO 
 Predicted change in Energy=-4.467544D-02
 GradGradGradGradGradGradGradGradGradGradGradGradGradGradGradGradGradGrad

                          Input orientation:                          
 ---------------------------------------------------------------------
 Center     Atomic      Atomic             Coordinates (Angstroms)
 Number     Number       Type             X           Y           Z
 ---------------------------------------------------------------------
      1          6           0        1.150721   -0.056636   -0.069458
      2          6           0        2.629243   -0.068016   -0.069481
      3          6           0        3.834395   -0.078299   -0.072662
      4          6           0        5.317742   -0.087665   -0.095275
      5          6           0        5.842767   -0.431679    1.255309
      6          7           0        6.239200   -0.680526    2.322071
      7          7           0        5.741587   -1.085460   -1.089261
      8          8           0        7.179267   -0.922090   -1.167328
      9          6           0        7.693493   -2.012463   -1.916326
     10          1           0        0.770151   -1.059176   -0.282826
     11          1           0        0.780792    0.635655   -0.830758
     12          1           0        0.783404    0.261856    0.909845
     13          1           0        5.675905    0.914891   -0.365934
     14          1           0        5.410512   -0.736406   -1.992574
     15          1           0        8.781684   -1.956138   -1.842485
     16          1           0        7.404137   -1.929291   -2.972976
     17          1           0        7.348618   -2.970178   -1.512052
 ---------------------------------------------------------------------
                    Distance matrix (angstroms):
                    1          2          3          4          5
     1  C    0.000000
     2  C    1.478566   0.000000
     3  C    2.683763   1.205200   0.000000
     4  C    4.167217   2.688695   1.483549   0.000000
     5  C    4.889884   3.494862   2.433504   1.489320   0.000000
     6  N    5.656966   4.373383   3.446811   2.654078   1.164932
     7  N    4.813993   3.429552   2.384372   1.470798   2.436118
     8  O    6.188514   4.757881   3.619178   2.304525   2.809965
     9  C    7.074182   5.730475   4.693903   3.558829   3.997916
    10  H    1.093365   2.117578   3.224264   4.653987   5.337701
    11  H    1.093476   2.119307   3.226287   4.652746   5.578034
    12  H    1.093341   2.115424   3.223286   4.657538   5.118349
    13  H    4.637785   3.214987   2.112722   1.098479   2.114125
    14  H    4.722953   3.446809   2.569691   2.007290   3.290660
    15  H    8.061224   6.675409   5.579805   4.306139   4.534042
    16  H    7.144401   5.890181   4.957928   4.003223   4.749643
    17  H    6.998838   5.725037   4.773319   3.800078   4.045967
                    6          7          8          9         10
     6  N    0.000000
     7  N    3.471135   0.000000
     8  O    3.621876   1.449037   0.000000
     9  C    4.674723   2.313722   1.419275   0.000000
    10  H    6.069544   5.036487   6.471314   7.177029   0.000000
    11  H    6.439478   5.257237   6.593962   7.481739   1.781233
    12  H    5.713858   5.513190   6.828136   7.804429   1.779822
    13  H    3.176166   2.128126   2.505360   3.878631   5.288693
    14  H    4.393860   1.023437   1.960613   2.616512   4.955842
    15  H    5.043307   3.250787   2.023075   1.092147   8.211074
    16  H    5.563634   2.650378   2.079756   1.098706   7.211364
    17  H    4.601502   2.512661   2.083790   1.095260   6.959824
                   11         12         13         14         15
    11  H    0.000000
    12  H    1.780290   0.000000
    13  H    4.925055   5.098101   0.000000
    14  H    4.966556   5.552540   2.333062   0.000000
    15  H    8.470847   8.744559   4.479830   3.588185   0.000000
    16  H    7.418675   7.981950   4.227627   2.521646   1.782237
    17  H    7.523465   7.708026   4.382387   2.996146   1.786377
                   16         17
    16  H    0.000000
    17  H    1.794667   0.000000
 Stoichiometry    C6H8N2O
 Framework group  C1[X(C6H8N2O)]
 Deg. of freedom    45
 Full point group                 C1      NOp   1
 Largest Abelian subgroup         C1      NOp   1
 Largest concise Abelian subgroup C1      NOp   1
                         Standard orientation:                         
 ---------------------------------------------------------------------
 Center     Atomic      Atomic             Coordinates (Angstroms)
 Number     Number       Type             X           Y           Z
 ---------------------------------------------------------------------
      1          6           0       -3.923905   -0.752113    0.265168
      2          6           0       -2.522655   -0.377301   -0.021487
      3          6           0       -1.379576   -0.074969   -0.254884
      4          6           0        0.030466    0.279898   -0.549450
      5          6           0        0.329742    1.642070   -0.026961
      6          7           0        0.543178    2.717174    0.367580
      7          7           0        0.887061   -0.726228    0.096462
      8          8           0        2.222643   -0.406799   -0.366026
      9          6           0        3.136423   -1.172140    0.404428
     10          1           0       -3.990358   -1.220629    1.250826
     11          1           0       -4.286276   -1.455106   -0.489934
     12          1           0       -4.555353    0.140362    0.252704
     13          1           0        0.177033    0.281769   -1.638105
     14          1           0        0.676358   -1.612198   -0.370533
     15          1           0        4.136223   -0.815079    0.148124
     16          1           0        3.063267   -2.238151    0.148647
     17          1           0        2.963326   -1.035854    1.477302
 ---------------------------------------------------------------------
 Rotational constants (GHZ):           2.4928196           0.8321247           0.6534081
 Standard basis: 6-31G(2df,p) (6D, 7F)
 There are   319 symmetry adapted cartesian basis functions of A   symmetry.
 There are   292 symmetry adapted basis functions of A   symmetry.
   292 basis functions,   452 primitive gaussians,   319 cartesian basis functions
    33 alpha electrons       33 beta electrons
       nuclear repulsion energy       390.6846277558 Hartrees.
 NAtoms=   17 NActive=   17 NUniq=   17 SFac= 1.00D+00 NAtFMM=   60 NAOKFM=F Big=F
 Integral buffers will be    131072 words long.
 Raffenetti 2 integral format.
 Two-electron integral symmetry is turned on.
 One-electron integrals computed using PRISM.
 PrsmSu:  requested number of processors reduced to:  13 ShMem   1 Linda.
 NBasis=   292 RedAO= T EigKep=  5.91D-05  NBF=   292
 NBsUse=   292 1.00D-06 EigRej= -1.00D+00 NBFU=   292
 Initial guess from the checkpoint file:  "CCtCCpCtNpNOC.chk"
 B after Tr=     0.000000    0.000000    0.000000
         Rot=    0.999995    0.000910   -0.001487   -0.002770 Ang=   0.38 deg.
 ExpMin= 1.61D-01 ExpMax= 5.48D+03 ExpMxC= 8.25D+02 IAcc=2 IRadAn=         4 AccDes= 0.00D+00
 Harris functional with IExCor=  402 and IRadAn=       4 diagonalized for initial guess.
 HarFok:  IExCor=  402 AccDes= 0.00D+00 IRadAn=         4 IDoV= 1 UseB2=F ITyADJ=14
 ICtDFT=  3500011 ScaDFX=  1.000000  1.000000  1.000000  1.000000
 FoFCou: FMM=F IPFlag=           0 FMFlag=      100000 FMFlg1=           0
         NFxFlg=           0 DoJE=T BraDBF=F KetDBF=T FulRan=T
         wScrn=  0.000000 ICntrl=       500 IOpCl=  0 I1Cent=   200000004 NGrid=           0
         NMat0=    1 NMatS0=      1 NMatT0=    0 NMatD0=    1 NMtDS0=    0 NMtDT0=    0
 Petite list used in FoFCou.
 Requested convergence on RMS density matrix=1.00D-08 within 128 cycles.
 Requested convergence on MAX density matrix=1.00D-06.
 Requested convergence on             energy=1.00D-06.
 No special actions if energy rises.
 Integral accuracy reduced to 1.0D-05 until final iterations.
 Initial convergence to 1.0D-05 achieved.  Increase integral accuracy.
 SCF Done:  E(RB3LYP) =  -418.046905507     A.U. after   13 cycles
            NFock= 13  Conv=0.70D-08     -V/T= 2.0078
 PrsmSu:  requested number of processors reduced to:  13 ShMem   1 Linda.
 Calling FoFJK, ICntrl=      2127 FMM=F ISym2X=0 I1Cent= 0 IOpClX= 0 NMat=1 NMatS=1 NMatT=0.
 ***** Axes restored to original set *****
 -------------------------------------------------------------------
 Center     Atomic                   Forces (Hartrees/Bohr)
 Number     Number              X              Y              Z
 -------------------------------------------------------------------
      1        6           0.017822763   -0.000160247    0.000010497
      2        6          -0.006661500    0.000295041   -0.000741767
      3        6           0.004768052    0.001745326    0.000205940
      4        6          -0.017734524   -0.003183476    0.005308655
      5        6           0.008497687   -0.004729124    0.013947000
      6        7          -0.008871093    0.005904996   -0.022862135
      7        7           0.010545304   -0.000343460    0.000542095
      8        8          -0.002128986   -0.003008409   -0.002309274
      9        6           0.000094321    0.001797353    0.003377284
     10        1          -0.001685615    0.000293530    0.000161457
     11        1          -0.001767735   -0.000166423    0.000301891
     12        1          -0.001686605   -0.000103485   -0.000200752
     13        1           0.003346443    0.001080199    0.002956911
     14        1          -0.003869906    0.000450185    0.000525354
     15        1           0.000273373    0.001550482    0.000270422
     16        1          -0.000226685   -0.001663659   -0.001219455
     17        1          -0.000715294    0.000241173   -0.000274123
 -------------------------------------------------------------------
 Cartesian Forces:  Max     0.022862135 RMS     0.006047224

 GradGradGradGradGradGradGradGradGradGradGradGradGradGradGradGradGradGrad
 Berny optimization.
 Using GEDIIS/GDIIS optimizer.
 FormGI is forming the generalized inverse of G from B-inverse, IUseBI=4.
 Internal  Forces:  Max     0.025215797 RMS     0.004312979
 Search for a local minimum.
 Step number   2 out of a maximum of   74
 All quantities printed in internal units (Hartrees-Bohrs-Radians)
 Mixed Optimization -- RFO/linear search
 Update second derivatives using D2CorX and points    1    2
 DE= -4.37D-02 DEPred=-4.47D-02 R= 9.77D-01
 TightC=F SS=  1.41D+00  RLast= 3.08D-01 DXNew= 5.0454D-01 9.2263D-01
 Trust test= 9.77D-01 RLast= 3.08D-01 DXMaxT set to 5.05D-01
 ITU=  1  0
 Use linear search instead of GDIIS.
     Eigenvalues ---    0.00230   0.00438   0.00459   0.00520   0.00651
     Eigenvalues ---    0.01319   0.02541   0.02968   0.03531   0.03533
     Eigenvalues ---    0.05069   0.05611   0.05992   0.06725   0.07400
     Eigenvalues ---    0.09917   0.10069   0.10584   0.11825   0.15955
     Eigenvalues ---    0.16000   0.16000   0.16000   0.16000   0.16061
     Eigenvalues ---    0.17190   0.23248   0.24208   0.25038   0.29842
     Eigenvalues ---    0.30367   0.30370   0.34065   0.34166   0.34266
     Eigenvalues ---    0.34406   0.34407   0.34407   0.34536   0.34760
     Eigenvalues ---    0.37127   0.41242   0.43826   0.71841   0.84791
 RFO step:  Lambda=-3.08707644D-03 EMin= 2.29999997D-03
 Quartic linear search produced a step of  0.10453.
 Iteration  1 RMS(Cart)=  0.12061926 RMS(Int)=  0.01364784
 Iteration  2 RMS(Cart)=  0.03581237 RMS(Int)=  0.00061159
 Iteration  3 RMS(Cart)=  0.00085882 RMS(Int)=  0.00018900
 Iteration  4 RMS(Cart)=  0.00000047 RMS(Int)=  0.00018900
 Variable       Old X    -DE/DX   Delta X   Delta X   Delta X     New X
                                 (Linear)    (Quad)   (Total)
    R1        2.79408  -0.01268  -0.00818  -0.02902  -0.03720   2.75688
    R2        2.06616   0.00029  -0.00004   0.00098   0.00094   2.06710
    R3        2.06637   0.00028  -0.00001   0.00092   0.00091   2.06728
    R4        2.06611   0.00036  -0.00004   0.00121   0.00117   2.06728
    R5        2.27750  -0.00602  -0.01949   0.01853  -0.00096   2.27654
    R6        2.80350  -0.01078  -0.00720  -0.02418  -0.03138   2.77213
    R7        2.81441  -0.00849  -0.00606  -0.01824  -0.02430   2.79011
    R8        2.77941   0.00119  -0.00156   0.00671   0.00515   2.78455
    R9        2.07582   0.00135   0.00038   0.00359   0.00398   2.07980
   R10        2.20140  -0.02522  -0.01897  -0.00869  -0.02766   2.17374
   R11        2.73828  -0.00280  -0.00189  -0.00476  -0.00665   2.73163
   R12        1.93402   0.00094   0.00004   0.00229   0.00233   1.93634
   R13        2.68204  -0.00282  -0.00175  -0.00442  -0.00618   2.67586
   R14        2.06386   0.00037  -0.00005   0.00127   0.00122   2.06508
   R15        2.07625   0.00111   0.00078   0.00204   0.00282   2.07908
   R16        2.06974  -0.00009  -0.00008  -0.00013  -0.00021   2.06954
    A1        1.91878   0.00168  -0.00002   0.01149   0.01116   1.92993
    A2        1.92107   0.00189   0.00022   0.01241   0.01273   1.93380
    A3        1.91581   0.00164  -0.00033   0.01178   0.01143   1.92724
    A4        1.90382  -0.00176   0.00017  -0.01186  -0.01188   1.89193
    A5        1.90176  -0.00180  -0.00005  -0.01253  -0.01299   1.88877
    A6        1.90236  -0.00173   0.00001  -0.01188  -0.01147   1.89089
    A7        1.91783   0.00217   0.00075   0.01609   0.01700   1.93483
    A8        1.87834   0.00421   0.00173   0.02271   0.02424   1.90258
    A9        1.90075  -0.00060  -0.00012   0.00685   0.00674   1.90749
   A10        1.93325  -0.00419  -0.00258  -0.01675  -0.02005   1.91320
   A11        1.89580  -0.00128  -0.00154  -0.02234  -0.02399   1.87182
   A12        1.93766  -0.00019   0.00186  -0.00542  -0.00365   1.93401
   A13        1.81918  -0.00036  -0.00399   0.00979   0.00576   1.82495
   A14        1.84616  -0.00071  -0.00158   0.00388   0.00225   1.84840
   A15        1.80797   0.00156   0.00278   0.01247   0.01517   1.82314
   A16        1.87684   0.00372  -0.00152   0.01963   0.01811   1.89495
   A17        1.86054  -0.00219  -0.00354  -0.00390  -0.00744   1.85310
   A18        1.93259   0.00262   0.00317   0.00811   0.01130   1.94390
   A19        1.94218  -0.00064  -0.00067  -0.00258  -0.00325   1.93893
   A20        1.90025   0.00010   0.00048  -0.00031   0.00021   1.90046
   A21        1.91121   0.00128   0.00111   0.00587   0.00696   1.91817
   A22        1.91585  -0.00116  -0.00060  -0.00695  -0.00754   1.90831
   A23        3.13893   0.00043  -0.00028   0.01985   0.01935   3.15828
   A24        3.13037  -0.00060  -0.00117   0.00642   0.00516   3.13553
   A25        3.16255   0.00121   0.00219   0.01431   0.01651   3.17906
   A26        3.14040   0.00018  -0.00012   0.01126   0.01133   3.15173
   A27        3.13374  -0.00066  -0.00082  -0.01592  -0.01638   3.11736
   A28        3.13152  -0.00067  -0.00105  -0.00927  -0.01032   3.12120
    D1       -1.53600   0.00020   0.00007  -0.00589  -0.00616  -1.54216
    D2        0.57240  -0.00084  -0.00138   0.00216   0.00097   0.57338
    D3        2.66927   0.00080   0.00122   0.01582   0.01700   2.68626
    D4        2.65326   0.00010   0.00011  -0.01596  -0.01628   2.63698
    D5       -1.52152  -0.00095  -0.00133  -0.00791  -0.00914  -1.53067
    D6        0.57534   0.00070   0.00127   0.00575   0.00688   0.58222
    D7        0.55871   0.00013   0.00010  -0.00986  -0.00981   0.54890
    D8        2.66711  -0.00091  -0.00134  -0.00181  -0.00268   2.66443
    D9       -1.51921   0.00074   0.00126   0.01186   0.01334  -1.50586
   D10        3.02648  -0.00085  -0.00034  -0.08278  -0.08285   2.94364
   D11        1.12622  -0.00217  -0.00122  -0.10171  -0.10269   1.02353
   D12       -1.15988   0.00195   0.00017  -0.05885  -0.05897  -1.21886
   D13       -3.06015   0.00063  -0.00071  -0.07777  -0.07882  -3.13896
   D14        0.94791  -0.00261  -0.00226  -0.10199  -0.10417   0.84374
   D15       -0.95235  -0.00393  -0.00314  -0.12091  -0.12401  -1.07637
   D16        2.95474  -0.00261  -0.00213  -0.24998  -0.25213   2.70261
   D17       -1.40020  -0.00294  -0.00420  -0.23779  -0.24197  -1.64217
   D18       -3.00014  -0.00037   0.00011  -0.02612  -0.02606  -3.02620
   D19        1.21865  -0.00062  -0.00017  -0.02785  -0.02800   1.19065
   D20       -0.91726  -0.00053  -0.00116  -0.02286  -0.02400  -0.94126
         Item               Value     Threshold  Converged?
 Maximum Force            0.025216     0.000450     NO 
 RMS     Force            0.004313     0.000300     NO 
 Maximum Displacement     0.531034     0.001800     NO 
 RMS     Displacement     0.151066     0.001200     NO 
 Predicted change in Energy=-3.074634D-03
 GradGradGradGradGradGradGradGradGradGradGradGradGradGradGradGradGradGrad

                          Input orientation:                          
 ---------------------------------------------------------------------
 Center     Atomic      Atomic             Coordinates (Angstroms)
 Number     Number       Type             X           Y           Z
 ---------------------------------------------------------------------
      1          6           0        1.153456   -0.012457   -0.037008
      2          6           0        2.610525   -0.068388   -0.083320
      3          6           0        3.814420   -0.108352   -0.101300
      4          6           0        5.280662   -0.132530   -0.139763
      5          6           0        5.833747   -0.556968    1.161730
      6          7           0        6.239776   -0.851621    2.196862
      7          7           0        5.717860   -1.067245   -1.191635
      8          8           0        7.134247   -0.816525   -1.334846
      9          6           0        7.749394   -1.984288   -1.847678
     10          1           0        0.722878   -0.982636   -0.301377
     11          1           0        0.771078    0.737074   -0.736103
     12          1           0        0.813307    0.249982    0.969060
     13          1           0        5.655971    0.882855   -0.338310
     14          1           0        5.307167   -0.720368   -2.063960
     15          1           0        8.825552   -1.795429   -1.827404
     16          1           0        7.441098   -2.176945   -2.886078
     17          1           0        7.512483   -2.857780   -1.231041
 ---------------------------------------------------------------------
                    Distance matrix (angstroms):
                    1          2          3          4          5
     1  C    0.000000
     2  C    1.458878   0.000000
     3  C    2.663467   1.204692   0.000000
     4  C    4.130230   2.671503   1.466946   0.000000
     5  C    4.861953   3.489702   2.423672   1.476460   0.000000
     6  N    5.618275   4.357079   3.422915   2.626177   1.150294
     7  N    4.824886   3.446970   2.394032   1.473523   2.410838
     8  O    6.172581   4.752902   3.611702   2.309080   2.826935
     9  C    7.118500   5.761215   4.696061   3.527127   3.842328
    10  H    1.093863   2.108699   3.219011   4.639202   5.333185
    11  H    1.093957   2.111507   3.221746   4.631218   5.559400
    12  H    1.093960   2.106860   3.206361   4.618773   5.088527
    13  H    4.600544   3.200722   2.104751   1.100583   2.086819
    14  H    4.675787   3.408796   2.540648   2.012161   3.272470
    15  H    8.077473   6.682145   5.562114   4.263756   4.406769
    16  H    7.234407   5.969581   5.018651   4.048378   4.646790
    17  H    7.068154   5.755620   4.744612   3.687669   3.719845
                    6          7          8          9         10
     6  N    0.000000
     7  N    3.435229   0.000000
     8  O    3.643387   1.445518   0.000000
     9  C    4.463203   2.323465   1.416006   0.000000
    10  H    6.057601   5.074403   6.496253   7.264041   0.000000
    11  H    6.405692   5.285237   6.577391   7.572206   1.774460
    12  H    5.671648   5.518907   6.811732   7.812508   1.772437
    13  H    3.126712   2.129527   2.462981   3.857605   5.274166
    14  H    4.363667   1.024668   1.969536   2.758396   4.918454
    15  H    4.875626   3.254567   2.015287   1.092792   8.285091
    16  H    5.388500   2.659346   2.085958   1.100199   7.296680
    17  H    4.170728   2.535398   2.078596   1.095152   7.104870
                   11         12         13         14         15
    11  H    0.000000
    12  H    1.773871   0.000000
    13  H    4.903231   5.055802   0.000000
    14  H    4.946053   5.507773   2.381146   0.000000
    15  H    8.513464   8.729261   4.408725   3.686564   0.000000
    16  H    7.589668   8.042368   4.363505   2.711302   1.784113
    17  H    7.656010   7.705686   4.270358   3.182091   1.791198
                   16         17
    16  H    0.000000
    17  H    1.791028   0.000000
 Stoichiometry    C6H8N2O
 Framework group  C1[X(C6H8N2O)]
 Deg. of freedom    45
 Full point group                 C1      NOp   1
 Largest Abelian subgroup         C1      NOp   1
 Largest concise Abelian subgroup C1      NOp   1
                         Standard orientation:                         
 ---------------------------------------------------------------------
 Center     Atomic      Atomic             Coordinates (Angstroms)
 Number     Number       Type             X           Y           Z
 ---------------------------------------------------------------------
      1          6           0       -3.942163   -0.657771    0.264088
      2          6           0       -2.540633   -0.354806   -0.004708
      3          6           0       -1.388463   -0.084275   -0.229650
      4          6           0        0.012243    0.231727   -0.529806
      5          6           0        0.364625    1.578183   -0.037038
      6          7           0        0.602273    2.645242    0.320851
      7          7           0        0.878957   -0.772441    0.111850
      8          8           0        2.186840   -0.541536   -0.458803
      9          6           0        3.165286   -1.006283    0.453188
     10          1           0       -4.053982   -1.116246    1.250918
     11          1           0       -4.340812   -1.348481   -0.484738
     12          1           0       -4.541497    0.257141    0.242121
     13          1           0        0.158596    0.234805   -1.620610
     14          1           0        0.589559   -1.678233   -0.269902
     15          1           0        4.132092   -0.706473    0.041370
     16          1           0        3.141016   -2.102522    0.543242
     17          1           0        3.026324   -0.557959    1.442659
 ---------------------------------------------------------------------
 Rotational constants (GHZ):           2.6502794           0.8236031           0.6598973
 Standard basis: 6-31G(2df,p) (6D, 7F)
 There are   319 symmetry adapted cartesian basis functions of A   symmetry.
 There are   292 symmetry adapted basis functions of A   symmetry.
   292 basis functions,   452 primitive gaussians,   319 cartesian basis functions
    33 alpha electrons       33 beta electrons
       nuclear repulsion energy       392.4552008921 Hartrees.
 NAtoms=   17 NActive=   17 NUniq=   17 SFac= 1.00D+00 NAtFMM=   60 NAOKFM=F Big=F
 Integral buffers will be    131072 words long.
 Raffenetti 2 integral format.
 Two-electron integral symmetry is turned on.
 One-electron integrals computed using PRISM.
 PrsmSu:  requested number of processors reduced to:  13 ShMem   1 Linda.
 NBasis=   292 RedAO= T EigKep=  5.57D-05  NBF=   292
 NBsUse=   292 1.00D-06 EigRej= -1.00D+00 NBFU=   292
 Initial guess from the checkpoint file:  "CCtCCpCtNpNOC.chk"
 B after Tr=     0.000000    0.000000   -0.000000
         Rot=    0.999827    0.018164   -0.001395    0.003678 Ang=   2.13 deg.
 ExpMin= 1.61D-01 ExpMax= 5.48D+03 ExpMxC= 8.25D+02 IAcc=2 IRadAn=         4 AccDes= 0.00D+00
 Harris functional with IExCor=  402 and IRadAn=       4 diagonalized for initial guess.
 HarFok:  IExCor=  402 AccDes= 0.00D+00 IRadAn=         4 IDoV= 1 UseB2=F ITyADJ=14
 ICtDFT=  3500011 ScaDFX=  1.000000  1.000000  1.000000  1.000000
 FoFCou: FMM=F IPFlag=           0 FMFlag=      100000 FMFlg1=           0
         NFxFlg=           0 DoJE=T BraDBF=F KetDBF=T FulRan=T
         wScrn=  0.000000 ICntrl=       500 IOpCl=  0 I1Cent=   200000004 NGrid=           0
         NMat0=    1 NMatS0=      1 NMatT0=    0 NMatD0=    1 NMtDS0=    0 NMtDT0=    0
 Petite list used in FoFCou.
 Requested convergence on RMS density matrix=1.00D-08 within 128 cycles.
 Requested convergence on MAX density matrix=1.00D-06.
 Requested convergence on             energy=1.00D-06.
 No special actions if energy rises.
 Integral accuracy reduced to 1.0D-05 until final iterations.
 Initial convergence to 1.0D-05 achieved.  Increase integral accuracy.
 SCF Done:  E(RB3LYP) =  -418.050066792     A.U. after   13 cycles
            NFock= 13  Conv=0.80D-08     -V/T= 2.0074
 PrsmSu:  requested number of processors reduced to:  13 ShMem   1 Linda.
 Calling FoFJK, ICntrl=      2127 FMM=F ISym2X=0 I1Cent= 0 IOpClX= 0 NMat=1 NMatS=1 NMatT=0.
 ***** Axes restored to original set *****
 -------------------------------------------------------------------
 Center     Atomic                   Forces (Hartrees/Bohr)
 Number     Number              X              Y              Z
 -------------------------------------------------------------------
      1        6           0.004789029   -0.000694179   -0.000796746
      2        6           0.002842868    0.000524350    0.000528336
      3        6          -0.002292775    0.001230418   -0.000242030
      4        6          -0.005745602   -0.001810323    0.000138007
      5        6          -0.003206929    0.002507767   -0.007950804
      6        7           0.003739712   -0.002619597    0.008159841
      7        7           0.006607867    0.000548243   -0.002563636
      8        8          -0.004111770    0.000805512   -0.000832800
      9        6          -0.000767585   -0.001062320    0.000761639
     10        1          -0.001100318   -0.000130501    0.000011503
     11        1          -0.001020750    0.000167766   -0.000018090
     12        1          -0.000691558    0.000087442    0.000224962
     13        1           0.001596690    0.000550605    0.000573842
     14        1          -0.000833746   -0.000252756    0.001571542
     15        1          -0.000048190    0.000879490    0.000197911
     16        1           0.000102491   -0.000572213    0.000513267
     17        1           0.000140568   -0.000159703   -0.000276742
 -------------------------------------------------------------------
 Cartesian Forces:  Max     0.008159841 RMS     0.002524047

 GradGradGradGradGradGradGradGradGradGradGradGradGradGradGradGradGradGrad
 Berny optimization.
 Using GEDIIS/GDIIS optimizer.
 FormGI is forming the generalized inverse of G from B-inverse, IUseBI=4.
 Internal  Forces:  Max     0.009333817 RMS     0.001668116
 Search for a local minimum.
 Step number   3 out of a maximum of   74
 All quantities printed in internal units (Hartrees-Bohrs-Radians)
 Mixed Optimization -- RFO/linear search
 Update second derivatives using D2CorX and points    1    2    3
 DE= -3.16D-03 DEPred=-3.07D-03 R= 1.03D+00
 TightC=F SS=  1.41D+00  RLast= 4.33D-01 DXNew= 8.4853D-01 1.2980D+00
 Trust test= 1.03D+00 RLast= 4.33D-01 DXMaxT set to 8.49D-01
 ITU=  1  1  0
 Use linear search instead of GDIIS.
     Eigenvalues ---    0.00230   0.00385   0.00451   0.00476   0.00639
     Eigenvalues ---    0.01313   0.02512   0.02983   0.03529   0.03606
     Eigenvalues ---    0.04968   0.05478   0.05833   0.06537   0.07282
     Eigenvalues ---    0.10050   0.10169   0.10598   0.11906   0.15281
     Eigenvalues ---    0.16000   0.16000   0.16000   0.16038   0.16063
     Eigenvalues ---    0.17491   0.23041   0.24154   0.25025   0.29173
     Eigenvalues ---    0.30367   0.30857   0.34054   0.34166   0.34291
     Eigenvalues ---    0.34406   0.34407   0.34429   0.34535   0.34747
     Eigenvalues ---    0.37265   0.41317   0.43907   0.73007   1.12862
 RFO step:  Lambda=-2.20054502D-03 EMin= 2.29998496D-03
 Quartic linear search produced a step of  0.46925.
 Iteration  1 RMS(Cart)=  0.14690714 RMS(Int)=  0.03660239
 Iteration  2 RMS(Cart)=  0.10803900 RMS(Int)=  0.00550803
 Iteration  3 RMS(Cart)=  0.00743333 RMS(Int)=  0.00105952
 Iteration  4 RMS(Cart)=  0.00001516 RMS(Int)=  0.00105943
 Iteration  5 RMS(Cart)=  0.00000002 RMS(Int)=  0.00105943
 Variable       Old X    -DE/DX   Delta X   Delta X   Delta X     New X
                                 (Linear)    (Quad)   (Total)
    R1        2.75688  -0.00201  -0.01746  -0.00242  -0.01990   2.73698
    R2        2.06710   0.00055   0.00044   0.00193   0.00237   2.06947
    R3        2.06728   0.00048   0.00043   0.00169   0.00212   2.06940
    R4        2.06728   0.00044   0.00055   0.00150   0.00205   2.06933
    R5        2.27654  -0.00482  -0.00045  -0.01019  -0.01066   2.26588
    R6        2.77213  -0.00251  -0.01472  -0.00551  -0.02019   2.75193
    R7        2.79011   0.00042  -0.01140   0.00588  -0.00552   2.78459
    R8        2.78455   0.00066   0.00242   0.00175   0.00414   2.78869
    R9        2.07980   0.00095   0.00187   0.00301   0.00487   2.08467
   R10        2.17374   0.00933  -0.01298   0.01841   0.00543   2.17917
   R11        2.73163  -0.00465  -0.00312  -0.01524  -0.01836   2.71328
   R12        1.93634  -0.00109   0.00109  -0.00360  -0.00248   1.93386
   R13        2.67586   0.00007  -0.00290   0.00119  -0.00171   2.67415
   R14        2.06508   0.00011   0.00057   0.00022   0.00079   2.06587
   R15        2.07908  -0.00041   0.00132  -0.00203  -0.00071   2.07837
   R16        2.06954  -0.00006  -0.00010  -0.00019  -0.00028   2.06925
    A1        1.92993   0.00119   0.00524   0.00802   0.01407   1.94401
    A2        1.93380   0.00099   0.00597   0.00625   0.01059   1.94439
    A3        1.92724   0.00026   0.00536   0.00003   0.00593   1.93317
    A4        1.89193  -0.00073  -0.00557  -0.00330  -0.01033   1.88160
    A5        1.88877  -0.00082  -0.00610  -0.00507  -0.00833   1.88045
    A6        1.89089  -0.00099  -0.00538  -0.00653  -0.01351   1.87738
    A7        1.93483   0.00087   0.00798   0.00740   0.01421   1.94904
    A8        1.90258   0.00133   0.01138   0.00650   0.01917   1.92175
    A9        1.90749  -0.00020   0.00316   0.00090   0.00273   1.91022
   A10        1.91320  -0.00114  -0.00941  -0.00310  -0.00925   1.90396
   A11        1.87182  -0.00058  -0.01125  -0.00703  -0.02082   1.85100
   A12        1.93401  -0.00031  -0.00171  -0.00486  -0.00717   1.92684
   A13        1.82495  -0.00061   0.00270  -0.00302  -0.00034   1.82460
   A14        1.84840   0.00027   0.00105   0.00380   0.00475   1.85316
   A15        1.82314   0.00032   0.00712   0.00156   0.00863   1.83177
   A16        1.89495  -0.00014   0.00850  -0.00332   0.00518   1.90014
   A17        1.85310  -0.00153  -0.00349  -0.01083  -0.01430   1.83880
   A18        1.94390   0.00091   0.00530   0.00510   0.01041   1.95430
   A19        1.93893   0.00055  -0.00153   0.00536   0.00383   1.94275
   A20        1.90046   0.00027   0.00010   0.00160   0.00173   1.90219
   A21        1.91817   0.00031   0.00327   0.00052   0.00379   1.92196
   A22        1.90831  -0.00052  -0.00354  -0.00197  -0.00552   1.90279
   A23        3.15828  -0.00107   0.00908  -0.04164  -0.03135   3.12693
   A24        3.13553  -0.00075   0.00242  -0.13080  -0.12751   3.00802
   A25        3.17906  -0.00120   0.00775  -0.04846  -0.04071   3.13834
   A26        3.15173   0.00020   0.00531   0.00610   0.01014   3.16187
   A27        3.11736   0.00033  -0.00769   0.07732   0.06740   3.18476
   A28        3.12120   0.00005  -0.00484   0.00517   0.00032   3.12152
    D1       -1.54216   0.00014  -0.00289   0.01526   0.01524  -1.52692
    D2        0.57338  -0.00010   0.00046  -0.01443  -0.01407   0.55930
    D3        2.68626  -0.00008   0.00798  -0.04763  -0.03896   2.64730
    D4        2.63698   0.00019  -0.00764   0.05619   0.05032   2.68730
    D5       -1.53067  -0.00005  -0.00429   0.02651   0.02100  -1.50966
    D6        0.58222  -0.00003   0.00323  -0.00669  -0.00388   0.57834
    D7        0.54890   0.00012  -0.00460   0.01872   0.01469   0.56358
    D8        2.66443  -0.00012  -0.00126  -0.01096  -0.01462   2.64981
    D9       -1.50586  -0.00011   0.00626  -0.04416  -0.03951  -1.54537
   D10        2.94364  -0.00085  -0.03888  -0.06945  -0.10914   2.83449
   D11        1.02353  -0.00106  -0.04819  -0.07142  -0.12040   0.90313
   D12       -1.21886   0.00036  -0.02767  -0.05818  -0.08522  -1.30408
   D13       -3.13896   0.00014  -0.03698  -0.06015  -0.09648   3.04774
   D14        0.84374  -0.00126  -0.04888  -0.07172  -0.12039   0.72335
   D15       -1.07637  -0.00148  -0.05819  -0.07368  -0.13165  -1.20802
   D16        2.70261  -0.00223  -0.11831  -0.27267  -0.39098   2.31163
   D17       -1.64217  -0.00204  -0.11354  -0.26905  -0.38259  -2.02475
   D18       -3.02620  -0.00027  -0.01223  -0.01882  -0.03108  -3.05728
   D19        1.19065  -0.00016  -0.01314  -0.01698  -0.03008   1.16056
   D20       -0.94126  -0.00052  -0.01126  -0.02181  -0.03308  -0.97434
         Item               Value     Threshold  Converged?
 Maximum Force            0.009334     0.000450     NO 
 RMS     Force            0.001668     0.000300     NO 
 Maximum Displacement     0.701927     0.001800     NO 
 RMS     Displacement     0.219808     0.001200     NO 
 Predicted change in Energy=-1.847655D-03
 GradGradGradGradGradGradGradGradGradGradGradGradGradGradGradGradGradGrad

                          Input orientation:                          
 ---------------------------------------------------------------------
 Center     Atomic      Atomic             Coordinates (Angstroms)
 Number     Number       Type             X           Y           Z
 ---------------------------------------------------------------------
      1          6           0        1.202048   -0.015097   -0.074629
      2          6           0        2.649884   -0.008438   -0.036711
      3          6           0        3.848472   -0.025865   -0.008235
      4          6           0        5.292898   -0.147965   -0.147580
      5          6           0        5.911308   -0.708385    1.066840
      6          7           0        6.408542   -1.128304    2.018800
      7          7           0        5.620364   -1.011644   -1.298471
      8          8           0        6.996249   -0.720470   -1.587763
      9          6           0        7.699175   -1.938863   -1.742438
     10          1           0        0.816720   -0.970907   -0.445073
     11          1           0        0.815638    0.776528   -0.725178
     12          1           0        0.786782    0.146986    0.925573
     13          1           0        5.735060    0.853920   -0.280575
     14          1           0        5.098025   -0.636260   -2.094402
     15          1           0        8.746763   -1.654301   -1.871644
     16          1           0        7.367340   -2.495462   -2.631088
     17          1           0        7.588350   -2.577093   -0.859597
 ---------------------------------------------------------------------
                    Distance matrix (angstroms):
                    1          2          3          4          5
     1  C    0.000000
     2  C    1.448348   0.000000
     3  C    2.647279   1.199053   0.000000
     4  C    4.093657   2.649016   1.456260   0.000000
     5  C    4.894970   3.513494   2.424235   1.473540   0.000000
     6  N    5.720948   4.427949   3.446476   2.626581   1.153169
     7  N    4.691738   3.379676   2.403345   1.475711   2.402355
     8  O    6.029916   4.669437   3.589691   2.302888   2.867780
     9  C    6.978189   5.668455   4.636263   3.397213   3.550012
    10  H    1.095116   2.110355   3.205535   4.560910   5.320679
    11  H    1.095079   2.110597   3.218063   4.608055   5.601978
    12  H    1.095044   2.102688   3.205592   4.641523   5.197344
    13  H    4.620151   3.212700   2.099381   1.103162   2.070601
    14  H    4.432151   3.259086   2.507201   2.016562   3.264979
    15  H    7.927104   6.576304   5.487928   4.143746   4.191569
    16  H    7.120289   5.930470   5.035940   3.997732   4.357562
    17  H    6.925666   5.627040   4.606547   3.417124   3.164759
                    6          7          8          9         10
     6  N    0.000000
     7  N    3.411616   0.000000
     8  O    3.676822   1.435804   0.000000
     9  C    4.058282   2.319116   1.415101   0.000000
    10  H    6.112603   4.879030   6.289279   7.070239   0.000000
    11  H    6.514474   5.158645   6.417555   7.469355   1.769742
    12  H    5.867341   5.445393   6.754762   7.697417   1.768969
    13  H    3.109649   2.128284   2.403756   3.714085   5.248535
    14  H    4.344881   1.023356   1.966477   2.930297   4.600200
    15  H    4.569410   3.242824   2.004227   1.093211   8.086267
    16  H    4.940635   2.651322   2.092088   1.099826   7.072025
    17  H    3.431634   2.552688   2.080350   1.095001   6.971846
                   11         12         13         14         15
    11  H    0.000000
    12  H    1.766956   0.000000
    13  H    4.940079   5.141984   0.000000
    14  H    4.712705   5.321704   2.432368   0.000000
    15  H    8.374131   8.627303   4.230015   3.794644   0.000000
    16  H    7.567246   7.933228   4.405407   2.982358   1.785249
    17  H    7.558735   7.541138   3.942310   3.390177   1.793796
                   16         17
    16  H    0.000000
    17  H    1.787089   0.000000
 Stoichiometry    C6H8N2O
 Framework group  C1[X(C6H8N2O)]
 Deg. of freedom    45
 Full point group                 C1      NOp   1
 Largest Abelian subgroup         C1      NOp   1
 Largest concise Abelian subgroup C1      NOp   1
                         Standard orientation:                         
 ---------------------------------------------------------------------
 Center     Atomic      Atomic             Coordinates (Angstroms)
 Number     Number       Type             X           Y           Z
 ---------------------------------------------------------------------
      1          6           0       -3.911823   -0.547148    0.321499
      2          6           0       -2.547695   -0.211854   -0.031267
      3          6           0       -1.412095    0.062411   -0.301304
      4          6           0        0.015504    0.221011   -0.541094
      5          6           0        0.506133    1.525333   -0.062192
      6          7           0        0.897706    2.550718    0.291439
      7          7           0        0.766101   -0.854765    0.134949
      8          8           0        2.054403   -0.848757   -0.498908
      9          6           0        3.056152   -0.879619    0.500120
     10          1           0       -3.965974   -1.007927    1.313481
     11          1           0       -4.349953   -1.247428   -0.397422
     12          1           0       -4.540761    0.349163    0.335125
     13          1           0        0.209931    0.201853   -1.626819
     14          1           0        0.331522   -1.733550   -0.158538
     15          1           0        4.003609   -0.784705   -0.036933
     16          1           0        3.053581   -1.828444    1.056306
[...]
   xx         0.943182D+02      0.139765D+02      0.155510D+02
   yx         0.782369D+01      0.115935D+01      0.128995D+01
   yy         0.559305D+02      0.828804D+01      0.922169D+01
   zx        -0.225472D+02     -0.334115D+01     -0.371753D+01
   zy        -0.175924D+01     -0.260693D+00     -0.290060D+00
   zz         0.901829D+02      0.133637D+02      0.148691D+02

 ----------------------------------------------------------------------
 1\1\GINC-LEWIS4-Z10PH-HPC3-NODE395\Freq\RB3LYP\6-31G(2df,p)\C6H8N2O1\K
 S29C\03-Jul-2022\0\\#N Geom=AllCheck Guess=TCheck SCRF=Check GenChk RB
 3LYP/6-31G(2df,p) Freq\\Title Card Required\\0,1\C,1.1604388091,0.0333
 603963,-0.0106326821\C,2.6106638883,-0.0464414476,-0.0864555209\C,3.81
 0179872,-0.1163870369,-0.1351714793\C,5.265599644,-0.1924975063,-0.233
 9336526\C,5.863588,-0.7510594317,0.9973084371\N,6.3400649421,-1.166981
 912,1.9631082021\N,5.6475772955,-1.0396225067,-1.3859140149\O,7.010165
 0124,-0.7226315668,-1.682465906\C,7.7787853945,-1.9193154014,-1.675367
 7794\H,0.6927715926,-0.7733507332,-0.5846588592\H,0.7929643254,0.98610
 4175,-0.4057789977\H,0.820782128,-0.054631952,1.0266429586\H,5.6836184
 466,0.8198478433,-0.3557431263\H,5.1234643347,-0.6808511584,-2.1842368
 047\H,8.8042558682,-1.6063369104,-1.8889195194\H,7.43916814,-2.6165886
 575,-2.4505667802\H,7.7395323067,-2.4142361938,-0.6993844751\\Version=
 ES64L-G16RevA.03\State=1-A\HF=-418.0519577\RMSD=3.696e-09\RMSF=1.314e-
 06\ZeroPoint=0.1325853\Thermal=0.143379\Dipole=-1.0830854,0.467897,-1.
 1821793\DipoleDeriv=0.1211421,-0.0130682,0.0050575,-0.0226033,0.114863
 8,0.0024164,0.024457,-0.0108725,0.1023001,0.3245614,-0.0247478,-0.0372
 941,-0.0059435,-0.0924483,0.005619,-0.0552881,0.0144476,-0.0829363,-0.
 4799421,0.0593526,0.0340667,0.044865,-0.1443664,-0.022045,0.0607026,-0
 .0178259,-0.2579166,0.74054,-0.0629063,-0.0187014,-0.0893891,0.4466681
 ,0.0081492,-0.0278828,0.0847853,0.6124396,-0.0118125,0.0107032,-0.0228
 353,0.0640459,0.0536162,0.0443453,0.0280989,-0.0019092,0.0029353,-0.28
 81421,-0.0124429,0.0364367,-0.0005646,-0.2808995,-0.039057,-0.028642,-
 0.0270631,-0.2450187,0.0450608,-0.0559953,-0.0916561,0.0069047,-0.3184
 312,-0.092177,-0.1332901,-0.0185558,-0.0841086,-0.7305075,0.3006289,0.
 1689387,0.1486438,-0.4749809,-0.0600904,0.1738248,-0.0666305,-0.391014
 ,0.5103247,-0.1905329,-0.0723697,-0.3865065,0.6008815,0.1679685,0.0038
 128,0.0281779,0.3215767,-0.0606004,-0.0183881,-0.0144604,-0.0421797,0.
 0028566,-0.0610805,-0.0381291,-0.059672,0.0457521,-0.0545109,0.0404822
 ,-0.006483,0.0630575,-0.0337744,0.0480834,-0.0194832,0.0525392,0.06490
 25,-0.050106,0.0150949,0.0278372,0.0084743,0.0879041,0.0108518,0.05318
 69,0.0105319,-0.0424053,-0.0632051,-0.0401249,-0.028138,0.0272645,-0.0
 546521,-0.0324994,0.0194332,0.0103505,-0.0224172,0.0876397,0.0486025,0
 .008614,0.067129,0.1853075,0.0993739,-0.0531866,0.0225849,0.0757924,-0
 .1363308,-0.003169,0.055367,-0.0197773,0.0084535,-0.0010511,0.0409773,
 0.0017037,0.0601467,0.0040986,-0.0436551,-0.066321,0.0713267,-0.080100
 4,-0.1024318,-0.0198543,-0.1071837,-0.0737969,0.0417899,-0.009834,0.02
 19412,0.0652526,-0.020898,0.0236248,-0.0287374,0.0845917,-0.0862318\Po
 lar=112.6896254,-13.1010956,57.0615969,-2.0587795,-0.0889089,70.680378
 4\Quadrupole=6.9185175,-0.844167,-6.0743505,-2.2141202,-3.822089,2.253
 2828\PG=C01 [X(C6H8N2O1)]\NImag=0\\0.51271428,-0.00007511,0.53535954,0
 .00267455,-0.00046217,0.53397020,-0.28176766,0.01318308,0.01052556,1.4
 3277785,0.01241899,-0.06524625,-0.00101882,-0.07812022,0.09478166,0.01
 016806,-0.00112905,-0.06601842,-0.05829168,0.00458742,0.09658791,-0.00
 527271,-0.00049252,0.00082049,-1.08965716,0.06253511,0.04491773,1.4376
 8419,0.00046041,0.00415135,0.00103064,0.06317890,-0.03588758,-0.003287
 34,-0.08182531,0.08764799,0.00076733,0.00009080,0.00531696,0.04563123,
 -0.00292447,-0.03578462,-0.06772720,0.00533992,0.09346204,0.00120090,0
 .00098877,0.00005429,-0.00396095,-0.00040985,-0.00039540,-0.26967057,0
 .00742193,0.00807320,0.52848168,0.00030343,0.00703936,-0.00075630,0.00
 047402,0.00062339,0.00083062,0.00691152,-0.06084343,-0.00128815,0.0349
 5656,0.48312653,0.00036544,0.00034448,0.00618869,-0.00082272,0.0001516
 9,0.00057421,0.01503504,-0.00262046,-0.06160060,0.02577891,-0.03897062
 ,0.43823514,-0.00013568,-0.00034157,0.00204140,-0.00024176,-0.00047195
 ,-0.00031742,-0.02681864,0.01639108,-0.02877423,-0.09233806,0.02626867
 ,-0.06032924,0.35093586,0.00004320,-0.00014833,-0.00021416,-0.00079262
 ,0.00076336,-0.00022783,0.00599907,-0.00178863,0.00137890,0.02769686,-
 0.09750569,0.06063263,-0.21891051,0.30194075,-0.00019054,-0.00001851,-
 0.00015892,0.00084252,-0.00006411,0.00076188,-0.00882582,0.00142190,0.
 00133918,-0.05725785,0.06168703,-0.17776397,0.50352568,-0.44381150,1.1
 3725297,0.00003947,0.00004594,-0.00015417,0.00041435,0.00011365,-0.000
 13271,0.00221949,-0.00122452,0.00158119,0.01408287,0.00340616,-0.00262
 080,-0.24456932,0.18273464,-0.42677012,0.23057359,0.00000305,0.0000367
 6,-0.00012425,-0.00029784,-0.00010517,0.00027633,0.00017764,0.00031616
 ,0.00108825,0.00183916,0.01563025,0.00272115,0.18265386,-0.19686836,0.
 37281355,-0.18571710,0.18046482,-0.00001221,0.00002632,0.00033131,0.00
 106207,0.00008119,-0.00054289,-0.00148184,0.00086100,-0.00198102,-0.00
 272395,0.00409085,0.00901025,-0.42598954,0.37284116,-0.90000956,0.4314
 6758,-0.37721362,0.89184900,-0.00041804,-0.00105470,-0.00087457,0.0019
 6077,0.00022780,0.00019215,-0.02465824,0.02003769,0.02816073,-0.068163
 02,0.01940472,-0.00747709,0.00776332,-0.01347119,-0.01122975,-0.002457
 46,0.00365879,-0.00112839,0.43028075,0.00021700,0.00004803,0.00007738,
 -0.00337324,0.00027321,-0.00063182,0.00832502,-0.00041161,0.00063162,-
 0.00774309,-0.10428797,-0.01782549,-0.00396836,0.01160778,-0.00210067,
 0.00068918,-0.00165467,0.00065430,-0.07321216,0.26822983,0.00029941,-0
 .00014852,-0.00024507,-0.00367805,-0.00007182,-0.00045429,0.01165744,-
 0.00102044,0.00019248,-0.00787473,-0.08588340,-0.13314766,0.00092508,-
 0.01682193,-0.04841892,-0.00090426,0.00224963,0.00306153,0.10768872,-0
 .03192929,0.53520347,0.00007471,-0.00038646,-0.00021232,0.00152732,0.0
 0030479,0.00001415,-0.00333910,0.00292930,0.00605670,-0.03278009,-0.00
 639196,0.01212993,-0.00084403,0.00132430,-0.00062381,0.00110248,-0.001
 01519,0.00062089,-0.18939149,-0.02576520,0.01712701,0.38527210,-0.0000
 5393,0.00020101,0.00011567,0.00044849,0.00013779,0.00000099,0.00362288
 ,-0.00159129,-0.00572281,0.02693398,0.00228622,-0.00444591,-0.00127742
 ,0.00036500,0.00087910,0.00024247,0.00027388,-0.00007676,-0.04452938,-
 0.08242169,0.00757924,-0.07311136,0.33953717,-0.00003050,0.00027817,0.
 00023599,-0.00006056,-0.00032949,-0.00000160,0.00405188,-0.00297124,-0
 .00337172,0.03196962,0.01160907,-0.00185532,-0.00100870,0.00091704,0.0
 0206151,0.00072641,-0.00010857,-0.00014577,0.02556771,0.00654947,-0.06
 936681,-0.04838278,-0.01282579,0.10171348,-0.00010217,-0.00002883,0.00
 002869,-0.00005292,-0.00008071,0.00011029,0.00012063,0.00035638,0.0003
 3220,-0.00440956,0.00120975,0.00103609,0.00025465,-0.00048368,0.001092
 66,-0.00038168,0.00054986,-0.00019754,-0.04331838,0.03450345,0.0028507
 8,-0.09832684,0.02958640,0.00398500,0.55983061,0.00014854,-0.00019847,
 -0.00007375,0.00021617,0.00007760,-0.00002169,-0.00111672,0.00113664,0
 .00206017,-0.00314893,-0.00142426,-0.00249933,0.00007612,0.00076353,-0
 .00143690,0.00092888,-0.00126990,0.00035207,0.00171685,0.01392976,-0.0
 0356824,0.07195684,-0.20730172,0.00531278,0.07801356,0.50143909,0.0000
 1600,0.00004925,0.00009241,0.00021686,0.00002234,0.00006485,0.00039612
 ,-0.00025739,-0.00146562,0.00536992,-0.00238481,-0.00030402,0.00121698
 ,-0.00072425,-0.00012347,-0.00072414,0.00058825,0.00005303,0.00432553,
 -0.00936442,-0.00401346,-0.00054902,0.01483222,-0.05987889,-0.00907910
 ,-0.00780579,0.57600455,-0.08867727,-0.08135855,-0.05816262,-0.0227220
 6,-0.02493412,-0.01791007,-0.00011458,0.00082951,0.00062789,0.00065701
 ,0.00097974,0.00107657,0.00011855,-0.00008151,0.00014097,-0.00003337,0
 .00005597,-0.00008360,-0.00044087,0.00002671,-0.00031316,-0.00031413,0
 .00026364,0.00024775,0.00006382,-0.00025455,0.00002334,0.10267345,-0.0
 8000071,-0.18956633,-0.10385934,-0.00226032,0.00417101,0.00420014,0.00
 228855,0.00001361,-0.00058381,-0.00036518,-0.00021548,-0.00018681,0.00
 001860,0.00002556,-0.00000834,-0.00000355,-0.00001824,0.00001469,0.000
 13406,-0.00000245,-0.00002550,0.00008412,-0.00006695,-0.00002608,0.000
 00967,0.00003484,-0.00001436,0.08931138,0.20369492,-0.05731790,-0.1037
 1896,-0.11726133,-0.00078078,0.00443609,0.00146428,0.00117943,-0.00074
 725,0.00036569,0.00003030,-0.00000217,0.00005412,-0.00007851,-0.000009
 05,-0.00000540,0.00000660,0.00003057,-0.00001642,-0.00001276,-0.000064
 95,0.00002475,-0.00003334,0.00005785,-0.00003469,-0.00000839,-0.000028
 05,0.00001066,0.06364374,0.11387279,0.12470964,-0.07078515,0.07418370,
 -0.03097779,-0.01957606,0.03077571,-0.01231167,0.00014787,-0.00052536,
 0.00052627,0.00019056,-0.00178538,0.00043970,0.00014634,0.00005677,0.0
 0018746,-0.00005650,0.00001135,-0.00012359,0.00005620,-0.00000328,-0.0
 0014567,-0.00021731,0.00009174,0.00012882,0.00009735,-0.00014627,-0.00
 000533,0.00460588,-0.01135866,0.00602344,0.08295688,0.07283983,-0.2462
 0242,0.08426774,0.00504365,0.00211264,-0.00203661,-0.00227977,0.000089
 65,0.00053577,0.00014927,0.00002631,0.00008442,-0.00009359,0.00002745,
 -0.00002281,0.00001568,0.00000721,-0.00002242,0.00001240,-0.00004810,0
 .00000917,0.00004415,0.00000331,-0.00003678,-0.00001939,0.00002781,0.0
 0000380,0.00720304,-0.02016648,0.00944644,-0.08263191,0.26608075,-0.03
 037989,0.08412645,-0.07899846,-0.00073702,-0.00401269,0.00018557,0.000
 97808,0.00023137,0.00073241,-0.00001662,0.00031930,0.00002225,-0.00018
 496,0.00008996,-0.00001404,-0.00000075,-0.00000225,-0.00004650,0.00002
 187,-0.00009431,0.00001149,-0.00000006,0.00003271,-0.00003553,-0.00000
 963,0.00000379,-0.00000024,0.00645738,-0.01556937,0.00630095,0.0337579
 8,-0.09239335,0.08233778,-0.06670471,-0.00630547,0.07516583,-0.0181877
 5,-0.00241060,0.03386117,-0.00056482,-0.00009151,-0.00099138,0.0005350
 3,0.00035575,-0.00135181,-0.00070461,0.00005996,0.00021453,0.00006590,
 0.00006659,-0.00024182,0.00008284,-0.00010587,-0.00014032,-0.00023089,
 0.00013887,0.00007567,0.00007234,-0.00018765,-0.00000271,0.00425188,0.
 00222741,-0.01285713,0.00313064,-0.00028843,-0.01011144,0.07814378,-0.
 00600878,-0.04525554,0.02073483,0.00005536,-0.00134559,-0.00249070,0.0
 0066779,0.00077937,0.00030434,-0.00025288,0.00001094,0.00000823,-0.000
 06930,0.00010636,-0.00002687,-0.00001247,-0.00004160,-0.00001452,0.000
 11765,-0.00004799,-0.00001108,0.00009426,-0.00005421,-0.00003552,-0.00
 000167,0.00005732,-0.00001473,0.00789067,0.00207283,-0.02326988,-0.008
 95246,-0.00187059,0.02731954,0.00653429,0.04561853,0.07349555,0.020778
 57,-0.28364139,0.00561749,-0.00081121,0.00244371,-0.00256572,0.0002333
 4,-0.00003805,0.00015693,-0.00002621,-0.00006509,-0.00005719,0.0000243
 2,0.00003204,0.00000655,0.00000804,-0.00005682,-0.00002842,0.00002299,
 0.00002856,0.00002423,-0.00000422,-0.00000536,-0.00001745,0.00002286,-
 0.00000513,0.00436750,0.00217659,-0.01553890,0.00248587,0.00015567,-0.
 01046922,-0.08349795,-0.02255578,0.30733460,-0.00010452,0.00158888,-0.
 00076649,0.00052466,0.00011905,0.00018844,-0.02155854,-0.02782287,0.00
 460408,-0.07953212,-0.08526952,0.01004788,0.00707574,0.01364516,-0.003
 34285,-0.00181162,-0.00096511,-0.00186514,0.00323680,0.00781719,0.0029
 3071,0.00259381,0.00144534,-0.00099702,-0.00040011,0.00025576,0.000122
 12,-0.00000259,-0.00007444,0.00015355,-0.00066353,-0.00000006,0.000200
 35,0.00004625,-0.00004274,0.00001479,0.09097529,-0.00024180,-0.0003006
 1,0.00015500,0.00197549,-0.00010934,-0.00011266,-0.00404417,0.00590609
 ,-0.00028137,-0.08202356,-0.24338634,0.03169715,-0.00189374,-0.0162885
 1,0.01132072,0.00003875,0.00176058,-0.00114783,-0.00347649,-0.02597828
 ,-0.01305701,-0.00076984,0.00343530,0.00146991,-0.00019715,0.00027344,
 0.00048389,0.00007785,0.00001969,-0.00002012,0.00023920,-0.00006294,-0
 .00001639,0.00000390,0.00000791,-0.00000201,0.09023000,0.27335068,0.00
 004095,-0.00010913,0.00008662,-0.00041256,-0.00003961,0.00041611,0.002
 28821,0.00120681,0.00166982,0.01164122,0.03602346,-0.05033043,0.007742
 09,0.02981493,-0.00914855,-0.00266330,-0.00239475,-0.00149403,-0.00428
 910,-0.03672702,-0.00680466,-0.00344951,0.00266154,0.00178600,-0.00025
 340,0.00053559,-0.00019627,-0.00002352,-0.00000760,-0.00003750,0.00006
 185,-0.00000473,-0.00002205,0.00001748,0.00001248,-0.00001802,-0.01062
 849,-0.03080167,0.06202756,-0.00007647,0.00008266,-0.00014380,-0.00111
 361,-0.00006896,-0.00008456,0.00186057,-0.00024685,0.00052657,0.006365
 99,-0.00120241,0.00777225,-0.00045758,0.00179503,0.00248846,0.00067131
 ,-0.00079026,0.00042342,-0.12221537,0.05830699,-0.12900599,-0.03920716
 ,0.01512562,-0.01967226,-0.00423645,-0.00475280,-0.00169625,-0.0000257
 9,-0.00002051,0.00005690,-0.00000729,0.00000154,0.00002487,0.00009247,
 -0.00003034,-0.00000469,-0.00025451,0.00023064,-0.00011236,0.15921293,
 0.00000052,-0.00000601,0.00006236,0.00034205,-0.00020829,0.00005121,-0
 .00133940,0.00096342,0.00066588,-0.00829108,-0.00176551,-0.03087814,0.
 00118027,-0.00235728,-0.00157386,-0.00039079,0.00073738,-0.00006572,0.
 09299824,-0.07785343,0.14128279,-0.01430554,0.00112370,-0.00959809,0.0
 0085805,0.00030601,0.00085753,-0.00012169,0.00001816,0.00000867,-0.000
 01604,-0.00001175,-0.00002973,-0.00006845,-0.00001313,-0.00001529,-0.0
 0061576,0.00114195,-0.00038121,-0.07043894,0.07811051,0.00011345,-0.00
 009068,0.00012242,0.00089596,-0.00000855,0.00029043,-0.00065198,0.0004
 8852,0.00107474,-0.01396756,0.01411155,-0.02884046,0.00155979,-0.00415
 919,-0.00523983,-0.00033883,0.00063587,0.00032648,-0.14139732,0.091241
 95,-0.28003370,0.01464038,-0.00323631,0.01369816,0.00076302,0.00158804
 ,0.00092260,-0.00010032,0.00001406,-0.00003425,-0.00005915,0.00001468,
 -0.00000731,-0.00014857,0.00003489,-0.00000310,-0.00067036,0.00025607,
 0.00184769,0.13914207,-0.09961990,0.29665347,0.00002052,-0.00004166,-0
 .00000873,0.00010631,0.00000404,0.00001003,-0.00027143,0.00022662,0.00
 040237,-0.00075853,-0.00000457,-0.00100858,0.00000022,0.00000273,-0.00
 003440,0.00009285,-0.00003146,0.00005391,-0.00025974,0.00432870,-0.000
 22526,-0.02338559,-0.00243647,0.00476980,-0.27539720,-0.07364093,0.047
 42055,-0.00003875,0.00000696,-0.00000513,-0.00002745,0.00000656,-0.000
 00107,-0.00003239,0.00000965,0.00000275,-0.00005030,0.00012169,0.00014
 871,-0.00085695,0.00036188,0.00040330,0.30758890,-0.00001070,0.0000515
 3,0.00001873,-0.00003876,-0.00001155,-0.00001853,0.00024606,-0.0003239
 3,-0.00059307,0.00149526,0.00033246,0.00041152,0.00006245,-0.00014732,
 0.00015995,-0.00012828,0.00015572,-0.00007111,0.00406776,-0.00395838,0
 .00016183,0.03235252,0.00671135,-0.00663454,-0.08647311,-0.07757328,0.
 01813638,0.00004422,-0.00001044,0.00000736,0.00001476,-0.00000200,0.00
 000057,0.00002572,-0.00001240,-0.00000165,-0.00002478,-0.00000547,0.00
 004634,0.00137586,-0.00004229,-0.00049030,0.07608070,0.08132905,-0.000
 00511,-0.00000340,-0.00000489,-0.00000475,-0.00000032,0.00000738,-0.00
 000744,0.00001896,-0.00001617,-0.00019262,0.00032714,0.00008176,-0.000
 11657,0.00018062,-0.00014425,0.00005391,-0.00019151,-0.00002073,-0.000
 05962,-0.00028868,0.00158499,0.00059064,-0.00015610,0.00027389,0.04873
 791,0.01589278,-0.06113404,0.00000207,0.00000039,0.00000037,0.00000442
 ,-0.00000007,0.00000240,0.00000458,0.00000191,-0.00000010,0.00002146,-
 0.00000933,0.00004659,0.00012713,-0.00048099,-0.00021599,-0.05404095,-
 0.01702435,0.05747599,0.00000061,0.00000399,-0.00000962,-0.00003241,0.
 00001442,-0.00003079,-0.00013190,-0.00005279,0.00019715,-0.00025180,-0
 .00015918,0.00005732,0.00002110,-0.00000025,-0.00009737,0.00002512,0.0
 0001128,0.00000285,0.00433340,0.00032138,0.00087048,0.00210379,0.02280
 213,0.01516458,-0.08154758,-0.05803701,-0.06459925,-0.00000550,0.00000
 074,0.00000149,-0.00000334,-0.00000073,0.00000038,0.00000065,-0.000000
 78,-0.00000016,-0.00013274,-0.00019460,-0.00005691,0.00046672,0.000536
 09,-0.00034187,-0.00746031,-0.01701805,-0.02191644,0.08061586,-0.00003
 282,0.00001193,0.00001813,0.00000039,-0.00001850,0.00002872,0.00023494
 ,-0.00003009,-0.00039578,0.00036349,0.00025594,0.00050210,-0.00003301,
 -0.00010500,0.00025848,-0.00013148,0.00015236,-0.00006484,-0.00325928,
 0.00123867,0.00218680,0.00280836,-0.03427347,-0.02093819,-0.05128135,-
 0.13818489,-0.10706783,0.00004490,-0.00000109,0.00000008,0.00003548,-0
 .00000692,-0.00000278,0.00003150,-0.00000579,-0.00000303,-0.00015032,0
 .00028385,0.00014490,0.00044983,-0.00026883,-0.00041123,-0.00376458,-0
 .00392044,-0.00663068,0.05156916,0.16471478,-0.00001115,-0.00000068,-0
 .00000725,-0.00000360,0.00000230,0.00000852,0.00008271,-0.00003162,-0.
 00003292,-0.00008725,0.00045155,-0.00044196,-0.00012500,0.00000801,-0.
 00013761,0.00027757,-0.00013831,-0.00004451,-0.00036839,0.00030063,0.0
 0103768,0.00481399,-0.00238541,0.00730755,-0.06330158,-0.10921332,-0.1
 8455898,0.00002154,-0.00000199,0.00000174,0.00001307,-0.00000007,0.000
 00095,0.00001341,-0.00000178,-0.00000054,-0.00004782,0.00011073,0.0002
 1341,0.00023416,-0.00016415,-0.00045976,0.00249522,0.00547480,0.005499
 55,0.06769276,0.12310249,0.19120288,-0.00000609,0.00000784,-0.00000071
 ,0.00000109,-0.00001714,0.00001227,0.00002494,-0.00004260,0.00000590,0
 .00035064,0.00054270,-0.00012888,-0.00020610,0.00038204,-0.00011979,0.
 00002251,-0.00021058,0.00021690,0.00360854,-0.00036443,-0.00206220,-0.
 00463756,0.02070701,-0.01653540,-0.05226652,-0.01202785,0.01754838,0.0
 0000431,0.00000187,-0.00000149,0.00000492,-0.00000225,0.00000053,0.000
 00340,0.00000174,-0.00000010,0.00005803,-0.00007618,-0.00005136,-0.000
 21882,-0.00068939,0.00015799,0.00072983,-0.01207162,0.02680138,0.00199
 833,0.00311478,-0.01169965,0.05052854,-0.00001111,0.00002446,0.0000283
 1,-0.00003460,-0.00000838,-0.00001920,0.00008929,-0.00012773,-0.000306
 19,0.00038930,0.00009728,0.00087340,0.00040840,-0.00039067,0.00052282,
 -0.00060717,0.00042281,-0.00024478,-0.00337275,0.00133728,-0.00093224,
 0.00984692,-0.02836540,0.02736784,-0.00652122,-0.09209351,0.09265993,0
 .00002279,-0.00000317,0.00000059,0.00001065,-0.00000392,-0.00000282,0.
 00001400,-0.00000643,-0.00000298,-0.00013578,-0.00004801,0.00001967,0.
 00018291,0.00012540,-0.00036947,-0.00122986,-0.00257260,0.00836363,0.0
 0020418,0.01015749,-0.01751318,0.00074406,0.11145509,0.00000656,-0.000
 01295,-0.00000890,0.00000004,0.00000005,-0.00000303,-0.00014715,0.0001
 0330,0.00013740,-0.00055842,-0.00013890,0.00018311,-0.00002967,0.00008
 032,-0.00028306,0.00018927,-0.00023838,-0.00027335,0.00090870,-0.00045
 171,0.00133960,-0.00276708,0.00269399,0.00761910,0.01393044,0.09887899
 ,-0.26546797,-0.00001545,0.00000456,-0.00000371,-0.00000567,-0.0000008
 5,-0.00000045,-0.00000952,0.00000463,0.00000283,0.00003478,-0.00004510
 ,-0.00004229,-0.00007593,-0.00012135,-0.00010158,-0.00038253,0.0004160
 8,-0.00343675,0.00306539,0.00927265,-0.01958876,-0.01414376,-0.1104453
 4,0.27992783\\-0.00000065,-0.00000154,0.00000202,-0.00000153,-0.000001
 22,0.00000003,0.00000127,0.00000039,-0.00000158,-0.00000177,0.00000100
 ,0.00000428,0.00000265,0.00000346,-0.00000022,-0.00000156,-0.00000094,
 -0.00000054,0.00000067,-0.00000336,-0.00000248,0.00000020,-0.00000006,
 0.00000014,-0.00000128,0.00000039,-0.00000070,0.00000061,0.00000060,-0
 .00000075,-0.00000007,0.00000085,-0.00000061,0.00000015,0.00000120,-0.
 00000112,0.00000085,-0.00000060,0.00000022,0.00000005,0.00000038,-0.00
 000043,0.00000013,-0.00000005,0.00000068,0.,-0.00000023,0.00000049,0.0
 0000029,-0.00000024,0.00000057\\\@


 FRICTION IS A DRAG,
 AND ENTROPY AIN'T WHAT IT USED TO BE.
 Job cpu time:       0 days  1 hours 27 minutes 50.8 seconds.
 Elapsed time:       0 days  0 hours 21 minutes 59.0 seconds.
 File lengths (MBytes):  RWF=    117 Int=      0 D2E=      0 Chk=      8 Scr=      1
 Normal termination of Gaussian 16 at Sun Jul  3 22:35:19 2022.
### All Done ###
