### Starting Gaussian ###
 Entering Gaussian System, Link 0=g16
 Initial command:
 /cluster/software/gaussian/gaussian-16-A.03/avx2/g16/l1.exe "/local/scratch/ks29c/Gau-16035.inp" -scrdir="/local/scratch/ks29c/"
 Entering Link 1 = /cluster/software/gaussian/gaussian-16-A.03/avx2/g16/l1.exe PID=     16036.
  
 Copyright (c) 1988,1990,1992,1993,1995,1998,2003,2009,2016,
            Gaussian, Inc.  All Rights Reserved.
  
 This is part of the Gaussian(R) 16 program.  It is based on
 the Gaussian(R) 09 system (copyright 2009, Gaussian, Inc.),
 the Gaussian(R) 03 system (copyright 2003, Gaussian, Inc.),
 the Gaussian(R) 98 system (copyright 1998, Gaussian, Inc.),
 the Gaussian(R) 94 system (copyright 1995, Gaussian, Inc.),
 the Gaussian 92(TM) system (copyright 1992, Gaussian, Inc.),
 the Gaussian 90(TM) system (copyright 1990, Gaussian, Inc.),
 the Gaussian 88(TM) system (copyright 1988, Gaussian, Inc.),
 the Gaussian 86(TM) system (copyright 1986, Carnegie Mellon
 University), and the Gaussian 82(TM) system (copyright 1983,
 Carnegie Mellon University). Gaussian is a federally registered
 trademark of Gaussian, Inc.
  
 This software contains proprietary and confidential information,
 including trade secrets, belonging to Gaussian, Inc.
  
 This software is provided under written license and may be
 used, copied, transmitted, or stored only in accord with that
 written license.
  
 The following legend is applicable only to US Government
 contracts under FAR:
  
                    RESTRICTED RIGHTS LEGEND
  
 Use, reproduction and disclosure by the US Government is
 subject to restrictions as set forth in subparagraphs (a)
 and (c) of the Commercial Computer Software - Restricted
 Rights clause in FAR 52.227-19.
  
 Gaussian, Inc.
 340 Quinnipiac St., Bldg. 40, Wallingford CT 06492
  
  
 ---------------------------------------------------------------
 Warning -- This program may not be used in any manner that
 competes with the business of Gaussian, Inc. or will provide
 assistance to any competitor of Gaussian, Inc.  The licensee
 of this program is prohibited from giving any competitor of
 Gaussian, Inc. access to this program.  By using this program,
 the user acknowledges that Gaussian, Inc. is engaged in the
 business of creating and licensing software in the field of
 computational chemistry and represents and warrants to the
 licensee that it is not a competitor of Gaussian, Inc. and that
 it will not use this program in any manner prohibited above.
 ---------------------------------------------------------------
  

 Cite this work as:
 Gaussian 16, Revision A.03,
 M. J. Frisch, G. W. Trucks, H. B. Schlegel, G. E. Scuseria, 
 M. A. Robb, J. R. Cheeseman, G. Scalmani, V. Barone, 
 G. A. Petersson, H. Nakatsuji, X. Li, M. Caricato, A. V. Marenich, 
 J. Bloino, B. G. Janesko, R. Gomperts, B. Mennucci, H. P. Hratchian, 
 J. V. Ortiz, A. F. Izmaylov, J. L. Sonnenberg, D. Williams-Young, 
 F. Ding, F. Lipparini, F. Egidi, J. Goings, B. Peng, A. Petrone, 
 T. Henderson, D. Ranasinghe, V. G. Zakrzewski, J. Gao, N. Rega, 
 G. Zheng, W. Liang, M. Hada, M. Ehara, K. Toyota, R. Fukuda, 
 J. Hasegawa, M. Ishida, T. Nakajima, Y. Honda, O. Kitao, H. Nakai, 
 T. Vreven, K. Throssell, J. A. Montgomery, Jr., J. E. Peralta, 
 F. Ogliaro, M. J. Bearpark, J. J. Heyd, E. N. Brothers, K. N. Kudin, 
 V. N. Staroverov, T. A. Keith, R. Kobayashi, J. Normand, 
 K. Raghavachari, A. P. Rendell, J. C. Burant, S. S. Iyengar, 
 J. Tomasi, M. Cossi, J. M. Millam, M. Klene, C. Adamo, R. Cammi, 
 J. W. Ochterski, R. L. Martin, K. Morokuma, O. Farkas, 
 J. B. Foresman, and D. J. Fox, Gaussian, Inc., Wallingford CT, 2016.
 
 ******************************************
 Gaussian 16:  ES64L-G16RevA.03 25-Dec-2016
                 3-Jul-2022 
 ******************************************
 %chk=CCtCC1pCpCCC1N.chk
 %NProcShared=20
 Will use up to   20 processors via shared memory.
 -----------------------------
 # opt freq b3lyp/6-31g(2df,p)
 -----------------------------
 1/18=20,19=15,26=3,38=1/1,3;
 2/9=110,12=2,17=6,18=5,40=1/2;
 3/5=1,6=6,7=104,11=2,25=1,30=1,71=1,74=-5/1,2,3;
 4//1;
 5/5=2,38=5/2;
 6/7=2,8=2,9=2,10=2,28=1/1;
 7//1,2,3,16;
 1/18=20,19=15,26=3/3(2);
 2/9=110/2;
 99//99;
 2/9=110/2;
 3/5=1,6=6,7=104,11=2,25=1,30=1,71=1,74=-5/1,2,3;
 4/5=5,16=3,69=1/1;
 5/5=2,38=5/2;
 7//1,2,3,16;
 1/18=20,19=15,26=3/3(-5);
 2/9=110/2;
 6/7=2,8=2,9=2,10=2,19=2,28=1/1;
 99/9=1/99;
 -------------------
 Title Card Required
 -------------------
 Symbolic Z-matrix:
 Charge =  0 Multiplicity = 1
 C                     1.04727   0.04863   0.07349 
 C                     2.56727   0.04863   0.07349 
 C                     3.87112   0.04863   0.07349 
 C                     5.31922   0.02492   0.01833 
 C                     5.71948   0.07732  -1.45703 
 C                     5.99966   1.08999   0.94763 
 C                     7.04111   0.01445   1.33289 
 C                     5.97098  -1.03974   0.98148 
 N                     6.58697  -2.14702   0.25536 
 H                     0.67422  -0.90713   0.4519 
 H                     0.67423   0.19878  -0.94342 
 H                     0.6742    0.85421   0.71199 
 H                     5.24919   0.93244  -1.95883 
 H                     5.3788   -0.82707  -1.97818 
 H                     6.79951   0.16431  -1.59773 
 H                     5.38996   1.4074    1.80551 
 H                     6.40241   1.98456   0.46565 
 H                     7.35699   0.03008   2.38085 
 H                     7.93708   0.03401   0.70082 
 H                     5.36109  -1.34704   1.84048 
 H                     7.18381  -1.87794  -0.52842 
 H                     5.9024   -2.79636  -0.12817 
 

 GradGradGradGradGradGradGradGradGradGradGradGradGradGradGradGradGradGrad
 Berny optimization.
 Initialization pass.
                           ----------------------------
                           !    Initial Parameters    !
                           ! (Angstroms and Degrees)  !
 --------------------------                            --------------------------
 ! Name  Definition              Value          Derivative Info.                !
 --------------------------------------------------------------------------------
 ! R1    R(1,2)                  1.52           estimate D2E/DX2                !
 ! R2    R(1,10)                 1.0935         estimate D2E/DX2                !
 ! R3    R(1,11)                 1.0935         estimate D2E/DX2                !
 ! R4    R(1,12)                 1.0935         estimate D2E/DX2                !
 ! R5    R(2,3)                  1.3038         estimate D2E/DX2                !
 ! R6    R(3,4)                  1.4493         estimate D2E/DX2                !
 ! R7    R(4,5)                  1.5296         estimate D2E/DX2                !
 ! R8    R(4,6)                  1.5687         estimate D2E/DX2                !
 ! R9    R(4,8)                  1.5767         estimate D2E/DX2                !
 ! R10   R(5,13)                 1.0974         estimate D2E/DX2                !
 ! R11   R(5,14)                 1.098          estimate D2E/DX2                !
 ! R12   R(5,15)                 1.0926         estimate D2E/DX2                !
 ! R13   R(6,7)                  1.5459         estimate D2E/DX2                !
 ! R14   R(6,16)                 1.0993         estimate D2E/DX2                !
 ! R15   R(6,17)                 1.0931         estimate D2E/DX2                !
 ! R16   R(7,8)                  1.5427         estimate D2E/DX2                !
 ! R17   R(7,18)                 1.0946         estimate D2E/DX2                !
 ! R18   R(7,19)                 1.0967         estimate D2E/DX2                !
 ! R19   R(8,9)                  1.4604         estimate D2E/DX2                !
 ! R20   R(8,20)                 1.0974         estimate D2E/DX2                !
 ! R21   R(9,21)                 1.0212         estimate D2E/DX2                !
 ! R22   R(9,22)                 1.0185         estimate D2E/DX2                !
 ! A1    A(2,1,10)             109.9463         estimate D2E/DX2                !
 ! A2    A(2,1,11)             109.9459         estimate D2E/DX2                !
 ! A3    A(2,1,12)             109.9475         estimate D2E/DX2                !
 ! A4    A(10,1,11)            108.9915         estimate D2E/DX2                !
 ! A5    A(10,1,12)            108.9913         estimate D2E/DX2                !
 ! A6    A(11,1,12)            108.9924         estimate D2E/DX2                !
 ! A7    A(3,4,5)              107.3137         estimate D2E/DX2                !
 ! A8    A(3,4,6)              113.5608         estimate D2E/DX2                !
 ! A9    A(3,4,8)              113.6292         estimate D2E/DX2                !
 ! A10   A(5,4,6)              115.7612         estimate D2E/DX2                !
 ! A11   A(5,4,8)              120.2765         estimate D2E/DX2                !
 ! A12   A(6,4,8)               85.2551         estimate D2E/DX2                !
 ! A13   A(4,5,13)             110.8312         estimate D2E/DX2                !
 ! A14   A(4,5,14)             110.3897         estimate D2E/DX2                !
 ! A15   A(4,5,15)             112.6808         estimate D2E/DX2                !
 ! A16   A(13,5,14)            106.9679         estimate D2E/DX2                !
 ! A17   A(13,5,15)            107.6197         estimate D2E/DX2                !
 ! A18   A(14,5,15)            108.1289         estimate D2E/DX2                !
 ! A19   A(4,6,7)               88.1366         estimate D2E/DX2                !
 ! A20   A(4,6,16)             114.6931         estimate D2E/DX2                !
 ! A21   A(4,6,17)             117.017          estimate D2E/DX2                !
 ! A22   A(7,6,16)             112.3366         estimate D2E/DX2                !
 ! A23   A(7,6,17)             115.5349         estimate D2E/DX2                !
 ! A24   A(16,6,17)            108.1897         estimate D2E/DX2                !
 ! A25   A(6,7,8)               87.2109         estimate D2E/DX2                !
 ! A26   A(6,7,18)             115.0276         estimate D2E/DX2                !
 ! A27   A(6,7,19)             113.2256         estimate D2E/DX2                !
 ! A28   A(8,7,18)             115.3406         estimate D2E/DX2                !
 ! A29   A(8,7,19)             116.5914         estimate D2E/DX2                !
 ! A30   A(18,7,19)            108.407          estimate D2E/DX2                !
 ! A31   A(4,8,7)               87.9638         estimate D2E/DX2                !
 ! A32   A(4,8,9)              112.4953         estimate D2E/DX2                !
 ! A33   A(4,8,20)             115.9455         estimate D2E/DX2                !
 ! A34   A(7,8,9)              109.8024         estimate D2E/DX2                !
 ! A35   A(7,8,20)             113.4882         estimate D2E/DX2                !
 ! A36   A(9,8,20)             114.2862         estimate D2E/DX2                !
 ! A37   A(8,9,21)             115.3616         estimate D2E/DX2                !
 ! A38   A(8,9,22)             112.7748         estimate D2E/DX2                !
 ! A39   A(21,9,22)            105.7707         estimate D2E/DX2                !
 ! A40   L(1,2,3,22,-1)        180.0            estimate D2E/DX2                !
 ! A41   L(2,3,4,13,-1)        178.3904         estimate D2E/DX2                !
 ! A42   L(1,2,3,22,-2)        180.0            estimate D2E/DX2                !
 ! A43   L(2,3,4,13,-2)        182.0737         estimate D2E/DX2                !
 ! D1    D(10,1,4,5)           113.4379         estimate D2E/DX2                !
 ! D2    D(10,1,4,6)          -117.422          estimate D2E/DX2                !
 ! D3    D(10,1,4,8)           -21.1696         estimate D2E/DX2                !
 ! D4    D(11,1,4,5)            -6.1191         estimate D2E/DX2                !
 ! D5    D(11,1,4,6)           123.021          estimate D2E/DX2                !
 ! D6    D(11,1,4,8)          -140.7267         estimate D2E/DX2                !
 ! D7    D(12,1,4,5)          -126.1286         estimate D2E/DX2                !
 ! D8    D(12,1,4,6)             3.0115         estimate D2E/DX2                !
 ! D9    D(12,1,4,8)            99.2638         estimate D2E/DX2                !
 ! D10   D(3,4,5,13)            53.61           estimate D2E/DX2                !
 ! D11   D(3,4,5,14)           -64.7195         estimate D2E/DX2                !
 ! D12   D(3,4,5,15)           174.2755         estimate D2E/DX2                !
 ! D13   D(6,4,5,13)           -74.366          estimate D2E/DX2                !
 ! D14   D(6,4,5,14)           167.3045         estimate D2E/DX2                !
 ! D15   D(6,4,5,15)            46.2994         estimate D2E/DX2                !
 ! D16   D(8,4,5,13)          -174.4667         estimate D2E/DX2                !
 ! D17   D(8,4,5,14)            67.2038         estimate D2E/DX2                !
 ! D18   D(8,4,5,15)           -53.8012         estimate D2E/DX2                !
 ! D19   D(3,4,6,7)            138.6741         estimate D2E/DX2                !
 ! D20   D(3,4,6,16)            24.8733         estimate D2E/DX2                !
 ! D21   D(3,4,6,17)          -103.4518         estimate D2E/DX2                !
 ! D22   D(5,4,6,7)            -96.5101         estimate D2E/DX2                !
 ! D23   D(5,4,6,16)           149.6891         estimate D2E/DX2                !
 ! D24   D(5,4,6,17)            21.364          estimate D2E/DX2                !
 ! D25   D(8,4,6,7)             24.9349         estimate D2E/DX2                !
 ! D26   D(8,4,6,16)           -88.8659         estimate D2E/DX2                !
 ! D27   D(8,4,6,17)           142.809          estimate D2E/DX2                !
 ! D28   D(3,4,8,7)           -138.664          estimate D2E/DX2                !
 ! D29   D(3,4,8,9)            110.715          estimate D2E/DX2                !
 ! D30   D(3,4,8,20)           -23.4364         estimate D2E/DX2                !
 ! D31   D(5,4,8,7)             92.1712         estimate D2E/DX2                !
 ! D32   D(5,4,8,9)            -18.4498         estimate D2E/DX2                !
 ! D33   D(5,4,8,20)          -152.6012         estimate D2E/DX2                !
 ! D34   D(6,4,8,7)            -24.9927         estimate D2E/DX2                !
 ! D35   D(6,4,8,9)           -135.6137         estimate D2E/DX2                !
 ! D36   D(6,4,8,20)            90.2349         estimate D2E/DX2                !
 ! D37   D(4,6,7,8)            -25.4614         estimate D2E/DX2                !
 ! D38   D(4,6,7,18)          -142.2157         estimate D2E/DX2                !
 ! D39   D(4,6,7,19)            92.3636         estimate D2E/DX2                !
 ! D40   D(16,6,7,8)            90.5479         estimate D2E/DX2                !
 ! D41   D(16,6,7,18)          -26.2064         estimate D2E/DX2                !
 ! D42   D(16,6,7,19)         -151.6271         estimate D2E/DX2                !
 ! D43   D(17,6,7,8)          -144.6806         estimate D2E/DX2                !
 ! D44   D(17,6,7,18)           98.5651         estimate D2E/DX2                !
 ! D45   D(17,6,7,19)          -26.8556         estimate D2E/DX2                !
 ! D46   D(6,7,8,4)             25.3269         estimate D2E/DX2                !
 ! D47   D(6,7,8,9)            138.5374         estimate D2E/DX2                !
 ! D48   D(6,7,8,20)           -92.1825         estimate D2E/DX2                !
 ! D49   D(18,7,8,4)           141.7873         estimate D2E/DX2                !
 ! D50   D(18,7,8,9)          -105.0022         estimate D2E/DX2                !
 ! D51   D(18,7,8,20)           24.2779         estimate D2E/DX2                !
 ! D52   D(19,7,8,4)           -89.3272         estimate D2E/DX2                !
 ! D53   D(19,7,8,9)            23.8833         estimate D2E/DX2                !
 ! D54   D(19,7,8,20)          153.1635         estimate D2E/DX2                !
 ! D55   D(4,8,9,21)            47.0315         estimate D2E/DX2                !
 ! D56   D(4,8,9,22)           -74.6516         estimate D2E/DX2                !
 ! D57   D(7,8,9,21)           -49.1822         estimate D2E/DX2                !
 ! D58   D(7,8,9,22)          -170.8653         estimate D2E/DX2                !
 ! D59   D(20,8,9,21)         -178.0269         estimate D2E/DX2                !
 ! D60   D(20,8,9,22)           60.29           estimate D2E/DX2                !
 --------------------------------------------------------------------------------
 Trust Radius=3.00D-01 FncErr=1.00D-07 GrdErr=1.00D-06 EigMax=2.50D+02 EigMin=1.00D-04
 Number of steps in this run=    132 maximum allowed number of steps=    132.
 GradGradGradGradGradGradGradGradGradGradGradGradGradGradGradGradGradGrad

                          Input orientation:                          
 ---------------------------------------------------------------------
 Center     Atomic      Atomic             Coordinates (Angstroms)
 Number     Number       Type             X           Y           Z
 ---------------------------------------------------------------------
      1          6           0        1.047270    0.048630    0.073490
      2          6           0        2.567270    0.048630    0.073490
      3          6           0        3.871120    0.048630    0.073490
      4          6           0        5.319220    0.024920    0.018330
      5          6           0        5.719480    0.077320   -1.457030
      6          6           0        5.999660    1.089990    0.947630
      7          6           0        7.041110    0.014450    1.332890
      8          6           0        5.970980   -1.039740    0.981480
      9          7           0        6.586970   -2.147020    0.255360
     10          1           0        0.674220   -0.907130    0.451900
     11          1           0        0.674230    0.198780   -0.943420
     12          1           0        0.674200    0.854210    0.711990
     13          1           0        5.249190    0.932440   -1.958830
     14          1           0        5.378800   -0.827070   -1.978180
     15          1           0        6.799510    0.164310   -1.597730
     16          1           0        5.389960    1.407400    1.805510
     17          1           0        6.402410    1.984560    0.465650
     18          1           0        7.356990    0.030080    2.380850
     19          1           0        7.937080    0.034010    0.700820
     20          1           0        5.361090   -1.347040    1.840480
     21          1           0        7.183810   -1.877940   -0.528420
     22          1           0        5.902400   -2.796360   -0.128170
 ---------------------------------------------------------------------
                    Distance matrix (angstroms):
                    1          2          3          4          5
     1  C    0.000000
     2  C    1.520000   0.000000
     3  C    2.823850   1.303850   0.000000
     4  C    4.272372   2.752605   1.449344   0.000000
     5  C    4.916590   3.504246   2.399948   1.529588   0.000000
     6  C    5.135632   3.691863   2.525715   1.568748   2.624193
     7  C    6.124816   4.647849   3.411172   2.166352   3.087768
     8  C    5.123662   3.687036   2.533458   1.576690   2.693957
     9  N    5.961731   4.583879   3.497113   2.526004   2.938113
    10  H    1.093544   2.154138   3.358101   4.757386   5.483412
    11  H    1.093531   2.154124   3.358088   4.746696   5.072780
    12  H    1.093537   2.154148   3.358115   4.769182   5.546445
    13  H    4.750534   3.479100   2.609698   2.176616   1.097363
    14  H    4.872202   3.588997   2.692452   2.171518   1.097990
    15  H    5.991212   4.551726   3.373696   2.195982   1.092625
    16  H    4.868789   3.579627   2.674514   2.260590   3.538625
    17  H    5.707814   4.313921   3.210770   2.283328   2.792965
    18  H    6.718394   5.316547   4.180376   3.119941   4.172888
    19  H    6.918326   5.406350   4.114096   2.705377   3.094502
    20  H    4.866127   3.588256   2.700029   2.281284   3.609822
    21  H    6.459961   5.038493   3.879160   2.719652   2.613354
    22  H    5.630890   4.388363   3.501533   2.884646   3.171335
                    6          7          8          9         10
     6  C    0.000000
     7  C    1.545907   0.000000
     8  C    2.130192   1.542720   0.000000
     9  N    3.361905   2.457492   1.460398   0.000000
    10  H    5.709163   6.493284   5.324820   6.044549   0.000000
    11  H    5.721060   6.764076   5.770159   6.473048   1.780437
    12  H    5.335883   6.451996   5.631656   6.646559   1.780440
    13  H    3.005917   3.858640   3.613295   4.021861   5.488715
    14  H    3.552598   3.799291   3.025805   2.861930   5.295731
    15  H    2.824093   2.944378   2.964544   2.970078   6.547377
    16  H    1.099291   2.211329   2.646716   4.058288   5.424713
    17  H    1.093054   2.245301   3.098161   4.141043   6.416714
    18  H    2.240507   1.094644   2.241378   3.138535   7.018449
    19  H    2.220271   1.096657   2.257711   2.603483   7.327813
    20  H    2.672839   2.221209   1.097397   2.157627   4.907996
    21  H    3.519878   2.658191   2.110292   1.021241   6.654191
    22  H    4.033673   3.366305   2.078880   1.018515   5.589234
                   11         12         13         14         15
    11  H    0.000000
    12  H    1.780441   0.000000
    13  H    4.743372   5.298107   0.000000
    14  H    4.925046   5.674238   1.764383   0.000000
    15  H    6.160224   6.582567   1.767458   1.773695   0.000000
    16  H    5.590661   4.872391   3.796796   4.394234   3.887692
    17  H    6.163322   5.843866   2.883570   3.863334   2.780024
    18  H    7.465823   6.937144   4.908146   4.863032   4.019689
    19  H    7.448467   7.309055   3.886601   3.803064   2.567952
    20  H    5.666243   5.299616   4.432077   3.853939   4.021756
    21  H    6.845409   7.167865   3.699603   2.542478   2.337070
    22  H    6.080235   6.431688   4.204991   2.752235   3.424906
                   16         17         18         19         20
    16  H    0.000000
    17  H    1.775780   0.000000
    18  H    2.469258   2.898138   0.000000
    19  H    3.097476   2.493023   1.777363   0.000000
    20  H    2.754813   3.751541   2.484366   3.137172   0.000000
    21  H    4.411189   4.064193   3.483444   2.394577   3.035762
    22  H    4.655460   4.843535   4.049664   3.583035   2.503823
                   21         22
    21  H    0.000000
    22  H    1.626563   0.000000
 Stoichiometry    C8H13N
 Framework group  C1[X(C8H13N)]
 Deg. of freedom    60
 Full point group                 C1      NOp   1
 Largest Abelian subgroup         C1      NOp   1
 Largest concise Abelian subgroup C1      NOp   1
                         Standard orientation:                         
 ---------------------------------------------------------------------
 Center     Atomic      Atomic             Coordinates (Angstroms)
 Number     Number       Type             X           Y           Z
 ---------------------------------------------------------------------
      1          6           0        3.892990   -0.099555   -0.361101
      2          6           0        2.395847    0.006823   -0.121003
      3          6           0        1.111604    0.098072    0.084953
      4          6           0       -0.311891    0.153139    0.351839
      5          6           0       -0.538393   -0.448272    1.739875
      6          6           0       -0.940500    1.570273    0.111938
      7          6           0       -2.152487    0.866562   -0.540524
      8          6           0       -1.201539   -0.303474   -0.867169
      9          7           0       -1.877657   -1.574205   -0.620454
     10          1           0        4.091041   -0.799255   -1.177823
     11          1           0        4.391329   -0.458450    0.543698
     12          1           0        4.298928    0.880690   -0.625975
     13          1           0        0.094160    0.046701    2.487595
     14          1           0       -0.267347   -1.512271    1.744648
     15          1           0       -1.575190   -0.360055    2.073189
     16          1           0       -0.390853    2.201865   -0.600396
     17          1           0       -1.164728    2.170383    0.997578
     18          1           0       -2.575676    1.382586   -1.408208
     19          1           0       -2.963509    0.657051    0.167293
     20          1           0       -0.735601   -0.224964   -1.857633
     21          1           0       -2.344061   -1.653039    0.284635
     22          1           0       -1.248681   -2.373217   -0.678274
 ---------------------------------------------------------------------
 Rotational constants (GHZ):           2.7671651           0.8930739           0.8600929
 Standard basis: 6-31G(2df,p) (6D, 7F)
 There are   344 symmetry adapted cartesian basis functions of A   symmetry.
 There are   317 symmetry adapted basis functions of A   symmetry.
   317 basis functions,   487 primitive gaussians,   344 cartesian basis functions
    34 alpha electrons       34 beta electrons
       nuclear repulsion energy       433.1003405003 Hartrees.
 NAtoms=   22 NActive=   22 NUniq=   22 SFac= 1.00D+00 NAtFMM=   60 NAOKFM=F Big=F
 Integral buffers will be    131072 words long.
 Raffenetti 2 integral format.
 Two-electron integral symmetry is turned on.
 One-electron integrals computed using PRISM.
 PrsmSu:  requested number of processors reduced to:  13 ShMem   1 Linda.
 NBasis=   317 RedAO= T EigKep=  9.15D-05  NBF=   317
 NBsUse=   317 1.00D-06 EigRej= -1.00D+00 NBFU=   317
 ExpMin= 1.61D-01 ExpMax= 4.17D+03 ExpMxC= 6.27D+02 IAcc=3 IRadAn=         5 AccDes= 0.00D+00
 Harris functional with IExCor=  402 and IRadAn=       5 diagonalized for initial guess.
 HarFok:  IExCor=  402 AccDes= 0.00D+00 IRadAn=         5 IDoV= 1 UseB2=F ITyADJ=14
 ICtDFT=  3500011 ScaDFX=  1.000000  1.000000  1.000000  1.000000
 FoFCou: FMM=F IPFlag=           0 FMFlag=      100000 FMFlg1=           0
         NFxFlg=           0 DoJE=T BraDBF=F KetDBF=T FulRan=T
         wScrn=  0.000000 ICntrl=       500 IOpCl=  0 I1Cent=   200000004 NGrid=           0
         NMat0=    1 NMatS0=      1 NMatT0=    0 NMatD0=    1 NMtDS0=    0 NMtDT0=    0
 Petite list used in FoFCou.
 Requested convergence on RMS density matrix=1.00D-08 within 128 cycles.
 Requested convergence on MAX density matrix=1.00D-06.
 Requested convergence on             energy=1.00D-06.
 No special actions if energy rises.
 Integral accuracy reduced to 1.0D-05 until final iterations.
 Initial convergence to 1.0D-05 achieved.  Increase integral accuracy.
 SCF Done:  E(RB3LYP) =  -367.339959460     A.U. after   13 cycles
            NFock= 13  Conv=0.66D-08     -V/T= 2.0097

 **********************************************************************

            Population analysis using the SCF density.

 **********************************************************************

 Orbital symmetries:
       Occupied  (A) (A) (A) (A) (A) (A) (A) (A) (A) (A) (A) (A)
                 (A) (A) (A) (A) (A) (A) (A) (A) (A) (A) (A) (A)
                 (A) (A) (A) (A) (A) (A) (A) (A) (A) (A)
       Virtual   (A) (A) (A) (A) (A) (A) (A) (A) (A) (A) (A) (A)
                 (A) (A) (A) (A) (A) (A) (A) (A) (A) (A) (A) (A)
                 (A) (A) (A) (A) (A) (A) (A) (A) (A) (A) (A) (A)
                 (A) (A) (A) (A) (A) (A) (A) (A) (A) (A) (A) (A)
                 (A) (A) (A) (A) (A) (A) (A) (A) (A) (A) (A) (A)
                 (A) (A) (A) (A) (A) (A) (A) (A) (A) (A) (A) (A)
                 (A) (A) (A) (A) (A) (A) (A) (A) (A) (A) (A) (A)
                 (A) (A) (A) (A) (A) (A) (A) (A) (A) (A) (A) (A)
                 (A) (A) (A) (A) (A) (A) (A) (A) (A) (A) (A) (A)
                 (A) (A) (A) (A) (A) (A) (A) (A) (A) (A) (A) (A)
                 (A) (A) (A) (A) (A) (A) (A) (A) (A) (A) (A) (A)
                 (A) (A) (A) (A) (A) (A) (A) (A) (A) (A) (A) (A)
                 (A) (A) (A) (A) (A) (A) (A) (A) (A) (A) (A) (A)
                 (A) (A) (A) (A) (A) (A) (A) (A) (A) (A) (A) (A)
                 (A) (A) (A) (A) (A) (A) (A) (A) (A) (A) (A) (A)
                 (A) (A) (A) (A) (A) (A) (A) (A) (A) (A) (A) (A)
                 (A) (A) (A) (A) (A) (A) (A) (A) (A) (A) (A) (A)
                 (A) (A) (A) (A) (A) (A) (A) (A) (A) (A) (A) (A)
                 (A) (A) (A) (A) (A) (A) (A) (A) (A) (A) (A) (A)
                 (A) (A) (A) (A) (A) (A) (A) (A) (A) (A) (A) (A)
                 (A) (A) (A) (A) (A) (A) (A) (A) (A) (A) (A) (A)
                 (A) (A) (A) (A) (A) (A) (A) (A) (A) (A) (A) (A)
                 (A) (A) (A) (A) (A) (A) (A) (A) (A) (A) (A) (A)
                 (A) (A) (A) (A) (A) (A) (A)
 The electronic state is 1-A.
 Alpha  occ. eigenvalues --  -14.30189 -10.21447 -10.20543 -10.20397 -10.18362
 Alpha  occ. eigenvalues --  -10.18160 -10.17883 -10.17508 -10.17458  -0.89242
 Alpha  occ. eigenvalues --   -0.81973  -0.75257  -0.73490  -0.67518  -0.63504
 Alpha  occ. eigenvalues --   -0.62158  -0.54772  -0.51417  -0.47266  -0.45728
 Alpha  occ. eigenvalues --   -0.43425  -0.42864  -0.41955  -0.41853  -0.40347
 Alpha  occ. eigenvalues --   -0.39093  -0.38902  -0.34788  -0.33385  -0.31768
 Alpha  occ. eigenvalues --   -0.30314  -0.24374  -0.22307  -0.20448
 Alpha virt. eigenvalues --    0.04454   0.05158   0.08105   0.09770   0.10923
 Alpha virt. eigenvalues --    0.11204   0.13779   0.14345   0.15633   0.16284
 Alpha virt. eigenvalues --    0.17516   0.17729   0.18388   0.18838   0.19833
 Alpha virt. eigenvalues --    0.20545   0.21436   0.22083   0.23814   0.24698
 Alpha virt. eigenvalues --    0.27943   0.31377   0.32598   0.36726   0.42491
 Alpha virt. eigenvalues --    0.46705   0.47144   0.48515   0.49192   0.49982
 Alpha virt. eigenvalues --    0.51453   0.52749   0.53887   0.54504   0.56887
 Alpha virt. eigenvalues --    0.57405   0.59981   0.61584   0.62664   0.62894
 Alpha virt. eigenvalues --    0.63669   0.64784   0.67068   0.68369   0.69168
 Alpha virt. eigenvalues --    0.70209   0.70453   0.71571   0.73778   0.74280
 Alpha virt. eigenvalues --    0.75677   0.76352   0.77274   0.77771   0.78485
 Alpha virt. eigenvalues --    0.79160   0.79873   0.80776   0.82182   0.82896
 Alpha virt. eigenvalues --    0.83253   0.85068   0.86953   0.87886   0.91634
 Alpha virt. eigenvalues --    0.92529   0.93881   0.96469   0.98822   1.03917
 Alpha virt. eigenvalues --    1.05192   1.06227   1.08167   1.08960   1.12785
 Alpha virt. eigenvalues --    1.16543   1.19063   1.22889   1.23307   1.26596
 Alpha virt. eigenvalues --    1.29006   1.33029   1.36017   1.37517   1.40340
 Alpha virt. eigenvalues --    1.40870   1.41797   1.43518   1.47193   1.47727
 Alpha virt. eigenvalues --    1.50490   1.50980   1.53400   1.54408   1.57246
 Alpha virt. eigenvalues --    1.58604   1.59277   1.63437   1.63846   1.66484
 Alpha virt. eigenvalues --    1.67856   1.69988   1.74221   1.75614   1.77228
 Alpha virt. eigenvalues --    1.77518   1.78827   1.82590   1.84272   1.86381
 Alpha virt. eigenvalues --    1.90755   1.93725   1.94609   1.97146   1.97434
 Alpha virt. eigenvalues --    2.00931   2.02156   2.07789   2.09583   2.19172
 Alpha virt. eigenvalues --    2.21027   2.26680   2.27871   2.28863   2.30119
 Alpha virt. eigenvalues --    2.32978   2.33396   2.38132   2.39725   2.43883
 Alpha virt. eigenvalues --    2.45762   2.47911   2.50345   2.51049   2.55452
 Alpha virt. eigenvalues --    2.57522   2.59886   2.63319   2.64191   2.69180
 Alpha virt. eigenvalues --    2.70202   2.72498   2.73180   2.73337   2.74801
 Alpha virt. eigenvalues --    2.77880   2.81077   2.82046   2.83724   2.84743
 Alpha virt. eigenvalues --    2.86753   2.88059   2.89500   2.90769   2.91539
 Alpha virt. eigenvalues --    2.94503   2.95262   2.97546   2.98390   3.00203
 Alpha virt. eigenvalues --    3.01361   3.02227   3.04151   3.05173   3.05821
 Alpha virt. eigenvalues --    3.08020   3.08921   3.13060   3.14274   3.17929
 Alpha virt. eigenvalues --    3.21811   3.23890   3.27006   3.28776   3.32279
 Alpha virt. eigenvalues --    3.32872   3.35623   3.37210   3.39292   3.41233
 Alpha virt. eigenvalues --    3.42975   3.44020   3.45973   3.51120   3.53216
 Alpha virt. eigenvalues --    3.55846   3.58547   3.60141   3.62687   3.64856
 Alpha virt. eigenvalues --    3.66378   3.69615   3.71671   3.72784   3.74627
 Alpha virt. eigenvalues --    3.78515   3.79597   3.83338   3.84207   3.87600
 Alpha virt. eigenvalues --    3.90367   3.93792   3.97388   3.98204   4.03812
 Alpha virt. eigenvalues --    4.05756   4.07409   4.12322   4.14515   4.15651
 Alpha virt. eigenvalues --    4.19718   4.21495   4.23346   4.25726   4.26226
 Alpha virt. eigenvalues --    4.28203   4.30228   4.34805   4.35297   4.39703
 Alpha virt. eigenvalues --    4.40889   4.42739   4.43362   4.44914   4.45947
 Alpha virt. eigenvalues --    4.49022   4.51636   4.52683   4.56549   4.58853
 Alpha virt. eigenvalues --    4.61537   4.64100   4.66162   4.67635   4.70044
 Alpha virt. eigenvalues --    4.71571   4.72447   4.73889   4.74094   4.76738
 Alpha virt. eigenvalues --    4.78239   4.78893   4.79286   4.79963   4.86791
 Alpha virt. eigenvalues --    4.88197   4.89098   4.92276   4.92555   4.94923
 Alpha virt. eigenvalues --    4.96700   4.99519   5.01038   5.02137   5.03945
 Alpha virt. eigenvalues --    5.09144   5.13693   5.18031   5.25849   5.28484
 Alpha virt. eigenvalues --    5.34573   5.39888   5.45049   5.47839   5.51915
 Alpha virt. eigenvalues --    5.54864   5.57689   5.66710   5.70080   5.94296
 Alpha virt. eigenvalues --    6.15887   6.23901   7.72653   9.90512  10.07682
 Alpha virt. eigenvalues --   11.07134  11.39588  11.66929  11.77848  11.92881
 Alpha virt. eigenvalues --   12.29920  13.05410  13.34297
          Condensed to atoms (all electrons):
               1          2          3          4          5          6
     1  C    4.976518   0.433917  -0.042360  -0.001650  -0.000011   0.000022
     2  C    0.433917   4.839606   0.857871  -0.017897  -0.004687  -0.001685
     3  C   -0.042360   0.857871   4.836032   0.423056  -0.064216  -0.031242
     4  C   -0.001650  -0.017897   0.423056   4.602890   0.401557   0.349393
     5  C   -0.000011  -0.004687  -0.064216   0.401557   5.119965  -0.040675
     6  C    0.000022  -0.001685  -0.031242   0.349393  -0.040675   5.100849
     7  C   -0.000001  -0.000254   0.000545  -0.102395   0.006393   0.314749
     8  C    0.000030  -0.001822  -0.031920   0.394727  -0.033386  -0.113251
     9  N    0.000000  -0.000060  -0.000789  -0.082864  -0.006057   0.003786
    10  H    0.375808  -0.025416  -0.000945   0.000031  -0.000000  -0.000004
    11  H    0.377285  -0.025978  -0.001130   0.000058   0.000013  -0.000002
    12  H    0.375576  -0.024966  -0.000932   0.000015  -0.000002   0.000016
    13  H   -0.000017   0.001076  -0.002236  -0.012034   0.364968  -0.003387
    14  H   -0.000010   0.000642  -0.000816  -0.017208   0.355493   0.005330
    15  H    0.000001   0.000180   0.006747  -0.017865   0.346950  -0.005679
    16  H   -0.000006   0.002395  -0.001552  -0.016473   0.004515   0.355894
    17  H   -0.000001  -0.000408  -0.000667  -0.013607  -0.007315   0.352221
    18  H   -0.000000  -0.000027  -0.000741   0.004470  -0.000156  -0.020105
    19  H    0.000000   0.000029   0.000944   0.001646  -0.000274  -0.023033
    20  H   -0.000002   0.002462  -0.002558  -0.039813   0.004477   0.006549
    21  H    0.000000   0.000027   0.000238  -0.010593   0.005038   0.000187
    22  H   -0.000000   0.000012   0.000254   0.000294   0.000389  -0.000703
               7          8          9         10         11         12
     1  C   -0.000001   0.000030   0.000000   0.375808   0.377285   0.375576
     2  C   -0.000254  -0.001822  -0.000060  -0.025416  -0.025978  -0.024966
     3  C    0.000545  -0.031920  -0.000789  -0.000945  -0.001130  -0.000932
     4  C   -0.102395   0.394727  -0.082864   0.000031   0.000058   0.000015
     5  C    0.006393  -0.033386  -0.006057  -0.000000   0.000013  -0.000002
     6  C    0.314749  -0.113251   0.003786  -0.000004  -0.000002   0.000016
     7  C    5.061084   0.312617  -0.010238  -0.000000   0.000000  -0.000000
     8  C    0.312617   4.833452   0.408373   0.000008  -0.000002  -0.000002
     9  N   -0.010238   0.408373   6.534885  -0.000000   0.000000   0.000000
    10  H   -0.000000   0.000008  -0.000000   0.565134  -0.032036  -0.031754
    11  H    0.000000  -0.000002   0.000000  -0.032036   0.563554  -0.031715
    12  H   -0.000000  -0.000002   0.000000  -0.031754  -0.031715   0.563543
    13  H   -0.000132   0.003908   0.000525   0.000001  -0.000004  -0.000001
    14  H    0.000111  -0.006451   0.006717  -0.000002  -0.000002   0.000001
    15  H    0.003776  -0.004771  -0.000069   0.000000  -0.000000   0.000000
    16  H   -0.020553   0.000205  -0.000035   0.000000   0.000001  -0.000005
    17  H   -0.028472   0.008244  -0.000376   0.000000   0.000000  -0.000001
    18  H    0.357657  -0.014654   0.000903   0.000000  -0.000000   0.000000
    19  H    0.362981  -0.017850  -0.006824   0.000000  -0.000000   0.000000
    20  H   -0.032665   0.359793  -0.022937  -0.000006   0.000001   0.000000
    21  H   -0.004479  -0.041008   0.348454  -0.000000  -0.000000   0.000000
    22  H    0.008349  -0.058494   0.343985  -0.000001   0.000000   0.000000
              13         14         15         16         17         18
     1  C   -0.000017  -0.000010   0.000001  -0.000006  -0.000001  -0.000000
     2  C    0.001076   0.000642   0.000180   0.002395  -0.000408  -0.000027
     3  C   -0.002236  -0.000816   0.006747  -0.001552  -0.000667  -0.000741
     4  C   -0.012034  -0.017208  -0.017865  -0.016473  -0.013607   0.004470
     5  C    0.364968   0.355493   0.346950   0.004515  -0.007315  -0.000156
     6  C   -0.003387   0.005330  -0.005679   0.355894   0.352221  -0.020105
     7  C   -0.000132   0.000111   0.003776  -0.020553  -0.028472   0.357657
     8  C    0.003908  -0.006451  -0.004771   0.000205   0.008244  -0.014654
     9  N    0.000525   0.006717  -0.000069  -0.000035  -0.000376   0.000903
    10  H    0.000001  -0.000002   0.000000   0.000000   0.000000   0.000000
    11  H   -0.000004  -0.000002  -0.000000   0.000001   0.000000  -0.000000
    12  H   -0.000001   0.000001   0.000000  -0.000005  -0.000001   0.000000
    13  H    0.571564  -0.030278  -0.030138  -0.000016   0.002168   0.000006
    14  H   -0.030278   0.595540  -0.032759  -0.000147  -0.000077   0.000007
    15  H   -0.030138  -0.032759   0.623932  -0.000074   0.000805  -0.000131
    16  H   -0.000016  -0.000147  -0.000074   0.602687  -0.038923  -0.007404
    17  H    0.002168  -0.000077   0.000805  -0.038923   0.637894   0.002939
    18  H    0.000006   0.000007  -0.000131  -0.007404   0.002939   0.628839
    19  H    0.000012  -0.000095   0.001807   0.004239  -0.007181  -0.040090
    20  H   -0.000076   0.000052  -0.000124   0.001625  -0.000630  -0.005719
    21  H   -0.000096   0.002053   0.003049   0.000005  -0.000051  -0.000107
    22  H   -0.000019   0.001655   0.000137   0.000020   0.000017  -0.000203
              19         20         21         22
     1  C    0.000000  -0.000002   0.000000  -0.000000
     2  C    0.000029   0.002462   0.000027   0.000012
     3  C    0.000944  -0.002558   0.000238   0.000254
     4  C    0.001646  -0.039813  -0.010593   0.000294
     5  C   -0.000274   0.004477   0.005038   0.000389
     6  C   -0.023033   0.006549   0.000187  -0.000703
     7  C    0.362981  -0.032665  -0.004479   0.008349
     8  C   -0.017850   0.359793  -0.041008  -0.058494
     9  N   -0.006824  -0.022937   0.348454   0.343985
    10  H    0.000000  -0.000006  -0.000000  -0.000001
    11  H   -0.000000   0.000001  -0.000000   0.000000
    12  H    0.000000   0.000000   0.000000   0.000000
    13  H    0.000012  -0.000076  -0.000096  -0.000019
    14  H   -0.000095   0.000052   0.002053   0.001655
    15  H    0.001807  -0.000124   0.003049   0.000137
    16  H    0.004239   0.001625   0.000005   0.000020
    17  H   -0.007181  -0.000630  -0.000051   0.000017
    18  H   -0.040090  -0.005719  -0.000107  -0.000203
    19  H    0.612956   0.003797   0.004329   0.000027
    20  H    0.003797   0.621684   0.004831  -0.003297
    21  H    0.004329   0.004831   0.494373  -0.035498
    22  H    0.000027  -0.003297  -0.035498   0.521192
 Mulliken charges:
               1
     1  C   -0.495098
     2  C   -0.035018
     3  C    0.056418
     4  C    0.154264
     5  C   -0.452979
     6  C   -0.249230
     7  C   -0.229074
     8  C    0.002253
     9  N   -0.517379
    10  H    0.149182
    11  H    0.149956
    12  H    0.150225
    13  H    0.134206
    14  H    0.120244
    15  H    0.104227
    16  H    0.113602
    17  H    0.093421
    18  H    0.094515
    19  H    0.102579
    20  H    0.102556
    21  H    0.229247
    22  H    0.221882
 Sum of Mulliken charges =  -0.00000
 Mulliken charges with hydrogens summed into heavy atoms:
               1
     1  C   -0.045735
     2  C   -0.035018
     3  C    0.056418
     4  C    0.154264
     5  C   -0.094301
     6  C   -0.042207
     7  C   -0.031980
     8  C    0.104809
     9  N   -0.066250
 Electronic spatial extent (au):  <R**2>=           1541.7994
 Charge=             -0.0000 electrons
 Dipole moment (field-independent basis, Debye):
    X=              0.6138    Y=             -0.1307    Z=              0.7065  Tot=              0.9450
 Quadrupole moment (field-independent basis, Debye-Ang):
   XX=            -52.2175   YY=            -54.7509   ZZ=            -55.2137
   XY=             -1.9154   XZ=             -4.3716   YZ=             -2.0030
 Traceless Quadrupole moment (field-independent basis, Debye-Ang):
   XX=              1.8432   YY=             -0.6902   ZZ=             -1.1531
   XY=             -1.9154   XZ=             -4.3716   YZ=             -2.0030
 Octapole moment (field-independent basis, Debye-Ang**2):
  XXX=             33.5105  YYY=            -10.1497  ZZZ=             -1.4140  XYY=             -0.0841
  XXY=              2.7471  XXZ=              6.7376  XZZ=              0.7497  YZZ=              0.9965
  YYZ=              0.9828  XYZ=              6.0677
 Hexadecapole moment (field-independent basis, Debye-Ang**3):
 XXXX=          -1312.0321 YYYY=           -331.0372 ZZZZ=           -301.8210 XXXY=            -11.5238
 XXXZ=            -40.7180 YYYX=             10.5063 YYYZ=             -2.8028 ZZZX=              0.0338
 ZZZY=              1.4112 XXYY=           -304.0403 XXZZ=           -291.8283 YYZZ=           -110.2553
 XXYZ=            -17.5788 YYXZ=            -11.8467 ZZXY=             -7.5252
 N-N= 4.331003405003D+02 E-N=-1.717025686273D+03  KE= 3.638087611919D+02
 PrsmSu:  requested number of processors reduced to:  13 ShMem   1 Linda.
 Calling FoFJK, ICntrl=      2127 FMM=F ISym2X=0 I1Cent= 0 IOpClX= 0 NMat=1 NMatS=1 NMatT=0.
 ***** Axes restored to original set *****
 -------------------------------------------------------------------
 Center     Atomic                   Forces (Hartrees/Bohr)
 Number     Number              X              Y              Z
 -------------------------------------------------------------------
      1        6           0.036051832    0.000069128    0.000836509
      2        6           0.118828890   -0.000640138   -0.000458993
      3        6          -0.161363240   -0.000125491   -0.000708164
      4        6          -0.038172086    0.022369151    0.023654853
      5        6           0.007178935   -0.006153633   -0.002325733
      6        6           0.015442668    0.012887883   -0.007885592
      7        6          -0.008390454    0.010853832    0.028890710
      8        6           0.046606410   -0.011318590   -0.052859934
      9        7          -0.005555798   -0.027177466    0.011706698
     10        1          -0.001259518    0.000069459    0.000023794
     11        1          -0.000896671    0.000009906    0.000076076
     12        1          -0.001234728   -0.000078942   -0.000036244
     13        1           0.000618386   -0.001103683    0.004880579
     14        1           0.001354487    0.001682127    0.001555606
     15        1           0.002622387    0.000106718   -0.000037125
     16        1          -0.000999615   -0.004954242   -0.006338948
     17        1          -0.002693634    0.001922990   -0.001690210
     18        1           0.003583747   -0.000624705   -0.001453919
     19        1          -0.005744763   -0.005761690   -0.001374932
     20        1           0.000204436   -0.000297956   -0.009073808
     21        1          -0.006208614    0.006557835    0.009732431
     22        1           0.000026942    0.001707505    0.002886344
 -------------------------------------------------------------------
 Cartesian Forces:  Max     0.161363240 RMS     0.028079627

 GradGradGradGradGradGradGradGradGradGradGradGradGradGradGradGradGradGrad
 Berny optimization.
 FormGI is forming the generalized inverse of G from B-inverse, IUseBI=4.
 Internal  Forces:  Max     0.151501872 RMS     0.014847088
 Search for a local minimum.
 Step number   1 out of a maximum of  132
 All quantities printed in internal units (Hartrees-Bohrs-Radians)
 Mixed Optimization -- RFO/linear search
 Second derivative matrix not updated -- first step.
 ITU=  0
     Eigenvalues ---    0.00230   0.00375   0.00385   0.00893   0.01076
     Eigenvalues ---    0.01138   0.02516   0.02571   0.02586   0.02942
     Eigenvalues ---    0.03224   0.03346   0.03548   0.04089   0.04518
     Eigenvalues ---    0.04638   0.05279   0.05330   0.05612   0.06043
     Eigenvalues ---    0.06256   0.06396   0.06949   0.07070   0.07269
     Eigenvalues ---    0.07774   0.08319   0.09199   0.10630   0.16000
     Eigenvalues ---    0.16000   0.16000   0.16000   0.16000   0.16000
     Eigenvalues ---    0.16000   0.16000   0.18390   0.23093   0.24031
     Eigenvalues ---    0.25986   0.27222   0.29461   0.30367   0.33761
     Eigenvalues ---    0.33905   0.33972   0.33975   0.34054   0.34281
     Eigenvalues ---    0.34406   0.34407   0.34408   0.34462   0.34511
     Eigenvalues ---    0.36915   0.38331   0.44141   0.44576   0.66135
 RFO step:  Lambda=-5.61947627D-02 EMin= 2.30000000D-03
 Linear search not attempted -- first point.
 Maximum step size (   0.300) exceeded in Quadratic search.
    -- Step size scaled by   0.881
 Iteration  1 RMS(Cart)=  0.06546517 RMS(Int)=  0.00164892
 Iteration  2 RMS(Cart)=  0.00257865 RMS(Int)=  0.00083646
 Iteration  3 RMS(Cart)=  0.00000456 RMS(Int)=  0.00083646
 Iteration  4 RMS(Cart)=  0.00000001 RMS(Int)=  0.00083646
 Variable       Old X    -DE/DX   Delta X   Delta X   Delta X     New X
                                 (Linear)    (Quad)   (Total)
    R1        2.87238  -0.03267   0.00000  -0.07995  -0.07995   2.79244
    R2        2.06650   0.00038   0.00000   0.00083   0.00083   2.06733
    R3        2.06647   0.00024   0.00000   0.00052   0.00052   2.06699
    R4        2.06648   0.00034   0.00000   0.00075   0.00075   2.06724
    R5        2.46392  -0.15150   0.00000  -0.18595  -0.18595   2.27797
    R6        2.73886   0.00988   0.00000   0.01975   0.01975   2.75862
    R7        2.89050  -0.00103   0.00000  -0.00259  -0.00259   2.88792
    R8        2.96450  -0.00112   0.00000   0.00140   0.00045   2.96496
    R9        2.97951   0.01346   0.00000   0.03384   0.03539   3.01490
   R10        2.07372  -0.00338   0.00000  -0.00750  -0.00750   2.06622
   R11        2.07490  -0.00254   0.00000  -0.00567  -0.00567   2.06923
   R12        2.06476   0.00261   0.00000   0.00572   0.00572   2.07048
   R13        2.92134   0.00486   0.00000   0.01618   0.01482   2.93616
   R14        2.07736  -0.00582   0.00000  -0.01302  -0.01302   2.06434
   R15        2.06557   0.00133   0.00000   0.00291   0.00291   2.06849
   R16        2.91532   0.00772   0.00000   0.01632   0.01706   2.93237
   R17        2.06858  -0.00037   0.00000  -0.00081  -0.00081   2.06777
   R18        2.07238  -0.00400   0.00000  -0.00889  -0.00889   2.06349
   R19        2.75975  -0.00271   0.00000  -0.00560  -0.00560   2.75415
   R20        2.07378  -0.00713   0.00000  -0.01587  -0.01587   2.05791
   R21        1.92987  -0.00937   0.00000  -0.01658  -0.01658   1.91328
   R22        1.92472  -0.00219   0.00000  -0.00385  -0.00385   1.92087
    A1        1.91892   0.00141   0.00000   0.00589   0.00585   1.92477
    A2        1.91892   0.00034   0.00000   0.00135   0.00130   1.92021
    A3        1.91895   0.00157   0.00000   0.00630   0.00635   1.92530
    A4        1.90226  -0.00163   0.00000  -0.00642  -0.00656   1.89570
    A5        1.90226  -0.00051   0.00000  -0.00203  -0.00197   1.90029
    A6        1.90228  -0.00124   0.00000  -0.00532  -0.00527   1.89700
    A7        1.87298   0.00672   0.00000   0.02625   0.02696   1.89994
    A8        1.98201   0.00023   0.00000   0.01498   0.01464   1.99665
    A9        1.98320   0.00243   0.00000   0.02082   0.02052   2.00372
   A10        2.02041  -0.00634   0.00000  -0.03201  -0.03252   1.98789
   A11        2.09922  -0.01073   0.00000  -0.05740  -0.05769   2.04153
   A12        1.48798   0.00680   0.00000   0.02532   0.02475   1.51273
   A13        1.93437  -0.00518   0.00000  -0.02199  -0.02201   1.91236
   A14        1.92666   0.00075   0.00000   0.00430   0.00431   1.93097
   A15        1.96665   0.00036   0.00000   0.00114   0.00110   1.96775
   A16        1.86694   0.00246   0.00000   0.01071   0.01073   1.87767
   A17        1.87832   0.00193   0.00000   0.00567   0.00561   1.88393
   A18        1.88721  -0.00010   0.00000   0.00119   0.00118   1.88839
   A19        1.53827   0.00054   0.00000   0.01184   0.01015   1.54842
   A20        2.00177  -0.00538   0.00000  -0.04139  -0.04129   1.96049
   A21        2.04233   0.00161   0.00000   0.00819   0.00824   2.05057
   A22        1.96064  -0.00207   0.00000  -0.01313  -0.01271   1.94793
   A23        2.01646   0.00407   0.00000   0.02909   0.02925   2.04572
   A24        1.88827   0.00098   0.00000   0.00515   0.00480   1.89307
   A25        1.52212   0.00690   0.00000   0.02692   0.02679   1.54891
   A26        2.00761  -0.00096   0.00000   0.01062   0.00965   2.01726
   A27        1.97616  -0.00105   0.00000  -0.00335  -0.00278   1.97338
   A28        2.01307   0.00279   0.00000   0.02388   0.02351   2.03658
   A29        2.03490  -0.00915   0.00000  -0.05647  -0.05666   1.97824
   A30        1.89206   0.00175   0.00000   0.00157   0.00166   1.89371
   A31        1.53526  -0.00521   0.00000   0.00104  -0.00213   1.53312
   A32        1.96341   0.01923   0.00000   0.10584   0.10332   2.06673
   A33        2.02363  -0.00792   0.00000  -0.05950  -0.05864   1.96499
   A34        1.91641   0.01152   0.00000   0.06548   0.06170   1.97811
   A35        1.98074  -0.00157   0.00000  -0.02069  -0.02067   1.96007
   A36        1.99467  -0.01245   0.00000  -0.06669  -0.06397   1.93070
   A37        2.01344  -0.01404   0.00000  -0.05953  -0.05979   1.95365
   A38        1.96829   0.00018   0.00000  -0.00167  -0.00192   1.96637
   A39        1.84605   0.00679   0.00000   0.02365   0.02320   1.86925
   A40        3.14159   0.00129   0.00000   0.00868   0.00865   3.15024
   A41        3.11350   0.00619   0.00000   0.04682   0.04679   3.16029
   A42        3.14159   0.00240   0.00000   0.01368   0.01365   3.15524
   A43        3.17779  -0.00257   0.00000  -0.01391  -0.01391   3.16388
    D1        1.97987  -0.00089   0.00000  -0.00546  -0.00543   1.97443
    D2       -2.04940  -0.00202   0.00000  -0.00217  -0.00210  -2.05150
    D3       -0.36948   0.00392   0.00000   0.02215   0.02222  -0.34726
    D4       -0.10680  -0.00134   0.00000  -0.01161  -0.01168  -0.11848
    D5        2.14712  -0.00248   0.00000  -0.00832  -0.00835   2.13877
    D6       -2.45614   0.00346   0.00000   0.01600   0.01596  -2.44018
    D7       -2.20136  -0.00144   0.00000  -0.01376  -0.01379  -2.21515
    D8        0.05256  -0.00257   0.00000  -0.01048  -0.01046   0.04210
    D9        1.73248   0.00337   0.00000   0.01385   0.01385   1.74633
   D10        0.93567   0.00065   0.00000   0.00869   0.00864   0.94432
   D11       -1.12957   0.00037   0.00000   0.00647   0.00646  -1.12311
   D12        3.04168  -0.00030   0.00000   0.00111   0.00110   3.04278
   D13       -1.29793  -0.00052   0.00000  -0.00930  -0.00857  -1.30650
   D14        2.92001  -0.00080   0.00000  -0.01152  -0.01076   2.90926
   D15        0.80808  -0.00146   0.00000  -0.01688  -0.01612   0.79196
   D16       -3.04502   0.00131   0.00000   0.01359   0.01284  -3.03218
   D17        1.17293   0.00103   0.00000   0.01137   0.01065   1.18358
   D18       -0.93901   0.00036   0.00000   0.00601   0.00529  -0.93372
   D19        2.42032  -0.00371   0.00000  -0.03349  -0.03322   2.38710
   D20        0.43412  -0.00077   0.00000  -0.01773  -0.01737   0.41675
   D21       -1.80557   0.00163   0.00000   0.00840   0.00845  -1.79712
   D22       -1.68442   0.00046   0.00000  -0.01091  -0.01079  -1.69521
   D23        2.61257   0.00340   0.00000   0.00484   0.00505   2.61762
   D24        0.37287   0.00580   0.00000   0.03097   0.03088   0.40375
   D25        0.43520  -0.00939   0.00000  -0.06895  -0.06902   0.36618
   D26       -1.55100  -0.00645   0.00000  -0.05319  -0.05317  -1.60418
   D27        2.49249  -0.00405   0.00000  -0.02706  -0.02735   2.46514
   D28       -2.42014   0.00628   0.00000   0.03930   0.03913  -2.38102
   D29        1.93234  -0.00630   0.00000  -0.04491  -0.04584   1.88650
   D30       -0.40904   0.00028   0.00000   0.00520   0.00561  -0.40344
   D31        1.60869   0.00428   0.00000   0.03504   0.03502   1.64371
   D32       -0.32201  -0.00829   0.00000  -0.04917  -0.04994  -0.37195
   D33       -2.66339  -0.00171   0.00000   0.00093   0.00150  -2.66189
   D34       -0.43620   0.00978   0.00000   0.06900   0.06935  -0.36685
   D35       -2.36691  -0.00280   0.00000  -0.01521  -0.01561  -2.38252
   D36        1.57490   0.00379   0.00000   0.03489   0.03583   1.61073
   D37       -0.44439   0.00862   0.00000   0.06749   0.06796  -0.37642
   D38       -2.48213   0.00223   0.00000   0.02546   0.02560  -2.45653
   D39        1.61205   0.00153   0.00000   0.01708   0.01740   1.62945
   D40        1.58036   0.00263   0.00000   0.02530   0.02537   1.60573
   D41       -0.45739  -0.00376   0.00000  -0.01673  -0.01699  -0.47437
   D42       -2.64639  -0.00446   0.00000  -0.02511  -0.02519  -2.67158
   D43       -2.52515   0.00558   0.00000   0.04527   0.04549  -2.47966
   D44        1.72029  -0.00081   0.00000   0.00323   0.00313   1.72342
   D45       -0.46872  -0.00151   0.00000  -0.00514  -0.00507  -0.47379
   D46        0.44204  -0.01079   0.00000  -0.07207  -0.07198   0.37006
   D47        2.41793   0.00914   0.00000   0.04905   0.04925   2.46718
   D48       -1.60889   0.00072   0.00000  -0.00289  -0.00332  -1.61221
   D49        2.47465  -0.00788   0.00000  -0.04225  -0.04182   2.43283
   D50       -1.83263   0.01205   0.00000   0.07888   0.07941  -1.75323
   D51        0.42373   0.00363   0.00000   0.02693   0.02684   0.45056
   D52       -1.55905  -0.01163   0.00000  -0.07256  -0.07225  -1.63130
   D53        0.41684   0.00830   0.00000   0.04857   0.04898   0.46582
   D54        2.67321  -0.00013   0.00000  -0.00338  -0.00359   2.66962
   D55        0.82085   0.00299   0.00000   0.03161   0.03428   0.85513
   D56       -1.30292   0.00466   0.00000   0.04766   0.05010  -1.25281
   D57       -0.85839  -0.00407   0.00000  -0.04254  -0.04516  -0.90355
   D58       -2.98216  -0.00240   0.00000  -0.02649  -0.02934  -3.01150
   D59       -3.10716  -0.00164   0.00000  -0.01598  -0.01568  -3.12284
   D60        1.05226   0.00003   0.00000   0.00007   0.00014   1.05240
         Item               Value     Threshold  Converged?
 Maximum Force            0.151502     0.000450     NO 
 RMS     Force            0.014847     0.000300     NO 
 Maximum Displacement     0.208455     0.001800     NO 
 RMS     Displacement     0.064909     0.001200     NO 
 Predicted change in Energy=-3.218104D-02
 GradGradGradGradGradGradGradGradGradGradGradGradGradGradGradGradGradGrad

                          Input orientation:                          
 ---------------------------------------------------------------------
 Center     Atomic      Atomic             Coordinates (Angstroms)
 Number     Number       Type             X           Y           Z
 ---------------------------------------------------------------------
      1          6           0        1.138061    0.046707    0.127328
      2          6           0        2.614323    0.051349    0.062433
      3          6           0        3.818967    0.065391    0.020642
      4          6           0        5.278176    0.046857   -0.016361
      5          6           0        5.736102    0.102383   -1.473302
      6          6           0        5.963549    1.114749    0.906458
      7          6           0        6.977840    0.026084    1.353852
      8          6           0        5.957340   -1.056987    0.914024
      9          7           0        6.579059   -2.212096    0.278965
     10          1           0        0.778209   -0.913997    0.507267
     11          1           0        0.718878    0.206817   -0.870200
     12          1           0        0.784510    0.843553    0.788184
     13          1           0        5.281123    0.965049   -1.967586
     14          1           0        5.415866   -0.794964   -2.012950
     15          1           0        6.823624    0.191390   -1.572413
     16          1           0        5.318096    1.426329    1.730864
     17          1           0        6.370078    2.010709    0.426736
     18          1           0        7.251535    0.042123    2.413164
     19          1           0        7.893739    0.024486    0.759302
     20          1           0        5.309839   -1.370960    1.731388
     21          1           0        7.199769   -1.941417   -0.473722
     22          1           0        5.898288   -2.857494   -0.112494
 ---------------------------------------------------------------------
                    Distance matrix (angstroms):
                    1          2          3          4          5
     1  C    0.000000
     2  C    1.477694   0.000000
     3  C    2.683092   1.205450   0.000000
     4  C    4.142608   2.665023   1.459797   0.000000
     5  C    4.868993   3.479453   2.430771   1.528220   0.000000
     6  C    5.003308   3.613934   2.546577   1.568988   2.596127
     7  C    5.967227   4.550680   3.428918   2.183294   3.088776
     8  C    5.006243   3.623448   2.574976   1.595415   2.663158
     9  N    5.893186   4.570471   3.587727   2.623429   3.022884
    10  H    1.093983   2.121576   3.231441   4.631105   5.434738
    11  H    1.093806   2.118179   3.228645   4.641318   5.054421
    12  H    1.093935   2.121914   3.225304   4.634119   5.493807
    13  H    4.732544   3.473851   2.626849   2.156470   1.093396
    14  H    4.856831   3.587771   2.725031   2.171172   1.094990
    15  H    5.935965   4.517804   3.403185   2.197862   1.095650
    16  H    4.684803   3.461882   2.650358   2.226506   3.492026
    17  H    5.596511   4.251764   3.233781   2.290261   2.766546
    18  H    6.526839   5.199015   4.184164   3.129977   4.171905
    19  H    6.785210   5.325278   4.141385   2.728246   3.105800
    20  H    4.688978   3.474792   2.685601   2.250741   3.552813
    21  H    6.407667   5.028409   3.962512   2.802665   2.705291
    22  H    5.581366   4.390489   3.589507   2.971369   3.261744
                    6          7          8          9         10
     6  C    0.000000
     7  C    1.553750   0.000000
     8  C    2.171757   1.551745   0.000000
     9  N    3.441002   2.514728   1.457433   0.000000
    10  H    5.582375   6.327392   5.197046   5.948701   0.000000
    11  H    5.611366   6.644824   5.676454   6.443092   1.776839
    12  H    5.187484   6.272606   5.512355   6.570624   1.779870
    13  H    2.957743   3.846096   3.584630   4.101936   5.471009
    14  H    3.531275   3.801216   2.988147   2.934988   5.279538
    15  H    2.781568   2.934985   2.913977   3.043708   6.487988
    16  H    1.092400   2.203990   2.691229   4.115358   5.252132
    17  H    1.094597   2.273248   3.133458   4.230554   6.311052
    18  H    2.253796   1.094215   2.265039   3.176244   6.815464
    19  H    2.221702   1.091954   2.223323   2.638447   7.181577
    20  H    2.699370   2.208279   1.089000   2.104272   4.716244
    21  H    3.573973   2.694502   2.061962   1.012465   6.576805
    22  H    4.101370   3.410370   2.073416   1.016479   5.511487
                   11         12         13         14         15
    11  H    0.000000
    12  H    1.777632   0.000000
    13  H    4.753236   5.275278   0.000000
    14  H    4.936713   5.655135   1.765746   0.000000
    15  H    6.145020   6.516797   1.770316   1.774472   0.000000
    16  H    5.422689   4.667085   3.727288   4.354290   3.834492
    17  H    6.072242   5.717645   2.830548   3.838540   2.740843
    18  H    7.313221   6.716045   4.891348   4.864245   4.011261
    19  H    7.359834   7.156316   3.891831   3.807458   2.570973
    20  H    5.507682   5.125652   4.374948   3.789865   3.955703
    21  H    6.839156   7.106618   3.789509   2.620284   2.428471
    22  H    6.065509   6.376496   4.293494   2.845785   3.504754
                   16         17         18         19         20
    16  H    0.000000
    17  H    1.774518   0.000000
    18  H    2.473812   2.932267   0.000000
    19  H    3.089180   2.525317   1.774259   0.000000
    20  H    2.797301   3.776494   2.496359   3.093342   0.000000
    21  H    4.443265   4.137452   3.503030   2.422131   2.959691
    22  H    4.699546   4.920645   4.076518   3.612155   2.440483
                   21         22
    21  H    0.000000
    22  H    1.632034   0.000000
 Stoichiometry    C8H13N
 Framework group  C1[X(C8H13N)]
 Deg. of freedom    60
 Full point group                 C1      NOp   1
 Largest Abelian subgroup         C1      NOp   1
 Largest concise Abelian subgroup C1      NOp   1
                         Standard orientation:                         
 ---------------------------------------------------------------------
 Center     Atomic      Atomic             Coordinates (Angstroms)
 Number     Number       Type             X           Y           Z
 ---------------------------------------------------------------------
      1          6           0        3.791236   -0.183364   -0.371989
      2          6           0        2.345708   -0.040353   -0.100735
      3          6           0        1.166529    0.089564    0.113202
      4          6           0       -0.268421    0.217824    0.348730
      5          6           0       -0.564712   -0.145791    1.803189
      6          6           0       -0.878606    1.591918   -0.099890
      7          6           0       -2.081508    0.819375   -0.708449
      8          6           0       -1.192227   -0.450929   -0.766933
      9          7           0       -1.909972   -1.674125   -0.431156
     10          1           0        3.966127   -1.005325   -1.072412
     11          1           0        4.327334   -0.396475    0.557308
     12          1           0        4.189881    0.739732   -0.802882
     13          1           0        0.059308    0.459388    2.466418
     14          1           0       -0.327236   -1.197530    1.994119
     15          1           0       -1.611875    0.023752    2.077331
     16          1           0       -0.280397    2.078881   -0.873421
     17          1           0       -1.098927    2.326096    0.681509
     18          1           0       -2.454764    1.202348   -1.663078
     19          1           0       -2.923384    0.726854   -0.019212
     20          1           0       -0.683173   -0.555368   -1.723948
     21          1           0       -2.405510   -1.592682    0.447988
     22          1           0       -1.295574   -2.480257   -0.354376
 ---------------------------------------------------------------------
 Rotational constants (GHZ):           2.6908464           0.9187777           0.8804109
 Standard basis: 6-31G(2df,p) (6D, 7F)
 There are   344 symmetry adapted cartesian basis functions of A   symmetry.
 There are   317 symmetry adapted basis functions of A   symmetry.
   317 basis functions,   487 primitive gaussians,   344 cartesian basis functions
    34 alpha electrons       34 beta electrons
       nuclear repulsion energy       434.7708403443 Hartrees.
 NAtoms=   22 NActive=   22 NUniq=   22 SFac= 1.00D+00 NAtFMM=   60 NAOKFM=F Big=F
 Integral buffers will be    131072 words long.
 Raffenetti 2 integral format.
 Two-electron integral symmetry is turned on.
 One-electron integrals computed using PRISM.
 PrsmSu:  requested number of processors reduced to:  13 ShMem   1 Linda.
 NBasis=   317 RedAO= T EigKep=  5.41D-05  NBF=   317
 NBsUse=   317 1.00D-06 EigRej= -1.00D+00 NBFU=   317
 Initial guess from the checkpoint file:  "CCtCC1pCpCCC1N.chk"
 B after Tr=     0.000000   -0.000000   -0.000000
         Rot=    0.997101    0.075754    0.001455    0.007041 Ang=   8.73 deg.
 ExpMin= 1.61D-01 ExpMax= 4.17D+03 ExpMxC= 6.27D+02 IAcc=2 IRadAn=         4 AccDes= 0.00D+00
 Harris functional with IExCor=  402 and IRadAn=       4 diagonalized for initial guess.
 HarFok:  IExCor=  402 AccDes= 0.00D+00 IRadAn=         4 IDoV= 1 UseB2=F ITyADJ=14
 ICtDFT=  3500011 ScaDFX=  1.000000  1.000000  1.000000  1.000000
 FoFCou: FMM=F IPFlag=           0 FMFlag=      100000 FMFlg1=           0
         NFxFlg=           0 DoJE=T BraDBF=F KetDBF=T FulRan=T
         wScrn=  0.000000 ICntrl=       500 IOpCl=  0 I1Cent=   200000004 NGrid=           0
         NMat0=    1 NMatS0=      1 NMatT0=    0 NMatD0=    1 NMtDS0=    0 NMtDT0=    0
 Petite list used in FoFCou.
 Requested convergence on RMS density matrix=1.00D-08 within 128 cycles.
 Requested convergence on MAX density matrix=1.00D-06.
 Requested convergence on             energy=1.00D-06.
 No special actions if energy rises.
 Integral accuracy reduced to 1.0D-05 until final iterations.
 Initial convergence to 1.0D-05 achieved.  Increase integral accuracy.
 SCF Done:  E(RB3LYP) =  -367.369878020     A.U. after   12 cycles
            NFock= 12  Conv=0.62D-08     -V/T= 2.0087
 PrsmSu:  requested number of processors reduced to:  13 ShMem   1 Linda.
 Calling FoFJK, ICntrl=      2127 FMM=F ISym2X=0 I1Cent= 0 IOpClX= 0 NMat=1 NMatS=1 NMatT=0.
 ***** Axes restored to original set *****
 -------------------------------------------------------------------
 Center     Atomic                   Forces (Hartrees/Bohr)
 Number     Number              X              Y              Z
 -------------------------------------------------------------------
      1        6           0.017081720    0.000035274   -0.001612760
      2        6          -0.012029564    0.000068060    0.001366186
      3        6           0.001232431   -0.002141947    0.000182979
      4        6          -0.022544328    0.009914292    0.013273982
      5        6           0.004869456   -0.003970517   -0.000837877
      6        6           0.009449110    0.000121256   -0.003599836
      7        6          -0.008872210    0.005059061    0.014333973
      8        6           0.027337682   -0.001354182   -0.028835544
      9        7          -0.005745425   -0.006577443    0.010418493
     10        1          -0.002106623    0.000314027    0.000249223
     11        1          -0.002424051    0.000024176    0.000259111
     12        1          -0.002005233   -0.000338409    0.000070752
     13        1           0.000529600    0.000320318    0.000594188
     14        1           0.000530735    0.000228503   -0.000017554
     15        1           0.000266834   -0.000056328    0.000728904
     16        1          -0.001242606   -0.001282367   -0.001544024
     17        1          -0.001358541   -0.000976476   -0.001273622
     18        1           0.002021319   -0.001648046   -0.001364701
     19        1          -0.000783568   -0.002134922   -0.001933285
     20        1          -0.002960216    0.000069428   -0.001684733
     21        1          -0.000600840    0.002673578   -0.000037405
     22        1          -0.000645684    0.001652665    0.001263551
 -------------------------------------------------------------------
 Cartesian Forces:  Max     0.028835544 RMS     0.007298127

 GradGradGradGradGradGradGradGradGradGradGradGradGradGradGradGradGradGrad
 Berny optimization.
 Using GEDIIS/GDIIS optimizer.
 FormGI is forming the generalized inverse of G from B-inverse, IUseBI=4.
 Internal  Forces:  Max     0.010578936 RMS     0.002332195
 Search for a local minimum.
 Step number   2 out of a maximum of  132
 All quantities printed in internal units (Hartrees-Bohrs-Radians)
 Mixed Optimization -- RFO/linear search
 Update second derivatives using D2CorX and points    1    2
 DE= -2.99D-02 DEPred=-3.22D-02 R= 9.30D-01
 TightC=F SS=  1.41D+00  RLast= 3.94D-01 DXNew= 5.0454D-01 1.1813D+00
 Trust test= 9.30D-01 RLast= 3.94D-01 DXMaxT set to 5.05D-01
 ITU=  1  0
 Use linear search instead of GDIIS.
     Eigenvalues ---    0.00230   0.00344   0.00375   0.00893   0.01069
     Eigenvalues ---    0.01139   0.02490   0.02529   0.02544   0.02936
     Eigenvalues ---    0.03270   0.03344   0.03856   0.04213   0.04728
     Eigenvalues ---    0.04764   0.05160   0.05356   0.05697   0.05957
     Eigenvalues ---    0.06293   0.06365   0.06794   0.06951   0.07206
     Eigenvalues ---    0.07932   0.08298   0.09224   0.10949   0.15833
     Eigenvalues ---    0.16000   0.16000   0.16000   0.16000   0.16000
     Eigenvalues ---    0.16000   0.16131   0.18324   0.23399   0.24234
     Eigenvalues ---    0.26431   0.27353   0.29452   0.29847   0.33762
     Eigenvalues ---    0.33905   0.33974   0.34005   0.34077   0.34281
     Eigenvalues ---    0.34406   0.34407   0.34408   0.34467   0.34514
     Eigenvalues ---    0.36856   0.38377   0.44188   0.44569   0.78848
 RFO step:  Lambda=-4.94996068D-03 EMin= 2.29999998D-03
 Quartic linear search produced a step of  0.14933.
 Iteration  1 RMS(Cart)=  0.02439849 RMS(Int)=  0.00086946
 Iteration  2 RMS(Cart)=  0.00145638 RMS(Int)=  0.00061718
 Iteration  3 RMS(Cart)=  0.00000103 RMS(Int)=  0.00061718
 Iteration  4 RMS(Cart)=  0.00000000 RMS(Int)=  0.00061718
 Variable       Old X    -DE/DX   Delta X   Delta X   Delta X     New X
                                 (Linear)    (Quad)   (Total)
    R1        2.79244  -0.01058  -0.01194  -0.02306  -0.03499   2.75744
    R2        2.06733   0.00050   0.00012   0.00148   0.00161   2.06894
    R3        2.06699   0.00070   0.00008   0.00219   0.00226   2.06926
    R4        2.06724   0.00044   0.00011   0.00131   0.00142   2.06866
    R5        2.27797   0.00149  -0.02777   0.03440   0.00663   2.28460
    R6        2.75862   0.00024   0.00295  -0.00306  -0.00011   2.75851
    R7        2.88792   0.00129  -0.00039   0.00544   0.00505   2.89297
    R8        2.96496  -0.00248   0.00007  -0.00258  -0.00305   2.96191
    R9        3.01490   0.00103   0.00528  -0.00703  -0.00065   3.01424
   R10        2.06622  -0.00025  -0.00112   0.00067  -0.00045   2.06577
   R11        2.06923  -0.00033  -0.00085   0.00000  -0.00085   2.06839
   R12        2.07048   0.00020   0.00085  -0.00048   0.00038   2.07085
   R13        2.93616  -0.00076   0.00221  -0.00401  -0.00286   2.93330
   R14        2.06434  -0.00080  -0.00194  -0.00010  -0.00205   2.06229
   R15        2.06849  -0.00075   0.00044  -0.00301  -0.00258   2.06591
   R16        2.93237   0.00012   0.00255  -0.00905  -0.00602   2.92636
   R17        2.06777  -0.00084  -0.00012  -0.00260  -0.00272   2.06505
   R18        2.06349   0.00040  -0.00133   0.00306   0.00173   2.06522
   R19        2.75415  -0.00627  -0.00084  -0.01811  -0.01895   2.73520
   R20        2.05791   0.00048  -0.00237   0.00469   0.00232   2.06024
   R21        1.91328   0.00037  -0.00248   0.00401   0.00154   1.91482
   R22        1.92087  -0.00110  -0.00057  -0.00209  -0.00267   1.91820
    A1        1.92477   0.00195   0.00087   0.01200   0.01270   1.93747
    A2        1.92021   0.00253   0.00019   0.01844   0.01857   1.93878
    A3        1.92530   0.00194   0.00095   0.01068   0.01154   1.93684
    A4        1.89570  -0.00241  -0.00098  -0.01280  -0.01393   1.88177
    A5        1.90029  -0.00211  -0.00029  -0.01652  -0.01700   1.88329
    A6        1.89700  -0.00207  -0.00079  -0.01287  -0.01363   1.88337
    A7        1.89994   0.00339   0.00403   0.02424   0.02848   1.92842
    A8        1.99665   0.00071   0.00219   0.02378   0.02579   2.02244
    A9        2.00372   0.00134   0.00306   0.00763   0.01058   2.01430
   A10        1.98789  -0.00239  -0.00486  -0.01233  -0.01794   1.96995
   A11        2.04153  -0.00543  -0.00861  -0.04980  -0.05863   1.98291
   A12        1.51273   0.00162   0.00370   0.00106   0.00374   1.51647
   A13        1.91236  -0.00031  -0.00329   0.00413   0.00081   1.91316
   A14        1.93097   0.00087   0.00064   0.00655   0.00718   1.93816
   A15        1.96775  -0.00129   0.00016  -0.01167  -0.01152   1.95624
   A16        1.87767   0.00029   0.00160   0.00426   0.00583   1.88351
   A17        1.88393   0.00040   0.00084  -0.00173  -0.00093   1.88300
   A18        1.88839   0.00011   0.00018  -0.00109  -0.00090   1.88749
   A19        1.54842   0.00081   0.00152   0.01730   0.01754   1.56596
   A20        1.96049  -0.00249  -0.00617  -0.01894  -0.02489   1.93560
   A21        2.05057   0.00015   0.00123  -0.01101  -0.00978   2.04079
   A22        1.94793  -0.00061  -0.00190  -0.00002  -0.00143   1.94650
   A23        2.04572   0.00113   0.00437   0.00875   0.01355   2.05927
   A24        1.89307   0.00077   0.00072   0.00422   0.00434   1.89741
   A25        1.54891   0.00143   0.00400   0.00229   0.00564   1.55455
   A26        2.01726   0.00074   0.00144   0.02762   0.02880   2.04606
   A27        1.97338  -0.00023  -0.00042  -0.00646  -0.00682   1.96656
   A28        2.03658   0.00151   0.00351   0.00833   0.01142   2.04800
   A29        1.97824  -0.00379  -0.00846  -0.03049  -0.03890   1.93934
   A30        1.89371   0.00032   0.00025  -0.00144  -0.00132   1.89240
   A31        1.53312  -0.00064  -0.00032   0.02010   0.01749   1.55061
   A32        2.06673   0.00629   0.01543   0.04391   0.05694   2.12367
   A33        1.96499  -0.00384  -0.00876  -0.04865  -0.05679   1.90821
   A34        1.97811   0.00367   0.00921   0.03584   0.04185   2.01996
   A35        1.96007  -0.00111  -0.00309  -0.01169  -0.01432   1.94576
   A36        1.93070  -0.00359  -0.00955  -0.02893  -0.03666   1.89404
   A37        1.95365  -0.00381  -0.00893  -0.01657  -0.02584   1.92781
   A38        1.96637  -0.00224  -0.00029  -0.02020  -0.02082   1.94554
   A39        1.86925   0.00240   0.00346   0.00150   0.00431   1.87356
   A40        3.15024   0.00058   0.00129   0.00073   0.00197   3.15222
   A41        3.16029   0.00079   0.00699  -0.04747  -0.04006   3.12022
   A42        3.15524   0.00001   0.00204  -0.01764  -0.01543   3.13982
   A43        3.16388  -0.00152  -0.00208  -0.02039  -0.02259   3.14129
    D1        1.97443  -0.00062  -0.00081  -0.01361  -0.01443   1.96000
    D2       -2.05150  -0.00056  -0.00031  -0.01384  -0.01445  -2.06595
    D3       -0.34726   0.00194   0.00332   0.02245   0.02605  -0.32121
    D4       -0.11848  -0.00100  -0.00174  -0.01547  -0.01726  -0.13574
    D5        2.13877  -0.00094  -0.00125  -0.01570  -0.01729   2.12148
    D6       -2.44018   0.00156   0.00238   0.02059   0.02322  -2.41696
    D7       -2.21515  -0.00099  -0.00206  -0.00589  -0.00788  -2.22304
    D8        0.04210  -0.00093  -0.00156  -0.00611  -0.00791   0.03419
    D9        1.74633   0.00157   0.00207   0.03018   0.03260   1.77893
   D10        0.94432   0.00105   0.00129   0.03531   0.03672   0.98104
   D11       -1.12311   0.00036   0.00096   0.02352   0.02460  -1.09851
   D12        3.04278   0.00050   0.00016   0.02833   0.02863   3.07141
   D13       -1.30650  -0.00088  -0.00128  -0.00755  -0.00847  -1.31497
   D14        2.90926  -0.00157  -0.00161  -0.01934  -0.02060   2.88866
   D15        0.79196  -0.00143  -0.00241  -0.01454  -0.01656   0.77540
   D16       -3.03218   0.00137   0.00192   0.02463   0.02606  -3.00612
   D17        1.18358   0.00068   0.00159   0.01284   0.01393   1.19751
   D18       -0.93372   0.00082   0.00079   0.01765   0.01796  -0.91576
   D19        2.38710  -0.00168  -0.00496  -0.03975  -0.04467   2.34243
   D20        0.41675  -0.00099  -0.00259  -0.04445  -0.04676   0.36999
   D21       -1.79712   0.00015   0.00126  -0.02245  -0.02142  -1.81854
   D22       -1.69521   0.00160  -0.00161   0.00435   0.00277  -1.69244
   D23        2.61762   0.00229   0.00075  -0.00036   0.00069   2.61830
   D24        0.40375   0.00343   0.00461   0.02164   0.02603   0.42977
   D25        0.36618  -0.00405  -0.01031  -0.05239  -0.06271   0.30347
   D26       -1.60418  -0.00336  -0.00794  -0.05709  -0.06480  -1.66898
   D27        2.46514  -0.00222  -0.00408  -0.03510  -0.03946   2.42568
   D28       -2.38102   0.00237   0.00584   0.02382   0.03013  -2.35089
   D29        1.88650  -0.00286  -0.00684  -0.03883  -0.04615   1.84035
   D30       -0.40344   0.00035   0.00084   0.01311   0.01434  -0.38909
   D31        1.64371   0.00136   0.00523   0.02981   0.03543   1.67914
   D32       -0.37195  -0.00387  -0.00746  -0.03284  -0.04085  -0.41281
   D33       -2.66189  -0.00066   0.00022   0.01911   0.01964  -2.64225
   D34       -0.36685   0.00416   0.01036   0.05198   0.06258  -0.30427
   D35       -2.38252  -0.00108  -0.00233  -0.01067  -0.01370  -2.39622
   D36        1.61073   0.00213   0.00535   0.04127   0.04680   1.65753
   D37       -0.37642   0.00403   0.01015   0.05370   0.06397  -0.31245
   D38       -2.45653   0.00137   0.00382   0.03633   0.04012  -2.41641
   D39        1.62945   0.00048   0.00260   0.02008   0.02269   1.65215
   D40        1.60573   0.00157   0.00379   0.04044   0.04415   1.64988
   D41       -0.47437  -0.00109  -0.00254   0.02307   0.02030  -0.45407
   D42       -2.67158  -0.00198  -0.00376   0.00682   0.00287  -2.66871
   D43       -2.47966   0.00307   0.00679   0.05394   0.06089  -2.41877
   D44        1.72342   0.00041   0.00047   0.03656   0.03704   1.76046
   D45       -0.47379  -0.00048  -0.00076   0.02031   0.01961  -0.45417
   D46        0.37006  -0.00440  -0.01075  -0.05228  -0.06315   0.30691
   D47        2.46718   0.00303   0.00735   0.01341   0.02111   2.48829
   D48       -1.61221   0.00022  -0.00050  -0.00632  -0.00700  -1.61921
   D49        2.43283  -0.00238  -0.00624  -0.01732  -0.02367   2.40916
   D50       -1.75323   0.00505   0.01186   0.04837   0.06059  -1.69264
   D51        0.45056   0.00224   0.00401   0.02865   0.03248   0.48304
   D52       -1.63130  -0.00415  -0.01079  -0.04092  -0.05180  -1.68310
   D53        0.46582   0.00328   0.00731   0.02477   0.03246   0.49828
   D54        2.66962   0.00046  -0.00054   0.00505   0.00435   2.67397
   D55        0.85513   0.00196   0.00512   0.01768   0.02442   0.87955
   D56       -1.25281   0.00321   0.00748   0.04225   0.05101  -1.20180
   D57       -0.90355  -0.00297  -0.00674  -0.05411  -0.06224  -0.96579
   D58       -3.01150  -0.00172  -0.00438  -0.02954  -0.03565  -3.04715
   D59       -3.12284  -0.00143  -0.00234  -0.04305  -0.04512   3.11523
   D60        1.05240  -0.00018   0.00002  -0.01848  -0.01853   1.03387
         Item               Value     Threshold  Converged?
 Maximum Force            0.010579     0.000450     NO 
 RMS     Force            0.002332     0.000300     NO 
 Maximum Displacement     0.112941     0.001800     NO 
 RMS     Displacement     0.024459     0.001200     NO 
 Predicted change in Energy=-4.038212D-03
[...]
 376,-0.00007695,0.00002743,0.00838449,-0.02119059,-0.01238305,-0.00056
 970,-0.00105206,0.00011042,-0.08287562,0.23750252,0.04034904,-0.096626
 39,-0.09719644,0.00302649,0.00157112,-0.00048046,-0.00119102,-0.000569
 44,0.00070422,0.00007903,0.00018140,0.00004385,0.00009723,-0.00005239,
 0.00002047,0.00000516,-0.00006027,-0.00003184,0.00000621,0.00002005,-0
 .00000383,-0.00011144,0.00001346,0.00001521,0.00000581,0.00000614,-0.0
 0000219,-0.00671476,0.01433389,0.00775187,0.01043547,-0.02518335,-0.01
 333954,-0.04605112,0.10636282,0.10259216,-0.00007760,0.00006491,0.0000
 4321,-0.00003334,0.00013834,-0.00016815,0.00096511,-0.00078726,0.00013
 469,0.00347477,-0.01051781,0.00651921,-0.08050398,0.07928583,-0.044340
 25,0.00007146,0.00038635,-0.00050015,-0.00054671,-0.00001900,0.0000456
 2,-0.00128594,0.00070944,0.00228855,0.00006251,0.00011132,-0.00020445,
 0.00005515,0.00000340,-0.00001786,0.00002116,-0.00001694,0.00001542,0.
 00000305,-0.00000781,-0.00000353,0.08465938,0.00000914,0.00001618,0.00
 002872,-0.00042336,-0.00001859,-0.00014670,0.00036120,0.00055469,-0.00
 022431,-0.00007858,-0.00093996,-0.00015578,0.07830854,-0.22442063,0.09
 742893,0.00004937,0.00111799,0.00032866,-0.00019583,0.00029549,-0.0002
 2049,-0.00034117,-0.00018515,-0.00101614,0.00005752,0.00042477,0.00084
 680,0.00000145,-0.00000559,-0.00001528,-0.00004582,-0.00002255,0.00000
 451,-0.00001925,0.00000033,0.00000220,-0.08627456,0.24124938,0.0000147
 1,-0.00003006,-0.00006289,0.00072589,-0.00021286,0.00025879,-0.0018201
 8,-0.00023302,0.00106148,-0.01120880,0.02630672,-0.01817966,-0.0438231
 4,0.09670303,-0.09703157,0.00021763,0.00106681,0.00191596,0.00001304,0
 .00039691,0.00049021,0.00510791,-0.00177153,-0.00465394,0.00017825,-0.
 00035467,0.00078678,-0.00002418,0.00000537,0.00000750,-0.00002876,0.00
 002365,-0.00000217,0.00001462,0.00000762,-0.00001075,0.04565672,-0.107
 06491,0.10874267,-0.00005999,-0.00006297,0.00006121,-0.00009959,-0.000
 13856,-0.00019975,0.00107480,0.00070930,-0.00000011,0.00270887,0.01007
 677,0.00607550,-0.07161119,-0.06474914,-0.04109139,-0.00057668,-0.0003
 8396,0.00172861,-0.00037234,-0.00003562,0.00011776,0.00025931,-0.00083
 337,-0.00088680,0.00044667,-0.00021633,0.00076833,-0.00000410,0.000003
 32,-0.00000771,0.00001294,0.00001677,0.00001380,0.00004421,0.00000188,
 -0.00001874,0.00317281,0.01000478,0.00679935,0.07343152,-0.00001915,0.
 00000837,-0.00002394,0.00038275,-0.00002266,0.00011782,-0.00025824,0.0
 0063242,0.00007785,0.00077737,0.00226774,0.00051782,-0.06444798,-0.216
 51894,-0.10817100,0.00023964,0.00027950,0.00070973,0.00012844,-0.00011
 471,-0.00012031,0.00091772,-0.00035856,-0.00022200,-0.00025542,0.00058
 816,0.00055221,0.00002133,0.00000269,0.00000065,0.00005896,-0.00001386
 ,-0.00000167,0.00000188,-0.00000441,0.00001420,-0.00905468,-0.02060960
 ,-0.01376211,0.07086538,0.23383841,0.00000684,0.00002503,-0.00005905,0
 .00074761,0.00025812,0.00028402,-0.00190846,0.00011385,0.00096718,-0.0
 1031820,-0.02467043,-0.01749366,-0.03994540,-0.10739028,-0.11401303,0.
 00436514,0.00062886,-0.00497384,0.00021871,-0.00029974,0.00031223,0.00
 027659,-0.00218645,0.00106425,0.00025470,0.00065616,0.00154844,0.00001
 619,-0.00000570,-0.00000841,-0.00000594,-0.00002277,0.00000213,-0.0000
 1661,-0.00000450,0.00000802,0.00509725,0.01167649,0.00778636,0.0432064
 6,0.11926806,0.12637310,0.00005724,-0.00001773,-0.00028377,0.00062953,
 0.00001933,0.00031294,-0.00146484,-0.00005316,0.00307276,-0.00976489,-
 0.00080837,-0.00030982,-0.30397476,-0.01087338,0.00446360,0.00001019,-
 0.00057973,-0.00059247,-0.00041667,-0.00010033,0.00000311,-0.00098265,
 0.00130874,-0.00008290,0.00051563,-0.00007560,-0.00014396,-0.00006587,
 0.00000396,0.00004540,-0.00015566,0.00000177,0.00000322,-0.00006065,-0
 .00000076,0.00004031,-0.01107306,-0.00129960,0.00007035,-0.00859114,0.
 00056100,0.00002511,0.33354919,-0.00000142,0.00006338,-0.00003545,-0.0
 0002090,0.00016038,0.00002993,-0.00000847,0.00103964,0.00026022,-0.001
 50330,-0.00140893,-0.00033885,-0.01135594,-0.04775491,0.00015927,0.000
 55449,0.00032589,-0.00023300,-0.00006636,0.00030236,-0.00002057,-0.000
 40485,0.00027136,0.00011552,-0.00015770,-0.00017362,-0.00006260,0.0000
 2410,-0.00000667,-0.00001306,-0.00001033,-0.00004600,0.00000212,-0.000
 02202,-0.00001178,0.00002396,0.02684466,0.00189725,-0.00091169,-0.0261
 4390,-0.00039189,0.00123298,0.01165285,0.04710033,-0.00007430,0.000014
 40,0.00052949,0.00081262,-0.00000508,-0.00003695,0.00196112,0.00046121
 ,-0.00569197,0.03095575,0.00084509,-0.00035617,0.00265930,-0.00060023,
 -0.04764968,0.00049109,0.00000447,0.00133193,0.00041462,0.00002852,-0.
 00054305,0.00036409,0.00007684,0.00119631,-0.00059800,0.00041323,0.000
 07361,0.00004671,-0.00000978,-0.00004449,0.00032402,-0.00000102,-0.000
 00337,0.00003539,0.00000550,-0.00003566,-0.01420725,-0.00182931,-0.000
 25592,-0.01636637,0.00087656,-0.00004930,-0.00539231,-0.00051132,0.051
 67115,-0.00007719,-0.00008505,0.00000984,-0.00012666,0.00009565,0.0001
 3857,0.00193213,0.00064850,-0.00052450,0.00955293,-0.00518043,-0.01480
 266,-0.00137689,-0.00311155,-0.00145015,-0.13982123,0.04506927,0.12439
 502,-0.01482405,0.00547701,0.01702324,-0.00140980,-0.00018332,-0.00040
 630,0.00062386,0.00014397,0.00014488,0.00000783,0.00001115,0.00000388,
 0.00004645,0.00001418,0.00000073,0.00005942,-0.00001391,-0.00002252,-0
 .00006509,0.00007537,0.00006300,0.00046430,-0.00005581,-0.00128549,0.0
 0012148,-0.00010352,-0.00005145,0.15120297,-0.00003245,-0.00011809,0.0
 0004693,-0.00054918,0.00007659,0.00028633,0.00122388,0.00147111,-0.000
 02750,0.00959382,-0.00473535,-0.01232376,-0.00100222,-0.00249769,-0.00
 003037,0.04390589,-0.07030667,-0.05604492,0.01122625,-0.00505407,-0.01
 424833,0.00013164,0.00043964,0.00005175,-0.00023652,-0.00054129,0.0002
 8934,-0.00002960,-0.00000608,-0.00000829,0.00004907,0.00001222,0.00000
 010,0.00004183,0.00000857,-0.00002792,-0.00013603,0.00011767,-0.000089
 37,0.00038314,0.00024804,-0.00084914,0.00018776,-0.00009868,0.00004850
 ,-0.04966739,0.07428471,-0.00004992,-0.00013534,-0.00005406,-0.0007814
 7,0.00029987,0.00036418,0.00181921,0.00111120,0.00124922,0.01140274,-0
 .00395873,-0.01550657,-0.00210092,-0.00404461,-0.00122742,0.12251211,-
 0.05665019,-0.19853510,-0.00877936,0.00412938,0.01067074,-0.00066326,0
 .00033330,-0.00080952,0.00028681,-0.00029512,0.00036200,-0.00000753,0.
 00000974,0.00000037,0.00003342,0.00002181,0.00000297,0.00000746,-0.000
 00133,-0.00002620,0.00003540,0.00007883,0.00016618,0.00027524,-0.00003
 698,-0.00145237,-0.00014628,0.00010998,0.00037952,-0.13051992,0.062275
 79,0.21320853,0.00011758,0.00022719,0.00004752,-0.00044203,0.00008126,
 -0.00021192,0.00006667,-0.00156213,-0.00085073,-0.00608848,-0.00896486
 ,0.00930232,0.00094340,0.00107695,0.00169258,-0.08744885,-0.08197327,0
 .04728725,0.01124852,0.01585843,-0.01082554,-0.00237527,0.00161909,-0.
 00190018,0.00143614,0.00017294,0.00054897,-0.00002458,-0.00001106,0.00
 000117,-0.00006864,-0.00003614,-0.00000989,-0.00017533,-0.00000119,0.0
 0004673,-0.00007752,0.00013807,-0.00046456,-0.00006741,0.00020354,0.00
 019163,0.00021654,0.00020988,-0.00031734,-0.00642526,-0.01543618,0.008
 28024,0.08842975,0.00008685,0.00010868,0.00009951,-0.00034888,0.000003
 70,-0.00010816,0.00058841,-0.00095786,-0.00026042,-0.00439844,-0.01175
 746,0.00669355,-0.00056070,0.00174741,0.00137253,-0.08143833,-0.214417
 56,0.10026539,-0.00726921,-0.01120895,0.00595971,0.00204155,-0.0043221
 5,-0.00189920,-0.00067791,-0.00124705,0.00058538,-0.00005645,-0.000024
 07,-0.00001191,-0.00003209,-0.00001735,-0.00000849,-0.00012724,0.00000
 969,0.00000370,-0.00007626,0.00014215,-0.00089468,0.00021072,0.0003452
 1,0.00018230,0.00051663,-0.00035065,-0.00036475,0.00392047,0.00846848,
 -0.00463060,0.08746507,0.23334910,0.00005580,0.00017771,0.00008776,-0.
 00071018,0.00016508,0.00006324,0.00086303,-0.00138091,-0.00047371,-0.0
 0825875,-0.01530523,0.00915402,-0.00005562,0.00018644,0.00195747,0.047
 33706,0.10065531,-0.10641740,0.00604626,0.00314923,-0.00463904,-0.0014
 2240,-0.00098645,-0.00133513,0.00101582,-0.00084533,0.00066210,-0.0000
 2471,-0.00002333,-0.00001250,-0.00000096,-0.00001271,0.00000090,-0.000
 12417,0.00000960,-0.00000114,-0.00022587,0.00046059,0.00009794,0.00000
 118,0.00019017,0.00024930,0.00021191,-0.00004851,-0.00000551,0.0088417
 4,0.02003233,-0.01027365,-0.05277972,-0.10686720,0.10956161,0.00009295
 ,-0.00002698,0.00007841,-0.00049357,-0.00002954,0.00020386,-0.00025967
 ,0.00024736,-0.00156124,-0.00618438,-0.00072698,-0.00258284,-0.0005198
 7,-0.00007290,0.00040707,-0.00350555,-0.00149393,-0.01442807,-0.060227
 60,0.00303945,-0.06221338,-0.00556539,0.00359024,-0.01564017,0.0000444
 4,-0.00059390,0.00000672,-0.00009099,-0.00001666,0.00001012,-0.0000479
 2,0.00000077,-0.00000927,-0.00006550,0.00001123,0.00000463,0.00020850,
 0.00010705,0.00000338,0.00017665,-0.00005656,-0.00004110,0.00036080,0.
 00002403,-0.00028994,0.00133315,-0.00025378,0.00036383,-0.00088397,0.0
 0037643,-0.00063942,0.06743293,0.00001859,-0.00017946,0.00002107,-0.00
 007868,0.00000662,0.00000648,0.00010789,0.00140190,0.00003560,-0.00091
 646,-0.00149430,-0.00027541,0.00001674,0.00032726,0.00011358,-0.000114
 05,0.00105307,0.02194106,0.00328725,-0.05113777,0.01062768,0.00025240,
 0.00416519,-0.02201945,-0.00138737,-0.00075264,-0.00020351,-0.00006393
 ,-0.00000113,0.00000576,0.00000172,0.00001691,-0.00000149,0.00003807,0
 .00000946,-0.00001239,0.00010568,0.00009824,-0.00019326,-0.00010269,0.
 00006760,0.00015027,0.00001725,-0.00010475,-0.00003398,-0.00136645,0.0
 0180591,-0.00113224,0.00196423,-0.00146753,0.00126120,-0.00305727,0.04
 520320,0.00007676,-0.00002230,0.00001437,-0.00013521,-0.00000942,0.000
 02700,-0.00007694,0.00023046,-0.00041086,-0.00189527,-0.00076887,0.000
 40736,0.00027225,0.00002606,0.00030422,0.00103692,-0.00113288,-0.00197
 263,-0.06301713,0.01045407,-0.30047660,0.00008138,0.00312956,-0.004283
 68,-0.00010177,-0.00092016,0.00003881,-0.00005721,-0.00001145,0.000008
 15,-0.00003960,0.00000047,-0.00000756,-0.00004346,0.00001057,0.0000057
 3,-0.00006642,0.00001437,0.00001662,-0.00006920,-0.00001949,0.00000881
 ,-0.00010232,-0.00002373,0.00017840,-0.00022198,0.00006574,0.00108611,
 -0.00064039,-0.00000145,-0.00016397,0.06975765,-0.01170377,0.32089504,
 0.00006267,0.00000495,0.00003362,-0.00000153,0.00003055,-0.00004731,0.
 00018685,-0.00009407,-0.00057681,-0.00000276,0.00006571,0.00003496,-0.
 00103465,-0.00009310,0.00036676,-0.01258447,0.00014700,0.00917779,-0.2
 2540647,-0.00342904,0.12048523,-0.01561583,0.00005590,0.01202568,0.002
 27267,0.00131257,0.00009229,-0.00002702,-0.00000808,0.00001018,-0.0000
 3860,-0.00000153,-0.00000985,-0.00002662,0.00000463,0.00000785,0.00036
 464,0.00005777,-0.00005565,0.00031838,-0.00002753,-0.00007072,0.000632
 68,0.00011028,-0.00079499,-0.00155370,0.00095061,-0.00194463,0.0016137
 2,-0.00004822,0.00009162,0.00696273,0.00006329,-0.00463185,0.24530218,
 -0.00000164,-0.00007550,-0.00000128,-0.00000531,0.00015183,-0.00000558
 ,0.00000959,0.00026333,0.00007823,0.00049391,-0.00118346,-0.00008013,0
 .00009600,0.00038177,-0.00006047,0.02341760,-0.00099378,-0.01682413,-0
 .00335707,-0.04267064,0.00123215,-0.02358113,-0.00214967,0.01716000,0.
 00179478,0.00280955,0.00144664,-0.00000903,0.00000148,0.00001017,0.000
 00357,0.00001882,0.,0.00001565,0.00000185,-0.00001297,0.00004818,-0.00
 004759,-0.00013043,-0.00009604,0.00000476,0.00011747,0.00001195,0.0001
 8667,0.00013241,0.00418329,-0.00286429,0.00244731,-0.00166880,0.001695
 60,-0.00081259,-0.00092519,0.00033172,0.00066043,0.00278944,0.04690723
 ,0.00000086,0.00000156,0.00000430,-0.00003021,0.00001417,0.00000097,0.
 00038008,-0.00004936,-0.00003239,0.00047873,0.00013442,-0.00034755,-0.
 00018450,0.00024162,-0.00086739,-0.00647368,-0.00047286,0.00350042,0.1
 2015019,0.00067923,-0.13072034,-0.00682976,0.00040771,0.00409437,-0.00
 022938,0.00056782,0.00135231,0.00000385,-0.00000231,-0.00000335,0.0000
 0473,0.00000033,0.00000335,0.00000397,0.00000159,-0.00000393,-0.000102
 42,-0.00005653,-0.00006909,-0.00004370,0.00001726,-0.00005415,-0.00077
 132,0.00006349,-0.00077760,-0.00128603,0.00030409,0.00021329,0.0003282
 7,-0.00017669,0.00128539,0.02674006,0.00056760,-0.01694748,-0.13112712
 ,-0.00205719,0.13881685,-0.00009657,0.00005935,0.00000866,-0.00011827,
 -0.00024605,0.00022154,0.00198367,0.00005508,-0.00103181,0.00719864,0.
 00630804,-0.01391714,-0.00146430,0.00303858,-0.00114484,-0.00059854,-0
 .00000846,-0.00029023,-0.01586293,-0.00716177,0.01604842,-0.14451098,-
 0.04490634,0.12016410,-0.01030502,0.00032440,0.01175193,0.00007123,0.0
 0002989,-0.00002472,0.00003848,-0.00001082,-0.00000232,0.00001470,-0.0
 0001124,0.00001099,0.00051665,-0.00001435,-0.00117459,-0.00009644,-0.0
 0013959,0.00004766,0.00017185,0.00006995,-0.00002719,0.00047604,-0.000
 18034,0.00011685,0.00011209,-0.00026014,-0.00006012,0.00129301,0.00125
 703,-0.00005792,-0.00163710,-0.00364148,-0.00124248,0.16106192,0.00002
 861,-0.00009247,-0.00005875,0.00068283,0.00013571,-0.00028146,-0.00113
 018,0.00096753,0.00029364,-0.00881151,-0.00450076,0.01414992,0.0014279
 7,-0.00301703,0.00007218,0.00047404,0.00129102,-0.00050135,-0.01214535
 ,-0.00429073,0.01231973,-0.04922777,-0.07025847,0.05623937,0.02468292,
 0.00344471,-0.02613738,-0.00001384,0.00000889,0.00002540,-0.00004550,0
 .00001136,0.,0.00003426,-0.00000298,0.00000369,-0.00039526,0.00004153,
 0.00112191,0.00017492,0.00014299,0.00000660,-0.00011269,-0.00006204,-0
 .00020119,0.00009147,-0.00077397,-0.00014872,0.00030245,0.00017003,-0.
 00025924,0.00023914,0.00138095,-0.00015030,-0.00114758,-0.00307531,-0.
 00064090,0.04265395,0.08163670,-0.00006041,0.00011120,-0.00004454,-0.0
 0097357,-0.00044915,0.00042491,0.00234723,-0.00103725,0.00098244,0.010
 18400,0.00816733,-0.01699725,-0.00220566,0.00341362,-0.00024687,-0.000
 40567,0.00004864,-0.00053987,-0.00972275,-0.00417189,0.01035618,0.1196
 3596,0.05008634,-0.18622644,0.01213273,0.00025411,-0.01149918,-0.00001
 210,0.00000238,-0.00002226,0.00003806,-0.00001739,0.00000543,-0.000003
 43,-0.00001016,0.00000234,0.00044580,0.00005134,-0.00129463,0.00005187
 ,-0.00017935,0.00006781,0.00008113,-0.00014760,0.00022009,0.00013126,0
 .00016973,0.00037027,-0.00001315,0.00025441,0.00006562,0.00041708,0.00
 085559,0.00131606,-0.00219593,-0.00252917,0.00018433,-0.13028106,-0.05
 213941,0.20344446,-0.00009388,0.00001406,0.00000691,0.00029184,0.00012
 027,-0.00012199,-0.00075355,-0.00023046,-0.00011261,0.00052387,-0.0020
 6865,0.00121003,0.00074251,0.00016098,0.00024506,0.00023162,-0.0003833
 7,0.00021983,0.00183560,0.00037409,-0.00137111,-0.01255094,0.00173305,
 0.01458831,-0.14506802,-0.05376697,0.15447620,0.00007565,0.00001715,-0
 .00000580,0.00003539,0.00000258,0.00001006,0.00005341,-0.00001557,-0.0
 0000619,0.00004979,-0.00051634,-0.00033816,-0.00075693,0.00001161,-0.0
 0082414,0.00026665,0.00031355,0.00006891,-0.00020412,-0.00010494,-0.00
 018971,-0.00003165,-0.00004676,-0.00008401,-0.00013163,-0.00010795,0.0
 0001690,-0.00014192,0.00011395,0.00025400,0.00116764,0.00260324,0.0005
 0813,0.17206461,0.00004827,0.00001243,-0.00001447,-0.00010705,-0.00003
 216,0.00004709,0.00010570,0.00011590,0.00035858,0.00054453,0.00081883,
 -0.00055044,0.00106964,0.00012536,0.00003253,-0.00004173,0.00024758,0.
 00003798,0.00104812,0.00130748,0.00011143,0.02280806,0.00502483,-0.029
 07848,-0.07215615,-0.07138434,0.05919463,-0.00002782,-0.00001259,0.000
 00061,-0.00002796,-0.00000318,-0.00000690,-0.00003666,0.00000884,0.000
 00379,-0.00051580,0.00005802,-0.00010172,0.00014211,-0.00025369,0.0003
 8408,-0.00052220,-0.00096310,0.00071040,-0.00007382,0.00012146,0.00013
 913,-0.00003610,0.00002576,0.00007768,-0.00026030,0.00013209,0.0002802
 7,-0.00103687,-0.00013712,0.00029671,0.00240487,-0.00458639,-0.0029588
 3,0.05817292,0.07489298,-0.00004043,0.00000695,0.00001801,0.00003597,0
 .00001492,-0.00000056,-0.00027027,-0.00002140,-0.00007683,-0.00073698,
 0.00047321,0.00136293,0.00009729,0.00020569,0.00054529,0.00012540,0.00
 027228,0.00052572,0.00060403,0.00091104,-0.00027855,0.00627969,0.00785
 071,-0.01572157,0.20121984,0.04943987,-0.27986450,0.00002066,0.0000033
 3,-0.00000867,0.00002449,-0.00000163,0.00000671,0.00002230,-0.00000439
 ,-0.00000553,-0.00021372,-0.00004387,0.00027732,-0.00029074,0.00015210
 ,-0.00030706,-0.00023061,0.00039082,-0.00010999,-0.00026376,0.00018115
 ,-0.00014826,-0.00002239,0.00001956,0.00001148,-0.00023142,0.00014099,
 0.00013105,-0.00080951,-0.00102180,0.00017853,0.00104083,-0.00403585,-
 0.00045980,-0.19353712,-0.05202881,0.28689272,-0.00005981,0.00003195,-
 0.00003744,-0.00021769,-0.00020564,0.00005166,0.00034048,-0.00023418,0
 .00005423,0.00023667,0.00054773,0.00012179,-0.00017257,-0.00016618,-0.
 00006472,0.00025605,0.00010690,-0.00012812,0.00002692,0.00170716,0.000
 91379,0.01046362,0.01507512,0.00401645,-0.25384504,-0.19018062,-0.0589
 9208,0.00001517,0.00002219,0.00000771,0.00001287,0.00000123,0.00000682
 ,0.00002851,-0.00001722,0.00000436,0.00003824,0.00003862,0.00007317,0.
 00012535,0.00014534,-0.00003781,0.00001840,-0.00000509,-0.00001446,0.0
 0006343,-0.00006526,0.00004969,-0.00007543,0.00013451,-0.00007850,0.00
 007090,0.00006471,-0.00008518,0.00035417,0.00030778,-0.00002415,0.0005
 8424,-0.00036611,-0.00009951,-0.01760594,-0.01150176,-0.01282353,0.259
 34148,0.00013737,-0.00001375,0.00001747,0.00003973,0.00007572,0.000008
 23,0.00021359,0.00025337,0.00002708,-0.00113590,0.00027450,0.00060474,
 -0.00027545,-0.00043424,0.00000218,-0.00077416,-0.00073443,-0.00032777
 ,0.00441130,-0.00115794,-0.00224586,-0.02529651,-0.02415226,-0.0126003
 4,-0.15674297,-0.16602350,-0.07067889,-0.00008729,-0.00002760,0.000013
 78,-0.00005158,-0.00000053,-0.00001570,-0.00007219,0.00001531,0.000004
 69,0.00010330,0.00023598,0.00011831,0.00017349,-0.00013758,0.00072874,
 0.00016231,0.00002574,-0.00006049,0.00011093,-0.00005821,0.00007753,0.
 00037064,-0.00029519,0.00017616,-0.00012173,-0.00086255,-0.00010819,0.
 00029333,0.00044274,0.00015823,0.00037942,0.00142874,0.00022551,-0.006
 39644,-0.00551899,-0.00290486,0.18455881,0.19666467,-0.00007947,-0.000
 00010,-0.00000470,0.00022539,0.00008986,-0.00010062,-0.00018284,-0.000
 23043,0.00026145,0.00080606,-0.00052826,0.00084644,0.00066006,0.000414
 84,0.00025055,-0.00040525,-0.00088960,0.00011605,0.00321499,-0.0024922
 2,-0.00049985,-0.01743255,-0.00368163,-0.00664868,-0.07824230,-0.10250
 480,-0.07566027,0.00010720,0.00001532,-0.00001170,0.00003081,0.0000058
 4,0.00000328,0.00003856,-0.00000240,-0.00000637,-0.00023179,-0.0001481
 1,-0.00004720,-0.00012479,0.00004242,-0.00026077,-0.00027407,-0.000041
 90,-0.00002084,0.00008262,-0.00010217,-0.00004023,0.00030913,-0.000212
 49,0.00012521,-0.00035593,-0.00015140,-0.00017493,-0.00006160,0.000250
 92,0.00018914,-0.00015656,0.00032211,-0.00010910,0.02498651,0.02306476
 ,0.00703156,0.06708585,0.08677946,0.07476158\\-0.00000191,0.00000040,0
 .00000170,0.00000266,0.00000012,0.00000054,-0.00000183,0.00000021,0.00
 000106,-0.00000065,-0.00000061,-0.00000306,-0.00000051,-0.00000105,0.0
 0000206,0.00000065,0.00000139,0.00000038,-0.00000185,0.00000011,-0.000
 00060,0.00000171,0.00000014,0.00000180,0.00000131,-0.00000116,0.000000
 58,0.00000063,0.00000002,0.00000169,-0.00000007,-0.00000049,0.00000151
 ,0.00000090,-0.00000041,0.00000085,-0.00000106,-0.00000029,-0.00000117
 ,-0.00000072,-0.00000047,-0.00000077,-0.00000093,-0.00000029,-0.000001
 00,0.00000055,0.00000053,-0.00000095,0.00000022,-0.00000019,-0.0000014
 5,0.00000120,0.00000066,-0.00000113,0.00000024,0.00000020,-0.00000146,
 0.00000007,0.00000096,-0.00000010,-0.00000004,0.00000020,-0.00000096,-
 0.00000055,0.,0.00000048\\\@


 ONE BIG VICE IN A MAN IS APT TO KEEP OUT MANY SMALLER ONES.

                           -- BRET HARTE
 Job cpu time:       0 days  2 hours  6 minutes 42.9 seconds.
 Elapsed time:       0 days  0 hours 31 minutes 41.7 seconds.
 File lengths (MBytes):  RWF=    165 Int=      0 D2E=      0 Chk=      9 Scr=      1
 Normal termination of Gaussian 16 at Mon Jul  4 01:06:01 2022.
### All Done ###
