### Starting Gaussian ###
 Entering Gaussian System, Link 0=g16
 Initial command:
 /cluster/software/gaussian/gaussian-16-A.03/avx2/g16/l1.exe "/local/scratch/ks29c/Gau-24873.inp" -scrdir="/local/scratch/ks29c/"
 Entering Link 1 = /cluster/software/gaussian/gaussian-16-A.03/avx2/g16/l1.exe PID=     24874.
  
 Copyright (c) 1988,1990,1992,1993,1995,1998,2003,2009,2016,
            Gaussian, Inc.  All Rights Reserved.
  
 This is part of the Gaussian(R) 16 program.  It is based on
 the Gaussian(R) 09 system (copyright 2009, Gaussian, Inc.),
 the Gaussian(R) 03 system (copyright 2003, Gaussian, Inc.),
 the Gaussian(R) 98 system (copyright 1998, Gaussian, Inc.),
 the Gaussian(R) 94 system (copyright 1995, Gaussian, Inc.),
 the Gaussian 92(TM) system (copyright 1992, Gaussian, Inc.),
 the Gaussian 90(TM) system (copyright 1990, Gaussian, Inc.),
 the Gaussian 88(TM) system (copyright 1988, Gaussian, Inc.),
 the Gaussian 86(TM) system (copyright 1986, Carnegie Mellon
 University), and the Gaussian 82(TM) system (copyright 1983,
 Carnegie Mellon University). Gaussian is a federally registered
 trademark of Gaussian, Inc.
  
 This software contains proprietary and confidential information,
 including trade secrets, belonging to Gaussian, Inc.
  
 This software is provided under written license and may be
 used, copied, transmitted, or stored only in accord with that
 written license.
  
 The following legend is applicable only to US Government
 contracts under FAR:
  
                    RESTRICTED RIGHTS LEGEND
  
 Use, reproduction and disclosure by the US Government is
 subject to restrictions as set forth in subparagraphs (a)
 and (c) of the Commercial Computer Software - Restricted
 Rights clause in FAR 52.227-19.
  
 Gaussian, Inc.
 340 Quinnipiac St., Bldg. 40, Wallingford CT 06492
  
  
 ---------------------------------------------------------------
 Warning -- This program may not be used in any manner that
 competes with the business of Gaussian, Inc. or will provide
 assistance to any competitor of Gaussian, Inc.  The licensee
 of this program is prohibited from giving any competitor of
 Gaussian, Inc. access to this program.  By using this program,
 the user acknowledges that Gaussian, Inc. is engaged in the
 business of creating and licensing software in the field of
 computational chemistry and represents and warrants to the
 licensee that it is not a competitor of Gaussian, Inc. and that
 it will not use this program in any manner prohibited above.
 ---------------------------------------------------------------
  

 Cite this work as:
 Gaussian 16, Revision A.03,
 M. J. Frisch, G. W. Trucks, H. B. Schlegel, G. E. Scuseria, 
 M. A. Robb, J. R. Cheeseman, G. Scalmani, V. Barone, 
 G. A. Petersson, H. Nakatsuji, X. Li, M. Caricato, A. V. Marenich, 
 J. Bloino, B. G. Janesko, R. Gomperts, B. Mennucci, H. P. Hratchian, 
 J. V. Ortiz, A. F. Izmaylov, J. L. Sonnenberg, D. Williams-Young, 
 F. Ding, F. Lipparini, F. Egidi, J. Goings, B. Peng, A. Petrone, 
 T. Henderson, D. Ranasinghe, V. G. Zakrzewski, J. Gao, N. Rega, 
 G. Zheng, W. Liang, M. Hada, M. Ehara, K. Toyota, R. Fukuda, 
 J. Hasegawa, M. Ishida, T. Nakajima, Y. Honda, O. Kitao, H. Nakai, 
 T. Vreven, K. Throssell, J. A. Montgomery, Jr., J. E. Peralta, 
 F. Ogliaro, M. J. Bearpark, J. J. Heyd, E. N. Brothers, K. N. Kudin, 
 V. N. Staroverov, T. A. Keith, R. Kobayashi, J. Normand, 
 K. Raghavachari, A. P. Rendell, J. C. Burant, S. S. Iyengar, 
 J. Tomasi, M. Cossi, J. M. Millam, M. Klene, C. Adamo, R. Cammi, 
 J. W. Ochterski, R. L. Martin, K. Morokuma, O. Farkas, 
 J. B. Foresman, and D. J. Fox, Gaussian, Inc., Wallingford CT, 2016.
 
 ******************************************
 Gaussian 16:  ES64L-G16RevA.03 25-Dec-2016
                 3-Jul-2022 
 ******************************************
 %chk=CdCpCdOpCONCC.chk
 %NProcShared=20
 Will use up to   20 processors via shared memory.
 -----------------------------
 # opt freq b3lyp/6-31g(2df,p)
 -----------------------------
 1/18=20,19=15,26=3,38=1/1,3;
 2/9=110,12=2,17=6,18=5,40=1/2;
 3/5=1,6=6,7=104,11=2,25=1,30=1,71=1,74=-5/1,2,3;
 4//1;
 5/5=2,38=5/2;
 6/7=2,8=2,9=2,10=2,28=1/1;
 7//1,2,3,16;
 1/18=20,19=15,26=3/3(2);
 2/9=110/2;
 99//99;
 2/9=110/2;
 3/5=1,6=6,7=104,11=2,25=1,30=1,71=1,74=-5/1,2,3;
 4/5=5,16=3,69=1/1;
 5/5=2,38=5/2;
 7//1,2,3,16;
 1/18=20,19=15,26=3/3(-5);
 2/9=110/2;
 6/7=2,8=2,9=2,10=2,19=2,28=1/1;
 99/9=1/99;
 -------------------
 Title Card Required
 -------------------
 Symbolic Z-matrix:
 Charge =  0 Multiplicity = 1
 C                     0.90707  -0.00103   0.02589 
 C                     2.2509    0.0061    0.01716 
 C                     2.96426  -1.20205   0.51173 
 O                     2.38529  -2.20101   0.93064 
 C                     3.02408   1.19329  -0.46696 
 O                     4.43319   1.01498  -0.30187 
 N                     5.11568   2.1635   -0.88184 
 C                     6.54024   1.8581   -0.7503 
 C                     7.32507   3.06383  -1.23499 
 H                     0.34234  -0.86004   0.37842 
 H                     0.33843   0.85479  -0.32449 
 H                     4.06418  -1.16109   0.49099 
 H                     2.73069   2.07346   0.1197 
 H                     2.79544   1.37951  -1.52398 
 H                     4.9009    2.90949  -0.21635 
 H                     6.80279   0.97792  -1.34712 
 H                     6.79291   1.65048   0.29656 
 H                     7.09172   3.28575  -2.28193 
 H                     8.39992   2.87898  -1.15545 
 H                     7.08785   3.95156  -0.63768 
 

 GradGradGradGradGradGradGradGradGradGradGradGradGradGradGradGradGradGrad
 Berny optimization.
 Initialization pass.
                           ----------------------------
                           !    Initial Parameters    !
                           ! (Angstroms and Degrees)  !
 --------------------------                            --------------------------
 ! Name  Definition              Value          Derivative Info.                !
 --------------------------------------------------------------------------------
 ! R1    R(1,2)                  1.3439         estimate D2E/DX2                !
 ! R2    R(1,10)                 1.0868         estimate D2E/DX2                !
 ! R3    R(1,11)                 1.0856         estimate D2E/DX2                !
 ! R4    R(2,3)                  1.4877         estimate D2E/DX2                !
 ! R5    R(2,5)                  1.4972         estimate D2E/DX2                !
 ! R6    R(3,4)                  1.2283         estimate D2E/DX2                !
 ! R7    R(3,12)                 1.1009         estimate D2E/DX2                !
 ! R8    R(5,6)                  1.4299         estimate D2E/DX2                !
 ! R9    R(5,13)                 1.0977         estimate D2E/DX2                !
 ! R10   R(5,14)                 1.0974         estimate D2E/DX2                !
 ! R11   R(6,7)                  1.4565         estimate D2E/DX2                !
 ! R12   R(7,8)                  1.4629         estimate D2E/DX2                !
 ! R13   R(7,15)                 1.0225         estimate D2E/DX2                !
 ! R14   R(8,9)                  1.5181         estimate D2E/DX2                !
 ! R15   R(8,16)                 1.0954         estimate D2E/DX2                !
 ! R16   R(8,17)                 1.0968         estimate D2E/DX2                !
 ! R17   R(9,18)                 1.0953         estimate D2E/DX2                !
 ! R18   R(9,19)                 1.0935         estimate D2E/DX2                !
 ! R19   R(9,20)                 1.096          estimate D2E/DX2                !
 ! A1    A(2,1,10)             121.73           estimate D2E/DX2                !
 ! A2    A(2,1,11)             121.1648         estimate D2E/DX2                !
 ! A3    A(10,1,11)            117.1048         estimate D2E/DX2                !
 ! A4    A(1,2,3)              118.2315         estimate D2E/DX2                !
 ! A5    A(1,2,5)              121.514          estimate D2E/DX2                !
 ! A6    A(3,2,5)              120.2535         estimate D2E/DX2                !
 ! A7    A(2,3,4)              123.2203         estimate D2E/DX2                !
 ! A8    A(2,3,12)             116.2714         estimate D2E/DX2                !
 ! A9    A(4,3,12)             120.5075         estimate D2E/DX2                !
 ! A10   A(2,5,6)              111.8819         estimate D2E/DX2                !
 ! A11   A(2,5,13)             108.9635         estimate D2E/DX2                !
 ! A12   A(2,5,14)             109.7807         estimate D2E/DX2                !
 ! A13   A(6,5,13)             107.5581         estimate D2E/DX2                !
 ! A14   A(6,5,14)             109.7362         estimate D2E/DX2                !
 ! A15   A(13,5,14)            108.8465         estimate D2E/DX2                !
 ! A16   A(5,6,7)              108.51           estimate D2E/DX2                !
 ! A17   A(6,7,8)              104.8265         estimate D2E/DX2                !
 ! A18   A(6,7,15)             102.5752         estimate D2E/DX2                !
 ! A19   A(8,7,15)             107.3582         estimate D2E/DX2                !
 ! A20   A(7,8,9)              107.9944         estimate D2E/DX2                !
 ! A21   A(7,8,16)             110.6206         estimate D2E/DX2                !
 ! A22   A(7,8,17)             110.469          estimate D2E/DX2                !
 ! A23   A(9,8,16)             109.8968         estimate D2E/DX2                !
 ! A24   A(9,8,17)             109.6332         estimate D2E/DX2                !
 ! A25   A(16,8,17)            108.2242         estimate D2E/DX2                !
 ! A26   A(8,9,18)             110.851          estimate D2E/DX2                !
 ! A27   A(8,9,19)             110.5282         estimate D2E/DX2                !
 ! A28   A(8,9,20)             110.942          estimate D2E/DX2                !
 ! A29   A(18,9,19)            108.2504         estimate D2E/DX2                !
 ! A30   A(18,9,20)            108.1018         estimate D2E/DX2                !
 ! A31   A(19,9,20)            108.0613         estimate D2E/DX2                !
 ! D1    D(10,1,2,3)            -0.2142         estimate D2E/DX2                !
 ! D2    D(10,1,2,5)          -179.8728         estimate D2E/DX2                !
 ! D3    D(11,1,2,3)          -179.9821         estimate D2E/DX2                !
 ! D4    D(11,1,2,5)             0.3592         estimate D2E/DX2                !
 ! D5    D(1,2,3,4)             -0.2545         estimate D2E/DX2                !
 ! D6    D(1,2,3,12)          -179.9531         estimate D2E/DX2                !
 ! D7    D(5,2,3,4)            179.4086         estimate D2E/DX2                !
 ! D8    D(5,2,3,12)            -0.29           estimate D2E/DX2                !
 ! D9    D(1,2,5,6)            176.0342         estimate D2E/DX2                !
 ! D10   D(1,2,5,13)            57.2339         estimate D2E/DX2                !
 ! D11   D(1,2,5,14)           -61.8814         estimate D2E/DX2                !
 ! D12   D(3,2,5,6)             -3.6176         estimate D2E/DX2                !
 ! D13   D(3,2,5,13)          -122.4179         estimate D2E/DX2                !
 ! D14   D(3,2,5,14)           118.4668         estimate D2E/DX2                !
 ! D15   D(2,5,6,7)            175.926          estimate D2E/DX2                !
 ! D16   D(13,5,6,7)           -64.4446         estimate D2E/DX2                !
 ! D17   D(14,5,6,7)            53.816          estimate D2E/DX2                !
 ! D18   D(5,6,7,8)           -176.3479         estimate D2E/DX2                !
 ! D19   D(5,6,7,15)            71.6122         estimate D2E/DX2                !
 ! D20   D(6,7,8,9)           -175.5484         estimate D2E/DX2                !
 ! D21   D(6,7,8,16)            64.1504         estimate D2E/DX2                !
 ! D22   D(6,7,8,17)           -55.659          estimate D2E/DX2                !
 ! D23   D(15,7,8,9)           -66.9636         estimate D2E/DX2                !
 ! D24   D(15,7,8,16)          172.7352         estimate D2E/DX2                !
 ! D25   D(15,7,8,17)           52.9258         estimate D2E/DX2                !
 ! D26   D(7,8,9,18)           -59.906          estimate D2E/DX2                !
 ! D27   D(7,8,9,19)          -179.9364         estimate D2E/DX2                !
 ! D28   D(7,8,9,20)            60.2107         estimate D2E/DX2                !
 ! D29   D(16,8,9,18)           60.8482         estimate D2E/DX2                !
 ! D30   D(16,8,9,19)          -59.1822         estimate D2E/DX2                !
 ! D31   D(16,8,9,20)         -179.0351         estimate D2E/DX2                !
 ! D32   D(17,8,9,18)          179.6795         estimate D2E/DX2                !
 ! D33   D(17,8,9,19)           59.649          estimate D2E/DX2                !
 ! D34   D(17,8,9,20)          -60.2038         estimate D2E/DX2                !
 --------------------------------------------------------------------------------
 Trust Radius=3.00D-01 FncErr=1.00D-07 GrdErr=1.00D-06 EigMax=2.50D+02 EigMin=1.00D-04
 Number of steps in this run=     94 maximum allowed number of steps=    120.
 GradGradGradGradGradGradGradGradGradGradGradGradGradGradGradGradGradGrad

                          Input orientation:                          
 ---------------------------------------------------------------------
 Center     Atomic      Atomic             Coordinates (Angstroms)
 Number     Number       Type             X           Y           Z
 ---------------------------------------------------------------------
      1          6           0        0.907070   -0.001030    0.025890
      2          6           0        2.250900    0.006100    0.017160
      3          6           0        2.964260   -1.202050    0.511730
      4          8           0        2.385290   -2.201010    0.930640
      5          6           0        3.024080    1.193290   -0.466960
      6          8           0        4.433190    1.014980   -0.301870
      7          7           0        5.115680    2.163500   -0.881840
      8          6           0        6.540240    1.858100   -0.750300
      9          6           0        7.325070    3.063830   -1.234990
     10          1           0        0.342340   -0.860040    0.378420
     11          1           0        0.338430    0.854790   -0.324490
     12          1           0        4.064180   -1.161090    0.490990
     13          1           0        2.730690    2.073460    0.119700
     14          1           0        2.795440    1.379510   -1.523980
     15          1           0        4.900900    2.909490   -0.216350
     16          1           0        6.802790    0.977920   -1.347120
     17          1           0        6.792910    1.650480    0.296560
     18          1           0        7.091720    3.285750   -2.281930
     19          1           0        8.399920    2.878980   -1.155450
     20          1           0        7.087850    3.951560   -0.637680
 ---------------------------------------------------------------------
                    Distance matrix (angstroms):
                    1          2          3          4          5
     1  C    0.000000
     2  C    1.343877   0.000000
     3  C    2.431156   1.487652   0.000000
     4  O    2.800646   2.392455   1.228256   0.000000
     5  C    2.480128   1.497197   2.588255   3.725938   0.000000
     6  O    3.684186   2.425285   2.781173   4.006940   1.429909
     7  N    4.818876   3.697234   4.230552   5.457936   2.342696
     8  C    5.982595   4.734695   4.872871   6.046945   3.589657
     9  C    7.223151   6.055146   6.345504   7.537236   4.752610
    10  H    1.086782   2.126807   2.647491   2.505353   3.481747
    11  H    1.085608   2.120033   3.438726   3.886245   2.710645
    12  H    3.395497   2.207902   1.100878   2.023215   2.746376
    13  H    2.763675   2.124780   3.307145   4.364404   1.097701
    14  H    2.806052   2.134922   3.291970   4.360448   1.097381
    15  H    4.947776   3.937855   4.602764   5.810429   2.555504
    16  H    6.132130   4.850299   4.789771   5.899838   3.885835
    17  H    6.119139   4.838585   4.779308   5.887542   3.872475
    18  H    7.374202   6.282950   6.706774   7.910476   4.921199
    19  H    8.113743   6.887590   6.998621   8.144559   5.675846
    20  H    7.366501   6.276269   6.699614   7.901128   4.914410
                    6          7          8          9         10
     6  O    0.000000
     7  N    1.456453   0.000000
     8  C    2.313353   1.462854   0.000000
     9  C    3.664897   2.411786   1.518113   0.000000
    10  H    4.551214   5.789199   6.861214   8.170579   0.000000
    11  H    4.097955   4.984524   6.296856   7.383902   1.853305
    12  H    2.345224   3.747428   4.097216   5.609132   3.735692
    13  H    2.048562   2.588314   3.913560   4.891252   3.791645
    14  H    2.075731   2.531896   3.853720   4.841281   3.827847
    15  H    1.953263   1.022501   2.019396   2.634018   5.945046
    16  H    2.590159   2.113865   1.095374   2.153223   6.934912
    17  H    2.516000   2.113035   1.096752   2.150906   6.922374
    18  H    4.018061   2.669163   2.165226   1.095347   8.355786
    19  H    4.465203   3.372389   2.159804   1.093526   9.014301
    20  H    3.972844   2.673243   2.166826   1.095955   8.347806
                   11         12         13         14         15
    11  H    0.000000
    12  H    4.313930   0.000000
    13  H    2.721281   3.518290   0.000000
    14  H    2.784063   3.482019   1.785341   0.000000
    15  H    5.004959   4.215454   2.349827   2.912679   0.000000
    16  H    6.545906   3.931157   4.464725   4.031304   2.937140
    17  H    6.532927   3.922843   4.088010   4.400859   2.329782
    18  H    7.439628   6.052228   5.124066   4.760910   3.034450
    19  H    8.353171   6.150737   5.866433   5.813297   3.622980
    20  H    7.432546   6.046128   4.804761   5.081904   2.458898
                   16         17         18         19         20
    16  H    0.000000
    17  H    1.775984   0.000000
    18  H    2.506677   3.067899   0.000000
    19  H    2.490299   2.489985   1.773642   0.000000
    20  H    3.070358   2.500952   1.773944   1.772016   0.000000
 Stoichiometry    C6H11NO2
 Framework group  C1[X(C6H11NO2)]
 Deg. of freedom    54
 Full point group                 C1      NOp   1
 Largest Abelian subgroup         C1      NOp   1
 Largest concise Abelian subgroup C1      NOp   1
                         Standard orientation:                         
 ---------------------------------------------------------------------
 Center     Atomic      Atomic             Coordinates (Angstroms)
 Number     Number       Type             X           Y           Z
 ---------------------------------------------------------------------
      1          6           0        2.925024   -1.285754   -0.024827
      2          6           0        1.867130   -0.456983   -0.022316
      3          6           0        2.121421    1.008638   -0.002321
      4          8           0        3.248772    1.495809    0.016523
      5          6           0        0.463940   -0.979068   -0.031441
      6          8           0       -0.497487    0.074977    0.064925
      7          7           0       -1.829732   -0.502609   -0.048093
      8          6           0       -2.737726    0.644189   -0.029559
      9          6           0       -4.160867    0.115674   -0.032329
     10          1           0        3.944981   -0.910644   -0.016176
     11          1           0        2.794436   -2.363381   -0.039406
     12          1           0        1.232097    1.657506    0.000006
     13          1           0        0.322381   -1.636723    0.835968
     14          1           0        0.288927   -1.557688   -0.947309
     15          1           0       -1.936993   -0.991078    0.843761
     16          1           0       -2.574393    1.279767   -0.906604
     17          1           0       -2.571538    1.250483    0.869136
     18          1           0       -4.350448   -0.489045   -0.925726
     19          1           0       -4.876862    0.942110   -0.019916
     20          1           0       -4.348268   -0.509504    0.848098
 ---------------------------------------------------------------------
 Rotational constants (GHZ):           4.3598566           0.6105488           0.5420422
 Standard basis: 6-31G(2df,p) (6D, 7F)
 There are   334 symmetry adapted cartesian basis functions of A   symmetry.
 There are   307 symmetry adapted basis functions of A   symmetry.
   307 basis functions,   473 primitive gaussians,   334 cartesian basis functions
    35 alpha electrons       35 beta electrons
       nuclear repulsion energy       434.5396260460 Hartrees.
 NAtoms=   20 NActive=   20 NUniq=   20 SFac= 1.00D+00 NAtFMM=   60 NAOKFM=F Big=F
 Integral buffers will be    131072 words long.
 Raffenetti 2 integral format.
 Two-electron integral symmetry is turned on.
 One-electron integrals computed using PRISM.
 PrsmSu:  requested number of processors reduced to:  13 ShMem   1 Linda.
 NBasis=   307 RedAO= T EigKep=  5.36D-04  NBF=   307
 NBsUse=   307 1.00D-06 EigRej= -1.00D+00 NBFU=   307
 ExpMin= 1.61D-01 ExpMax= 5.48D+03 ExpMxC= 8.25D+02 IAcc=3 IRadAn=         5 AccDes= 0.00D+00
 Harris functional with IExCor=  402 and IRadAn=       5 diagonalized for initial guess.
 HarFok:  IExCor=  402 AccDes= 0.00D+00 IRadAn=         5 IDoV= 1 UseB2=F ITyADJ=14
 ICtDFT=  3500011 ScaDFX=  1.000000  1.000000  1.000000  1.000000
 FoFCou: FMM=F IPFlag=           0 FMFlag=      100000 FMFlg1=           0
         NFxFlg=           0 DoJE=T BraDBF=F KetDBF=T FulRan=T
         wScrn=  0.000000 ICntrl=       500 IOpCl=  0 I1Cent=   200000004 NGrid=           0
         NMat0=    1 NMatS0=      1 NMatT0=    0 NMatD0=    1 NMtDS0=    0 NMtDT0=    0
 Petite list used in FoFCou.
 Requested convergence on RMS density matrix=1.00D-08 within 128 cycles.
 Requested convergence on MAX density matrix=1.00D-06.
 Requested convergence on             energy=1.00D-06.
 No special actions if energy rises.
 Integral accuracy reduced to 1.0D-05 until final iterations.
 Initial convergence to 1.0D-05 achieved.  Increase integral accuracy.
 SCF Done:  E(RB3LYP) =  -440.386051928     A.U. after   14 cycles
            NFock= 14  Conv=0.35D-08     -V/T= 2.0075

 **********************************************************************

            Population analysis using the SCF density.

 **********************************************************************

 Orbital symmetries:
       Occupied  (A) (A) (A) (A) (A) (A) (A) (A) (A) (A) (A) (A)
                 (A) (A) (A) (A) (A) (A) (A) (A) (A) (A) (A) (A)
                 (A) (A) (A) (A) (A) (A) (A) (A) (A) (A) (A)
       Virtual   (A) (A) (A) (A) (A) (A) (A) (A) (A) (A) (A) (A)
                 (A) (A) (A) (A) (A) (A) (A) (A) (A) (A) (A) (A)
                 (A) (A) (A) (A) (A) (A) (A) (A) (A) (A) (A) (A)
                 (A) (A) (A) (A) (A) (A) (A) (A) (A) (A) (A) (A)
                 (A) (A) (A) (A) (A) (A) (A) (A) (A) (A) (A) (A)
                 (A) (A) (A) (A) (A) (A) (A) (A) (A) (A) (A) (A)
                 (A) (A) (A) (A) (A) (A) (A) (A) (A) (A) (A) (A)
                 (A) (A) (A) (A) (A) (A) (A) (A) (A) (A) (A) (A)
                 (A) (A) (A) (A) (A) (A) (A) (A) (A) (A) (A) (A)
                 (A) (A) (A) (A) (A) (A) (A) (A) (A) (A) (A) (A)
                 (A) (A) (A) (A) (A) (A) (A) (A) (A) (A) (A) (A)
                 (A) (A) (A) (A) (A) (A) (A) (A) (A) (A) (A) (A)
                 (A) (A) (A) (A) (A) (A) (A) (A) (A) (A) (A) (A)
                 (A) (A) (A) (A) (A) (A) (A) (A) (A) (A) (A) (A)
                 (A) (A) (A) (A) (A) (A) (A) (A) (A) (A) (A) (A)
                 (A) (A) (A) (A) (A) (A) (A) (A) (A) (A) (A) (A)
                 (A) (A) (A) (A) (A) (A) (A) (A) (A) (A) (A) (A)
                 (A) (A) (A) (A) (A) (A) (A) (A) (A) (A) (A) (A)
                 (A) (A) (A) (A) (A) (A) (A) (A) (A) (A) (A) (A)
                 (A) (A) (A) (A) (A) (A) (A) (A) (A) (A) (A) (A)
                 (A) (A) (A) (A) (A) (A) (A) (A) (A) (A) (A) (A)
                 (A) (A) (A) (A) (A) (A) (A) (A) (A) (A) (A) (A)
                 (A) (A) (A) (A) (A) (A) (A) (A)
 The electronic state is 1-A.
 Alpha  occ. eigenvalues --  -19.17049 -19.12900 -14.37488 -10.26331 -10.24261
 Alpha  occ. eigenvalues --  -10.21454 -10.20725 -10.20166 -10.18620  -1.06415
 Alpha  occ. eigenvalues --   -1.02511  -0.86923  -0.80399  -0.73449  -0.67073
 Alpha  occ. eigenvalues --   -0.64738  -0.61616  -0.53099  -0.51427  -0.49571
 Alpha  occ. eigenvalues --   -0.49028  -0.46221  -0.44607  -0.43581  -0.41301
 Alpha  occ. eigenvalues --   -0.39629  -0.38817  -0.37898  -0.37204  -0.36260
 Alpha  occ. eigenvalues --   -0.35250  -0.31154  -0.26622  -0.24649  -0.23127
 Alpha virt. eigenvalues --   -0.06502   0.06081   0.06656   0.07394   0.11349
 Alpha virt. eigenvalues --    0.12103   0.13448   0.14067   0.15508   0.16225
 Alpha virt. eigenvalues --    0.17139   0.18003   0.18829   0.19348   0.19555
 Alpha virt. eigenvalues --    0.21357   0.23452   0.25385   0.28961   0.30041
 Alpha virt. eigenvalues --    0.36204   0.39805   0.45540   0.46326   0.47593
 Alpha virt. eigenvalues --    0.48908   0.49306   0.51300   0.51964   0.54167
 Alpha virt. eigenvalues --    0.54254   0.57119   0.57686   0.58083   0.58479
 Alpha virt. eigenvalues --    0.61590   0.63312   0.65374   0.66945   0.68642
 Alpha virt. eigenvalues --    0.70177   0.70736   0.71374   0.71743   0.73387
 Alpha virt. eigenvalues --    0.74170   0.74789   0.75126   0.76256   0.77493
 Alpha virt. eigenvalues --    0.78997   0.79352   0.81878   0.84110   0.85540
 Alpha virt. eigenvalues --    0.86379   0.87251   0.88515   0.88966   0.92112
 Alpha virt. eigenvalues --    0.92264   0.94404   0.96616   0.96992   1.00019
 Alpha virt. eigenvalues --    1.00409   1.02634   1.05844   1.07223   1.10150
 Alpha virt. eigenvalues --    1.13298   1.17334   1.18794   1.19059   1.21501
 Alpha virt. eigenvalues --    1.27040   1.28615   1.30369   1.32906   1.34965
 Alpha virt. eigenvalues --    1.35004   1.35772   1.39837   1.41330   1.42053
 Alpha virt. eigenvalues --    1.43138   1.45773   1.49492   1.51086   1.52405
 Alpha virt. eigenvalues --    1.55051   1.57671   1.59978   1.60127   1.62545
 Alpha virt. eigenvalues --    1.63557   1.66634   1.69632   1.70294   1.73371
 Alpha virt. eigenvalues --    1.75920   1.76665   1.77297   1.83073   1.84332
 Alpha virt. eigenvalues --    1.89933   1.94031   1.94302   1.95039   1.98032
 Alpha virt. eigenvalues --    2.00488   2.06048   2.10479   2.16039   2.17255
 Alpha virt. eigenvalues --    2.20636   2.22762   2.25357   2.26567   2.29021
 Alpha virt. eigenvalues --    2.31095   2.33261   2.38211   2.40818   2.48837
 Alpha virt. eigenvalues --    2.52636   2.55259   2.57379   2.60140   2.62610
 Alpha virt. eigenvalues --    2.67613   2.72096   2.72771   2.75855   2.79556
 Alpha virt. eigenvalues --    2.80104   2.82232   2.82644   2.84564   2.87203
 Alpha virt. eigenvalues --    2.88974   2.91795   2.92509   2.93468   2.95501
 Alpha virt. eigenvalues --    2.96080   2.97707   2.98924   3.02203   3.03181
 Alpha virt. eigenvalues --    3.08778   3.09455   3.11883   3.14366   3.16401
 Alpha virt. eigenvalues --    3.19415   3.21522   3.23676   3.27787   3.29971
 Alpha virt. eigenvalues --    3.31290   3.35818   3.36149   3.37871   3.39148
 Alpha virt. eigenvalues --    3.43058   3.44132   3.49335   3.50452   3.52768
 Alpha virt. eigenvalues --    3.53833   3.56347   3.57341   3.62829   3.63720
 Alpha virt. eigenvalues --    3.69090   3.69763   3.70709   3.75447   3.75918
 Alpha virt. eigenvalues --    3.79456   3.81020   3.87959   3.91351   3.93111
 Alpha virt. eigenvalues --    3.96533   3.99564   4.03647   4.08312   4.11465
 Alpha virt. eigenvalues --    4.16093   4.16272   4.19209   4.19720   4.23106
 Alpha virt. eigenvalues --    4.28763   4.30646   4.31025   4.34005   4.36186
 Alpha virt. eigenvalues --    4.37124   4.39216   4.40404   4.41405   4.43988
 Alpha virt. eigenvalues --    4.46764   4.47419   4.48936   4.49445   4.50332
 Alpha virt. eigenvalues --    4.50792   4.52168   4.53869   4.57737   4.59910
 Alpha virt. eigenvalues --    4.60688   4.62036   4.65024   4.65537   4.66745
 Alpha virt. eigenvalues --    4.70922   4.72744   4.73455   4.75967   4.78483
 Alpha virt. eigenvalues --    4.79669   4.80368   4.84619   4.84803   4.87570
 Alpha virt. eigenvalues --    4.90064   4.98341   5.00616   5.05874   5.07488
 Alpha virt. eigenvalues --    5.08254   5.09206   5.18677   5.20952   5.28026
 Alpha virt. eigenvalues --    5.32747   5.34791   5.37950   5.41364   5.46273
 Alpha virt. eigenvalues --    5.48482   5.49716   5.50988   5.57719   5.63339
 Alpha virt. eigenvalues --    5.64930   5.82088   5.84079   5.95163   5.96879
 Alpha virt. eigenvalues --    6.06335   6.17503   6.19293   6.33659   6.48279
 Alpha virt. eigenvalues --    6.77705   7.04374   9.90866  10.08491  10.85946
 Alpha virt. eigenvalues --   11.36814  11.47474  11.55929  11.98658  12.44512
 Alpha virt. eigenvalues --   12.97572  13.48033
          Condensed to atoms (all electrons):
               1          2          3          4          5          6
     1  C    5.192127   0.509551   0.015967  -0.006698  -0.080127   0.001312
     2  C    0.509551   4.927808   0.260350  -0.071705   0.384344  -0.019491
     3  C    0.015967   0.260350   4.567492   0.738835  -0.041359  -0.001733
     4  O   -0.006698  -0.071705   0.738835   7.660459   0.002381   0.000051
     5  C   -0.080127   0.384344  -0.041359   0.002381   4.906206   0.334294
     6  O    0.001312  -0.019491  -0.001733   0.000051   0.334294   7.896277
     7  N   -0.000055   0.003286  -0.000055  -0.000000  -0.048640   0.187595
     8  C    0.000002  -0.000324  -0.000008   0.000000   0.002286  -0.035508
     9  C   -0.000000   0.000003   0.000000   0.000000  -0.000383   0.002736
    10  H    0.350924  -0.008297  -0.008052   0.015360   0.005039  -0.000043
    11  H    0.357239  -0.020681   0.005010   0.000316  -0.010034   0.000066
    12  H    0.012003  -0.108513   0.364627  -0.055228  -0.007788   0.014831
    13  H   -0.005002  -0.020977   0.001826  -0.000021   0.336128  -0.032851
    14  H   -0.003721  -0.013134   0.001524  -0.000016   0.335549  -0.028994
    15  H    0.000006  -0.000407   0.000000   0.000000  -0.006892  -0.034019
    16  H    0.000000  -0.000018  -0.000007   0.000000   0.000172   0.001863
    17  H    0.000000   0.000103  -0.000030   0.000000   0.000717   0.009115
    18  H    0.000000   0.000000  -0.000000   0.000000   0.000022   0.000055
    19  H    0.000000  -0.000000  -0.000000   0.000000   0.000003  -0.000054
    20  H    0.000000  -0.000000  -0.000000   0.000000  -0.000000   0.000049
               7          8          9         10         11         12
     1  C   -0.000055   0.000002  -0.000000   0.350924   0.357239   0.012003
     2  C    0.003286  -0.000324   0.000003  -0.008297  -0.020681  -0.108513
     3  C   -0.000055  -0.000008   0.000000  -0.008052   0.005010   0.364627
     4  O   -0.000000   0.000000   0.000000   0.015360   0.000316  -0.055228
     5  C   -0.048640   0.002286  -0.000383   0.005039  -0.010034  -0.007788
     6  O    0.187595  -0.035508   0.002736  -0.000043   0.000066   0.014831
     7  N    6.471537   0.364074  -0.040241   0.000001  -0.000004  -0.000693
     8  C    0.364074   4.756015   0.386400  -0.000000   0.000000   0.000170
     9  C   -0.040241   0.386400   4.969241   0.000000   0.000000   0.000002
    10  H    0.000001  -0.000000   0.000000   0.531246  -0.039841   0.000744
    11  H   -0.000004   0.000000   0.000000  -0.039841   0.583745  -0.000117
    12  H   -0.000693   0.000170   0.000002   0.000744  -0.000117   0.672216
    13  H   -0.005626   0.000166   0.000039  -0.000229   0.002383   0.000078
    14  H    0.007790   0.000465   0.000017  -0.000202   0.001832   0.000136
    15  H    0.313269  -0.048807   0.003339  -0.000000   0.000002   0.000022
    16  H   -0.024446   0.371324  -0.028384  -0.000000   0.000000   0.000073
    17  H   -0.040568   0.366207  -0.035741  -0.000000   0.000000   0.000188
    18  H    0.003008  -0.027773   0.378376  -0.000000   0.000000   0.000000
    19  H    0.002725  -0.022049   0.375813  -0.000000   0.000000   0.000000
    20  H   -0.003681  -0.029426   0.378081   0.000000  -0.000000   0.000000
              13         14         15         16         17         18
     1  C   -0.005002  -0.003721   0.000006   0.000000   0.000000   0.000000
     2  C   -0.020977  -0.013134  -0.000407  -0.000018   0.000103   0.000000
     3  C    0.001826   0.001524   0.000000  -0.000007  -0.000030  -0.000000
     4  O   -0.000021  -0.000016   0.000000   0.000000   0.000000   0.000000
     5  C    0.336128   0.335549  -0.006892   0.000172   0.000717   0.000022
     6  O   -0.032851  -0.028994  -0.034019   0.001863   0.009115   0.000055
     7  N   -0.005626   0.007790   0.313269  -0.024446  -0.040568   0.003008
     8  C    0.000166   0.000465  -0.048807   0.371324   0.366207  -0.027773
     9  C    0.000039   0.000017   0.003339  -0.028384  -0.035741   0.378376
    10  H   -0.000229  -0.000202  -0.000000  -0.000000  -0.000000  -0.000000
    11  H    0.002383   0.001832   0.000002   0.000000   0.000000   0.000000
    12  H    0.000078   0.000136   0.000022   0.000073   0.000188   0.000000
    13  H    0.670327  -0.056503   0.011067   0.000051  -0.000147  -0.000001
    14  H   -0.056503   0.635272  -0.002461  -0.000139   0.000131   0.000008
    15  H    0.011067  -0.002461   0.535411   0.006932  -0.010984  -0.000737
    16  H    0.000051  -0.000139   0.006932   0.602825  -0.049240  -0.005394
    17  H   -0.000147   0.000131  -0.010984  -0.049240   0.661926   0.006006
    18  H   -0.000001   0.000008  -0.000737  -0.005394   0.006006   0.575577
    19  H    0.000000   0.000000  -0.000381  -0.002284  -0.000205  -0.029020
    20  H   -0.000001  -0.000001   0.005552   0.005277  -0.005741  -0.033281
              19         20
     1  C    0.000000   0.000000
     2  C   -0.000000  -0.000000
     3  C   -0.000000  -0.000000
     4  O    0.000000   0.000000
     5  C    0.000003  -0.000000
     6  O   -0.000054   0.000049
     7  N    0.002725  -0.003681
     8  C   -0.022049  -0.029426
     9  C    0.375813   0.378081
    10  H   -0.000000   0.000000
    11  H    0.000000  -0.000000
    12  H    0.000000   0.000000
    13  H    0.000000  -0.000001
    14  H    0.000000  -0.000001
    15  H   -0.000381   0.005552
    16  H   -0.002284   0.005277
    17  H   -0.000205  -0.005741
    18  H   -0.029020  -0.033281
    19  H    0.581711  -0.030135
    20  H   -0.030135   0.598706
 Mulliken charges:
               1
     1  C   -0.343529
     2  C    0.178103
     3  C    0.095613
     4  O   -0.283733
     5  C   -0.111918
     6  O   -0.295553
     7  N   -0.189276
     8  C   -0.083213
     9  C   -0.389297
    10  H    0.153350
    11  H    0.120085
    12  H    0.107251
    13  H    0.099293
    14  H    0.122445
    15  H    0.229089
    16  H    0.121395
    17  H    0.098263
    18  H    0.133154
    19  H    0.123878
    20  H    0.114602
 Sum of Mulliken charges =  -0.00000
 Mulliken charges with hydrogens summed into heavy atoms:
               1
     1  C   -0.070095
     2  C    0.178103
     3  C    0.202864
     4  O   -0.283733
     5  C    0.109819
     6  O   -0.295553
     7  N    0.039813
     8  C    0.136445
     9  C   -0.017664
 Electronic spatial extent (au):  <R**2>=           2028.6972
 Charge=             -0.0000 electrons
 Dipole moment (field-independent basis, Debye):
    X=             -2.8908    Y=             -2.2556    Z=              0.7915  Tot=              3.7512
 Quadrupole moment (field-independent basis, Debye-Ang):
   XX=            -57.7950   YY=            -54.1321   ZZ=            -53.6527
   XY=             -9.2242   XZ=             -1.9893   YZ=             -1.6036
 Traceless Quadrupole moment (field-independent basis, Debye-Ang):
   XX=             -2.6017   YY=              1.0612   ZZ=              1.5406
   XY=             -9.2242   XZ=             -1.9893   YZ=             -1.6036
 Octapole moment (field-independent basis, Debye-Ang**2):
  XXX=            -43.3157  YYY=             -3.1989  ZZZ=              1.1087  XYY=             -6.0328
  XXY=            -22.6593  XXZ=              2.4436  XZZ=             -1.6605  YZZ=              1.9619
  YYZ=              1.0477  XYZ=              3.3395
 Hexadecapole moment (field-independent basis, Debye-Ang**3):
 XXXX=          -2274.6361 YYYY=           -346.9471 ZZZZ=            -73.1743 XXXY=           -102.7942
 XXXZ=             -3.7995 YYYX=            -13.4060 YYYZ=             -2.3275 ZZZX=             -1.2569
 ZZZY=             -1.6046 XXYY=           -452.8401 XXZZ=           -382.4835 YYZZ=            -68.6285
 XXYZ=             -7.1962 YYXZ=             -2.9630 ZZXY=             11.8959
 N-N= 4.345396260460D+02 E-N=-1.896634488977D+03  KE= 4.371227726017D+02
 PrsmSu:  requested number of processors reduced to:  13 ShMem   1 Linda.
 Calling FoFJK, ICntrl=      2127 FMM=F ISym2X=0 I1Cent= 0 IOpClX= 0 NMat=1 NMatS=1 NMatT=0.
 ***** Axes restored to original set *****
 -------------------------------------------------------------------
 Center     Atomic                   Forces (Hartrees/Bohr)
 Number     Number              X              Y              Z
 -------------------------------------------------------------------
      1        6           0.005744600    0.002607776   -0.001454402
      2        6          -0.010622651   -0.009986769    0.005533095
      3        6          -0.011533711   -0.023101386    0.009857743
      4        8           0.011944622    0.019579645   -0.008372560
      5        6           0.013393126    0.007647268   -0.003460413
      6        8          -0.007505454   -0.001849247   -0.001170541
      7        7          -0.007217644   -0.013106051   -0.000981713
      8        6           0.001693088    0.005393312    0.003215365
      9        6           0.003017830    0.003775157   -0.003643012
     10        1           0.004224630    0.000304210   -0.000416309
     11        1          -0.000665723    0.000434502    0.000133649
     12        1           0.000979738    0.000902379   -0.000600835
     13        1          -0.003900432    0.004099589   -0.001745377
     14        1           0.001220254    0.003075463   -0.000442614
     15        1           0.002494837    0.002996581    0.000652716
     16        1          -0.005928573   -0.000026837    0.000227026
     17        1           0.001533319   -0.003934262    0.001274944
     18        1           0.000098299    0.000210556    0.001131677
     19        1          -0.000094567    0.000427131    0.000611317
     20        1           0.001124411    0.000550984   -0.000349757
 -------------------------------------------------------------------
 Cartesian Forces:  Max     0.023101386 RMS     0.006325617

 GradGradGradGradGradGradGradGradGradGradGradGradGradGradGradGradGradGrad
 Berny optimization.
 FormGI is forming the generalized inverse of G from B-inverse, IUseBI=4.
 Internal  Forces:  Max     0.024410391 RMS     0.004127451
 Search for a local minimum.
 Step number   1 out of a maximum of   94
 All quantities printed in internal units (Hartrees-Bohrs-Radians)
 Mixed Optimization -- RFO/linear search
 Second derivative matrix not updated -- first step.
 ITU=  0
     Eigenvalues ---    0.00526   0.00548   0.00803   0.00860   0.00929
     Eigenvalues ---    0.00929   0.01296   0.01412   0.02831   0.02831
     Eigenvalues ---    0.04755   0.05064   0.05652   0.05684   0.05691
     Eigenvalues ---    0.06174   0.07460   0.08714   0.11675   0.11914
     Eigenvalues ---    0.12359   0.14083   0.16000   0.16000   0.16000
     Eigenvalues ---    0.16000   0.16000   0.16000   0.21898   0.22000
     Eigenvalues ---    0.22133   0.24044   0.25000   0.25000   0.25000
     Eigenvalues ---    0.30549   0.32673   0.33585   0.33708   0.33938
     Eigenvalues ---    0.33973   0.34044   0.34133   0.34199   0.34202
     Eigenvalues ---    0.34408   0.35187   0.35325   0.36609   0.37412
     Eigenvalues ---    0.41002   0.43941   0.56345   0.91817
 RFO step:  Lambda=-5.78385335D-03 EMin= 5.26346053D-03
 Linear search not attempted -- first point.
 Iteration  1 RMS(Cart)=  0.13501235 RMS(Int)=  0.00889278
 Iteration  2 RMS(Cart)=  0.02115207 RMS(Int)=  0.00026228
 Iteration  3 RMS(Cart)=  0.00027118 RMS(Int)=  0.00020529
 Iteration  4 RMS(Cart)=  0.00000008 RMS(Int)=  0.00020529
 Variable       Old X    -DE/DX   Delta X   Delta X   Delta X     New X
                                 (Linear)    (Quad)   (Total)
    R1        2.53956  -0.00933   0.00000  -0.01639  -0.01639   2.52317
    R2        2.05372  -0.00257   0.00000  -0.00719  -0.00719   2.04653
    R3        2.05150   0.00065   0.00000   0.00181   0.00181   2.05331
    R4        2.81125   0.00309   0.00000   0.00901   0.00901   2.82026
    R5        2.82929   0.00882   0.00000   0.02652   0.02652   2.85581
    R6        2.32107  -0.02441   0.00000  -0.02642  -0.02642   2.29465
    R7        2.08036   0.00102   0.00000   0.00300   0.00300   2.08335
    R8        2.70214  -0.00982   0.00000  -0.02362  -0.02362   2.67852
    R9        2.07435   0.00340   0.00000   0.00984   0.00984   2.08420
   R10        2.07375   0.00069   0.00000   0.00201   0.00201   2.07576
   R11        2.75230  -0.00532   0.00000  -0.01400  -0.01400   2.73830
   R12        2.76439   0.00029   0.00000   0.00079   0.00079   2.76518
   R13        1.93225   0.00209   0.00000   0.00469   0.00469   1.93693
   R14        2.86882   0.00680   0.00000   0.02186   0.02186   2.89068
   R15        2.06996  -0.00152   0.00000  -0.00438  -0.00438   2.06558
   R16        2.07256   0.00232   0.00000   0.00669   0.00669   2.07925
   R17        2.06990  -0.00106   0.00000  -0.00305  -0.00305   2.06686
   R18        2.06646  -0.00012   0.00000  -0.00034  -0.00034   2.06612
   R19        2.07105   0.00001   0.00000   0.00004   0.00004   2.07109
    A1        2.12459  -0.00489   0.00000  -0.02952  -0.02952   2.09507
    A2        2.11472   0.00284   0.00000   0.01714   0.01714   2.13186
    A3        2.04386   0.00205   0.00000   0.01238   0.01238   2.05625
    A4        2.06353   0.00154   0.00000   0.00604   0.00601   2.06954
    A5        2.12082  -0.00009   0.00000  -0.00033  -0.00035   2.12047
    A6        2.09882  -0.00145   0.00000  -0.00564  -0.00567   2.09315
    A7        2.15060   0.00148   0.00000   0.00657   0.00650   2.15710
    A8        2.02932  -0.00180   0.00000  -0.00965  -0.00972   2.01960
    A9        2.10325   0.00032   0.00000   0.00317   0.00310   2.10635
   A10        1.95271  -0.01203   0.00000  -0.05132  -0.05117   1.90154
   A11        1.90177   0.00290   0.00000   0.01928   0.01959   1.92136
   A12        1.91603   0.00544   0.00000   0.02285   0.02246   1.93850
   A13        1.87724   0.00622   0.00000   0.04213   0.04252   1.91976
   A14        1.91526   0.00124   0.00000  -0.00895  -0.00896   1.90630
   A15        1.89973  -0.00365   0.00000  -0.02328  -0.02341   1.87632
   A16        1.89386  -0.00397   0.00000  -0.01551  -0.01551   1.87835
   A17        1.82957   0.00243   0.00000   0.01233   0.01231   1.84188
   A18        1.79027   0.00125   0.00000   0.02033   0.02035   1.81062
   A19        1.87375  -0.00184   0.00000  -0.00877  -0.00889   1.86487
   A20        1.88486   0.00469   0.00000   0.02434   0.02384   1.90870
   A21        1.93069  -0.00658   0.00000  -0.06658  -0.06644   1.86425
   A22        1.92805   0.00069   0.00000   0.02242   0.02146   1.94951
   A23        1.91806   0.00201   0.00000   0.01267   0.01290   1.93096
   A24        1.91346  -0.00050   0.00000   0.02066   0.01978   1.93325
   A25        1.88887  -0.00028   0.00000  -0.01280  -0.01292   1.87594
   A26        1.93472   0.00019   0.00000   0.00244   0.00243   1.93714
   A27        1.92908  -0.00017   0.00000  -0.00176  -0.00176   1.92732
   A28        1.93630   0.00156   0.00000   0.00888   0.00887   1.94517
   A29        1.88933   0.00013   0.00000   0.00186   0.00186   1.89119
   A30        1.88673  -0.00075   0.00000  -0.00315  -0.00317   1.88356
   A31        1.88603  -0.00104   0.00000  -0.00872  -0.00871   1.87732
    D1       -0.00374  -0.00010   0.00000  -0.00017  -0.00014  -0.00388
    D2       -3.13937  -0.00035   0.00000  -0.01303  -0.01306   3.13076
    D3       -3.14128  -0.00012   0.00000  -0.00085  -0.00082   3.14108
    D4        0.00627  -0.00037   0.00000  -0.01371  -0.01374  -0.00747
    D5       -0.00444   0.00001   0.00000   0.00290   0.00289  -0.00155
    D6       -3.14077  -0.00032   0.00000  -0.01922  -0.01922   3.12319
    D7        3.13127   0.00027   0.00000   0.01561   0.01562  -3.13630
    D8       -0.00506  -0.00007   0.00000  -0.00650  -0.00650  -0.01156
    D9        3.07238   0.00168   0.00000   0.01955   0.01952   3.09189
   D10        0.99892  -0.00054   0.00000  -0.01371  -0.01357   0.98535
   D11       -1.08003  -0.00107   0.00000  -0.01056  -0.01072  -1.09075
   D12       -0.06314   0.00141   0.00000   0.00639   0.00639  -0.05675
   D13       -2.13659  -0.00081   0.00000  -0.02687  -0.02670  -2.16329
   D14        2.06764  -0.00134   0.00000  -0.02372  -0.02384   2.04380
   D15        3.07049  -0.00036   0.00000  -0.01632  -0.01576   3.05473
   D16       -1.12477   0.00007   0.00000   0.00404   0.00384  -1.12093
   D17        0.93927  -0.00002   0.00000  -0.00445  -0.00480   0.93446
   D18       -3.07785   0.00218   0.00000   0.22537   0.22549  -2.85236
   D19        1.24987   0.00287   0.00000   0.22301   0.22289   1.47276
   D20       -3.06390  -0.00085   0.00000  -0.00504  -0.00531  -3.06921
   D21        1.11964  -0.00232   0.00000   0.00392   0.00407   1.12371
   D22       -0.97143   0.00183   0.00000   0.04838   0.04857  -0.92286
   D23       -1.16874   0.00085   0.00000   0.01943   0.01912  -1.14962
   D24        3.01480  -0.00062   0.00000   0.02840   0.02850   3.04330
   D25        0.92373   0.00353   0.00000   0.07286   0.07300   0.99673
   D26       -1.04556   0.00245   0.00000   0.04008   0.04026  -1.00530
   D27       -3.14048   0.00228   0.00000   0.03731   0.03749  -3.10299
   D28        1.05088   0.00267   0.00000   0.04361   0.04381   1.09468
   D29        1.06200  -0.00149   0.00000  -0.01853  -0.01856   1.04344
   D30       -1.03292  -0.00166   0.00000  -0.02130  -0.02133  -1.05425
   D31       -3.12475  -0.00127   0.00000  -0.01500  -0.01502  -3.13977
   D32        3.13600  -0.00092   0.00000  -0.01393  -0.01409   3.12191
   D33        1.04107  -0.00109   0.00000  -0.01670  -0.01686   1.02421
   D34       -1.05075  -0.00070   0.00000  -0.01039  -0.01055  -1.06130
         Item               Value     Threshold  Converged?
 Maximum Force            0.024410     0.000450     NO 
 RMS     Force            0.004127     0.000300     NO 
 Maximum Displacement     0.451838     0.001800     NO 
 RMS     Displacement     0.151576     0.001200     NO 
 Predicted change in Energy=-3.296989D-03
 GradGradGradGradGradGradGradGradGradGradGradGradGradGradGradGradGradGrad

                          Input orientation:                          
 ---------------------------------------------------------------------
 Center     Atomic      Atomic             Coordinates (Angstroms)
 Number     Number       Type             X           Y           Z
 ---------------------------------------------------------------------
      1          6           0        0.927111   -0.068745   -0.083398
      2          6           0        2.255511    0.022455    0.015598
      3          6           0        3.008766   -1.127884    0.595803
      4          8           0        2.479859   -2.148435    0.987210
      5          6           0        2.999514    1.251763   -0.452462
      6          8           0        4.378151    1.093096   -0.163956
      7          7           0        5.078079    2.229333   -0.728583
      8          6           0        6.487978    1.839936   -0.770028
      9          6           0        7.326389    3.022087   -1.259421
     10          1           0        0.418874   -0.964964    0.250260
     11          1           0        0.321661    0.733656   -0.495955
     12          1           0        4.104037   -1.009679    0.638640
     13          1           0        2.608315    2.148210    0.057198
     14          1           0        2.871226    1.403483   -1.532787
     15          1           0        4.990592    2.952198   -0.007196
     16          1           0        6.563688    0.999925   -1.465313
     17          1           0        6.842358    1.489950    0.211075
     18          1           0        6.989877    3.360261   -2.243622
     19          1           0        8.379487    2.737919   -1.334472
     20          1           0        7.261477    3.871956   -0.570460
 ---------------------------------------------------------------------
                    Distance matrix (angstroms):
                    1          2          3          4          5
     1  C    0.000000
     2  C    1.335202   0.000000
     3  C    2.432360   1.492418   0.000000
     4  O    2.807550   2.388958   1.214275   0.000000
     5  C    2.484915   1.511231   2.600321   3.728813   0.000000
     6  O    3.642257   2.384137   2.717573   3.928895   1.417410
     7  N    4.788314   3.659372   4.160163   5.372107   2.313507
     8  C    5.919270   4.672710   4.772669   5.921148   3.551925
     9  C    7.203265   6.028040   6.269448   7.434413   4.744162
    10  H    1.082978   2.098404   2.617916   2.488244   3.473817
    11  H    1.086564   2.123034   3.446419   3.894104   2.727861
    12  H    3.391098   2.206927   1.102463   2.014006   2.743099
    13  H    2.785875   2.155235   3.344137   4.398020   1.102909
    14  H    2.836858   2.164218   3.310231   4.372605   1.098444
    15  H    5.063968   4.008064   4.575840   5.771402   2.655961
    16  H    5.901079   4.659284   4.627444   5.710052   3.713842
    17  H    6.124246   4.819846   4.658058   5.733378   3.906976
    18  H    7.292584   6.217656   6.637396   7.818201   4.855617
    19  H    8.061045   6.833704   6.893116   8.004516   5.650726
    20  H    7.475997   6.342067   6.666642   7.844444   5.004364
                    6          7          8          9         10
     6  O    0.000000
     7  N    1.449047   0.000000
     8  C    2.318720   1.463272   0.000000
     9  C    3.689601   2.442365   1.529680   0.000000
    10  H    4.481413   5.733224   6.763319   8.117233   0.000000
    11  H    4.085894   4.991460   6.270760   7.408509   1.857848
    12  H    2.267368   3.648185   3.973389   5.499211   3.705842
    13  H    2.072317   2.593023   3.978835   4.975678   3.810876
    14  H    2.059336   2.489773   3.721987   4.747955   3.847445
    15  H    1.963650   1.024982   2.015244   2.651208   6.025865
    16  H    2.545345   2.064280   1.093056   2.171000   6.675532
    17  H    2.523977   2.131274   1.100290   2.178093   6.876721
    18  H    4.035612   2.688739   2.175953   1.093734   8.252582
    19  H    4.481768   3.394858   2.168589   1.093343   8.921552
    20  H    4.025031   2.736867   2.183399   1.095973   8.419655
                   11         12         13         14         15
    11  H    0.000000
    12  H    4.316583   0.000000
    13  H    2.745128   3.542248   0.000000
    14  H    2.832661   3.472501   1.775329   0.000000
    15  H    5.192276   4.110907   2.515112   3.036060   0.000000
    16  H    6.322456   3.809857   4.391079   3.715062   2.900364
    17  H    6.602376   3.732206   4.287670   4.338021   2.369568
    18  H    7.376889   5.977615   5.095187   4.614927   3.027418
    19  H    8.345582   6.018068   5.965814   5.671066   3.645846
    20  H    7.616792   5.938157   5.001717   5.127742   2.513989
                   16         17         18         19         20
    16  H    0.000000
    17  H    1.768632   0.000000
    18  H    2.521624   3.089557   0.000000
    19  H    2.516917   2.511754   1.773381   0.000000
    20  H    3.088079   2.541733   1.770613   1.766267   0.000000
 Stoichiometry    C6H11NO2
 Framework group  C1[X(C6H11NO2)]
 Deg. of freedom    54
 Full point group                 C1      NOp   1
 Largest Abelian subgroup         C1      NOp   1
 Largest concise Abelian subgroup C1      NOp   1
                         Standard orientation:                         
 ---------------------------------------------------------------------
 Center     Atomic      Atomic             Coordinates (Angstroms)
 Number     Number       Type             X           Y           Z
 ---------------------------------------------------------------------
      1          6           0        2.927512   -1.256515   -0.134585
      2          6           0        1.858691   -0.462871   -0.032046
      3          6           0        2.069263    1.013129    0.034235
      4          8           0        3.163876    1.537749    0.001649
      5          6           0        0.457340   -1.027141    0.008380
      6          8           0       -0.462317    0.036732    0.185733
      7          7           0       -1.797806   -0.519256    0.101565
      8          6           0       -2.685134    0.623804   -0.115753
      9          6           0       -4.138022    0.145224   -0.115238
     10          1           0        3.920669   -0.826272   -0.171647
     11          1           0        2.841409   -2.338414   -0.186560
     12          1           0        1.154144    1.624396    0.100077
     13          1           0        0.363405   -1.748908    0.837015
     14          1           0        0.219133   -1.559747   -0.922302
     15          1           0       -1.979791   -0.860371    1.050833
     16          1           0       -2.420150    1.049612   -1.086960
     17          1           0       -2.532192    1.407262    0.641505
     18          1           0       -4.298832   -0.619653   -0.880324
     19          1           0       -4.814899    0.980182   -0.315448
     20          1           0       -4.418620   -0.282919    0.853842
 ---------------------------------------------------------------------
 Rotational constants (GHZ):           4.2256008           0.6250567           0.5531313
 Standard basis: 6-31G(2df,p) (6D, 7F)
 There are   334 symmetry adapted cartesian basis functions of A   symmetry.
 There are   307 symmetry adapted basis functions of A   symmetry.
   307 basis functions,   473 primitive gaussians,   334 cartesian basis functions
    35 alpha electrons       35 beta electrons
       nuclear repulsion energy       436.2311692995 Hartrees.
 NAtoms=   20 NActive=   20 NUniq=   20 SFac= 1.00D+00 NAtFMM=   60 NAOKFM=F Big=F
 Integral buffers will be    131072 words long.
 Raffenetti 2 integral format.
 Two-electron integral symmetry is turned on.
 One-electron integrals computed using PRISM.
 PrsmSu:  requested number of processors reduced to:  13 ShMem   1 Linda.
 NBasis=   307 RedAO= T EigKep=  5.19D-04  NBF=   307
 NBsUse=   307 1.00D-06 EigRej= -1.00D+00 NBFU=   307
 Initial guess from the checkpoint file:  "CdCpCdOpCONCC.chk"
 B after Tr=    -0.000000    0.000000    0.000000
         Rot=    0.999960    0.008708    0.000414   -0.001971 Ang=   1.02 deg.
 ExpMin= 1.61D-01 ExpMax= 5.48D+03 ExpMxC= 8.25D+02 IAcc=2 IRadAn=         4 AccDes= 0.00D+00
 Harris functional with IExCor=  402 and IRadAn=       4 diagonalized for initial guess.
 HarFok:  IExCor=  402 AccDes= 0.00D+00 IRadAn=         4 IDoV= 1 UseB2=F ITyADJ=14
 ICtDFT=  3500011 ScaDFX=  1.000000  1.000000  1.000000  1.000000
 FoFCou: FMM=F IPFlag=           0 FMFlag=      100000 FMFlg1=           0
         NFxFlg=           0 DoJE=T BraDBF=F KetDBF=T FulRan=T
         wScrn=  0.000000 ICntrl=       500 IOpCl=  0 I1Cent=   200000004 NGrid=           0
         NMat0=    1 NMatS0=      1 NMatT0=    0 NMatD0=    1 NMtDS0=    0 NMtDT0=    0
 Petite list used in FoFCou.
 Requested convergence on RMS density matrix=1.00D-08 within 128 cycles.
 Requested convergence on MAX density matrix=1.00D-06.
 Requested convergence on             energy=1.00D-06.
 No special actions if energy rises.
 Integral accuracy reduced to 1.0D-05 until final iterations.
 Initial convergence to 1.0D-05 achieved.  Increase integral accuracy.
 SCF Done:  E(RB3LYP) =  -440.389325627     A.U. after   13 cycles
            NFock= 13  Conv=0.77D-08     -V/T= 2.0073
 PrsmSu:  requested number of processors reduced to:  13 ShMem   1 Linda.
 Calling FoFJK, ICntrl=      2127 FMM=F ISym2X=0 I1Cent= 0 IOpClX= 0 NMat=1 NMatS=1 NMatT=0.
 ***** Axes restored to original set *****
 -------------------------------------------------------------------
 Center     Atomic                   Forces (Hartrees/Bohr)
 Number     Number              X              Y              Z
 -------------------------------------------------------------------
      1        6          -0.000480091    0.001328500   -0.000596684
      2        6          -0.003281594    0.000373939    0.000717599
      3        6          -0.000445310   -0.007977524    0.000777783
      4        8           0.001081420    0.004530775   -0.000963023
      5        6           0.003811728   -0.001332312   -0.000911793
      6        8           0.000077016    0.006920090   -0.000695720
      7        7          -0.000592430   -0.002725805    0.003047444
      8        6           0.001322197    0.001542843   -0.002256762
      9        6          -0.000683164   -0.000672507    0.000224243
     10        1           0.000134317   -0.000946106    0.000434615
     11        1           0.000144097   -0.000476109    0.000263352
     12        1           0.000059314    0.000850323    0.000386622
     13        1          -0.000387397   -0.000204006   -0.000682191
     14        1          -0.000623254    0.000589202    0.000103582
     15        1          -0.000505778   -0.000047937   -0.000009540
     16        1           0.000784378   -0.000676113   -0.000559276
     17        1           0.000012510   -0.000235081   -0.000087528
     18        1          -0.000301870   -0.000338116    0.000216230
     19        1          -0.000144748   -0.000364496    0.000359313
     20        1           0.000018658   -0.000139560    0.000231732
 -------------------------------------------------------------------
 Cartesian Forces:  Max     0.007977524 RMS     0.001824050

 GradGradGradGradGradGradGradGradGradGradGradGradGradGradGradGradGradGrad
 Berny optimization.
 Using GEDIIS/GDIIS optimizer.
 FormGI is forming the generalized inverse of G from B-inverse, IUseBI=4.
 Internal  Forces:  Max     0.004589395 RMS     0.001136558
 Search for a local minimum.
 Step number   2 out of a maximum of   94
 All quantities printed in internal units (Hartrees-Bohrs-Radians)
 Mixed Optimization -- RFO/linear search
 Update second derivatives using D2CorX and points    1    2
 DE= -3.27D-03 DEPred=-3.30D-03 R= 9.93D-01
 TightC=F SS=  1.41D+00  RLast= 3.70D-01 DXNew= 5.0454D-01 1.1115D+00
 Trust test= 9.93D-01 RLast= 3.70D-01 DXMaxT set to 5.05D-01
 ITU=  1  0
 Use linear search instead of GDIIS.
     Eigenvalues ---    0.00494   0.00526   0.00801   0.00854   0.00929
     Eigenvalues ---    0.00951   0.01296   0.01416   0.02831   0.02832
     Eigenvalues ---    0.04723   0.04933   0.05568   0.05593   0.05681
     Eigenvalues ---    0.06525   0.07335   0.09138   0.11408   0.12108
     Eigenvalues ---    0.12688   0.13918   0.15637   0.16000   0.16000
     Eigenvalues ---    0.16000   0.16000   0.16068   0.21824   0.21973
     Eigenvalues ---    0.22944   0.23976   0.24999   0.25000   0.26740
     Eigenvalues ---    0.31065   0.31796   0.33561   0.33623   0.33972
     Eigenvalues ---    0.34002   0.34078   0.34133   0.34198   0.34398
     Eigenvalues ---    0.34409   0.35287   0.35469   0.36668   0.37031
     Eigenvalues ---    0.41261   0.43954   0.56533   0.88023
 RFO step:  Lambda=-1.59941172D-03 EMin= 4.93669903D-03
 Quartic linear search produced a step of  0.13713.
 Iteration  1 RMS(Cart)=  0.10909464 RMS(Int)=  0.01559332
 Iteration  2 RMS(Cart)=  0.05427810 RMS(Int)=  0.00131157
 Iteration  3 RMS(Cart)=  0.00171682 RMS(Int)=  0.00055519
 Iteration  4 RMS(Cart)=  0.00000115 RMS(Int)=  0.00055519
 Iteration  5 RMS(Cart)=  0.00000000 RMS(Int)=  0.00055519
 Variable       Old X    -DE/DX   Delta X   Delta X   Delta X     New X
                                 (Linear)    (Quad)   (Total)
    R1        2.52317   0.00020  -0.00225  -0.00033  -0.00258   2.52058
    R2        2.04653   0.00085  -0.00099   0.00234   0.00136   2.04789
    R3        2.05331  -0.00053   0.00025  -0.00157  -0.00132   2.05199
    R4        2.82026   0.00243   0.00123   0.00828   0.00951   2.82977
    R5        2.85581   0.00357   0.00364   0.01311   0.01674   2.87256
    R6        2.29465  -0.00459  -0.00362  -0.00667  -0.01029   2.28436
    R7        2.08335   0.00016   0.00041   0.00067   0.00108   2.08443
    R8        2.67852  -0.00028  -0.00324  -0.00178  -0.00502   2.67350
    R9        2.08420  -0.00034   0.00135  -0.00068   0.00067   2.08486
   R10        2.07576   0.00005   0.00028   0.00026   0.00053   2.07629
   R11        2.73830  -0.00337  -0.00192  -0.01046  -0.01238   2.72592
   R12        2.76518   0.00126   0.00011   0.00380   0.00391   2.76909
   R13        1.93693   0.00000   0.00064   0.00021   0.00085   1.93779
   R14        2.89068  -0.00211   0.00300  -0.00662  -0.00362   2.88706
   R15        2.06558   0.00093  -0.00060   0.00279   0.00219   2.06776
   R16        2.07925   0.00000   0.00092   0.00029   0.00121   2.08046
   R17        2.06686  -0.00021  -0.00042  -0.00079  -0.00121   2.06565
   R18        2.06612  -0.00007  -0.00005  -0.00023  -0.00028   2.06584
   R19        2.07109   0.00004   0.00000   0.00012   0.00012   2.07121
    A1        2.09507  -0.00096  -0.00405  -0.00770  -0.01175   2.08332
    A2        2.13186   0.00066   0.00235   0.00521   0.00756   2.13942
    A3        2.05625   0.00029   0.00170   0.00250   0.00420   2.06044
    A4        2.06954  -0.00161   0.00082  -0.00679  -0.00597   2.06357
    A5        2.12047   0.00031  -0.00005   0.00134   0.00129   2.12175
    A6        2.09315   0.00130  -0.00078   0.00542   0.00463   2.09778
    A7        2.15710  -0.00101   0.00089  -0.00425  -0.00627   2.15083
    A8        2.01960  -0.00012  -0.00133  -0.00138  -0.00563   2.01397
    A9        2.10635   0.00115   0.00043   0.00775   0.00523   2.11159
   A10        1.90154   0.00264  -0.00702   0.01332   0.00630   1.90784
   A11        1.92136  -0.00091   0.00269  -0.00632  -0.00362   1.91774
   A12        1.93850  -0.00056   0.00308  -0.00041   0.00259   1.94108
   A13        1.91976  -0.00066   0.00583  -0.00074   0.00514   1.92490
   A14        1.90630  -0.00022  -0.00123   0.00487   0.00362   1.90992
   A15        1.87632  -0.00036  -0.00321  -0.01099  -0.01423   1.86209
   A16        1.87835   0.00366  -0.00213   0.01534   0.01321   1.89156
   A17        1.84188   0.00104   0.00169   0.00642   0.00806   1.84994
   A18        1.81062  -0.00087   0.00279  -0.00275  -0.00007   1.81055
   A19        1.86487   0.00151  -0.00122   0.01596   0.01469   1.87956
   A20        1.90870  -0.00006   0.00327   0.00124   0.00444   1.91314
   A21        1.86425   0.00052  -0.00911   0.00543  -0.00366   1.86059
   A22        1.94951  -0.00006   0.00294  -0.00109   0.00171   1.95122
   A23        1.93096  -0.00020   0.00177   0.00004   0.00184   1.93281
   A24        1.93325  -0.00006   0.00271  -0.00250   0.00008   1.93333
   A25        1.87594  -0.00013  -0.00177  -0.00290  -0.00469   1.87126
   A26        1.93714  -0.00044   0.00033  -0.00241  -0.00208   1.93507
   A27        1.92732  -0.00057  -0.00024  -0.00432  -0.00457   1.92276
   A28        1.94517  -0.00009   0.00122  -0.00044   0.00077   1.94595
   A29        1.89119   0.00057   0.00026   0.00424   0.00449   1.89568
   A30        1.88356   0.00036  -0.00043   0.00302   0.00258   1.88614
   A31        1.87732   0.00024  -0.00119   0.00029  -0.00091   1.87641
    D1       -0.00388   0.00004  -0.00002   0.00273   0.00270  -0.00118
    D2        3.13076  -0.00002  -0.00179  -0.00226  -0.00404   3.12672
    D3        3.14108   0.00000  -0.00011   0.00117   0.00105  -3.14105
    D4       -0.00747  -0.00007  -0.00188  -0.00381  -0.00568  -0.01315
    D5       -0.00155  -0.00082   0.00040  -0.08157  -0.08101  -0.08256
    D6        3.12319   0.00061  -0.00264   0.06276   0.05997  -3.10003
    D7       -3.13630  -0.00075   0.00214  -0.07666  -0.07436   3.07253
    D8       -0.01156   0.00068  -0.00089   0.06768   0.06662   0.05506
    D9        3.09189  -0.00042   0.00268  -0.02307  -0.02040   3.07149
   D10        0.98535  -0.00071  -0.00186  -0.02664  -0.02846   0.95689
   D11       -1.09075   0.00067  -0.00147  -0.00865  -0.01013  -1.10088
   D12       -0.05675  -0.00050   0.00088  -0.02816  -0.02731  -0.08405
   D13       -2.16329  -0.00079  -0.00366  -0.03173  -0.03537  -2.19866
   D14        2.04380   0.00059  -0.00327  -0.01375  -0.01704   2.02676
   D15        3.05473   0.00023  -0.00216   0.00359   0.00151   3.05624
   D16       -1.12093   0.00036   0.00053   0.00372   0.00424  -1.11669
   D17        0.93446  -0.00059  -0.00066  -0.00716  -0.00789   0.92658
   D18       -2.85236   0.00262   0.03092   0.26831   0.29924  -2.55311
   D19        1.47276   0.00091   0.03056   0.24936   0.27992   1.75267
   D20       -3.06921   0.00028  -0.00073   0.02580   0.02499  -3.04422
   D21        1.12371   0.00025   0.00056   0.02193   0.02248   1.14619
   D22       -0.92286   0.00012   0.00666   0.02275   0.02940  -0.89346
   D23       -1.14962   0.00036   0.00262   0.03191   0.03452  -1.11510
   D24        3.04330   0.00033   0.00391   0.02805   0.03201   3.07531
   D25        0.99673   0.00020   0.01001   0.02886   0.03893   1.03566
   D26       -1.00530  -0.00022   0.00552  -0.00240   0.00314  -1.00215
   D27       -3.10299  -0.00026   0.00514  -0.00329   0.00188  -3.10111
   D28        1.09468  -0.00013   0.00601  -0.00050   0.00553   1.10021
   D29        1.04344   0.00026  -0.00255   0.00500   0.00246   1.04590
   D30       -1.05425   0.00022  -0.00292   0.00412   0.00119  -1.05306
   D31       -3.13977   0.00036  -0.00206   0.00690   0.00484  -3.13493
   D32        3.12191  -0.00007  -0.00193  -0.00019  -0.00215   3.11976
   D33        1.02421  -0.00011  -0.00231  -0.00108  -0.00341   1.02080
   D34       -1.06130   0.00003  -0.00145   0.00171   0.00024  -1.06106
         Item               Value     Threshold  Converged?
 Maximum Force            0.004589     0.000450     NO 
 RMS     Force            0.001137     0.000300     NO 
 Maximum Displacement     0.441089     0.001800     NO 
 RMS     Displacement     0.160672     0.001200     NO 
 Predicted change in Energy=-9.982039D-04
 GradGradGradGradGradGradGradGradGradGradGradGradGradGradGradGradGradGrad

                          Input orientation:                          
 ---------------------------------------------------------------------
 Center     Atomic      Atomic             Coordinates (Angstroms)
 Number     Number       Type             X           Y           Z
 ---------------------------------------------------------------------
      1          6           0        0.959363   -0.124573   -0.200169
      2          6           0        2.269982    0.016765    0.003347
      3          6           0        3.005880   -1.097544    0.680941
      4          8           0        2.458234   -2.079384    1.125174
      5          6           0        3.016056    1.261151   -0.450032
      6          8           0        4.362843    1.180274   -0.024414
      7          7           0        5.078501    2.311351   -0.562274
      8          6           0        6.437814    1.836678   -0.834632
      9          6           0        7.310737    3.008750   -1.279961
     10          1           0        0.465904   -1.032797    0.125449
     11          1           0        0.357303    0.638153   -0.684807
     12          1           0        4.078409   -0.914581    0.862300
     13          1           0        2.535354    2.160789   -0.029601
     14          1           0        2.983952    1.367855   -1.543092
     15          1           0        5.128831    2.965003    0.226218
     16          1           0        6.354865    1.090784   -1.630913
     17          1           0        6.877576    1.332416    0.039654
     18          1           0        6.887057    3.497001   -2.161413
     19          1           0        8.316580    2.657703   -1.525155
     20          1           0        7.407709    3.760725   -0.488488
 ---------------------------------------------------------------------
                    Distance matrix (angstroms):
                    1          2          3          4          5
     1  C    0.000000
     2  C    1.333835   0.000000
     3  C    2.431308   1.497452   0.000000
     4  O    2.797219   2.384905   1.208830   0.000000
     5  C    2.492518   1.520091   2.615845   3.735186   0.000000
     6  O    3.649272   2.394701   2.743597   3.946449   1.414753
     7  N    4.799181   3.670536   4.178744   5.384406   2.317153
     8  C    5.853416   4.624405   4.762855   5.917216   3.491071
     9  C    7.164050   6.000673   6.264070   7.431054   4.710326
    10  H    1.083697   2.090738   2.600816   2.462554   3.478024
    11  H    1.085864   2.125564   3.448605   3.882647   2.740842
    12  H    3.388421   2.208079   1.103034   2.012668   2.754019
    13  H    2.781316   2.160636   3.367937   4.395284   1.103261
    14  H    2.851270   2.174091   3.320391   4.390840   1.098725
    15  H    5.206894   4.112761   4.606298   5.778066   2.797185
    16  H    5.712754   4.528862   4.620513   5.729721   3.545581
    17  H    6.099637   4.791887   4.615840   5.687646   3.893097
    18  H    7.218021   6.173785   6.652244   7.842971   4.786700
    19  H    7.976546   6.772904   6.868207   7.986517   5.585857
    20  H    7.533912   6.376158   6.659312   7.823560   5.053313
                    6          7          8          9         10
     6  O    0.000000
     7  N    1.442496   0.000000
     8  C    2.322246   1.465342   0.000000
     9  C    3.689147   2.446286   1.527764   0.000000
    10  H    4.484002   5.738671   6.694726   8.072237   0.000000
    11  H    4.095652   5.010422   6.199317   7.370495   1.860210
    12  H    2.292506   3.665547   4.001974   5.516317   3.688782
    13  H    2.073922   2.602692   3.997790   5.008665   3.808629
    14  H    2.059833   2.497865   3.556808   4.634960   3.858461
    15  H    1.958268   1.025434   2.027797   2.651642   6.142919
    16  H    2.560664   2.064189   1.094213   2.171509   6.501866
    17  H    2.520146   2.134783   1.100929   2.176948   6.834554
    18  H    4.038025   2.689589   2.172289   1.093093   8.184132
    19  H    4.479627   3.395917   2.163484   1.093194   8.830481
    20  H    4.018122   2.744329   2.182308   1.096038   8.458335
                   11         12         13         14         15
    11  H    0.000000
    12  H    4.318698   0.000000
    13  H    2.737083   3.554491   0.000000
    14  H    2.858042   3.491885   1.766534   0.000000
    15  H    5.386249   4.069295   2.727329   3.206533   0.000000
    16  H    6.088575   3.926812   4.277590   3.383421   2.909432
    17  H    6.597030   3.682537   4.421073   4.203172   2.399637
    18  H    7.279497   6.040977   5.026670   4.488855   3.012502
    19  H    8.254385   6.035168   5.992177   5.486434   3.650135
    20  H    7.713445   5.896385   5.148807   5.138838   2.517393
                   16         17         18         19         20
    16  H    0.000000
    17  H    1.767033   0.000000
    18  H    2.520821   3.087104   0.000000
    19  H    2.512916   2.505144   1.775607   0.000000
    20  H    3.089046   2.540996   1.771809   1.765611   0.000000
 Stoichiometry    C6H11NO2
 Framework group  C1[X(C6H11NO2)]
 Deg. of freedom    54
 Full point group                 C1      NOp   1
 Largest Abelian subgroup         C1      NOp   1
 Largest concise Abelian subgroup C1      NOp   1
                         Standard orientation:                         
 ---------------------------------------------------------------------
 Center     Atomic      Atomic             Coordinates (Angstroms)
 Number     Number       Type             X           Y           Z
 ---------------------------------------------------------------------
      1          6           0        2.900076   -1.261589   -0.231604
      2          6           0        1.845608   -0.463099   -0.059475
      3          6           0        2.080733    1.013651    0.019832
      4          8           0        3.182954    1.510013    0.018659
      5          6           0        0.434054   -1.018782    0.037520
      6          8           0       -0.466913    0.037509    0.309615
      7          7           0       -1.808822   -0.491036    0.282860
      8          6           0       -2.655208    0.582626   -0.244497
      9          6           0       -4.121552    0.158828   -0.178956
     10          1           0        3.889306   -0.826062   -0.309959
     11          1           0        2.810784   -2.341666   -0.299152
     12          1           0        1.182175    1.626478    0.203459
     13          1           0        0.384233   -1.779167    0.835341
     14          1           0        0.139045   -1.519798   -0.894761
     15          1           0       -2.042113   -0.613466    1.273870
     16          1           0       -2.344711    0.744985   -1.281094
     17          1           0       -2.497949    1.529424    0.294843
     18          1           0       -4.283709   -0.769614   -0.732627
     19          1           0       -4.758263    0.936878   -0.608271
     20          1           0       -4.447637   -0.000726    0.855216
 ---------------------------------------------------------------------
 Rotational constants (GHZ):           4.1848471           0.6252377           0.5574447
 Standard basis: 6-31G(2df,p) (6D, 7F)
 There are   334 symmetry adapted cartesian basis functions of A   symmetry.
 There are   307 symmetry adapted basis functions of A   symmetry.
   307 basis functions,   473 primitive gaussians,   334 cartesian basis functions
    35 alpha electrons       35 beta electrons
       nuclear repulsion energy       436.2668863643 Hartrees.
 NAtoms=   20 NActive=   20 NUniq=   20 SFac= 1.00D+00 NAtFMM=   60 NAOKFM=F Big=F
 Integral buffers will be    131072 words long.
 Raffenetti 2 integral format.
 Two-electron integral symmetry is turned on.
 One-electron integrals computed using PRISM.
 PrsmSu:  requested number of processors reduced to:  13 ShMem   1 Linda.
 NBasis=   307 RedAO= T EigKep=  4.85D-04  NBF=   307
 NBsUse=   307 1.00D-06 EigRej= -1.00D+00 NBFU=   307
 Initial guess from the checkpoint file:  "CdCpCdOpCONCC.chk"
 B after Tr=    -0.000000   -0.000000    0.000000
         Rot=    0.999881    0.015237    0.000298    0.002505 Ang=   1.77 deg.
 ExpMin= 1.61D-01 ExpMax= 5.48D+03 ExpMxC= 8.25D+02 IAcc=2 IRadAn=         4 AccDes= 0.00D+00
 Harris functional with IExCor=  402 and IRadAn=       4 diagonalized for initial guess.
 HarFok:  IExCor=  402 AccDes= 0.00D+00 IRadAn=         4 IDoV= 1 UseB2=F ITyADJ=14
 ICtDFT=  3500011 ScaDFX=  1.000000  1.000000  1.000000  1.000000
 FoFCou: FMM=F IPFlag=           0 FMFlag=      100000 FMFlg1=           0
         NFxFlg=           0 DoJE=T BraDBF=F KetDBF=T FulRan=T
         wScrn=  0.000000 ICntrl=       500 IOpCl=  0 I1Cent=   200000004 NGrid=           0
         NMat0=    1 NMatS0=      1 NMatT0=    0 NMatD0=    1 NMtDS0=    0 NMtDT0=    0
 Petite list used in FoFCou.
 Requested convergence on RMS density matrix=1.00D-08 within 128 cycles.
 Requested convergence on MAX density matrix=1.00D-06.
 Requested convergence on             energy=1.00D-06.
 No special actions if energy rises.
 Integral accuracy reduced to 1.0D-05 until final iterations.
 Initial convergence to 1.0D-05 achieved.  Increase integral accuracy.
 SCF Done:  E(RB3LYP) =  -440.389760033     A.U. after   13 cycles
            NFock= 13  Conv=0.96D-08     -V/T= 2.0073
 PrsmSu:  requested number of processors reduced to:  13 ShMem   1 Linda.
 Calling FoFJK, ICntrl=      2127 FMM=F ISym2X=0 I1Cent= 0 IOpClX= 0 NMat=1 NMatS=1 NMatT=0.
 ***** Axes restored to original set *****
 -------------------------------------------------------------------
 Center     Atomic                   Forces (Hartrees/Bohr)
 Number     Number              X              Y              Z
 -------------------------------------------------------------------
      1        6          -0.001202770    0.000185739   -0.000180085
      2        6           0.002210150    0.001069798   -0.005049637
      3        6          -0.001263232    0.008526921    0.011663756
      4        8          -0.000533444   -0.005448364   -0.003195086
      5        6          -0.001482883   -0.000873636   -0.000309134
      6        8           0.001175653    0.003071340    0.001102353
      7        7           0.000487724   -0.000734994    0.002938782
      8        6          -0.000423921    0.000773676   -0.001238571
      9        6          -0.000413608   -0.000830480    0.000576579
     10        1          -0.000462423   -0.000436621   -0.000068792
     11        1           0.000048442    0.000015322    0.000534369
     12        1           0.001534459   -0.002033017   -0.004487731
     13        1           0.000302388   -0.001179251   -0.000201340
     14        1          -0.000377479   -0.000757150   -0.000078219
     15        1          -0.000029589   -0.001515732   -0.001330616
     16        1           0.000954294   -0.000111493   -0.000470197
     17        1          -0.000342940    0.000338816   -0.000036302
     18        1          -0.000049291    0.000092106   -0.000182401
     19        1           0.000012755   -0.000025391   -0.000096350
     20        1          -0.000144283   -0.000127589    0.000108622
 -------------------------------------------------------------------
 Cartesian Forces:  Max     0.011663756 RMS     0.002403797

 GradGradGradGradGradGradGradGradGradGradGradGradGradGradGradGradGradGrad
 Berny optimization.
 Using GEDIIS/GDIIS optimizer.
 FormGI is forming the generalized inverse of G from B-inverse, IUseBI=4.
 Internal  Forces:  Max     0.005085657 RMS     0.001312279
 Search for a local minimum.
 Step number   3 out of a maximum of   94
 All quantities printed in internal units (Hartrees-Bohrs-Radians)
 Mixed Optimization -- RFO/linear search
 Update second derivatives using D2CorX and points    2    3
 DE= -4.34D-04 DEPred=-9.98D-04 R= 4.35D-01
 Trust test= 4.35D-01 RLast= 4.47D-01 DXMaxT set to 5.05D-01
 ITU=  0  1  0
 Use linear search instead of GDIIS.
     Eigenvalues ---    0.00179   0.00526   0.00795   0.00849   0.00929
     Eigenvalues ---    0.01296   0.01412   0.02821   0.02831   0.04601
     Eigenvalues ---    0.04717   0.05246   0.05570   0.05615   0.05720
     Eigenvalues ---    0.06446   0.07484   0.09193   0.11515   0.12097
     Eigenvalues ---    0.12702   0.13991   0.15649   0.16000   0.16000
     Eigenvalues ---    0.16000   0.16005   0.16055   0.21834   0.22036
     Eigenvalues ---    0.22951   0.23715   0.24992   0.25007   0.26244
     Eigenvalues ---    0.31105   0.31510   0.33532   0.33611   0.33974
     Eigenvalues ---    0.34003   0.34070   0.34134   0.34200   0.34265
     Eigenvalues ---    0.34408   0.35258   0.35341   0.36408   0.36855
     Eigenvalues ---    0.41198   0.44134   0.56552   0.89185
 RFO step:  Lambda=-2.42198078D-03 EMin= 1.79338344D-03
 Quartic linear search produced a step of -0.32711.
[...]
 0.30667386,0.00000104,0.00041053,-0.00014454,-0.00031656,-0.00023795,0
 .00008838,0.00089145,-0.00091846,-0.00005116,-0.00027980,0.00059484,-0
 .00021405,-0.00474321,-0.00038012,0.00119239,-0.03216540,-0.00233693,-
 0.00043316,-0.16585872,0.05388019,0.01182894,0.44819389,-0.00002467,-0
 .00081777,0.00028193,-0.00092381,-0.00015194,-0.00153887,-0.00168333,0
 .00097919,0.00034999,0.00058097,-0.00051086,0.00003318,-0.00055857,-0.
 00022662,0.00685639,-0.03982032,0.00299171,0.00165860,0.05951266,-0.11
 977427,-0.00652273,-0.00161056,0.57321671,0.00000417,0.00004262,-0.000
 02867,0.00048190,-0.00019219,0.00039901,-0.00061613,-0.00019625,0.0004
 5783,0.00028204,0.00024154,-0.00031215,-0.00114124,0.00044786,-0.00193
 793,0.03139870,0.00085968,-0.00508043,-0.04590949,0.01430695,-0.068670
 13,0.01169681,0.02911490,0.58048336,-0.00000005,-0.00024163,0.00007443
 ,-0.00031949,-0.00006420,-0.00053514,-0.00046307,0.00032261,0.00008344
 ,0.00015283,-0.00016931,0.00003228,0.00043792,0.00008673,0.00236802,-0
 .00871071,-0.00014402,-0.00065144,-0.02908497,-0.02530789,0.01387048,-
 0.12003423,-0.04352592,0.02575715,0.53597742,0.00001452,0.00024659,-0.
 00007914,0.00022519,-0.00004137,0.00047087,0.00034118,-0.00029809,-0.0
 0003077,-0.00010268,0.00019023,-0.00004984,-0.00032110,-0.00007924,-0.
 00165617,0.00676813,0.00299832,-0.00126859,0.00209572,0.00765836,-0.00
 305517,-0.05044415,-0.13558313,0.03139064,-0.04436548,0.51963971,0.000
 00087,-0.00003536,0.00000848,-0.00010350,-0.00000883,-0.00012580,0.000
 16514,0.00010632,-0.00012929,-0.00008478,-0.00012216,0.00010155,0.0005
 4173,-0.00026106,0.00049486,-0.00179228,-0.00004976,0.00128371,0.00428
 153,-0.00023357,0.00010666,0.02661415,0.03020438,-0.09759407,0.0259919
 2,0.02141100,0.55386619,-0.10356562,-0.08927315,0.05563251,-0.00958427
 ,-0.02658124,0.01489159,-0.00074565,-0.00398694,-0.00050905,0.00187425
 ,0.00132536,-0.00106561,-0.00291399,0.00391106,0.00380875,0.00008025,-
 0.00006793,0.00024307,-0.00021462,-0.00011960,-0.00016297,0.00012723,-
 0.00012030,-0.00002471,-0.00002969,0.00003078,-0.00000371,0.10635119,-
 0.09527084,-0.23347127,0.10589169,0.00135796,0.00499204,-0.00037403,-0
 .00072815,-0.00138339,-0.00251626,0.00091863,-0.00035173,-0.00016143,0
 .00171832,0.00100276,0.00461468,0.00055488,0.00076602,-0.00075520,0.00
 015043,0.00017864,0.00014709,0.00000285,0.00012209,-0.00001814,0.00003
 995,-0.00003643,0.00000490,0.10223116,0.23991638,0.05667015,0.10436873
 ,-0.09916645,0.00637946,0.00808597,-0.00005753,-0.00203030,-0.00107112
 ,-0.00709027,-0.00104288,-0.00009996,0.00070604,0.00246176,0.00228389,
 0.01198493,0.00164069,0.00160339,-0.00192938,0.00034650,0.00019739,0.0
 0037400,0.00001670,0.00029180,-0.00006402,0.00009680,-0.00009136,0.000
 02362,-0.06613252,-0.11644011,0.09219111,-0.14145487,0.12809687,-0.017
 81803,-0.01296007,0.02763710,-0.00412700,-0.00386740,-0.00212025,0.006
 15671,0.00177189,-0.00001391,-0.00102605,0.00047719,0.00129172,-0.0036
 8384,0.00033663,-0.00041679,0.00047229,-0.00011630,-0.00008488,0.00002
 100,-0.00011026,0.00003824,0.00003405,0.00001257,-0.00001177,-0.000006
 15,0.00882038,-0.01015482,0.00237227,0.14767741,0.13278873,-0.24485800
 ,0.03949340,-0.00186328,0.00246327,0.00344363,0.00075141,0.00141204,0.
 00427127,0.00065820,0.00034507,-0.00097717,-0.00164660,-0.00008489,-0.
 00278607,-0.00027430,-0.00021368,0.00032633,-0.00006425,0.00006239,-0.
 00001483,-0.00004370,-0.00005004,0.00003465,-0.00001518,0.00000836,0.0
 0000161,0.01376883,-0.01176468,0.00201044,-0.14429252,0.25224940,-0.02
 008440,0.04062891,-0.04799805,0.00769883,-0.00513303,0.00886401,0.0045
 1842,0.00497103,0.00884771,-0.00102679,-0.00084629,-0.00067942,-0.0011
 0388,-0.00334787,-0.00641493,-0.00098494,-0.00056257,0.00066248,-0.000
 15563,-0.00003284,-0.00017713,-0.00001659,-0.00014712,0.00005104,-0.00
 004629,0.00004488,-0.00000767,-0.00700460,0.00940097,0.00235137,0.0177
 8371,-0.04490112,0.03587728,-0.00066570,0.00432509,-0.00119692,-0.0137
 0372,0.00091965,0.01234104,-0.23995788,0.02183793,0.06201397,-0.008663
 30,-0.02075902,0.02050293,-0.00239367,-0.00062907,0.00015717,0.0012002
 4,-0.00152610,-0.00007661,0.00045090,0.00012251,0.00010551,-0.00015449
 ,0.00027778,0.00011991,0.00007900,-0.00005696,-0.00002861,0.00054582,-
 0.00036209,0.00038502,-0.00122457,-0.00032084,-0.00034095,0.26363671,0
 .00235249,-0.00483260,0.00157842,0.02395104,0.00444660,-0.00407198,0.0
 1344205,-0.06072176,-0.00407048,-0.03685466,-0.00177094,0.02443504,0.0
 0118266,0.00091882,-0.00043991,-0.00045446,-0.00041592,-0.00021497,-0.
 00026217,-0.00009499,0.00004987,-0.00009587,-0.00021208,-0.00011890,-0
 .00004933,-0.00000207,0.00005941,0.00021779,0.00008415,0.00021563,0.00
 134571,-0.00022412,-0.00094777,-0.00432716,0.06268173,-0.00054999,0.00
 038230,0.00100130,0.00270428,0.00725184,0.01532909,0.06347260,-0.00820
 764,-0.08187706,0.02891565,0.01915699,0.00063945,0.00002929,-0.0005049
 0,0.00041210,-0.00080383,-0.00015167,0.00009746,-0.00010338,0.00000472
 ,-0.00009590,0.00007633,-0.00013984,0.00003599,-0.00006460,0.00001169,
 0.00000683,-0.00013557,0.00053994,0.00060366,-0.00066505,-0.00062432,-
 0.00140204,-0.09277292,-0.01701484,0.06549185,0.00102658,-0.00097869,-
 0.00013930,0.00993607,-0.01309708,0.00339008,-0.00290088,-0.00130813,0
 .00228930,0.00089185,-0.00162028,0.00013546,-0.13449281,0.11720348,-0.
 01629572,-0.02886736,0.01153086,-0.01765785,0.00340886,0.00192550,-0.0
 0100591,-0.00001357,-0.00051083,0.00061802,-0.00023812,0.00021849,0.00
 001334,0.00016999,0.00001257,-0.00015024,0.00020078,0.00036926,0.00006
 283,0.00032672,-0.00011866,-0.00011058,0.15641984,0.00171979,0.0011148
 6,-0.00110307,0.01430852,-0.01898799,0.00253118,-0.00364351,-0.0006664
 6,0.00255632,0.00072324,-0.00182055,0.00033384,0.11692086,-0.20673388,
 0.02703222,-0.00976485,0.01323215,-0.00145575,0.00056550,0.00263265,-0
 .00018434,-0.00009636,-0.00016815,-0.00014154,-0.00002850,0.00000425,0
 .00007363,-0.00008032,0.00045359,0.00017132,-0.00122463,0.00035350,0.0
 0008101,0.00008068,0.00025317,-0.00039201,-0.12595647,0.21791367,-0.00
 168107,-0.00018872,0.00023738,-0.00759500,0.01481072,-0.00237449,0.002
 79404,0.00064227,0.00014777,-0.00072194,0.00118802,-0.00048364,-0.0154
 6204,0.02312901,-0.05393341,-0.02442182,0.01367475,-0.00748615,0.00161
 247,0.00056685,-0.00077994,0.00013787,-0.00070753,-0.00007950,-0.00016
 025,0.00014892,0.00004888,-0.00010548,-0.00029973,-0.00007950,0.000587
 76,-0.00022027,0.00009890,-0.00032552,0.00006991,-0.00018104,0.0288755
 4,-0.03081652,0.06050668,-0.00016894,-0.00214857,0.00122288,-0.0066139
 7,0.00304388,0.01401835,-0.00066552,0.00151371,-0.00091072,0.00013996,
 -0.00081723,0.00032551,-0.08480030,0.03475373,0.08888631,-0.00032260,-
 0.01516187,-0.03534269,0.00288240,0.00180732,-0.00125488,0.00022524,0.
 00030210,-0.00061305,0.00000080,0.00006449,0.00012292,-0.00078408,-0.0
 0057688,-0.00124470,0.00045446,0.00018387,0.00081228,0.00044700,-0.000
 30971,0.00004334,-0.00539227,0.00602390,0.01674141,0.09462616,-0.00019
 415,-0.00246494,0.00117951,-0.01028697,0.00832700,0.02267331,-0.001169
 85,0.00088833,-0.00017728,0.00044383,0.00039886,-0.00031344,0.03345402
 ,-0.07379379,-0.05947162,-0.00693678,-0.00218249,-0.01252896,0.0019193
 5,0.00207374,-0.00111202,-0.00039391,-0.00012382,-0.00009762,-0.000098
 82,0.00000941,-0.00009663,-0.00125621,-0.00054709,-0.00162482,-0.00004
 865,0.00030357,0.00085406,0.00055023,-0.00016234,-0.00030088,0.0126057
 8,-0.00759197,-0.02190119,-0.02891917,0.07511820,-0.00032536,0.0019696
 1,-0.00083956,0.00791159,-0.00218753,-0.01075960,0.00179305,-0.0012936
 1,0.00052140,-0.00058449,0.00035005,0.00002748,0.08125193,-0.06387492,
 -0.22735115,-0.00808177,-0.01246588,-0.02869019,0.00172356,0.00368009,
 0.00191073,0.00026928,-0.00110891,0.00032123,-0.00033763,0.00027953,-0
 .00003335,0.00061066,0.00002965,0.00026355,-0.00009333,-0.00007411,-0.
 00012315,-0.00077147,0.00038329,-0.00008179,0.00010862,0.00170521,0.00
 406771,-0.08334740,0.07228380,0.26044533,-0.00000578,-0.00049898,0.000
 27829,-0.00167279,0.00018904,-0.00083234,-0.00002095,0.00034263,-0.000
 07694,-0.00000397,-0.00013922,0.00005004,0.00124795,-0.00504236,0.0026
 8990,-0.01069628,-0.02853226,-0.01032463,-0.04620096,0.00361955,0.0115
 2926,-0.00686768,0.03578799,0.02150910,0.00209250,0.00100041,0.0004666
 0,-0.00009032,0.00009383,0.00019459,-0.00004883,-0.00000726,-0.0000925
 6,-0.00001463,0.00003951,-0.00000334,-0.00069325,0.00055450,-0.0002506
 3,0.00006310,0.00020491,0.00006255,0.06826016,-0.00003067,-0.00017681,
 0.00011938,-0.00069888,-0.00005444,-0.00073172,-0.00000390,0.00017961,
 -0.00005759,0.00000295,-0.00009296,0.00005381,0.00026770,-0.00304329,0
 .00255468,-0.01407181,-0.02308536,-0.00675696,0.01849262,-0.27555086,-
 0.15457042,0.00254715,-0.01410089,-0.01344443,0.00004172,0.00162067,0.
 00015821,-0.00002147,0.00005631,0.00011302,-0.00001949,-0.00000216,-0.
 00006330,-0.00000663,0.00001328,-0.00000150,0.00000759,0.00002561,-0.0
 0025053,0.00009335,-0.00015400,0.00010331,-0.00810944,0.31288901,0.000
 06003,-0.00005137,-0.00004982,-0.00001818,0.00026838,0.00065236,0.0001
 6435,-0.00009945,0.00000893,-0.00007189,0.00001586,-0.00001496,-0.0006
 1241,0.00034355,-0.00139083,0.00859128,0.03348064,0.00630166,0.0213612
 0,-0.21198781,-0.15608307,-0.00899294,0.00518033,-0.00264156,0.0004947
 9,-0.00039252,0.00020106,-0.00004002,-0.00004849,-0.00009600,-0.000002
 12,0.00001428,0.00005450,-0.00002541,-0.00001923,0.00000677,-0.0003058
 4,-0.00049910,0.00015136,0.00052872,0.00054981,0.00029528,-0.02345323,
 0.17119610,0.14978687,0.00000268,-0.00000952,-0.00001338,0.00006613,-0
 .00004888,-0.00007196,-0.00034284,-0.00005087,0.00016876,0.00013779,0.
 00009337,-0.00010083,0.00001436,0.00026688,0.00012440,0.00258870,-0.00
 083630,-0.00040627,-0.00874351,0.03563911,0.01661777,-0.04618139,-0.00
 426151,-0.00314632,-0.00029147,-0.01976936,-0.01249854,0.00000651,0.00
 000910,0.00001693,0.00001139,-0.00000269,-0.00000443,0.00007222,-0.000
 09231,-0.00001593,0.00008899,-0.00000065,-0.00003797,-0.00020225,0.000
 02860,-0.00023269,-0.00655851,0.00261835,0.00145165,0.05909034,0.00002
 128,0.00007261,-0.00002619,0.00011033,0.00003114,0.00013182,0.00023759
 ,-0.00008224,-0.00006388,-0.00010611,0.00001183,0.00004077,-0.00015040
 ,0.00010218,-0.00088654,0.00004677,0.00213429,0.00079152,0.00445286,-0
 .01565191,-0.00596815,0.00275690,-0.22491215,-0.11588428,-0.00104168,-
 0.01805144,-0.01096572,0.00001272,-0.00001941,-0.00002924,-0.00001280,
 0.00000228,0.00000741,-0.00006693,0.00000897,-0.00000647,-0.00001687,0
 .00000363,0.00012336,0.00010521,-0.00000035,0.00018763,0.00245348,0.00
 050152,0.00006911,-0.00601899,0.25027725,0.00001896,0.00010752,-0.0000
 4468,-0.00013365,-0.00003354,0.00004373,0.00078427,-0.00003944,-0.0003
 3803,-0.00031712,-0.00010987,0.00018008,0.00022558,-0.00004416,-0.0000
 6134,-0.00041579,0.00041483,-0.00002187,0.00281000,0.00258162,0.003884
 06,-0.00130103,-0.11900737,-0.12948913,0.00004036,0.01205607,0.0070012
 0,0.00002620,-0.00000996,0.00000383,-0.00002795,0.00000457,-0.00000314
 ,-0.00015751,0.00012565,0.00009431,-0.00002681,0.00003963,0.00002722,0
 .00001354,-0.00006930,0.00002764,-0.00059270,0.00099589,0.00131963,-0.
 00060700,0.12686814,0.13341147,0.00000003,-0.00013473,0.00004679,0.000
 02347,-0.00006907,-0.00003915,-0.00030834,0.00019205,-0.00000048,0.000
 09008,-0.00016456,0.00007628,0.00057588,0.00007701,0.00033301,0.005076
 64,0.00098817,0.00011543,-0.02639919,0.01487448,-0.03326505,-0.0582279
 5,0.01040383,-0.04804387,0.00539884,-0.00535082,0.02222371,-0.00004171
 ,-0.00000131,0.00000210,0.00002108,0.00001012,-0.00000647,0.00004976,-
 0.00000026,-0.00002614,0.00026592,-0.00009659,0.00007401,0.00006279,0.
 00014113,0.00009743,0.00154777,-0.00148656,0.00020419,0.00145538,-0.00
 059162,-0.00088073,0.07171592,-0.00000613,0.00005766,-0.00001105,0.000
 00131,-0.00000341,0.00003414,0.00003340,-0.00010789,0.00002231,0.00000
 154,0.00009139,-0.00003848,-0.00059798,-0.00023485,-0.00053569,-0.0008
 3462,0.00071823,-0.00240286,0.01003196,-0.00422247,0.01644662,0.011991
 92,-0.06317264,0.04420425,0.00367146,-0.00539045,0.02137586,0.00001367
 ,-0.00000089,-0.00001080,-0.00000515,-0.00000434,0.00000699,-0.0000030
 3,-0.00001227,-0.00003325,-0.00011205,-0.00002347,0.00011685,0.0000288
 6,-0.00004011,0.00011976,-0.00022534,0.00059579,0.00129264,-0.00582761
 ,0.00571653,-0.02563599,-0.01638056,0.06685010,-0.00001531,-0.00010606
 ,0.00005677,0.00006325,0.00003916,-0.00014926,-0.00029969,0.00023361,0
 .00000885,0.00009326,-0.00015168,0.00007404,0.00054404,-0.00011886,-0.
 00000428,-0.00073438,-0.00178873,0.00232006,-0.00487037,0.00426571,0.0
 0114180,-0.04988589,0.04595194,-0.27020637,-0.00212741,0.00186905,-0.0
 1064231,-0.00002981,0.00000249,0.00000769,0.00001810,-0.00000193,-0.00
 000912,0.00005203,0.00000401,-0.00006969,0.00012333,0.00008571,0.00007
 977,0.00001887,0.00007474,-0.00003367,-0.00017191,0.00056795,0.0016687
 4,-0.00330485,0.00347149,-0.01747348,0.05847770,-0.05605978,0.29135316
 ,0.00000214,0.00003909,-0.00001035,-0.00000192,-0.00000163,0.00002902,
 0.00007715,-0.00007107,-0.00000287,-0.00002131,0.00005309,-0.00001845,
 -0.00020391,-0.00001047,-0.00012803,0.00008289,0.00029330,-0.00068373,
 0.00172290,0.00008339,0.00048860,0.00538267,-0.00492856,0.02258346,-0.
 06273930,0.01495974,-0.06257289,0.00000838,-0.00000189,-0.00000526,-0.
 00000673,-0.00000081,0.00000343,-0.00001213,-0.00000044,0.00000949,-0.
 00002951,0.00000097,-0.00000284,0.00000669,-0.00002276,0.00001412,-0.0
 0008438,-0.00001375,0.00008671,0.00073069,0.00075310,-0.00063514,-0.00
 277457,-0.00286508,0.00166900,0.06470810,0.00000091,0.00000167,-0.0000
 0583,-0.00000524,-0.00000539,-0.00001518,0.00005554,0.00001186,-0.0000
 0964,-0.00002536,-0.00001849,0.00000414,0.00003963,0.00013433,0.000125
 96,0.00003705,-0.00009541,-0.00043864,0.00068659,0.00098839,-0.0009265
 5,0.00649634,-0.00647393,0.02358906,0.01424970,-0.06079440,0.05372259,
 0.00000282,0.00000112,0.00000656,0.,0.00000158,-0.00000008,-0.00001097
 ,0.00001012,0.00001471,-0.00003220,-0.00000545,-0.00004284,-0.00002278
 ,-0.00002955,-0.00003210,-0.00014851,-0.00001809,-0.00016712,0.0009893
 0,0.00063611,-0.00018423,-0.00380897,-0.00228084,0.00154231,-0.0135582
 4,0.06450509,-0.00000497,-0.00000593,0.00000905,0.00004147,-0.00000374
 ,0.00000854,-0.00010294,0.00001871,0.00002256,0.00004244,-0.00000060,-
 0.00000292,0.00002334,-0.00000454,-0.00012178,0.00022959,-0.00015590,0
 .00067108,-0.00084723,-0.00083635,0.00046228,-0.00267910,0.00329773,-0
 .01245047,-0.06108806,0.05486173,-0.28366940,-0.00000513,-0.00000156,-
 0.00000658,0.00000405,-0.00000110,-0.00000092,0.00002144,-0.00000844,-
 0.00001476,0.00004692,-0.00000372,0.00001002,-0.00000366,0.00003529,0.
 00001094,-0.00010605,0.00018151,-0.00036616,0.00013270,0.00008607,0.00
 098663,0.00184587,0.00183334,0.00083509,0.06647396,-0.06269652,0.30818
 622,0.00000272,-0.00012151,0.00002875,-0.00007111,0.00003809,-0.000181
 09,-0.00010693,0.00021096,-0.00002923,0.00001652,-0.00016437,0.0000698
 4,0.00042664,0.00017401,0.00072608,-0.00192747,-0.00011677,0.00012958,
 -0.00032090,-0.00459315,0.00167973,-0.01891725,0.01011819,-0.00193943,
 -0.27528708,0.09369768,-0.00384070,-0.00001808,0.00001208,0.00003453,0
 .00001135,-0.00000059,-0.00001659,0.00000568,0.00001913,-0.00000872,-0
 .00010437,-0.00000437,-0.00007309,-0.00000627,-0.00001286,-0.00011375,
 0.00037027,0.00002820,-0.00001955,0.00062428,-0.00014942,-0.00062064,0
 .00075543,0.00005601,0.00047715,-0.00611806,0.00229388,0.00029957,0.29
 983193,-0.00000119,-0.00006544,0.00002089,-0.00005503,0.00000309,-0.00
 012485,-0.00009408,0.00008550,0.00000588,0.00002931,-0.00005541,0.0000
 1681,0.00014809,0.00008448,0.00055738,-0.00244630,-0.00033775,0.000450
 52,-0.00144361,-0.00351122,0.00134032,-0.02251887,0.00978122,-0.001472
 96,0.09557925,-0.08397934,0.00195586,-0.00000834,0.00001004,0.00002445
 ,0.00000234,-0.00000391,-0.00001203,0.00001329,0.00000362,-0.00000838,
 -0.00007773,-0.00000148,-0.00004392,0.00001014,-0.00001871,-0.00009093
 ,-0.00025378,0.00006317,0.00049357,0.00062278,0.00084249,-0.00063423,0
 .00083812,0.00066165,-0.00013121,0.00542897,-0.00349668,-0.00073995,-0
 .10113631,0.09011390,0.00000394,0.00004972,-0.00002163,0.00008530,0.00
 000091,0.00011750,0.00003422,-0.00006136,0.00001367,-0.00000732,0.0000
 4577,-0.00002562,0.00005473,0.00013782,-0.00042210,0.00128595,0.000179
 19,0.00096082,0.00027049,0.00187005,-0.00093109,0.01217568,-0.00647394
 ,-0.00096683,-0.00441830,0.00215725,-0.04586289,0.00000693,-0.00000761
 ,-0.00002130,0.00000008,0.00000189,0.00001027,-0.00000291,-0.00000191,
 0.00000451,0.00004051,-0.00001126,0.00001879,-0.00000466,0.00002654,0.
 00002724,-0.00056763,0.00038227,-0.00003054,-0.00051042,-0.00001409,0.
 00034234,-0.00039928,-0.00050032,0.00001221,-0.02877405,0.01171155,0.0
 0107513,0.00342894,-0.00301651,0.04606317,0.00000372,0.00003111,-0.000
 01110,0.00001205,0.00001019,0.00006667,0.00013081,-0.00003933,-0.00003
 924,-0.00004934,0.00000963,0.00001427,0.00000636,0.00002723,-0.0001770
 6,0.00011053,0.00075618,0.00028372,0.00169950,-0.00125016,-0.00092929,
 -0.00095100,-0.01905338,-0.01305109,-0.04695368,0.00100599,0.00050927,
 0.00000402,-0.00000578,-0.00001160,-0.00000611,0.00000159,0.00000464,-
 0.00002397,0.00001468,0.00000908,-0.00000346,-0.00000173,0.00001456,0.
 00004759,-0.00000773,0.00004508,-0.00062341,0.00036297,0.00059867,-0.0
 0256949,-0.00279540,0.00179716,0.00071275,0.00102740,-0.00009712,-0.00
 072980,-0.00723947,-0.00432422,0.00083268,0.02536296,0.01729778,0.0483
 5023,0.00000864,0.00001237,-0.00000598,-0.00001217,0.00002846,0.000041
 71,0.00024014,0.00001543,-0.00011037,-0.00010504,-0.00006067,0.0000745
 6,0.00015968,0.00012183,-0.00007734,-0.00014499,0.00041713,0.00037055,
 0.00129941,0.00089226,-0.00027901,0.00039617,-0.02081260,-0.01266584,0
 .00106053,-0.22811994,-0.11730066,0.00000131,-0.00000824,-0.00000519,-
 0.00000631,0.00000435,-0.00000124,-0.00005835,0.00002862,0.00002352,-0
 .00004454,0.00001232,0.00000060,0.00002563,-0.00000995,0.00003607,-0.0
 0132869,0.00033392,0.00036081,-0.00334879,-0.00162333,0.00257417,0.000
 56014,0.00080230,0.00025010,-0.00013695,0.00692797,0.00414396,-0.00034
 887,-0.01017919,-0.00647596,0.00178306,0.25121696,0.00000403,-0.000007
 97,0.00000314,-0.00001363,0.00000530,-0.00000842,-0.00002462,-0.000010
 81,0.00001386,0.00001028,0.00001409,-0.00000956,-0.00005348,-0.0000213
 0,-0.00001429,-0.00016055,-0.00003723,-0.00004684,-0.00071702,0.000160
 12,0.00030644,-0.00037805,0.01242514,0.00777280,0.00061946,-0.11807806
 ,-0.12507826,-0.00000054,0.00000111,0.00000123,-0.00000051,-0.00000115
 ,-0.00000200,-0.00000019,-0.00001280,-0.00000105,-0.00001169,-0.000002
 78,0.00000320,-0.00001237,0.00001670,-0.00000607,-0.00030838,-0.000549
 71,0.00022578,0.00243836,0.00206723,0.00010954,-0.00083534,-0.00022454
 ,0.00102996,0.00147582,-0.02619815,-0.01564452,-0.00003140,0.00140928,
 -0.00036362,-0.00200016,0.12904554,0.13170867\\-0.00000416,-0.00000539
 ,-0.00000476,0.00000801,-0.00001964,-0.00000335,-0.00001026,0.00001980
 ,0.00000850,0.00000293,-0.00000109,-0.00000518,-0.00000422,-0.00000032
 ,0.00002315,-0.00002068,-0.00001421,-0.00000029,0.00002317,0.00001479,
 -0.00001007,0.00000416,-0.00000114,0.00000250,0.00000424,-0.00000100,-
 0.00000438,-0.00000075,0.00000300,0.00000095,0.00000155,0.00000167,0.0
 0000212,0.00000209,-0.00000742,-0.00000230,0.00000043,0.00000302,-0.00
 000426,-0.00000214,-0.00000101,-0.00000507,-0.00000072,0.00000775,0.00
 000416,-0.00000342,-0.00000074,-0.00000173,0.00000116,0.00000163,-0.00
 000190,-0.00000102,-0.00000142,0.00000109,0.00000078,0.00000168,0.0000
 0082,-0.00000115,0.00000002,0.00000003\\\@


 IF IT'S NOT TRUE, IT'S WELL INVENTED -- DANTE
 Job cpu time:       0 days  1 hours 40 minutes 54.5 seconds.
 Elapsed time:       0 days  0 hours 25 minutes 14.8 seconds.
 File lengths (MBytes):  RWF=    148 Int=      0 D2E=      0 Chk=      9 Scr=      1
 Normal termination of Gaussian 16 at Sun Jul  3 13:20:51 2022.
### All Done ###
