### Starting Gaussian ###
 Entering Gaussian System, Link 0=g16
 Initial command:
 /cluster/software/gaussian/gaussian-16-A.03/avx2/g16/l1.exe "/local/scratch/yxie/Gau-19919.inp" -scrdir="/local/scratch/yxie/"
 Entering Link 1 = /cluster/software/gaussian/gaussian-16-A.03/avx2/g16/l1.exe PID=     19920.
  
 Copyright (c) 1988,1990,1992,1993,1995,1998,2003,2009,2016,
            Gaussian, Inc.  All Rights Reserved.
  
 This is part of the Gaussian(R) 16 program.  It is based on
 the Gaussian(R) 09 system (copyright 2009, Gaussian, Inc.),
 the Gaussian(R) 03 system (copyright 2003, Gaussian, Inc.),
 the Gaussian(R) 98 system (copyright 1998, Gaussian, Inc.),
 the Gaussian(R) 94 system (copyright 1995, Gaussian, Inc.),
 the Gaussian 92(TM) system (copyright 1992, Gaussian, Inc.),
 the Gaussian 90(TM) system (copyright 1990, Gaussian, Inc.),
 the Gaussian 88(TM) system (copyright 1988, Gaussian, Inc.),
 the Gaussian 86(TM) system (copyright 1986, Carnegie Mellon
 University), and the Gaussian 82(TM) system (copyright 1983,
 Carnegie Mellon University). Gaussian is a federally registered
 trademark of Gaussian, Inc.
  
 This software contains proprietary and confidential information,
 including trade secrets, belonging to Gaussian, Inc.
  
 This software is provided under written license and may be
 used, copied, transmitted, or stored only in accord with that
 written license.
  
 The following legend is applicable only to US Government
 contracts under FAR:
  
                    RESTRICTED RIGHTS LEGEND
  
 Use, reproduction and disclosure by the US Government is
 subject to restrictions as set forth in subparagraphs (a)
 and (c) of the Commercial Computer Software - Restricted
 Rights clause in FAR 52.227-19.
  
 Gaussian, Inc.
 340 Quinnipiac St., Bldg. 40, Wallingford CT 06492
  
  
 ---------------------------------------------------------------
 Warning -- This program may not be used in any manner that
 competes with the business of Gaussian, Inc. or will provide
 assistance to any competitor of Gaussian, Inc.  The licensee
 of this program is prohibited from giving any competitor of
 Gaussian, Inc. access to this program.  By using this program,
 the user acknowledges that Gaussian, Inc. is engaged in the
 business of creating and licensing software in the field of
 computational chemistry and represents and warrants to the
 licensee that it is not a competitor of Gaussian, Inc. and that
 it will not use this program in any manner prohibited above.
 ---------------------------------------------------------------
  

 Cite this work as:
 Gaussian 16, Revision A.03,
 M. J. Frisch, G. W. Trucks, H. B. Schlegel, G. E. Scuseria, 
 M. A. Robb, J. R. Cheeseman, G. Scalmani, V. Barone, 
 G. A. Petersson, H. Nakatsuji, X. Li, M. Caricato, A. V. Marenich, 
 J. Bloino, B. G. Janesko, R. Gomperts, B. Mennucci, H. P. Hratchian, 
 J. V. Ortiz, A. F. Izmaylov, J. L. Sonnenberg, D. Williams-Young, 
 F. Ding, F. Lipparini, F. Egidi, J. Goings, B. Peng, A. Petrone, 
 T. Henderson, D. Ranasinghe, V. G. Zakrzewski, J. Gao, N. Rega, 
 G. Zheng, W. Liang, M. Hada, M. Ehara, K. Toyota, R. Fukuda, 
 J. Hasegawa, M. Ishida, T. Nakajima, Y. Honda, O. Kitao, H. Nakai, 
 T. Vreven, K. Throssell, J. A. Montgomery, Jr., J. E. Peralta, 
 F. Ogliaro, M. J. Bearpark, J. J. Heyd, E. N. Brothers, K. N. Kudin, 
 V. N. Staroverov, T. A. Keith, R. Kobayashi, J. Normand, 
 K. Raghavachari, A. P. Rendell, J. C. Burant, S. S. Iyengar, 
 J. Tomasi, M. Cossi, J. M. Millam, M. Klene, C. Adamo, R. Cammi, 
 J. W. Ochterski, R. L. Martin, K. Morokuma, O. Farkas, 
 J. B. Foresman, and D. J. Fox, Gaussian, Inc., Wallingford CT, 2016.
 
 ******************************************
 Gaussian 16:  ES64L-G16RevA.03 25-Dec-2016
                 4-Aug-2022 
 ******************************************
 %chk=CdCpOpNpCCpCO.chk
 %NProcShared=20
 Will use up to   20 processors via shared memory.
 -----------------------------
 # opt freq b3lyp/6-31g(2df,p)
 -----------------------------
 1/18=20,19=15,26=3,38=1/1,3;
 2/9=110,12=2,17=6,18=5,40=1/2;
 3/5=1,6=6,7=104,11=2,25=1,30=1,71=1,74=-5/1,2,3;
 4//1;
 5/5=2,38=5/2;
 6/7=2,8=2,9=2,10=2,28=1/1;
 7//1,2,3,16;
 1/18=20,19=15,26=3/3(2);
 2/9=110/2;
 99//99;
 2/9=110/2;
 3/5=1,6=6,7=104,11=2,25=1,30=1,71=1,74=-5/1,2,3;
 4/5=5,16=3,69=1/1;
 5/5=2,38=5/2;
 7//1,2,3,16;
 1/18=20,19=15,26=3/3(-5);
 2/9=110/2;
 6/7=2,8=2,9=2,10=2,19=2,28=1/1;
 99/9=1/99;
 -------------------
 Title Card Required
 -------------------
 Symbolic Z-matrix:
 Charge =  0 Multiplicity = 1
 C                     1.01859  -0.31522   0.31863 
 C                     2.31768  -0.10587   0.08259 
 O                     3.19696  -0.8464    0.859 
 N                     2.95173   0.74428  -0.83563 
 C                     2.31926   1.6958   -1.77496 
 C                     0.81139   1.72367  -1.80552 
 C                     4.43025   0.79464  -0.83718 
 O                     4.94937   1.72607  -1.77948 
 H                     0.65916  -1.01393   1.06605 
 H                     0.19508   0.16238  -0.18317 
 H                     2.6658   -1.3928    1.46254 
 H                     2.64601   1.44837  -2.79312 
 H                     2.66927   2.71231  -1.55393 
 H                     0.42984   0.73629  -2.08695 
 H                     0.41909   2.42623  -2.54243 
 H                     0.42741   2.04564  -0.83224 
 H                     4.85044  -0.18718  -1.08712 
 H                     4.81248   1.09474   0.14467 
 H                     4.72824   1.36021  -2.64914 
 

 GradGradGradGradGradGradGradGradGradGradGradGradGradGradGradGradGradGrad
 Berny optimization.
 Initialization pass.
                           ----------------------------
                           !    Initial Parameters    !
                           ! (Angstroms and Degrees)  !
 --------------------------                            --------------------------
 ! Name  Definition              Value          Derivative Info.                !
 --------------------------------------------------------------------------------
 ! R1    R(1,2)                  1.3369         estimate D2E/DX2                !
 ! R2    R(1,9)                  1.0844         estimate D2E/DX2                !
 ! R3    R(1,10)                 1.0761         estimate D2E/DX2                !
 ! R4    R(2,3)                  1.3872         estimate D2E/DX2                !
 ! R5    R(2,4)                  1.4028         estimate D2E/DX2                !
 ! R6    R(3,11)                 0.9721         estimate D2E/DX2                !
 ! R7    R(4,5)                  1.4791         estimate D2E/DX2                !
 ! R8    R(4,7)                  1.4794         estimate D2E/DX2                !
 ! R9    R(5,6)                  1.5084         estimate D2E/DX2                !
 ! R10   R(5,12)                 1.0976         estimate D2E/DX2                !
 ! R11   R(5,13)                 1.0976         estimate D2E/DX2                !
 ! R12   R(6,14)                 1.0953         estimate D2E/DX2                !
 ! R13   R(6,15)                 1.0911         estimate D2E/DX2                !
 ! R14   R(6,16)                 1.0947         estimate D2E/DX2                !
 ! R15   R(7,8)                  1.423          estimate D2E/DX2                !
 ! R16   R(7,17)                 1.0968         estimate D2E/DX2                !
 ! R17   R(7,18)                 1.0955         estimate D2E/DX2                !
 ! R18   R(8,19)                 0.9691         estimate D2E/DX2                !
 ! A1    A(2,1,9)              123.0019         estimate D2E/DX2                !
 ! A2    A(2,1,10)             126.2847         estimate D2E/DX2                !
 ! A3    A(9,1,10)             110.7134         estimate D2E/DX2                !
 ! A4    A(1,2,3)              115.6916         estimate D2E/DX2                !
 ! A5    A(1,2,4)              130.5182         estimate D2E/DX2                !
 ! A6    A(3,2,4)              113.7895         estimate D2E/DX2                !
 ! A7    A(2,3,11)             107.5306         estimate D2E/DX2                !
 ! A8    A(2,4,5)              127.7545         estimate D2E/DX2                !
 ! A9    A(2,4,7)              118.2316         estimate D2E/DX2                !
 ! A10   A(5,4,7)              113.878          estimate D2E/DX2                !
 ! A11   A(4,5,6)              116.8846         estimate D2E/DX2                !
 ! A12   A(4,5,12)             108.4695         estimate D2E/DX2                !
 ! A13   A(4,5,13)             109.3627         estimate D2E/DX2                !
 ! A14   A(6,5,12)             106.4373         estimate D2E/DX2                !
 ! A15   A(6,5,13)             107.803          estimate D2E/DX2                !
 ! A16   A(12,5,13)            107.4975         estimate D2E/DX2                !
 ! A17   A(5,6,14)             109.6801         estimate D2E/DX2                !
 ! A18   A(5,6,15)             112.6428         estimate D2E/DX2                !
 ! A19   A(5,6,16)             109.7582         estimate D2E/DX2                !
 ! A20   A(14,6,15)            106.3598         estimate D2E/DX2                !
 ! A21   A(14,6,16)            111.8012         estimate D2E/DX2                !
 ! A22   A(15,6,16)            106.557          estimate D2E/DX2                !
 ! A23   A(4,7,8)              112.8031         estimate D2E/DX2                !
 ! A24   A(4,7,17)             110.6492         estimate D2E/DX2                !
 ! A25   A(4,7,18)             110.9211         estimate D2E/DX2                !
 ! A26   A(8,7,17)             107.1736         estimate D2E/DX2                !
 ! A27   A(8,7,18)             106.6719         estimate D2E/DX2                !
 ! A28   A(17,7,18)            108.4079         estimate D2E/DX2                !
 ! A29   A(7,8,19)             105.3017         estimate D2E/DX2                !
 ! D1    D(9,1,2,3)              0.0926         estimate D2E/DX2                !
 ! D2    D(9,1,2,4)            179.7497         estimate D2E/DX2                !
 ! D3    D(10,1,2,3)          -179.8278         estimate D2E/DX2                !
 ! D4    D(10,1,2,4)            -0.1708         estimate D2E/DX2                !
 ! D5    D(1,2,3,11)            -0.7652         estimate D2E/DX2                !
 ! D6    D(4,2,3,11)           179.5197         estimate D2E/DX2                !
 ! D7    D(1,2,4,5)              2.5627         estimate D2E/DX2                !
 ! D8    D(1,2,4,7)            178.0414         estimate D2E/DX2                !
 ! D9    D(3,2,4,5)           -177.775          estimate D2E/DX2                !
 ! D10   D(3,2,4,7)             -2.2963         estimate D2E/DX2                !
 ! D11   D(2,4,5,6)             -2.9964         estimate D2E/DX2                !
 ! D12   D(2,4,5,12)          -123.2494         estimate D2E/DX2                !
 ! D13   D(2,4,5,13)           119.7903         estimate D2E/DX2                !
 ! D14   D(7,4,5,6)           -178.6404         estimate D2E/DX2                !
 ! D15   D(7,4,5,12)            61.1066         estimate D2E/DX2                !
 ! D16   D(7,4,5,13)           -55.8537         estimate D2E/DX2                !
 ! D17   D(2,4,7,8)           -177.9469         estimate D2E/DX2                !
 ! D18   D(2,4,7,17)            62.0048         estimate D2E/DX2                !
 ! D19   D(2,4,7,18)           -58.3494         estimate D2E/DX2                !
 ! D20   D(5,4,7,8)             -1.8552         estimate D2E/DX2                !
 ! D21   D(5,4,7,17)          -121.9036         estimate D2E/DX2                !
 ! D22   D(5,4,7,18)           117.7423         estimate D2E/DX2                !
 ! D23   D(4,5,6,14)           -59.9872         estimate D2E/DX2                !
 ! D24   D(4,5,6,15)          -178.237          estimate D2E/DX2                !
 ! D25   D(4,5,6,16)            63.2134         estimate D2E/DX2                !
 ! D26   D(12,5,6,14)           61.3382         estimate D2E/DX2                !
 ! D27   D(12,5,6,15)          -56.9117         estimate D2E/DX2                !
 ! D28   D(12,5,6,16)         -175.4612         estimate D2E/DX2                !
 ! D29   D(13,5,6,14)          176.4243         estimate D2E/DX2                !
 ! D30   D(13,5,6,15)           58.1744         estimate D2E/DX2                !
 ! D31   D(13,5,6,16)          -60.3751         estimate D2E/DX2                !
 ! D32   D(4,7,8,19)           -67.3616         estimate D2E/DX2                !
 ! D33   D(17,7,8,19)           54.666          estimate D2E/DX2                !
 ! D34   D(18,7,8,19)          170.6151         estimate D2E/DX2                !
 --------------------------------------------------------------------------------
 Trust Radius=3.00D-01 FncErr=1.00D-07 GrdErr=1.00D-06 EigMax=2.50D+02 EigMin=1.00D-04
 Number of steps in this run=     91 maximum allowed number of steps=    114.
 GradGradGradGradGradGradGradGradGradGradGradGradGradGradGradGradGradGrad

                          Input orientation:                          
 ---------------------------------------------------------------------
 Center     Atomic      Atomic             Coordinates (Angstroms)
 Number     Number       Type             X           Y           Z
 ---------------------------------------------------------------------
      1          6           0        1.018590   -0.315220    0.318630
      2          6           0        2.317680   -0.105870    0.082590
      3          8           0        3.196960   -0.846400    0.859000
      4          7           0        2.951730    0.744280   -0.835630
      5          6           0        2.319260    1.695800   -1.774960
      6          6           0        0.811390    1.723670   -1.805520
      7          6           0        4.430250    0.794640   -0.837180
      8          8           0        4.949370    1.726070   -1.779480
      9          1           0        0.659160   -1.013930    1.066050
     10          1           0        0.195080    0.162380   -0.183170
     11          1           0        2.665800   -1.392800    1.462540
     12          1           0        2.646010    1.448370   -2.793120
     13          1           0        2.669270    2.712310   -1.553930
     14          1           0        0.429840    0.736290   -2.086950
     15          1           0        0.419090    2.426230   -2.542430
     16          1           0        0.427410    2.045640   -0.832240
     17          1           0        4.850440   -0.187180   -1.087120
     18          1           0        4.812480    1.094740    0.144670
     19          1           0        4.728240    1.360210   -2.649140
 ---------------------------------------------------------------------
                    Distance matrix (angstroms):
                    1          2          3          4          5
     1  C    0.000000
     2  C    1.336853   0.000000
     3  O    2.306393   1.387202   0.000000
     4  N    2.488350   1.402819   2.337129   0.000000
     5  C    3.181047   2.587761   3.764423   1.479104   0.000000
     6  C    2.951613   3.030031   4.404074   2.545770   1.508437
     7  C    3.769232   2.473832   2.662901   1.479378   2.479476
     8  O    4.901016   3.707978   4.080456   2.417712   2.630288
     9  H    1.084446   2.131304   2.551738   3.458839   4.262617
    10  H    1.076138   2.155926   3.333922   2.891960   3.065504
    11  H    2.276622   1.918760   0.972083   3.151262   4.487867
    12  H    3.929597   3.285296   4.348275   2.102611   1.097560
    13  H    3.923922   3.277797   4.331871   2.113973   1.097567
    14  H    2.690560   2.996678   4.340562   2.815279   2.141940
    15  H    4.007569   4.111801   5.476896   3.486601   2.175588
    16  H    2.692147   3.006498   4.346791   2.840025   2.142476
    17  H    4.083577   2.791004   2.637414   2.129780   3.228871
    18  H    4.051154   2.769358   2.624537   2.132182   3.203498
    19  H    5.037482   3.927154   4.418257   2.612312   2.584569
                    6          7          8          9         10
     6  C    0.000000
     7  C    3.859654   0.000000
     8  O    4.138063   1.423017   0.000000
     9  H    3.970333   4.595033   5.831856   0.000000
    10  H    2.334413   4.331760   5.253247   1.777534   0.000000
    11  H    4.881745   3.631376   5.045070   2.080229   3.351329
    12  H    2.101660   2.727009   2.531808   4.990359   3.804296
    13  H    2.119534   2.700415   2.494474   4.978926   3.808247
    14  H    1.095309   4.191493   4.636847   3.613484   2.002215
    15  H    1.091112   4.653963   4.647123   4.991339   3.277393
    16  H    1.094705   4.193776   4.631146   3.608072   2.005477
    17  H    4.525635   1.096814   2.037075   4.783982   4.755176
    18  H    4.495277   1.095531   2.029697   4.748210   4.721987
    19  H    4.023122   1.921423   0.969051   5.999716   5.297673
                   11         12         13         14         15
    11  H    0.000000
    12  H    5.116960   0.000000
    13  H    5.094215   1.770220   0.000000
    14  H    4.704404   2.432518   3.033779   0.000000
    15  H    5.972644   2.445042   2.474325   1.750278   0.000000
    16  H    4.700987   3.020591   2.447697   1.813477   1.752047
    17  H    3.567483   3.231868   3.658204   4.625382   5.346466
    18  H    3.540180   3.667323   3.177282   4.931141   5.319328
    19  H    5.360843   2.089063   2.695740   4.379678   4.440333
                   16         17         18         19
    16  H    0.000000
    17  H    4.961214   0.000000
    18  H    4.592102   1.778220   0.000000
    19  H    4.718907   2.202102   2.807658   0.000000
 Stoichiometry    C5H11NO2
 Framework group  C1[X(C5H11NO2)]
 Deg. of freedom    51
 Full point group                 C1      NOp   1
 Largest Abelian subgroup         C1      NOp   1
 Largest concise Abelian subgroup C1      NOp   1
                         Standard orientation:                         
 ---------------------------------------------------------------------
 Center     Atomic      Atomic             Coordinates (Angstroms)
 Number     Number       Type             X           Y           Z
 ---------------------------------------------------------------------
      1          6           0        2.266026    0.140596    0.011493
      2          6           0        1.112788   -0.535582    0.009333
      3          8           0        1.226282   -1.918130    0.006064
      4          7           0       -0.212819   -0.076648    0.016203
      5          6           0       -0.686499    1.323973   -0.024277
      6          6           0        0.368861    2.401645   -0.009466
      7          6           0       -1.300408   -1.078284   -0.033136
      8          8           0       -2.594064   -0.486476   -0.067726
      9          1           0        3.235572   -0.345200    0.009306
     10          1           0        2.376649    1.211020    0.016722
     11          1           0        2.173989   -2.134095   -0.006394
     12          1           0       -1.323516    1.501048    0.851789
     13          1           0       -1.305767    1.472993   -0.918119
     14          1           0        0.966253    2.320361    0.904984
     15          1           0       -0.056679    3.406355   -0.010277
     16          1           0        0.988927    2.324760   -0.908346
     17          1           0       -1.266015   -1.730307    0.848160
     18          1           0       -1.216519   -1.703016   -0.929161
     19          1           0       -2.705519   -0.064618    0.797533
 ---------------------------------------------------------------------
 Rotational constants (GHZ):           2.3515026           1.8120900           1.0469952
 Standard basis: 6-31G(2df,p) (6D, 7F)
 There are   303 symmetry adapted cartesian basis functions of A   symmetry.
 There are   279 symmetry adapted basis functions of A   symmetry.
   279 basis functions,   429 primitive gaussians,   303 cartesian basis functions
    32 alpha electrons       32 beta electrons
       nuclear repulsion energy       403.6649488199 Hartrees.
 NAtoms=   19 NActive=   19 NUniq=   19 SFac= 1.00D+00 NAtFMM=   60 NAOKFM=F Big=F
 Integral buffers will be    131072 words long.
 Raffenetti 2 integral format.
 Two-electron integral symmetry is turned on.
 One-electron integrals computed using PRISM.
 PrsmSu:  requested number of processors reduced to:  13 ShMem   1 Linda.
 NBasis=   279 RedAO= T EigKep=  2.28D-04  NBF=   279
 NBsUse=   279 1.00D-06 EigRej= -1.00D+00 NBFU=   279
 ExpMin= 1.61D-01 ExpMax= 5.48D+03 ExpMxC= 8.25D+02 IAcc=3 IRadAn=         5 AccDes= 0.00D+00
 Harris functional with IExCor=  402 and IRadAn=       5 diagonalized for initial guess.
 HarFok:  IExCor=  402 AccDes= 0.00D+00 IRadAn=         5 IDoV= 1 UseB2=F ITyADJ=14
 ICtDFT=  3500011 ScaDFX=  1.000000  1.000000  1.000000  1.000000
 FoFCou: FMM=F IPFlag=           0 FMFlag=      100000 FMFlg1=           0
         NFxFlg=           0 DoJE=T BraDBF=F KetDBF=T FulRan=T
         wScrn=  0.000000 ICntrl=       500 IOpCl=  0 I1Cent=   200000004 NGrid=           0
         NMat0=    1 NMatS0=      1 NMatT0=    0 NMatD0=    1 NMtDS0=    0 NMtDT0=    0
 Petite list used in FoFCou.
 Requested convergence on RMS density matrix=1.00D-08 within 128 cycles.
 Requested convergence on MAX density matrix=1.00D-06.
 Requested convergence on             energy=1.00D-06.
 No special actions if energy rises.
 Integral accuracy reduced to 1.0D-05 until final iterations.
 Initial convergence to 1.0D-05 achieved.  Increase integral accuracy.
 SCF Done:  E(RB3LYP) =  -402.319387976     A.U. after   13 cycles
            NFock= 13  Conv=0.58D-08     -V/T= 2.0074

 **********************************************************************

            Population analysis using the SCF density.

 **********************************************************************

 Orbital symmetries:
       Occupied  (A) (A) (A) (A) (A) (A) (A) (A) (A) (A) (A) (A)
                 (A) (A) (A) (A) (A) (A) (A) (A) (A) (A) (A) (A)
                 (A) (A) (A) (A) (A) (A) (A) (A)
       Virtual   (A) (A) (A) (A) (A) (A) (A) (A) (A) (A) (A) (A)
                 (A) (A) (A) (A) (A) (A) (A) (A) (A) (A) (A) (A)
                 (A) (A) (A) (A) (A) (A) (A) (A) (A) (A) (A) (A)
                 (A) (A) (A) (A) (A) (A) (A) (A) (A) (A) (A) (A)
                 (A) (A) (A) (A) (A) (A) (A) (A) (A) (A) (A) (A)
                 (A) (A) (A) (A) (A) (A) (A) (A) (A) (A) (A) (A)
                 (A) (A) (A) (A) (A) (A) (A) (A) (A) (A) (A) (A)
                 (A) (A) (A) (A) (A) (A) (A) (A) (A) (A) (A) (A)
                 (A) (A) (A) (A) (A) (A) (A) (A) (A) (A) (A) (A)
                 (A) (A) (A) (A) (A) (A) (A) (A) (A) (A) (A) (A)
                 (A) (A) (A) (A) (A) (A) (A) (A) (A) (A) (A) (A)
                 (A) (A) (A) (A) (A) (A) (A) (A) (A) (A) (A) (A)
                 (A) (A) (A) (A) (A) (A) (A) (A) (A) (A) (A) (A)
                 (A) (A) (A) (A) (A) (A) (A) (A) (A) (A) (A) (A)
                 (A) (A) (A) (A) (A) (A) (A) (A) (A) (A) (A) (A)
                 (A) (A) (A) (A) (A) (A) (A) (A) (A) (A) (A) (A)
                 (A) (A) (A) (A) (A) (A) (A) (A) (A) (A) (A) (A)
                 (A) (A) (A) (A) (A) (A) (A) (A) (A) (A) (A) (A)
                 (A) (A) (A) (A) (A) (A) (A) (A) (A) (A) (A) (A)
                 (A) (A) (A) (A) (A) (A) (A) (A) (A) (A) (A) (A)
                 (A) (A) (A) (A) (A) (A) (A)
 The electronic state is 1-A.
 Alpha  occ. eigenvalues --  -19.15960 -19.15037 -14.34281 -10.26569 -10.25994
 Alpha  occ. eigenvalues --  -10.22200 -10.17784 -10.13134  -1.05041  -1.03326
 Alpha  occ. eigenvalues --   -0.91266  -0.76391  -0.72837  -0.66170  -0.63461
 Alpha  occ. eigenvalues --   -0.56595  -0.52821  -0.49840  -0.47761  -0.46821
 Alpha  occ. eigenvalues --   -0.45334  -0.42973  -0.40783  -0.39020  -0.38457
 Alpha  occ. eigenvalues --   -0.36181  -0.35879  -0.35000  -0.33062  -0.29155
 Alpha  occ. eigenvalues --   -0.26044  -0.17546
 Alpha virt. eigenvalues --    0.05696   0.06988   0.07953   0.10577   0.12395
 Alpha virt. eigenvalues --    0.13695   0.14806   0.16214   0.16989   0.17797
 Alpha virt. eigenvalues --    0.18320   0.19584   0.20325   0.22288   0.23304
 Alpha virt. eigenvalues --    0.25897   0.29664   0.35291   0.38820   0.39517
 Alpha virt. eigenvalues --    0.43776   0.45897   0.48963   0.50297   0.50731
 Alpha virt. eigenvalues --    0.53970   0.54077   0.56656   0.57864   0.59573
 Alpha virt. eigenvalues --    0.60464   0.61100   0.62801   0.65631   0.66783
 Alpha virt. eigenvalues --    0.67828   0.69868   0.71616   0.73633   0.74641
 Alpha virt. eigenvalues --    0.75870   0.77201   0.78520   0.78658   0.79924
 Alpha virt. eigenvalues --    0.80267   0.81865   0.84104   0.87061   0.87752
 Alpha virt. eigenvalues --    0.89177   0.91268   0.92579   0.93062   0.94929
 Alpha virt. eigenvalues --    0.96369   0.97407   0.97909   0.99291   1.00258
 Alpha virt. eigenvalues --    1.02269   1.09282   1.12001   1.17185   1.19546
 Alpha virt. eigenvalues --    1.21964   1.22822   1.25956   1.27724   1.28554
 Alpha virt. eigenvalues --    1.31300   1.32418   1.34133   1.34857   1.41617
 Alpha virt. eigenvalues --    1.43677   1.44225   1.47383   1.52767   1.53833
 Alpha virt. eigenvalues --    1.55942   1.57655   1.58333   1.61777   1.64128
 Alpha virt. eigenvalues --    1.66738   1.67839   1.68426   1.72608   1.75308
 Alpha virt. eigenvalues --    1.80008   1.83925   1.88040   1.91596   1.92841
 Alpha virt. eigenvalues --    1.93804   1.97504   1.98919   2.05736   2.06551
 Alpha virt. eigenvalues --    2.13881   2.17154   2.18788   2.23976   2.27735
 Alpha virt. eigenvalues --    2.29151   2.30642   2.31796   2.38180   2.40592
 Alpha virt. eigenvalues --    2.40680   2.46922   2.48408   2.50672   2.54102
 Alpha virt. eigenvalues --    2.55961   2.58099   2.64009   2.69200   2.72334
 Alpha virt. eigenvalues --    2.76379   2.79671   2.80657   2.82031   2.85660
 Alpha virt. eigenvalues --    2.86158   2.87002   2.87694   2.91199   2.93900
 Alpha virt. eigenvalues --    2.94213   2.96581   2.97440   2.98631   3.03476
 Alpha virt. eigenvalues --    3.04102   3.05638   3.07964   3.08524   3.17260
 Alpha virt. eigenvalues --    3.21878   3.22391   3.24039   3.27356   3.31317
 Alpha virt. eigenvalues --    3.35035   3.39792   3.40098   3.41045   3.42891
 Alpha virt. eigenvalues --    3.45246   3.46832   3.48941   3.52300   3.55353
 Alpha virt. eigenvalues --    3.57687   3.59139   3.59660   3.62791   3.68924
 Alpha virt. eigenvalues --    3.70938   3.72421   3.74143   3.81772   3.86317
 Alpha virt. eigenvalues --    3.90328   3.94840   4.00669   4.04036   4.05110
 Alpha virt. eigenvalues --    4.10460   4.11399   4.17160   4.22985   4.24377
 Alpha virt. eigenvalues --    4.28656   4.30727   4.30997   4.34021   4.36454
 Alpha virt. eigenvalues --    4.39609   4.41265   4.42951   4.45560   4.46490
 Alpha virt. eigenvalues --    4.47794   4.49561   4.51959   4.55119   4.55479
 Alpha virt. eigenvalues --    4.56875   4.59905   4.60806   4.62815   4.64792
 Alpha virt. eigenvalues --    4.65986   4.68549   4.72416   4.74197   4.76050
 Alpha virt. eigenvalues --    4.77993   4.79168   4.80514   4.82362   4.85050
 Alpha virt. eigenvalues --    4.87051   4.90765   4.95862   4.97644   5.02447
 Alpha virt. eigenvalues --    5.03962   5.14235   5.15532   5.24699   5.25505
 Alpha virt. eigenvalues --    5.27813   5.30047   5.39281   5.40101   5.44888
 Alpha virt. eigenvalues --    5.45179   5.46166   5.53206   5.55032   5.64544
 Alpha virt. eigenvalues --    5.68674   5.72878   5.75822   5.85803   5.97008
 Alpha virt. eigenvalues --    5.97738   6.00941   6.07239   6.13488   6.24416
 Alpha virt. eigenvalues --    6.49723   7.01842   7.10438  10.40606  10.98857
 Alpha virt. eigenvalues --   11.43434  11.56998  11.66120  12.03384  13.16168
 Alpha virt. eigenvalues --   13.33100  21.57194
          Condensed to atoms (all electrons):
               1          2          3          4          5          6
     1  C    5.290956   0.588043  -0.038545  -0.030397  -0.006062  -0.004102
     2  C    0.588043   4.297092   0.387017   0.418060  -0.048678  -0.012864
     3  O   -0.038545   0.387017   7.800487  -0.026903   0.001391   0.000012
     4  N   -0.030397   0.418060  -0.026903   6.322997   0.402183  -0.020182
     5  C   -0.006062  -0.048678   0.001391   0.402183   4.739887   0.382607
     6  C   -0.004102  -0.012864   0.000012  -0.020182   0.382607   5.016249
     7  C    0.002925  -0.055725   0.001203   0.346083  -0.062997   0.005281
     8  O   -0.000064  -0.000214   0.000131  -0.057188   0.005305   0.001475
     9  H    0.362928  -0.015704  -0.011091   0.002340   0.000216   0.000217
    10  H    0.359352  -0.000860   0.003283  -0.007520  -0.001555  -0.001065
    11  H    0.005998  -0.063692   0.318434   0.004264  -0.000151  -0.000007
    12  H    0.000227   0.002290  -0.000018  -0.043905   0.364696  -0.039014
    13  H    0.000344   0.002708  -0.000020  -0.032445   0.378099  -0.042220
    14  H   -0.001187  -0.000246  -0.000022  -0.002745  -0.019736   0.375179
    15  H    0.000361   0.000328   0.000000   0.002406  -0.021203   0.368072
    16  H   -0.001034  -0.000089  -0.000024  -0.003091  -0.022350   0.379686
    17  H    0.000013  -0.005471   0.003878  -0.045928   0.004887   0.000044
    18  H    0.000066  -0.003203   0.004100  -0.033928   0.002886  -0.000092
    19  H   -0.000007  -0.000085  -0.000001   0.000196   0.003431  -0.000396
               7          8          9         10         11         12
     1  C    0.002925  -0.000064   0.362928   0.359352   0.005998   0.000227
     2  C   -0.055725  -0.000214  -0.015704  -0.000860  -0.063692   0.002290
     3  O    0.001203   0.000131  -0.011091   0.003283   0.318434  -0.000018
     4  N    0.346083  -0.057188   0.002340  -0.007520   0.004264  -0.043905
     5  C   -0.062997   0.005305   0.000216  -0.001555  -0.000151   0.364696
     6  C    0.005281   0.001475   0.000217  -0.001065  -0.000007  -0.039014
     7  C    4.756362   0.378717  -0.000074  -0.000164  -0.000149  -0.002497
     8  O    0.378717   7.809974   0.000000  -0.000003  -0.000002   0.001165
     9  H   -0.000074   0.000000   0.622260  -0.043914   0.007553   0.000007
    10  H   -0.000164  -0.000003  -0.043914   0.586294   0.000011   0.000071
    11  H   -0.000149  -0.000002   0.007553   0.000011   0.420281   0.000005
    12  H   -0.002497   0.001165   0.000007   0.000071   0.000005   0.686922
    13  H   -0.004639   0.004819   0.000005   0.000063   0.000005  -0.056256
    14  H   -0.000066  -0.000011   0.000289   0.001579   0.000006  -0.005915
    15  H   -0.000096   0.000014  -0.000022   0.000436  -0.000000  -0.003104
    16  H   -0.000099  -0.000012   0.000293   0.001678   0.000006   0.005840
    17  H    0.372095  -0.027403   0.000008  -0.000008  -0.000008   0.001756
    18  H    0.359070  -0.015585   0.000003  -0.000007  -0.000039  -0.000712
    19  H   -0.061427   0.307387  -0.000000   0.000000   0.000000   0.004042
              13         14         15         16         17         18
     1  C    0.000344  -0.001187   0.000361  -0.001034   0.000013   0.000066
     2  C    0.002708  -0.000246   0.000328  -0.000089  -0.005471  -0.003203
     3  O   -0.000020  -0.000022   0.000000  -0.000024   0.003878   0.004100
     4  N   -0.032445  -0.002745   0.002406  -0.003091  -0.045928  -0.033928
     5  C    0.378099  -0.019736  -0.021203  -0.022350   0.004887   0.002886
     6  C   -0.042220   0.375179   0.368072   0.379686   0.000044  -0.000092
     7  C   -0.004639  -0.000066  -0.000096  -0.000099   0.372095   0.359070
     8  O    0.004819  -0.000011   0.000014  -0.000012  -0.027403  -0.015585
     9  H    0.000005   0.000289  -0.000022   0.000293   0.000008   0.000003
    10  H    0.000063   0.001579   0.000436   0.001678  -0.000008  -0.000007
    11  H    0.000005   0.000006  -0.000000   0.000006  -0.000008  -0.000039
    12  H   -0.056256  -0.005915  -0.003104   0.005840   0.001756  -0.000712
    13  H    0.627115   0.005478  -0.002370  -0.005276  -0.000458   0.001963
    14  H    0.005478   0.576330  -0.032191  -0.034096  -0.000010   0.000004
    15  H   -0.002370  -0.032191   0.607184  -0.031647   0.000003   0.000002
    16  H   -0.005276  -0.034096  -0.031647   0.569667   0.000002  -0.000006
    17  H   -0.000458  -0.000010   0.000003   0.000002   0.653148  -0.056792
    18  H    0.001963   0.000004   0.000002  -0.000006  -0.056792   0.605726
    19  H   -0.000487   0.000008   0.000003   0.000010  -0.008524   0.006711
              19
     1  C   -0.000007
     2  C   -0.000085
     3  O   -0.000001
     4  N    0.000196
     5  C    0.003431
     6  C   -0.000396
     7  C   -0.061427
     8  O    0.307387
     9  H   -0.000000
    10  H    0.000000
    11  H    0.000000
    12  H    0.004042
    13  H   -0.000487
    14  H    0.000008
    15  H    0.000003
    16  H    0.000010
    17  H   -0.008524
    18  H    0.006711
    19  H    0.459755
 Mulliken charges:
               1
     1  C   -0.529817
     2  C    0.511293
     3  O   -0.443311
     4  N   -0.194298
     5  C   -0.102857
     6  C   -0.408880
     7  C   -0.033804
     8  O   -0.408504
     9  H    0.074685
    10  H    0.102328
    11  H    0.307483
    12  H    0.084399
    13  H    0.123572
    14  H    0.137354
    15  H    0.111824
    16  H    0.140545
    17  H    0.108769
    18  H    0.129833
    19  H    0.289386
 Sum of Mulliken charges =  -0.00000
 Mulliken charges with hydrogens summed into heavy atoms:
               1
     1  C   -0.352804
     2  C    0.511293
     3  O   -0.135828
     4  N   -0.194298
     5  C    0.105114
     6  C   -0.019157
     7  C    0.204799
     8  O   -0.119118
 Electronic spatial extent (au):  <R**2>=           1123.2271
 Charge=             -0.0000 electrons
 Dipole moment (field-independent basis, Debye):
    X=              0.1325    Y=              0.6479    Z=              1.0350  Tot=              1.2282
 Quadrupole moment (field-independent basis, Debye-Ang):
   XX=            -49.1110   YY=            -46.1913   ZZ=            -49.0976
   XY=             -4.5265   XZ=             -3.7120   YZ=              0.1701
 Traceless Quadrupole moment (field-independent basis, Debye-Ang):
   XX=             -0.9777   YY=              1.9420   ZZ=             -0.9643
   XY=             -4.5265   XZ=             -3.7120   YZ=              0.1701
 Octapole moment (field-independent basis, Debye-Ang**2):
  XXX=             10.5268  YYY=             -8.4235  ZZZ=              0.6993  XYY=              4.6202
  XXY=            -10.7960  XXZ=             10.6158  XZZ=            -10.2607  YZZ=             -3.4393
  YYZ=             -0.8495  XYZ=             -0.0903
 Hexadecapole moment (field-independent basis, Debye-Ang**3):
 XXXX=           -732.7352 YYYY=           -598.0478 ZZZZ=            -68.2933 XXXY=            -62.6429
 XXXZ=            -31.6452 YYYX=            -26.3929 YYYZ=              0.6104 ZZZX=             -3.4676
 ZZZY=              0.2141 XXYY=           -196.7545 XXZZ=           -132.0401 YYZZ=           -112.1516
 XXYZ=              0.3837 YYXZ=              0.4070 ZZXY=             -0.4432
 N-N= 4.036649488199D+02 E-N=-1.746686136324D+03  KE= 3.993796635038D+02
 PrsmSu:  requested number of processors reduced to:  13 ShMem   1 Linda.
 Calling FoFJK, ICntrl=      2127 FMM=F ISym2X=0 I1Cent= 0 IOpClX= 0 NMat=1 NMatS=1 NMatT=0.
 ***** Axes restored to original set *****
 -------------------------------------------------------------------
 Center     Atomic                   Forces (Hartrees/Bohr)
 Number     Number              X              Y              Z
 -------------------------------------------------------------------
      1        6          -0.027936386    0.003602785   -0.003569269
      2        6           0.002051025   -0.002448238    0.002845126
      3        8           0.010296938    0.008832210   -0.009158523
      4        7           0.000640670   -0.006427630    0.008317316
      5        6           0.000099305    0.000507576    0.001728746
      6        6          -0.010560196   -0.004257088    0.003585781
      7        6           0.008720226   -0.000745524   -0.004237796
      8        8          -0.009962941   -0.008048254    0.002767091
      9        1           0.009396779   -0.002496286    0.002364275
     10        1           0.005322104    0.000095706   -0.000026180
     11        1           0.004103403    0.007893670   -0.008654947
     12        1           0.002714566    0.001384468   -0.000417080
     13        1           0.003522560   -0.002773650   -0.000896221
     14        1          -0.003620138    0.003497590    0.003842978
     15        1           0.006811540    0.003716562   -0.003431025
     16        1          -0.003457684   -0.003841055   -0.003152370
     17        1          -0.003234466   -0.004321956    0.005276334
     18        1          -0.000454368    0.000879127   -0.001142498
     19        1           0.005547061    0.004949988    0.003958261
 -------------------------------------------------------------------
 Cartesian Forces:  Max     0.027936386 RMS     0.006222614

 GradGradGradGradGradGradGradGradGradGradGradGradGradGradGradGradGradGrad
 Berny optimization.
 FormGI is forming the generalized inverse of G from B-inverse, IUseBI=4.
 Internal  Forces:  Max     0.043330377 RMS     0.008811942
 Search for a local minimum.
 Step number   1 out of a maximum of   91
 All quantities printed in internal units (Hartrees-Bohrs-Radians)
 Mixed Optimization -- RFO/linear search
 Second derivative matrix not updated -- first step.
 ITU=  0
     Eigenvalues ---    0.00642   0.00645   0.00654   0.00940   0.01387
     Eigenvalues ---    0.01654   0.01861   0.02234   0.02924   0.02924
     Eigenvalues ---    0.03873   0.05575   0.05733   0.05803   0.05982
     Eigenvalues ---    0.07134   0.09965   0.11949   0.13264   0.14157
     Eigenvalues ---    0.16000   0.16000   0.16000   0.16000   0.16000
     Eigenvalues ---    0.16000   0.16000   0.22074   0.22109   0.24916
     Eigenvalues ---    0.24961   0.25000   0.25000   0.31508   0.33953
     Eigenvalues ---    0.33953   0.34037   0.34181   0.34206   0.34275
     Eigenvalues ---    0.34641   0.34672   0.34684   0.35462   0.36465
     Eigenvalues ---    0.42009   0.45156   0.47809   0.52954   0.53571
     Eigenvalues ---    0.57916
 RFO step:  Lambda=-2.38438345D-02 EMin= 6.41758694D-03
 Linear search not attempted -- first point.
 Maximum step size (   0.300) exceeded in Quadratic search.
    -- Step size scaled by   0.996
 Iteration  1 RMS(Cart)=  0.17290053 RMS(Int)=  0.00887998
 Iteration  2 RMS(Cart)=  0.01539693 RMS(Int)=  0.00040998
 Iteration  3 RMS(Cart)=  0.00011731 RMS(Int)=  0.00040634
 Iteration  4 RMS(Cart)=  0.00000003 RMS(Int)=  0.00040634
 Variable       Old X    -DE/DX   Delta X   Delta X   Delta X     New X
                                 (Linear)    (Quad)   (Total)
    R1        2.52629   0.01244   0.00000   0.02054   0.02054   2.54683
    R2        2.04931   0.00012   0.00000   0.00032   0.00032   2.04963
    R3        2.03361  -0.00402   0.00000  -0.01030  -0.01030   2.02331
    R4        2.62143  -0.00977   0.00000  -0.01939  -0.01939   2.60205
    R5        2.65094  -0.02145   0.00000  -0.04492  -0.04492   2.60603
    R6        1.83697  -0.01205   0.00000  -0.02169  -0.02169   1.81528
    R7        2.79510  -0.00002   0.00000  -0.00004  -0.00004   2.79506
    R8        2.79562   0.00036   0.00000   0.00097   0.00097   2.79659
    R9        2.85053   0.01079   0.00000   0.03169   0.03169   2.88223
   R10        2.07409   0.00088   0.00000   0.00242   0.00242   2.07651
   R11        2.07410  -0.00163   0.00000  -0.00446  -0.00446   2.06965
   R12        2.06983  -0.00288   0.00000  -0.00784  -0.00784   2.06200
   R13        2.06190   0.00226   0.00000   0.00607   0.00607   2.06798
   R14        2.06869  -0.00272   0.00000  -0.00739  -0.00739   2.06130
   R15        2.68911  -0.00809   0.00000  -0.01815  -0.01815   2.67096
   R16        2.07268   0.00143   0.00000   0.00390   0.00390   2.07658
   R17        2.07025  -0.00094   0.00000  -0.00256  -0.00256   2.06769
   R18        1.83124  -0.00669   0.00000  -0.01190  -0.01190   1.81934
    A1        2.14679  -0.01130   0.00000  -0.06121  -0.06121   2.08558
    A2        2.20408   0.00210   0.00000   0.01138   0.01138   2.21546
    A3        1.93231   0.00920   0.00000   0.04983   0.04983   1.98214
    A4        2.01920   0.02102   0.00000   0.07642   0.07642   2.09562
    A5        2.27797   0.02231   0.00000   0.08113   0.08113   2.35910
    A6        1.98600  -0.04333   0.00000  -0.15755  -0.15755   1.82845
    A7        1.87676  -0.00545   0.00000  -0.02950  -0.02950   1.84726
    A8        2.22974   0.01913   0.00000   0.06952   0.06944   2.29918
    A9        2.06353  -0.02713   0.00000  -0.09917  -0.09914   1.96439
   A10        1.98755   0.00799   0.00000   0.02880   0.02879   2.01634
   A11        2.04002   0.01499   0.00000   0.06734   0.06705   2.10707
   A12        1.89315  -0.00477   0.00000  -0.01917  -0.02014   1.87301
   A13        1.90874  -0.00720   0.00000  -0.03727  -0.03805   1.87069
   A14        1.85768  -0.00261   0.00000   0.00048   0.00042   1.85810
   A15        1.88152  -0.00133   0.00000   0.00592   0.00630   1.88782
   A16        1.87618   0.00017   0.00000  -0.02287  -0.02351   1.85267
   A17        1.91428   0.00780   0.00000   0.04422   0.04391   1.95818
   A18        1.96599  -0.01423   0.00000  -0.08010  -0.07924   1.88675
   A19        1.91564   0.00733   0.00000   0.04072   0.04033   1.95597
   A20        1.85633   0.00262   0.00000   0.01209   0.01300   1.86933
   A21        1.95130  -0.00690   0.00000  -0.03146  -0.03276   1.91854
   A22        1.85977   0.00257   0.00000   0.01004   0.01079   1.87057
   A23        1.96879   0.00245   0.00000   0.01320   0.01290   1.98169
   A24        1.93119  -0.00390   0.00000  -0.01525  -0.01604   1.91515
   A25        1.93594  -0.00171   0.00000  -0.02184  -0.02208   1.91386
   A26        1.87053   0.00611   0.00000   0.05634   0.05619   1.92672
   A27        1.86178  -0.00264   0.00000  -0.02202  -0.02194   1.83984
   A28        1.89207  -0.00008   0.00000  -0.00895  -0.00919   1.88289
   A29        1.83786   0.00837   0.00000   0.04531   0.04531   1.88318
    D1        0.00162  -0.00007   0.00000  -0.00208  -0.00210  -0.00048
    D2        3.13722  -0.00018   0.00000  -0.00246  -0.00244   3.13478
    D3       -3.13859  -0.00001   0.00000  -0.00106  -0.00108  -3.13967
    D4       -0.00298  -0.00012   0.00000  -0.00144  -0.00142  -0.00441
    D5       -0.01336   0.00007   0.00000   0.00058   0.00057  -0.01278
    D6        3.13321  -0.00003   0.00000   0.00021   0.00022   3.13343
    D7        0.04473   0.00018   0.00000   0.00941   0.00942   0.05415
    D8        3.10741  -0.00003   0.00000  -0.00440  -0.00439   3.10302
    D9       -3.10276   0.00024   0.00000   0.00966   0.00965  -3.09311
   D10       -0.04008   0.00003   0.00000  -0.00414  -0.00416  -0.04424
   D11       -0.05230  -0.00072   0.00000  -0.00190  -0.00196  -0.05426
   D12       -2.15111  -0.00380   0.00000  -0.03350  -0.03325  -2.18436
   D13        2.09074   0.00268   0.00000   0.02529   0.02428   2.11501
   D14       -3.11786   0.00086   0.00000   0.01642   0.01691  -3.10095
   D15        1.06651  -0.00222   0.00000  -0.01517  -0.01437   1.05214
   D16       -0.97483   0.00426   0.00000   0.04362   0.04315  -0.93168
   D17       -3.10576   0.00247   0.00000   0.02475   0.02434  -3.08142
   D18        1.08219  -0.00426   0.00000  -0.04557  -0.04568   1.03651
   D19       -1.01839  -0.00044   0.00000  -0.00976  -0.01028  -1.02867
   D20       -0.03238   0.00306   0.00000   0.01563   0.01591  -0.01647
   D21       -2.12762  -0.00367   0.00000  -0.05469  -0.05411  -2.18173
   D22        2.05499   0.00015   0.00000  -0.01888  -0.01872   2.03628
   D23       -1.04697  -0.00116   0.00000  -0.01438  -0.01491  -1.06188
   D24       -3.11082  -0.00067   0.00000  -0.00850  -0.00840  -3.11923
   D25        1.10328   0.00023   0.00000   0.00253   0.00311   1.10639
   D26        1.07055   0.00044   0.00000   0.00514   0.00484   1.07539
   D27       -0.99330   0.00092   0.00000   0.01103   0.01134  -0.98195
   D28       -3.06238   0.00183   0.00000   0.02205   0.02286  -3.03952
   D29        3.07919  -0.00129   0.00000  -0.01818  -0.01908   3.06010
   D30        1.01534  -0.00081   0.00000  -0.01229  -0.01258   1.00276
   D31       -1.05374   0.00010   0.00000  -0.00127  -0.00106  -1.05480
   D32       -1.17568  -0.00246   0.00000  -0.05668  -0.05717  -1.23285
   D33        0.95410  -0.00160   0.00000  -0.02867  -0.02799   0.92612
   D34        2.97779  -0.00003   0.00000  -0.02252  -0.02271   2.95508
         Item               Value     Threshold  Converged?
 Maximum Force            0.043330     0.000450     NO 
 RMS     Force            0.008812     0.000300     NO 
 Maximum Displacement     0.581761     0.001800     NO 
 RMS     Displacement     0.181369     0.001200     NO 
 Predicted change in Energy=-1.318979D-02
 GradGradGradGradGradGradGradGradGradGradGradGradGradGradGradGradGradGrad

                          Input orientation:                          
 ---------------------------------------------------------------------
 Center     Atomic      Atomic             Coordinates (Angstroms)
 Number     Number       Type             X           Y           Z
 ---------------------------------------------------------------------
      1          6           0        1.029562   -0.424897    0.433617
      2          6           0        2.290916   -0.112057    0.076579
      3          8           0        3.356117   -0.716961    0.705398
      4          7           0        2.863871    0.734684   -0.848911
      5          6           0        2.271047    1.700913   -1.798987
      6          6           0        0.757589    1.844644   -1.921641
      7          6           0        4.342381    0.728077   -0.785326
      8          8           0        4.949704    1.645950   -1.672116
      9          1           0        0.862097   -1.155289    1.217758
     10          1           0        0.126103   -0.026004    0.020070
     11          1           0        2.973655   -1.306412    1.360406
     12          1           0        2.641611    1.443688   -2.800969
     13          1           0        2.689445    2.685115   -1.562823
     14          1           0        0.279535    0.915867   -2.237039
     15          1           0        0.548427    2.592329   -2.692854
     16          1           0        0.303391    2.200827   -0.996075
     17          1           0        4.717115   -0.288234   -0.970311
     18          1           0        4.669134    1.029860    0.214364
     19          1           0        4.826351    1.317128   -2.568529
 ---------------------------------------------------------------------
                    Distance matrix (angstroms):
                    1          2          3          4          5
     1  C    0.000000
     2  C    1.347723   0.000000
     3  O    2.360513   1.376944   0.000000
     4  N    2.520753   1.379050   2.182992   0.000000
     5  C    3.323383   2.608640   3.646290   1.479082   0.000000
     6  C    3.282076   3.189459   4.496165   2.611357   1.525208
     7  C    3.713481   2.378490   2.298502   1.479892   2.502866
     8  O    4.908160   3.635613   3.711529   2.420491   2.682223
     9  H    1.084617   2.105266   2.583559   3.442414   4.386774
    10  H    1.070689   2.167260   3.373438   2.971388   3.300303
    11  H    2.327123   1.881709   0.960607   3.009852   4.418079
    12  H    4.068521   3.289926   4.180135   2.088688   1.098840
    13  H    4.051316   3.266594   4.142873   2.084293   1.095210
    14  H    3.081005   3.233436   4.559541   2.939135   2.185019
    15  H    4.371495   4.244965   5.512044   3.494603   2.135659
    16  H    3.076649   3.232688   4.552761   2.954199   2.183175
    17  H    3.948131   2.648294   2.200937   2.120286   3.259855
    18  H    3.925668   2.641757   2.239757   2.115812   3.202298
    19  H    5.144233   3.932886   4.125252   2.673510   2.696119
                    6          7          8          9         10
     6  C    0.000000
     7  C    3.922839   0.000000
     8  O    4.204233   1.413411   0.000000
     9  H    4.343540   4.435289   5.736449   0.000000
    10  H    2.769176   4.358245   5.378295   1.803172   0.000000
    11  H    5.060823   3.258331   4.670911   2.121759   3.397719
    12  H    2.117433   2.732679   2.577308   5.106028   4.055371
    13  H    2.137104   2.677069   2.490097   5.081293   4.052955
    14  H    1.091163   4.318501   4.760530   4.069974   2.450552
    15  H    1.094327   4.637691   4.616143   5.425488   3.793940
    16  H    1.090795   4.304282   4.727912   4.059154   2.454131
    17  H    4.596960   1.098879   2.070676   4.516701   4.703936
    18  H    4.530627   1.094175   2.004269   4.502800   4.668162
    19  H    4.153500   1.939335   0.962754   6.013661   5.531472
                   11         12         13         14         15
    11  H    0.000000
    12  H    4.999035   0.000000
    13  H    4.955636   1.753977   0.000000
    14  H    5.013822   2.485159   3.064714   0.000000
    15  H    6.124608   2.390079   2.422712   1.758008   0.000000
    16  H    4.998403   3.049291   2.499798   1.786528   1.758515
    17  H    3.083599   3.264748   3.647372   4.769337   5.351892
    18  H    3.105838   3.657094   3.133279   5.029011   5.279531
    19  H    5.074640   2.200713   2.729322   4.576508   4.465672
                   16         17         18         19
    16  H    0.000000
    17  H    5.067253   0.000000
    18  H    4.679320   1.772887   0.000000
    19  H    4.869363   2.267911   2.802094   0.000000
 Stoichiometry    C5H11NO2
 Framework group  C1[X(C5H11NO2)]
 Deg. of freedom    51
 Full point group                 C1      NOp   1
 Largest Abelian subgroup         C1      NOp   1
 Largest concise Abelian subgroup C1      NOp   1
                         Standard orientation:                         
 ---------------------------------------------------------------------
 Center     Atomic      Atomic             Coordinates (Angstroms)
 Number     Number       Type             X           Y           Z
 ---------------------------------------------------------------------
      1          6           0        2.362518   -0.130381    0.004783
      2          6           0        1.095963   -0.590981    0.011550
      3          8           0        0.854779   -1.946625    0.005821
      4          7           0       -0.155304   -0.011529    0.030117
      5          6           0       -0.585989    1.402911   -0.009283
      6          6           0        0.441117    2.530427   -0.013752
      7          6           0       -1.244763   -1.011659   -0.023710
      8          8           0       -2.535186   -0.438126   -0.083694
      9          1           0        3.186968   -0.835069   -0.004730
     10          1           0        2.674747    0.893760    0.009804
     11          1           0        1.718506   -2.366532   -0.014668
     12          1           0       -1.231075    1.572813    0.863900
     13          1           0       -1.227036    1.521539   -0.889323
     14          1           0        1.065144    2.523123    0.881331
     15          1           0       -0.098842    3.482230   -0.021909
     16          1           0        1.069453    2.508900   -0.905136
     17          1           0       -1.167358   -1.691197    0.836390
     18          1           0       -1.150007   -1.610465   -0.934573
     19          1           0       -2.723185   -0.042297    0.773552
 ---------------------------------------------------------------------
 Rotational constants (GHZ):           2.2125543           1.9238683           1.0524946
 Standard basis: 6-31G(2df,p) (6D, 7F)
 There are   303 symmetry adapted cartesian basis functions of A   symmetry.
 There are   279 symmetry adapted basis functions of A   symmetry.
   279 basis functions,   429 primitive gaussians,   303 cartesian basis functions
    32 alpha electrons       32 beta electrons
       nuclear repulsion energy       405.0563856062 Hartrees.
 NAtoms=   19 NActive=   19 NUniq=   19 SFac= 1.00D+00 NAtFMM=   60 NAOKFM=F Big=F
 Integral buffers will be    131072 words long.
 Raffenetti 2 integral format.
 Two-electron integral symmetry is turned on.
 One-electron integrals computed using PRISM.
 PrsmSu:  requested number of processors reduced to:  13 ShMem   1 Linda.
 NBasis=   279 RedAO= T EigKep=  2.16D-04  NBF=   279
 NBsUse=   279 1.00D-06 EigRej= -1.00D+00 NBFU=   279
 Initial guess from the checkpoint file:  "CdCpOpNpCCpCO.chk"
 B after Tr=     0.000000    0.000000   -0.000000
         Rot=    0.999504   -0.000549    0.000158    0.031476 Ang=  -3.61 deg.
 ExpMin= 1.61D-01 ExpMax= 5.48D+03 ExpMxC= 8.25D+02 IAcc=2 IRadAn=         4 AccDes= 0.00D+00
 Harris functional with IExCor=  402 and IRadAn=       4 diagonalized for initial guess.
 HarFok:  IExCor=  402 AccDes= 0.00D+00 IRadAn=         4 IDoV= 1 UseB2=F ITyADJ=14
 ICtDFT=  3500011 ScaDFX=  1.000000  1.000000  1.000000  1.000000
 FoFCou: FMM=F IPFlag=           0 FMFlag=      100000 FMFlg1=           0
         NFxFlg=           0 DoJE=T BraDBF=F KetDBF=T FulRan=T
         wScrn=  0.000000 ICntrl=       500 IOpCl=  0 I1Cent=   200000004 NGrid=           0
         NMat0=    1 NMatS0=      1 NMatT0=    0 NMatD0=    1 NMtDS0=    0 NMtDT0=    0
 Petite list used in FoFCou.
 Requested convergence on RMS density matrix=1.00D-08 within 128 cycles.
 Requested convergence on MAX density matrix=1.00D-06.
 Requested convergence on             energy=1.00D-06.
 No special actions if energy rises.
 Integral accuracy reduced to 1.0D-05 until final iterations.
 Initial convergence to 1.0D-05 achieved.  Increase integral accuracy.
 SCF Done:  E(RB3LYP) =  -402.322027498     A.U. after   12 cycles
            NFock= 12  Conv=0.22D-08     -V/T= 2.0071
 PrsmSu:  requested number of processors reduced to:  13 ShMem   1 Linda.
 Calling FoFJK, ICntrl=      2127 FMM=F ISym2X=0 I1Cent= 0 IOpClX= 0 NMat=1 NMatS=1 NMatT=0.
 ***** Axes restored to original set *****
 -------------------------------------------------------------------
 Center     Atomic                   Forces (Hartrees/Bohr)
 Number     Number              X              Y              Z
 -------------------------------------------------------------------
      1        6          -0.001310066    0.000298365   -0.000280055
      2        6           0.002168586    0.003091344   -0.003846778
      3        8          -0.012806200   -0.012790068    0.013912300
      4        7          -0.006958888    0.004420544   -0.005819531
      5        6           0.003729957   -0.002290220    0.002533680
      6        6          -0.000052263   -0.004397925    0.004934445
      7        6           0.014636770    0.008785599   -0.007671348
      8        8          -0.007074486   -0.002459742    0.000930129
      9        1           0.004015909   -0.000349578    0.000219039
     10        1          -0.000286032    0.005909200   -0.006197877
     11        1           0.001743003   -0.002311124    0.002398542
     12        1           0.000396071    0.000857469   -0.000325290
     13        1           0.000332994    0.000285511   -0.001124093
     14        1          -0.001352529   -0.001407850    0.002023828
     15        1           0.001920236    0.000373932   -0.000177808
     16        1          -0.001514699   -0.001917247    0.001576750
     17        1          -0.000852468    0.002847182   -0.000792059
     18        1           0.001163520    0.000735571   -0.002395907
     19        1           0.002100585    0.000319037    0.000102032
 -------------------------------------------------------------------
 Cartesian Forces:  Max     0.014636770 RMS     0.004736121

 GradGradGradGradGradGradGradGradGradGradGradGradGradGradGradGradGradGrad
 Berny optimization.
 Using GEDIIS/GDIIS optimizer.
 FormGI is forming the generalized inverse of G from B-inverse, IUseBI=4.
 Internal  Forces:  Max     0.046550122 RMS     0.010434553
 Search for a local minimum.
 Step number   2 out of a maximum of   91
 All quantities printed in internal units (Hartrees-Bohrs-Radians)
 Mixed Optimization -- RFO/linear search
 Update second derivatives using D2CorX and points    1    2
 DE= -2.64D-03 DEPred=-1.32D-02 R= 2.00D-01
 Trust test= 2.00D-01 RLast= 3.26D-01 DXMaxT set to 3.00D-01
 ITU=  0  0
 Use linear search instead of GDIIS.
     Eigenvalues ---    0.00642   0.00645   0.00654   0.00936   0.01384
     Eigenvalues ---    0.01655   0.01861   0.02295   0.02924   0.02924
     Eigenvalues ---    0.03476   0.05439   0.05475   0.05829   0.06039
     Eigenvalues ---    0.07316   0.10575   0.11910   0.13604   0.13840
     Eigenvalues ---    0.14538   0.16000   0.16000   0.16000   0.16000
     Eigenvalues ---    0.16000   0.16082   0.22096   0.22317   0.24183
     Eigenvalues ---    0.24942   0.24977   0.31291   0.33941   0.33953
     Eigenvalues ---    0.33999   0.34127   0.34193   0.34238   0.34266
     Eigenvalues ---    0.34652   0.34677   0.35462   0.36417   0.41750
     Eigenvalues ---    0.43817   0.47574   0.52559   0.53503   0.57150
     Eigenvalues ---    0.66901
 RFO step:  Lambda=-5.79848882D-03 EMin= 6.41932119D-03
 Quartic linear search produced a step of -0.42790.
 Iteration  1 RMS(Cart)=  0.11609397 RMS(Int)=  0.00306728
 Iteration  2 RMS(Cart)=  0.00503706 RMS(Int)=  0.00036947
 Iteration  3 RMS(Cart)=  0.00000967 RMS(Int)=  0.00036944
 Iteration  4 RMS(Cart)=  0.00000000 RMS(Int)=  0.00036944
 Variable       Old X    -DE/DX   Delta X   Delta X   Delta X     New X
                                 (Linear)    (Quad)   (Total)
    R1        2.54683  -0.00528  -0.00879   0.00835  -0.00044   2.54638
    R2        2.04963  -0.00023  -0.00014  -0.00013  -0.00027   2.04936
    R3        2.02331   0.00484   0.00441   0.00040   0.00481   2.02812
    R4        2.60205   0.00552   0.00830  -0.00640   0.00189   2.60394
    R5        2.60603   0.01063   0.01922  -0.01678   0.00244   2.60847
    R6        1.81528   0.00236   0.00928  -0.01180  -0.00252   1.81277
    R7        2.79506  -0.01300   0.00002  -0.02091  -0.02089   2.77417
    R8        2.79659   0.00950  -0.00042   0.01592   0.01551   2.81210
    R9        2.88223  -0.00037  -0.01356   0.02116   0.00760   2.88983
   R10        2.07651   0.00023  -0.00104   0.00203   0.00099   2.07750
   R11        2.06965   0.00014   0.00191  -0.00281  -0.00091   2.06874
   R12        2.06200   0.00121   0.00335  -0.00339  -0.00003   2.06196
   R13        2.06798   0.00001  -0.00260   0.00416   0.00156   2.06954
   R14        2.06130   0.00134   0.00316  -0.00286   0.00030   2.06160
   R15        2.67096  -0.00417   0.00777  -0.01772  -0.00995   2.66101
   R16        2.07658  -0.00279  -0.00167  -0.00190  -0.00357   2.07301
   R17        2.06769  -0.00164   0.00110  -0.00442  -0.00332   2.06437
   R18        1.81934  -0.00047   0.00509  -0.00833  -0.00324   1.81610
    A1        2.08558  -0.00074   0.02619  -0.04889  -0.02270   2.06288
    A2        2.21546  -0.00678  -0.00487  -0.01454  -0.01941   2.19605
    A3        1.98214   0.00752  -0.02132   0.06343   0.04211   2.02425
    A4        2.09562  -0.01112  -0.03270   0.02944  -0.00326   2.09237
    A5        2.35910  -0.03543  -0.03472  -0.02102  -0.05574   2.30336
    A6        1.82845   0.04655   0.06742  -0.00843   0.05899   1.88744
    A7        1.84726   0.00531   0.01262  -0.00421   0.00841   1.85568
    A8        2.29918  -0.04113  -0.02971  -0.04302  -0.07268   2.22650
    A9        1.96439   0.04638   0.04242   0.03211   0.07421   2.03859
   A10        2.01634  -0.00531  -0.01232   0.00803  -0.00446   2.01188
   A11        2.10707  -0.02158  -0.02869  -0.00602  -0.03448   2.07259
   A12        1.87301   0.00669   0.00862   0.00418   0.01341   1.88642
   A13        1.87069   0.00717   0.01628  -0.01324   0.00341   1.87410
   A14        1.85810   0.00631  -0.00018   0.01904   0.01896   1.87706
   A15        1.88782   0.00596  -0.00270   0.01750   0.01452   1.90233
   A16        1.85267  -0.00306   0.01006  -0.02499  -0.01479   1.83788
   A17        1.95818   0.00084  -0.01879   0.03605   0.01740   1.97558
   A18        1.88675  -0.00257   0.03391  -0.06793  -0.03424   1.85250
   A19        1.95597   0.00099  -0.01726   0.03343   0.01632   1.97229
   A20        1.86933   0.00150  -0.00556   0.01636   0.01057   1.87990
   A21        1.91854  -0.00206   0.01402  -0.03346  -0.01905   1.89950
   A22        1.87057   0.00136  -0.00462   0.01320   0.00839   1.87896
   A23        1.98169  -0.00663  -0.00552  -0.00810  -0.01358   1.96811
   A24        1.91515   0.00217   0.00686  -0.00228   0.00493   1.92009
   A25        1.91386   0.00305   0.00945  -0.01113  -0.00176   1.91210
   A26        1.92672   0.00127  -0.02404   0.04882   0.02488   1.95160
   A27        1.83984   0.00040   0.00939  -0.02462  -0.01540   1.82444
   A28        1.88289  -0.00005   0.00393  -0.00379   0.00030   1.88319
   A29        1.88318   0.00228  -0.01939   0.04211   0.02272   1.90589
    D1       -0.00048  -0.00007   0.00090  -0.00317  -0.00228  -0.00276
    D2        3.13478  -0.00005   0.00104  -0.00455  -0.00350   3.13128
    D3       -3.13967  -0.00008   0.00046  -0.00211  -0.00166  -3.14133
    D4       -0.00441  -0.00006   0.00061  -0.00349  -0.00288  -0.00728
    D5       -0.01278  -0.00006  -0.00025   0.00108   0.00082  -0.01196
    D6        3.13343   0.00015  -0.00009   0.00218   0.00211   3.13553
    D7        0.05415  -0.00008  -0.00403   0.01953   0.01553   0.06968
    D8        3.10302  -0.00023   0.00188  -0.01964  -0.01779   3.08523
    D9       -3.09311  -0.00016  -0.00413   0.01841   0.01431  -3.07880
   D10       -0.04424  -0.00032   0.00178  -0.02076  -0.01901  -0.06325
   D11       -0.05426   0.00144   0.00084   0.01525   0.01675  -0.03751
   D12       -2.18436   0.00271   0.01423  -0.01030   0.00452  -2.17983
   D13        2.11501  -0.00036  -0.01039   0.02275   0.01354   2.12855
   D14       -3.10095  -0.00047  -0.00724   0.05444   0.04624  -3.05471
   D15        1.05214   0.00079   0.00615   0.02889   0.03402   1.08616
   D16       -0.93168  -0.00228  -0.01846   0.06194   0.04303  -0.88865
   D17       -3.08142   0.00121  -0.01042   0.00366  -0.00588  -3.08730
   D18        1.03651   0.00268   0.01955  -0.05271  -0.03237   1.00414
   D19       -1.02867  -0.00040   0.00440  -0.04004  -0.03463  -1.06331
   D20       -0.01647  -0.00155  -0.00681  -0.03193  -0.03964  -0.05611
   D21       -2.18173  -0.00007   0.02315  -0.08829  -0.06613  -2.24786
   D22        2.03628  -0.00315   0.00801  -0.07563  -0.06839   1.96788
   D23       -1.06188   0.00046   0.00638  -0.01784  -0.01130  -1.07318
   D24       -3.11923  -0.00025   0.00360  -0.01595  -0.01237  -3.13159
   D25        1.10639  -0.00087  -0.00133  -0.00876  -0.01025   1.09615
   D26        1.07539  -0.00044  -0.00207   0.00051  -0.00160   1.07379
   D27       -0.98195  -0.00115  -0.00485   0.00240  -0.00267  -0.98462
   D28       -3.03952  -0.00177  -0.00978   0.00959  -0.00055  -3.04006
   D29        3.06010   0.00190   0.00817  -0.01079  -0.00226   3.05784
   D30        1.00276   0.00119   0.00538  -0.00890  -0.00332   0.99944
   D31       -1.05480   0.00058   0.00045  -0.00172  -0.00120  -1.05601
   D32       -1.23285  -0.00053   0.02446  -0.11398  -0.08919  -1.32205
   D33        0.92612  -0.00157   0.01198  -0.08529  -0.07356   0.85255
   D34        2.95508  -0.00077   0.00972  -0.07934  -0.06970   2.88539
         Item               Value     Threshold  Converged?
 Maximum Force            0.046550     0.000450     NO 
 RMS     Force            0.010435     0.000300     NO 
 Maximum Displacement     0.356830     0.001800     NO 
 RMS     Displacement     0.118090     0.001200     NO 
 Predicted change in Energy=-7.240257D-03
 GradGradGradGradGradGradGradGradGradGradGradGradGradGradGradGradGradGrad

                          Input orientation:                          
 ---------------------------------------------------------------------
 Center     Atomic      Atomic             Coordinates (Angstroms)
 Number     Number       Type             X           Y           Z
 ---------------------------------------------------------------------
      1          6           0        0.998509   -0.344892    0.323439
      2          6           0        2.298274   -0.110751    0.056021
      3          8           0        3.275548   -0.773273    0.766470
      4          7           0        2.918076    0.715485   -0.859688
      5          6           0        2.283213    1.664991   -1.781909
      6          6           0        0.757076    1.759464   -1.804925
      7          6           0        4.404625    0.768460   -0.817205
      8          8           0        4.943630    1.687360   -1.738058
      9          1           0        0.756298   -1.061324    1.100703
     10          1           0        0.163127    0.115230   -0.168756
     11          1           0        2.817887   -1.333614    1.396369
     12          1           0        2.615833    1.424451   -2.801767
     13          1           0        2.698352    2.655246   -1.568629
     14          1           0        0.273030    0.825364   -2.094324
     15          1           0        0.509966    2.511225   -2.561996
     16          1           0        0.336319    2.094854   -0.855895
     17          1           0        4.820206   -0.237469   -0.954275
     18          1           0        4.729669    1.135875    0.158873
     19          1           0        4.898413    1.312547   -2.621839
 ---------------------------------------------------------------------
                    Distance matrix (angstroms):
                    1          2          3          4          5
     1  C    0.000000
     2  C    1.347488   0.000000
     3  O    2.358960   1.377946   0.000000
     4  N    2.491772   1.380342   2.233512   0.000000
     5  C    3.181601   2.555675   3.663890   1.468027   0.000000
     6  C    3.002754   3.055506   4.401083   2.579397   1.529232
     7  C    3.760618   2.443818   2.481890   1.488099   2.496960
     8  O    4.893240   3.667401   3.887142   2.412248   2.660872
     9  H    1.084472   2.091086   2.557598   3.416646   4.251319
    10  H    1.073234   2.158807   3.369162   2.903005   3.082010
    11  H    2.332143   1.887306   0.959276   3.049368   4.402154
    12  H    3.938683   3.259546   4.242349   2.089414   1.099366
    13  H    3.933219   3.232691   4.188148   2.076908   1.094730
    14  H    2.782336   3.098695   4.444648   2.921074   2.200776
    15  H    4.089231   4.114222   5.432776   3.452757   2.114013
    16  H    2.789566   3.089588   4.415573   2.927139   2.198335
    17  H    4.031063   2.719724   2.373609   2.129594   3.277296
    18  H    4.017625   2.734289   2.475578   2.120392   3.167293
    19  H    5.160525   3.994675   4.297088   2.717240   2.769291
                    6          7          8          9         10
     6  C    0.000000
     7  C    3.906699   0.000000
     8  O    4.187709   1.408146   0.000000
     9  H    4.049632   4.509630   5.757393   0.000000
    10  H    2.394437   4.340219   5.271386   1.829661   0.000000
    11  H    4.905340   3.440401   4.844554   2.100408   3.405367
    12  H    2.135628   2.751106   2.572787   4.986604   3.829174
    13  H    2.151003   2.652540   2.450874   4.970895   3.852102
    14  H    1.091144   4.324853   4.762822   3.741836   2.055281
    15  H    1.095155   4.609761   4.584213   5.122416   3.404215
    16  H    1.090953   4.279244   4.708670   3.737126   2.102633
    17  H    4.606558   1.096991   2.081950   4.627853   4.736014
    18  H    4.475138   1.092417   1.987023   4.637068   4.690668
    19  H    4.244733   1.948477   0.961041   6.053899   5.465722
                   11         12         13         14         15
    11  H    0.000000
    12  H    5.027136   0.000000
    13  H    4.971570   1.744217   0.000000
    14  H    4.829330   2.519546   3.083344   0.000000
    15  H    5.981467   2.381858   2.407604   1.765498   0.000000
    16  H    4.794295   3.071163   2.530064   1.774632   1.764738
    17  H    3.276636   3.321816   3.639711   4.806885   5.358942
    18  H    3.359268   3.649241   3.069039   5.003494   5.205825
    19  H    5.241827   2.292393   2.784307   4.680789   4.549602
                   16         17         18         19
    16  H    0.000000
    17  H    5.055161   0.000000
    18  H    4.609872   1.770132   0.000000
    19  H    4.954115   2.278033   2.791424   0.000000
 Stoichiometry    C5H11NO2
 Framework group  C1[X(C5H11NO2)]
 Deg. of freedom    51
 Full point group                 C1      NOp   1
 Largest Abelian subgroup         C1      NOp   1
 Largest concise Abelian subgroup C1      NOp   1
                         Standard orientation:                         
 ---------------------------------------------------------------------
 Center     Atomic      Atomic             Coordinates (Angstroms)
 Number     Number       Type             X           Y           Z
 ---------------------------------------------------------------------
      1          6           0        2.285973   -0.235834    0.018380
      2          6           0        1.016796   -0.688508    0.018475
      3          8           0        0.771430   -2.044245   -0.004062
      4          7           0       -0.197329   -0.032379    0.045687
      5          6           0       -0.433216    1.415939    0.002823
      6          6           0        0.771866    2.356749   -0.031868
      7          6           0       -1.418996   -0.877809   -0.039265
      8          8           0       -2.605001   -0.119509   -0.074596
      9          1           0        3.089617   -0.963844    0.002911
     10          1           0        2.585354    0.794663    0.035019
     11          1           0        1.629169   -2.473093   -0.028212
     12          1           0       -1.041557    1.688629    0.876989
     13          1           0       -1.068319    1.618221   -0.865601
     14          1           0        1.409658    2.270771    0.849282
     15          1           0        0.364245    3.373053   -0.050201
     16          1           0        1.385868    2.230344   -0.924730
     17          1           0       -1.426946   -1.609277    0.778219
     18          1           0       -1.417605   -1.428630   -0.982646
     19          1           0       -2.794156    0.212626    0.807166
 ---------------------------------------------------------------------
 Rotational constants (GHZ):           2.3171537           1.8704020           1.0588421
 Standard basis: 6-31G(2df,p) (6D, 7F)
 There are   303 symmetry adapted cartesian basis functions of A   symmetry.
 There are   279 symmetry adapted basis functions of A   symmetry.
   279 basis functions,   429 primitive gaussians,   303 cartesian basis functions
    32 alpha electrons       32 beta electrons
       nuclear repulsion energy       405.3472349051 Hartrees.
 NAtoms=   19 NActive=   19 NUniq=   19 SFac= 1.00D+00 NAtFMM=   60 NAOKFM=F Big=F
 Integral buffers will be    131072 words long.
 Raffenetti 2 integral format.
 Two-electron integral symmetry is turned on.
 One-electron integrals computed using PRISM.
 PrsmSu:  requested number of processors reduced to:  13 ShMem   1 Linda.
 NBasis=   279 RedAO= T EigKep=  2.20D-04  NBF=   279
 NBsUse=   279 1.00D-06 EigRej= -1.00D+00 NBFU=   279
 Initial guess from the checkpoint file:  "CdCpOpNpCCpCO.chk"
 B after Tr=    -0.000000    0.000000   -0.000000
         Rot=    0.998761   -0.000560   -0.000093    0.049759 Ang=  -5.70 deg.
 ExpMin= 1.61D-01 ExpMax= 5.48D+03 ExpMxC= 8.25D+02 IAcc=2 IRadAn=         4 AccDes= 0.00D+00
 Harris functional with IExCor=  402 and IRadAn=       4 diagonalized for initial guess.
 HarFok:  IExCor=  402 AccDes= 0.00D+00 IRadAn=         4 IDoV= 1 UseB2=F ITyADJ=14
 ICtDFT=  3500011 ScaDFX=  1.000000  1.000000  1.000000  1.000000
 FoFCou: FMM=F IPFlag=           0 FMFlag=      100000 FMFlg1=           0
         NFxFlg=           0 DoJE=T BraDBF=F KetDBF=T FulRan=T
         wScrn=  0.000000 ICntrl=       500 IOpCl=  0 I1Cent=   200000004 NGrid=           0
         NMat0=    1 NMatS0=      1 NMatT0=    0 NMatD0=    1 NMtDS0=    0 NMtDT0=    0
 Petite list used in FoFCou.
 Requested convergence on RMS density matrix=1.00D-08 within 128 cycles.
 Requested convergence on MAX density matrix=1.00D-06.
 Requested convergence on             energy=1.00D-06.
 No special actions if energy rises.
 Integral accuracy reduced to 1.0D-05 until final iterations.
 Initial convergence to 1.0D-05 achieved.  Increase integral accuracy.
 SCF Done:  E(RB3LYP) =  -402.328408740     A.U. after   11 cycles
            NFock= 11  Conv=0.71D-08     -V/T= 2.0072
 PrsmSu:  requested number of processors reduced to:  13 ShMem   1 Linda.
 Calling FoFJK, ICntrl=      2127 FMM=F ISym2X=0 I1Cent= 0 IOpClX= 0 NMat=1 NMatS=1 NMatT=0.
 ***** Axes restored to original set *****
 -------------------------------------------------------------------
 Center     Atomic                   Forces (Hartrees/Bohr)
 Number     Number              X              Y              Z
 -------------------------------------------------------------------
      1        6          -0.001919733   -0.002040024    0.002126406
      2        6           0.002915270    0.002264724   -0.003080528
      3        8          -0.002334184    0.000971964   -0.000969243
      4        7           0.000172177   -0.001553019   -0.002143375
      5        6           0.000207320   -0.002022635    0.002608947
      6        6           0.001662139    0.003287943   -0.002688815
      7        6           0.001432527    0.004723267    0.001369968
      8        8          -0.002793354   -0.002919488    0.001187256
      9        1           0.000871390   -0.000086715    0.000086402
     10        1           0.002128788   -0.000532899    0.000410688
     11        1           0.000281407   -0.002165494    0.002325386
     12        1          -0.001415336   -0.000008497   -0.000489624
     13        1          -0.001721171    0.001676608   -0.000590819
     14        1           0.001218522   -0.000069619   -0.000712364
     15        1          -0.001179602   -0.000023848    0.000100766
     16        1           0.001094216    0.000256048    0.000286720
     17        1          -0.001383081    0.000514980   -0.001098368
     18        1           0.000474808   -0.000838498    0.002005440
     19        1           0.000287897   -0.001434800   -0.000734843
 -------------------------------------------------------------------
 Cartesian Forces:  Max     0.004723267 RMS     0.001704652

 GradGradGradGradGradGradGradGradGradGradGradGradGradGradGradGradGradGrad
 Berny optimization.
 Using GEDIIS/GDIIS optimizer.
 FormGI is forming the generalized inverse of G from B-inverse, IUseBI=4.
 Internal  Forces:  Max     0.006994982 RMS     0.001893073
 Search for a local minimum.
 Step number   3 out of a maximum of   91
 All quantities printed in internal units (Hartrees-Bohrs-Radians)
 Mixed Optimization -- RFO/linear search
 Update second derivatives using D2CorX and points    1    2    3
 DE= -6.38D-03 DEPred=-7.24D-03 R= 8.81D-01
 TightC=F SS=  1.41D+00  RLast= 2.56D-01 DXNew= 5.0454D-01 7.6735D-01
 Trust test= 8.81D-01 RLast= 2.56D-01 DXMaxT set to 5.05D-01
 ITU=  1  0  0
 Use linear search instead of GDIIS.
     Eigenvalues ---    0.00608   0.00647   0.00654   0.00940   0.01322
     Eigenvalues ---    0.01655   0.01861   0.02278   0.02924   0.02924
     Eigenvalues ---    0.03615   0.05317   0.05374   0.06147   0.06239
     Eigenvalues ---    0.07360   0.10563   0.11592   0.13301   0.13525
     Eigenvalues ---    0.14384   0.16000   0.16000   0.16000   0.16000
     Eigenvalues ---    0.16033   0.16616   0.22021   0.22331   0.24893
     Eigenvalues ---    0.24898   0.26650   0.31658   0.33941   0.33961
     Eigenvalues ---    0.33982   0.34178   0.34214   0.34263   0.34385
     Eigenvalues ---    0.34656   0.34671   0.35463   0.36396   0.41163
     Eigenvalues ---    0.44744   0.47641   0.53141   0.53589   0.57479
     Eigenvalues ---    0.75303
 RFO step:  Lambda=-1.13789462D-03 EMin= 6.07831126D-03
 Quartic linear search produced a step of -0.09832.
 Iteration  1 RMS(Cart)=  0.05022785 RMS(Int)=  0.00149919
 Iteration  2 RMS(Cart)=  0.00204952 RMS(Int)=  0.00007910
 Iteration  3 RMS(Cart)=  0.00000327 RMS(Int)=  0.00007909
 Iteration  4 RMS(Cart)=  0.00000000 RMS(Int)=  0.00007909
 Variable       Old X    -DE/DX   Delta X   Delta X   Delta X     New X
                                 (Linear)    (Quad)   (Total)
    R1        2.54638  -0.00006   0.00004  -0.00007  -0.00002   2.54636
    R2        2.04936  -0.00008   0.00003  -0.00024  -0.00022   2.04914
    R3        2.02812  -0.00207  -0.00047  -0.00344  -0.00392   2.02420
    R4        2.60394  -0.00018  -0.00019   0.00008  -0.00011   2.60383
    R5        2.60847   0.00067  -0.00024   0.00163   0.00139   2.60986
    R6        1.81277   0.00266   0.00025   0.00333   0.00358   1.81635
    R7        2.77417   0.00299   0.00205   0.00158   0.00363   2.77780
    R8        2.81210  -0.00190  -0.00152  -0.00041  -0.00194   2.81016
    R9        2.88983  -0.00253  -0.00075  -0.00451  -0.00526   2.88457
   R10        2.07750   0.00003  -0.00010   0.00034   0.00024   2.07774
   R11        2.06874   0.00075   0.00009   0.00156   0.00165   2.07039
   R12        2.06196  -0.00029   0.00000  -0.00073  -0.00073   2.06123
   R13        2.06954   0.00018  -0.00015   0.00086   0.00070   2.07025
   R14        2.06160  -0.00009  -0.00003  -0.00017  -0.00020   2.06141
   R15        2.66101  -0.00410   0.00098  -0.01071  -0.00973   2.65128
   R16        2.07301  -0.00086   0.00035  -0.00300  -0.00265   2.07036
   R17        2.06437   0.00165   0.00033   0.00308   0.00341   2.06778
   R18        1.81610   0.00122   0.00032   0.00096   0.00127   1.81738
    A1        2.06288  -0.00064   0.00223  -0.00901  -0.00678   2.05610
    A2        2.19605  -0.00051   0.00191  -0.00794  -0.00603   2.19002
    A3        2.02425   0.00115  -0.00414   0.01694   0.01280   2.03705
    A4        2.09237  -0.00464   0.00032  -0.01613  -0.01581   2.07656
    A5        2.30336   0.00539   0.00548   0.00282   0.00830   2.31167
    A6        1.88744  -0.00074  -0.00580   0.01328   0.00748   1.89492
    A7        1.85568   0.00320  -0.00083   0.01884   0.01801   1.87369
    A8        2.22650   0.00699   0.00715   0.00335   0.01044   2.23694
    A9        2.03859  -0.00551  -0.00730   0.00121  -0.00608   2.03252
   A10        2.01188  -0.00149   0.00044  -0.00649  -0.00607   2.00581
   A11        2.07259   0.00505   0.00339   0.01024   0.01365   2.08623
   A12        1.88642  -0.00074  -0.00132   0.00550   0.00420   1.89062
   A13        1.87410   0.00009  -0.00034   0.00893   0.00866   1.88276
   A14        1.87706  -0.00243  -0.00186  -0.00884  -0.01080   1.86626
   A15        1.90233  -0.00333  -0.00143  -0.01469  -0.01619   1.88615
   A16        1.83788   0.00103   0.00145  -0.00238  -0.00108   1.83680
   A17        1.97558  -0.00164  -0.00171  -0.00501  -0.00674   1.96884
   A18        1.85250   0.00215   0.00337   0.00371   0.00707   1.85958
   A19        1.97229  -0.00148  -0.00161  -0.00392  -0.00554   1.96676
   A20        1.87990  -0.00032  -0.00104   0.00196   0.00092   1.88081
   A21        1.89950   0.00160   0.00187   0.00098   0.00283   1.90233
   A22        1.87896  -0.00022  -0.00082   0.00305   0.00222   1.88117
   A23        1.96811  -0.00156   0.00134  -0.01051  -0.00939   1.95872
[...]
 ,-0.01826464,0.52871951,-0.02590175,-0.02611236,0.01297296,-0.05904822
 ,-0.23936919,0.08251223,0.01147880,-0.03879683,0.02413069,0.11159047,0
 .53032306,0.00436084,0.00795669,0.00774345,-0.00357434,0.09645142,-0.0
 9784288,-0.00239784,0.03009259,-0.01189912,0.13982609,-0.22644427,0.33
 762367,-0.00370610,-0.00626579,0.00208697,0.01144312,0.01127515,0.0027
 2455,-0.00011799,-0.00396483,0.00058981,-0.12326766,0.00960725,-0.0482
 3808,0.53668264,0.00251230,0.00063961,-0.00015668,0.01475204,-0.018683
 89,0.02296758,-0.00181930,-0.00308922,0.00336354,0.00891459,-0.1089763
 7,0.04698820,0.09175929,0.54233967,-0.00168346,-0.00283583,0.00087759,
 0.00189434,0.01448401,-0.01796208,0.00030871,-0.00324893,0.00265013,-0
 .05911673,0.05623288,-0.12953566,-0.01777450,0.00531835,0.51443574,0.0
 0020529,0.00088562,0.00032134,-0.00114878,-0.00090835,0.00140476,0.000
 01550,0.00042387,-0.00041597,-0.01585889,0.01817217,-0.00654456,-0.116
 01761,0.03960562,0.02954276,0.52470465,-0.00007389,0.00008141,-0.00023
 651,0.00186931,0.00027220,-0.00108696,-0.00023832,-0.00041089,0.000514
 63,0.01505379,-0.01303797,0.00574992,0.04055722,-0.12906918,-0.0323309
 1,0.04828292,0.51323679,0.00111260,0.00047458,-0.00032675,-0.00525046,
 -0.00289794,0.00197183,0.00040820,0.00129320,-0.00130567,-0.02277202,0
 .02576958,0.00454861,0.03246048,-0.03654744,-0.09648326,0.01965305,-0.
 02511630,0.56483845,0.00525265,0.00776914,-0.00294969,-0.00644338,-0.0
 3393238,0.01555016,-0.00801801,0.00477132,-0.00276584,-0.16015049,-0.0
 3412590,-0.04217792,-0.01875882,0.00176883,-0.01652656,0.00074763,-0.0
 0124428,0.00222209,0.40904760,0.00281127,-0.00224529,0.00188888,-0.034
 66993,-0.02269521,-0.00753190,-0.00429613,-0.00447303,-0.00274520,-0.0
 4282425,-0.11133365,0.01234355,0.00946149,0.00861160,-0.00534962,0.002
 23712,0.00010896,0.00363891,-0.01173097,0.63982407,-0.00113096,0.00409
 449,-0.00108649,0.01584937,-0.00341943,0.00466479,-0.00117199,-0.00004
 433,-0.00380585,-0.04282020,0.01457656,-0.09014795,-0.02435967,-0.0134
 2035,-0.00930458,0.00098697,-0.00024372,-0.00050268,0.05026911,-0.0653
 6531,0.58195255,-0.00184780,-0.00407379,0.00095257,-0.00114010,0.01639
 352,-0.00481025,0.00343209,-0.00377098,0.00275879,-0.06248591,-0.00524
 339,0.02083139,0.00211564,-0.00265257,0.00735684,-0.00073497,0.0004786
 4,-0.00141180,-0.11249398,0.02445210,0.07201742,0.21267966,-0.00050382
 ,0.00103873,-0.00062916,0.00337509,-0.00289608,0.00187848,-0.00240431,
 0.00012848,0.00162435,-0.00310836,0.01661027,0.00773743,0.00017547,0.0
 0014021,0.00065418,-0.00032904,-0.00030994,-0.00066104,0.04614927,-0.1
 1863925,-0.04275995,-0.09514089,0.58912998,0.00082869,0.00099961,0.000
 03391,0.00033305,-0.00366999,0.00020221,-0.00006761,0.00165891,0.00025
 763,0.01530955,0.00678898,0.01428559,0.00082549,0.00209886,-0.00232670
 ,0.00023371,-0.00056134,0.00091396,0.04931250,-0.00937813,-0.13809318,
 -0.11793651,-0.06972114,0.20050080,-0.05619490,-0.03324075,0.00427990,
 -0.00298440,-0.02833695,0.00937962,0.00259362,-0.00016609,0.00192291,-
 0.00468647,-0.00048933,-0.00213052,-0.00053504,0.00022573,-0.00070447,
 -0.00010564,-0.00002686,0.00027940,0.00059936,-0.00124701,0.00070525,-
 0.00019194,0.00012646,0.00006754,0.05634664,-0.04029094,-0.31115857,0.
 08962818,0.00562179,-0.01067076,0.00438425,0.00140835,0.00126303,-0.00
 233484,-0.00280350,0.00047834,0.00050257,0.00029685,0.00036491,-0.0003
 9436,0.00013730,0.00001045,-0.00018215,0.00093115,0.00066563,0.0011137
 6,-0.00089375,0.00011651,0.00015551,0.04187752,0.32875535,0.00495765,0
 .08840052,-0.04266492,0.00037782,0.00280106,-0.00206192,0.00204728,-0.
 00349830,-0.00529747,-0.00232286,-0.00240755,0.00600672,0.00028816,0.0
 0030445,-0.00086621,0.00025709,-0.00014712,-0.00011915,0.00010396,0.00
 246380,0.00175788,-0.00113713,-0.00009922,0.00007944,-0.00657382,-0.09
 502999,0.04363123,-0.24652857,0.11939709,-0.07373744,-0.01602162,0.019
 59811,-0.00896178,-0.00389479,-0.00307980,-0.00144020,0.00094718,0.000
 23741,0.00027639,-0.00068601,-0.00018534,-0.00057260,0.00011332,-0.000
 07630,0.00010744,-0.00028612,0.00019096,0.00003689,0.00013459,-0.00012
 484,0.00003651,0.00596176,-0.00419377,0.00232246,0.25938034,0.12650676
 ,-0.12864729,0.05578807,-0.01112820,0.00717866,-0.00544813,-0.00489974
 ,0.00193344,0.00249493,0.00139333,0.00045900,-0.00071848,-0.00097950,-
 0.00041098,0.00120994,-0.00042366,-0.00036970,0.00057312,-0.00008454,-
 0.00017859,-0.00034637,0.00026920,-0.00006483,-0.00008057,0.02155946,-
 0.00969777,0.00663616,-0.13154405,0.13153657,-0.07521650,0.05505659,-0
 .04650631,-0.00059485,-0.00243372,-0.00342139,-0.00238638,0.00355960,0
 .00981670,0.00182571,0.00156293,-0.00248581,0.00031125,0.00022421,0.00
 035787,-0.00057640,0.00018237,0.00040102,-0.00052523,-0.00118648,-0.00
 068930,0.00076911,-0.00010714,-0.00021018,-0.00611159,0.00240804,-0.00
 229058,0.08045323,-0.05917328,0.04726401,-0.00123848,0.00144288,0.0001
 4998,0.01170979,0.03429317,-0.02202058,-0.10267655,-0.14955684,0.10277
 918,-0.00529127,0.00112859,-0.00316932,0.00016391,0.00123807,-0.000288
 15,0.00004850,0.00008007,-0.00012715,-0.00042608,0.00016937,-0.0001883
 6,-0.00036584,-0.00059950,0.00035816,-0.00094451,-0.00180739,-0.001007
 87,-0.00004561,-0.00046078,0.00096203,0.09799075,-0.00314152,0.0038367
 7,-0.00273350,-0.00733985,-0.02424942,0.01418617,-0.10643359,-0.308002
 29,0.21001277,0.00365074,0.00060135,0.00345170,-0.00050815,-0.00081964
 ,-0.00080338,0.00007406,-0.00008319,0.00036252,-0.00007940,-0.00007538
 ,0.00000244,0.00057512,0.00033005,-0.00034772,-0.00019069,0.00022751,0
 .00050927,-0.00067343,-0.00066182,-0.00089868,0.11430243,0.32929449,0.
 00214942,-0.00201446,-0.00024369,0.00789774,0.01627441,-0.01159900,0.0
 7097212,0.20988105,-0.15153874,-0.00299202,0.00110838,0.00092584,-0.00
 068931,0.00058877,0.00173714,-0.00018957,0.00018142,-0.00054404,-0.000
 18086,-0.00094493,-0.00044105,0.00022767,-0.00029138,-0.00018279,-0.00
 101921,-0.00047791,0.00071263,0.00076735,-0.00038687,-0.00025859,-0.07
 710210,-0.22422478,0.16096379,0.00045864,0.00016353,0.00071273,-0.0013
 9750,-0.00241031,0.00158391,0.00013899,0.00020348,0.00020680,-0.016142
 90,-0.01056976,-0.01287709,-0.11485147,-0.09306560,-0.06066603,0.01112
 140,0.01700936,0.01086040,0.00142778,0.00077511,-0.00493129,-0.0000880
 4,0.00028376,0.00075350,0.00006439,-0.00002296,0.00000147,-0.00001441,
 -0.00051971,0.00090706,0.00010122,0.00006188,-0.00003281,0.13109262,-0
 .00138794,-0.00070704,-0.00058902,0.00212874,0.00281026,0.00162193,0.0
 0003512,0.00005715,0.00019004,0.00962643,0.00926009,0.00902165,-0.0998
 9385,-0.18545780,-0.08970700,-0.01099233,-0.01798904,-0.01070902,0.001
 20178,-0.00122618,0.00174598,0.00012673,-0.00004667,-0.00013329,0.0001
 7785,-0.00021170,-0.00006296,0.00008209,-0.00039504,0.00117109,0.00008
 900,0.00014598,0.00002493,0.09983937,0.20142381,0.00162555,0.00093174,
 0.00039268,-0.00445388,-0.00472670,0.00150961,0.00081121,0.00003137,0.
 00017331,-0.02056518,-0.01077305,-0.01646400,-0.05661980,-0.08240973,-
 0.10319725,-0.00530702,-0.01077825,-0.00506081,0.00153305,0.00148778,-
 0.00459564,-0.00012266,0.00033115,0.00067665,0.00017304,0.00002932,0.0
 0070659,0.00086709,0.00004376,-0.00146320,-0.00004358,0.00003411,-0.00
 015100,0.07148499,0.09269836,0.11544877,0.00070506,0.00054209,0.000441
 99,-0.00246632,-0.00255858,-0.00199425,-0.00001422,0.00094431,-0.00020
 978,0.01171489,0.01371988,-0.01737368,-0.15867541,-0.07102927,0.109929
 61,-0.01406780,-0.00746400,0.01331394,0.00022684,-0.00050047,-0.002055
 64,0.00077577,-0.00004229,0.00023295,0.00010554,0.00001731,0.00026941,
 0.00025457,-0.00002947,-0.00020068,-0.00016739,0.00013313,0.00015249,-
 0.00980230,-0.00539131,0.01077707,0.17154000,0.00012993,-0.00091118,0.
 00091289,0.00002280,0.00086525,0.00208525,0.00024924,-0.00047574,0.000
 43054,-0.00577319,-0.01028592,0.01430022,-0.06540308,-0.08781239,0.063
 84106,0.01776191,0.00908553,-0.01666910,-0.00309558,-0.00028111,-0.000
 57744,0.00082884,0.00002720,-0.00144543,-0.00001326,0.00006862,0.00031
 771,0.00021055,-0.00030844,-0.00049990,0.00002698,-0.00001461,-0.00008
 697,-0.01397273,-0.00762713,0.01503666,0.06708733,0.09851974,0.0005484
 7,0.00061617,0.00063842,-0.00209314,-0.00463299,-0.00301405,-0.0001816
 2,0.00093972,-0.00043541,0.00785884,0.02032240,-0.02290579,0.10316791,
 0.06097068,-0.15351248,0.01054645,0.00347282,-0.00730751,0.00292623,0.
 00244822,0.00043600,-0.00117928,-0.00039508,0.00084234,0.00009538,0.00
 005928,0.00025771,0.00017356,-0.00012115,-0.00015954,-0.00012877,0.000
 05319,0.00014524,-0.00896705,-0.00512851,0.01145785,-0.11340936,-0.075
 82632,0.17254021,0.00014732,0.00000396,-0.00046521,-0.00108630,-0.0002
 0241,0.00017283,0.00041826,-0.00001993,0.00004704,0.00198441,-0.000763
 43,-0.00106836,-0.01457752,-0.00805461,0.01469071,-0.15974039,-0.06847
 784,0.11073893,-0.00055416,-0.00036291,0.00018737,0.00020405,0.0001180
 7,-0.00025137,0.00018779,-0.00013480,-0.00001992,0.00035712,0.00019542
 ,0.00033358,-0.00004419,0.00006217,0.00000194,0.00089257,-0.00004903,-
 0.00061925,-0.00151726,0.00366210,0.00131878,0.17218450,0.00003352,-0.
 00050966,0.00022611,0.00065888,0.00037947,-0.00004129,-0.00041851,0.00
 010089,-0.00011268,-0.00197406,0.00134162,0.00023879,0.01762733,0.0098
 5439,-0.01775765,-0.06929268,-0.08838744,0.06882387,0.00026120,-0.0001
 2320,-0.00004783,-0.00016162,0.00005653,0.00020711,-0.00014072,0.00004
 168,-0.00008564,-0.00014877,-0.00064227,-0.00012617,0.00003151,-0.0000
 4434,0.00002930,-0.00076640,0.00129644,0.00048706,0.00375368,-0.003273
 22,-0.00194551,0.07335719,0.09489134,-0.00006603,-0.00008299,0.0001594
 4,0.00093901,0.00106188,-0.00004445,-0.00029130,-0.00013200,-0.0000032
 4,-0.00081561,-0.00126009,0.00141428,0.00679908,0.00521205,-0.00897107
 ,0.11198846,0.06711449,-0.15794066,-0.00010612,-0.00024295,-0.00000448
 ,-0.00001352,0.00006138,0.00004102,-0.00019514,0.00009991,-0.00005080,
 -0.00018145,-0.00020429,0.00005410,0.00003944,-0.00004021,0.00002026,-
 0.00015442,0.00023278,0.00003682,0.00108697,-0.00211025,0.00057979,-0.
 12492364,-0.07267011,0.16939471,0.00042290,0.00030066,-0.00022359,-0.0
 0186603,-0.00147649,0.00091644,0.00008874,0.00050885,-0.00039226,-0.00
 274411,0.00551800,0.00012453,-0.00870616,0.00456327,-0.01673777,-0.113
 49316,0.05287745,-0.09962366,0.00115950,0.00056741,-0.00005832,-0.0005
 1683,-0.00001548,0.00028635,0.00008194,-0.00000744,0.00005599,0.000106
 64,0.00003570,0.00008124,-0.00002590,0.00005781,-0.00010697,0.00079651
 ,-0.00006114,0.00009153,0.00015302,-0.00082591,0.00008788,0.01203394,-
 0.00858223,0.01655800,0.12101671,-0.00047040,-0.00034357,-0.00007629,0
 .00120136,0.00156148,-0.00065815,0.00007711,-0.00044436,0.00041879,0.0
 0457332,-0.00418140,-0.00047874,0.00857678,-0.00735690,0.01937943,0.05
 254487,-0.08883111,0.07913946,-0.00090465,-0.00129906,-0.00016341,0.00
 072277,0.00018941,-0.00023358,-0.00000018,-0.00003970,0.00000123,0.000
 08573,0.00002147,0.00009315,0.00000196,-0.00003592,0.00011460,-0.00093
 735,0.00030500,0.00019365,-0.00008792,0.00088776,-0.00020298,0.0067474
 9,-0.00568973,0.00895666,-0.06030909,0.09447061,0.00006739,0.00004218,
 0.00012605,0.00056774,-0.00036696,0.00010012,-0.00013085,-0.00010242,0
 .00009853,0.00148210,-0.00180440,0.00083738,0.00607036,-0.00445892,0.0
 0884580,-0.10100869,0.08051430,-0.20136164,0.00030268,-0.00030985,0.00
 014085,-0.00013175,0.00007457,0.00003659,-0.00004624,0.00003161,-0.000
 02238,-0.00011392,-0.00002827,-0.00009523,0.00005637,-0.00009395,0.000
 03635,-0.00055399,0.00059891,0.00048055,-0.00050625,0.00068381,0.00043
 396,-0.01110619,0.00681707,-0.01503034,0.11095122,-0.08786481,0.216461
 46,-0.00016632,-0.00008915,-0.00016178,0.00015979,0.00007305,-0.000254
 69,0.00010038,-0.00006619,0.00008443,0.00149804,-0.00162393,0.00030705
 ,0.01144744,0.01784028,0.01127883,-0.11580196,-0.09818063,-0.06209547,
 -0.00002871,0.00042513,0.00014351,0.00006076,-0.00006241,-0.00006633,0
 .00006705,-0.00005057,-0.00002239,-0.00000387,0.00014218,0.00008616,-0
 .00002244,0.00000700,0.00000861,-0.00250776,0.00374454,0.00163684,0.00
 119175,-0.00086964,-0.00055355,-0.01098039,-0.01426245,-0.01068121,-0.
 00874670,-0.01197040,-0.00603706,0.12405896,0.00025802,0.00025276,0.00
 004966,-0.00071191,-0.00061905,0.00032361,0.00036915,-0.00004399,0.000
 10851,-0.00095481,0.00256866,0.00070089,-0.01225709,-0.01851408,-0.011
 93753,-0.09761892,-0.18466280,-0.08653807,0.00002834,-0.00109911,-0.00
 001234,0.00006321,0.00039562,0.00014876,0.00008995,-0.00004711,0.00006
 734,0.00014267,0.00010802,-0.00010521,-0.00000098,0.00001029,-0.000063
 95,0.00387507,-0.00210505,-0.00167603,0.00015135,0.00115979,0.00047504
 ,-0.00624709,-0.00935748,-0.00607190,0.00703521,0.01049951,0.00618453,
 0.10513875,0.20118118,-0.00000764,0.00008761,0.00003406,0.00030430,0.0
 0049999,-0.00013200,0.00001954,-0.00008951,0.00006208,0.00067985,0.000
 73202,0.00073352,-0.00692740,-0.00833036,-0.00694071,-0.06082618,-0.08
 717026,-0.10181390,-0.00038394,-0.00056964,0.00038725,0.00009872,0.000
 15648,-0.00003735,-0.00006946,0.00004555,0.00005968,-0.00001447,-0.000
 17440,-0.00013464,0.00001453,-0.00000249,0.00001211,0.00202319,-0.0013
 7244,0.00026326,-0.00036389,0.00012748,0.00008780,0.01093456,0.0159558
 0,0.01034958,-0.01198231,-0.01857193,-0.01104288,0.06627015,0.09842347
 ,0.10802707,-0.00074007,-0.00066871,0.00040278,-0.00067533,0.00418579,
 -0.00206610,0.00124895,-0.00032991,0.00068071,-0.01838970,0.00375743,-
 0.03148621,-0.00202444,-0.00583046,-0.00160312,0.00025431,-0.00014289,
 -0.00006108,-0.05779624,0.00981084,-0.05528625,-0.00304803,0.00259164,
 0.03414110,0.00002999,-0.00010301,-0.00009632,0.00009808,0.00000730,0.
 00005560,0.00004998,-0.00005692,0.00020350,-0.00150585,0.00060289,-0.0
 0134360,0.00007635,0.00013303,0.00014801,-0.00005792,0.00000211,0.0000
 2650,-0.00003482,0.00005575,0.00005195,0.00001016,0.00016702,0.0001017
 5,0.08007189,-0.00009844,-0.00021197,0.00023715,-0.00011405,0.00140510
 ,-0.00188209,-0.00066349,-0.00352094,0.00063500,-0.00895381,0.00423449
 ,-0.01312089,-0.00129630,-0.00128157,0.00043897,-0.00011761,0.00015247
 ,-0.00009827,0.01317239,-0.06587379,0.05568966,0.00355189,0.00479426,-
 0.01929859,0.00001564,0.00000411,-0.00002850,0.00007483,0.00001873,0.0
 0005641,-0.00026577,-0.00028184,0.00011127,-0.00005199,0.00030776,-0.0
 0061651,0.00017421,-0.00003270,-0.00034061,0.00007729,0.00004141,0.000
 01847,-0.00000192,0.00004115,0.00003798,-0.00017506,0.00005637,0.00013
 584,-0.01198377,0.06226636,0.00025126,-0.00047251,0.00024149,-0.001353
 11,0.00246676,-0.00131836,0.00207748,0.00181565,0.00135021,-0.00792785
 ,0.00271723,-0.00519728,-0.00025124,-0.00184643,0.00050167,0.00002334,
 -0.00015662,-0.00012359,-0.05878649,0.04390141,-0.27916910,0.01075740,
 -0.00316252,-0.02544567,-0.00002654,-0.00007933,0.00002939,0.00010815,
 -0.00000929,-0.00008372,0.00032896,0.00028763,0.00023296,-0.00031266,0
 .00032139,-0.00021805,0.00021878,-0.00011138,0.00020339,-0.00006585,0.
 00001510,0.00002318,-0.00002061,0.00007001,0.00003841,0.00003504,0.000
 06044,0.00003084,0.05616935,-0.04886158,0.31067278,-0.00023525,-0.0015
 6490,0.00084689,-0.00336193,-0.00041174,-0.00551245,0.00054001,0.00012
 371,0.00012708,-0.00920848,-0.03614265,0.00705746,0.00065475,-0.001098
 50,0.00150509,-0.00037380,-0.00027793,-0.00008001,-0.04538433,0.006510
 17,-0.00595360,-0.00780084,0.03044415,0.00191181,-0.00040971,0.0000417
 4,0.00056374,0.00002862,-0.00006401,-0.00025117,0.00000543,0.00007160,
 0.00000900,0.00024594,0.00012793,0.00006732,-0.00015873,-0.00001803,-0
 .00055204,0.00020381,0.00000260,0.00001911,0.00016262,0.00022429,0.000
 06293,-0.00034406,0.00056537,0.00018505,0.00185884,0.00761101,-0.00156
 135,0.06610690,-0.00010600,-0.00066177,0.00012946,-0.00051858,0.000721
 29,-0.00207537,-0.00038827,0.00025578,-0.00000266,-0.00652115,-0.01406
 162,0.00471942,0.00114425,-0.00009044,0.00250123,-0.00032914,0.0002421
 5,-0.00054104,0.00433858,-0.29870934,0.04523378,0.00902949,-0.01679899
 ,-0.00252940,-0.00019446,0.00000585,0.00006563,-0.00006338,0.00002852,
 -0.00003054,-0.00005937,0.00005884,-0.00009329,0.00023644,0.00011365,-
 0.00020288,0.00042255,0.00049328,-0.00084352,0.00011842,-0.00000657,0.
 00002064,-0.00013883,0.00020039,0.00005728,-0.00003790,0.00024085,0.00
 010673,-0.00033997,-0.00350040,0.00177930,-0.00845298,0.33025478,0.000
 10204,-0.00045271,0.00033789,-0.00277431,0.00075157,-0.00101055,0.0011
 2381,0.00131345,0.00032922,-0.00305894,-0.00878698,0.00314135,-0.00043
 411,-0.00110598,-0.00020727,0.00002596,0.00019060,0.00029686,-0.004258
 26,0.05739832,-0.06421958,0.00773837,-0.02762022,0.00260044,-0.0000719
 9,-0.00006846,0.00005164,0.00004063,-0.00000225,0.00001583,0.00010160,
 -0.00001257,0.00031198,0.00012074,0.00010044,-0.00003758,-0.00044057,-
 0.00046701,-0.00031763,0.00005788,-0.00000235,-0.00001961,-0.00000964,
 -0.00015836,-0.00009392,-0.00000236,-0.00017101,0.00005427,0.00025517,
 0.02791874,-0.00251346,-0.00248621,-0.04618288,0.06345672,0.00091647,0
 .00001018,0.00025562,-0.00430191,0.00089645,0.00042307,0.00054692,0.00
 034142,-0.00103293,0.00183152,-0.00130164,-0.00174582,-0.00058328,0.00
 055565,-0.00083350,0.00013239,-0.00000581,0.00026512,-0.00812103,0.038
 22070,-0.00223963,-0.02868830,0.01906704,0.01369094,0.00001451,-0.0000
 2389,-0.00006469,0.00009878,0.00002429,0.00007785,0.00117866,-0.000572
 38,-0.00007698,-0.00002984,-0.00000689,0.00000728,0.00012565,-0.000141
 28,0.00019331,-0.00005565,0.00001943,-0.00002812,0.00011120,-0.0001314
 6,0.00002217,0.00000787,-0.00009330,-0.00005634,0.00057387,-0.00095505
 ,0.00033594,-0.00252980,0.00186028,0.00397019,0.03877196,0.00015118,-0
 .00076740,0.00024382,-0.00082930,0.00384516,-0.00153330,0.00063412,-0.
 00210237,0.00097486,-0.00282554,0.00027842,0.00050733,0.00008749,-0.00
 038793,0.00030516,-0.00011371,-0.00003870,-0.00011487,0.00480572,-0.02
 095807,0.00394380,0.05544548,-0.47420147,0.09534141,-0.00002630,-0.000
 17638,-0.00020788,0.00007023,0.00009231,0.00024670,-0.00005340,-0.0002
 3683,0.00027038,-0.00013119,0.00004550,-0.00012181,0.00015746,-0.00008
 472,0.00007914,-0.00003006,0.00003015,0.00003653,-0.00004583,0.0000449
 7,-0.00001267,0.00001738,-0.00002439,0.00001008,-0.00185817,0.00138101
 ,0.00126473,0.00230817,0.00121374,-0.00264233,-0.05776374,0.49204701,-
 0.00074214,0.00057759,-0.00061888,0.00177917,-0.00281326,0.00299021,-0
 .00144538,0.00038216,-0.00132238,0.00109637,0.00204951,-0.00078192,-0.
 00002995,0.00023921,-0.00009870,-0.00011549,-0.00009258,-0.00008107,0.
 00644113,-0.03194685,0.00272057,0.00323460,0.13292883,-0.05417472,0.00
 004593,0.00010905,0.00008053,-0.00016783,-0.00005262,-0.00011104,-0.00
 071437,0.00025747,-0.00013939,-0.00015945,-0.00002527,0.00004144,0.000
 13090,0.00005817,0.00002971,0.00003619,-0.00001099,-0.00000853,0.00000
 197,0.00004127,0.00001032,0.00002423,0.00003375,-0.00000004,-0.0002937
 4,-0.00103247,0.00074491,0.00404136,-0.00211188,-0.00217659,-0.0131634
 9,-0.09859109,0.05289557\\-0.00000331,-0.00001419,0.00000116,-0.000004
 36,-0.00000752,0.00000144,-0.00000066,0.00000230,-0.00000266,-0.000005
 48,0.00001553,-0.00000569,-0.00000253,-0.00001363,-0.00000992,0.000001
 51,0.00000023,-0.00000182,0.00002146,0.00000894,-0.00000690,-0.0000111
 2,-0.00000484,0.00001072,-0.00000137,0.00000139,-0.00000328,0.00000188
 ,0.00000945,0.00000241,0.00000140,0.00000078,0.00000563,-0.00000008,0.
 00000055,-0.00000190,0.00000028,0.00000352,0.00000508,0.00000095,-0.00
 000135,0.00000302,-0.00000008,-0.00000183,-0.00000049,-0.00000054,0.00
 000025,-0.00000025,-0.00000004,-0.00000365,-0.00000047,-0.00000076,0.0
 0000697,0.00000461,0.00000286,-0.00000292,-0.00000070\\\@


 NATURE REVEALS EVERY SECRET ONCE.
                    - RALPH WALDO EMERSON
 Job cpu time:       0 days  1 hours 44 minutes 51.1 seconds.
 Elapsed time:       0 days  0 hours 26 minutes 52.9 seconds.
 File lengths (MBytes):  RWF=    119 Int=      0 D2E=      0 Chk=      7 Scr=      1
 Normal termination of Gaussian 16 at Thu Aug  4 11:32:31 2022.
### All Done ###
