### Starting Gaussian ###
 Entering Gaussian System, Link 0=g16
 Initial command:
 /cluster/software/gaussian/gaussian-16-A.03/avx2/g16/l1.exe "/local/scratch/ks29c/Gau-15169.inp" -scrdir="/local/scratch/ks29c/"
 Entering Link 1 = /cluster/software/gaussian/gaussian-16-A.03/avx2/g16/l1.exe PID=     15170.
  
 Copyright (c) 1988,1990,1992,1993,1995,1998,2003,2009,2016,
            Gaussian, Inc.  All Rights Reserved.
  
 This is part of the Gaussian(R) 16 program.  It is based on
 the Gaussian(R) 09 system (copyright 2009, Gaussian, Inc.),
 the Gaussian(R) 03 system (copyright 2003, Gaussian, Inc.),
 the Gaussian(R) 98 system (copyright 1998, Gaussian, Inc.),
 the Gaussian(R) 94 system (copyright 1995, Gaussian, Inc.),
 the Gaussian 92(TM) system (copyright 1992, Gaussian, Inc.),
 the Gaussian 90(TM) system (copyright 1990, Gaussian, Inc.),
 the Gaussian 88(TM) system (copyright 1988, Gaussian, Inc.),
 the Gaussian 86(TM) system (copyright 1986, Carnegie Mellon
 University), and the Gaussian 82(TM) system (copyright 1983,
 Carnegie Mellon University). Gaussian is a federally registered
 trademark of Gaussian, Inc.
  
 This software contains proprietary and confidential information,
 including trade secrets, belonging to Gaussian, Inc.
  
 This software is provided under written license and may be
 used, copied, transmitted, or stored only in accord with that
 written license.
  
 The following legend is applicable only to US Government
 contracts under FAR:
  
                    RESTRICTED RIGHTS LEGEND
  
 Use, reproduction and disclosure by the US Government is
 subject to restrictions as set forth in subparagraphs (a)
 and (c) of the Commercial Computer Software - Restricted
 Rights clause in FAR 52.227-19.
  
 Gaussian, Inc.
 340 Quinnipiac St., Bldg. 40, Wallingford CT 06492
  
  
 ---------------------------------------------------------------
 Warning -- This program may not be used in any manner that
 competes with the business of Gaussian, Inc. or will provide
 assistance to any competitor of Gaussian, Inc.  The licensee
 of this program is prohibited from giving any competitor of
 Gaussian, Inc. access to this program.  By using this program,
 the user acknowledges that Gaussian, Inc. is engaged in the
 business of creating and licensing software in the field of
 computational chemistry and represents and warrants to the
 licensee that it is not a competitor of Gaussian, Inc. and that
 it will not use this program in any manner prohibited above.
 ---------------------------------------------------------------
  

 Cite this work as:
 Gaussian 16, Revision A.03,
 M. J. Frisch, G. W. Trucks, H. B. Schlegel, G. E. Scuseria, 
 M. A. Robb, J. R. Cheeseman, G. Scalmani, V. Barone, 
 G. A. Petersson, H. Nakatsuji, X. Li, M. Caricato, A. V. Marenich, 
 J. Bloino, B. G. Janesko, R. Gomperts, B. Mennucci, H. P. Hratchian, 
 J. V. Ortiz, A. F. Izmaylov, J. L. Sonnenberg, D. Williams-Young, 
 F. Ding, F. Lipparini, F. Egidi, J. Goings, B. Peng, A. Petrone, 
 T. Henderson, D. Ranasinghe, V. G. Zakrzewski, J. Gao, N. Rega, 
 G. Zheng, W. Liang, M. Hada, M. Ehara, K. Toyota, R. Fukuda, 
 J. Hasegawa, M. Ishida, T. Nakajima, Y. Honda, O. Kitao, H. Nakai, 
 T. Vreven, K. Throssell, J. A. Montgomery, Jr., J. E. Peralta, 
 F. Ogliaro, M. J. Bearpark, J. J. Heyd, E. N. Brothers, K. N. Kudin, 
 V. N. Staroverov, T. A. Keith, R. Kobayashi, J. Normand, 
 K. Raghavachari, A. P. Rendell, J. C. Burant, S. S. Iyengar, 
 J. Tomasi, M. Cossi, J. M. Millam, M. Klene, C. Adamo, R. Cammi, 
 J. W. Ochterski, R. L. Martin, K. Morokuma, O. Farkas, 
 J. B. Foresman, and D. J. Fox, Gaussian, Inc., Wallingford CT, 2016.
 
 ******************************************
 Gaussian 16:  ES64L-G16RevA.03 25-Dec-2016
                 3-Jul-2022 
 ******************************************
 %chk=COC1NC12OC2CtN.chk
 %NProcShared=20
 Will use up to   20 processors via shared memory.
 -----------------------------
 # opt freq b3lyp/6-31g(2df,p)
 -----------------------------
 1/18=20,19=15,26=3,38=1/1,3;
 2/9=110,12=2,17=6,18=5,40=1/2;
 3/5=1,6=6,7=104,11=2,25=1,30=1,71=1,74=-5/1,2,3;
 4//1;
 5/5=2,38=5/2;
 6/7=2,8=2,9=2,10=2,28=1/1;
 7//1,2,3,16;
 1/18=20,19=15,26=3/3(2);
 2/9=110/2;
 99//99;
 2/9=110/2;
 3/5=1,6=6,7=104,11=2,25=1,30=1,71=1,74=-5/1,2,3;
 4/5=5,16=3,69=1/1;
 5/5=2,38=5/2;
 7//1,2,3,16;
 1/18=20,19=15,26=3/3(-5);
 2/9=110/2;
 6/7=2,8=2,9=2,10=2,19=2,28=1/1;
 99/9=1/99;
 -------------------
 Title Card Required
 -------------------
 Symbolic Z-matrix:
 Charge =  0 Multiplicity = 1
 C                     0.87856  -0.03113  -0.0209 
 O                     2.27449   0.03559   0.12698 
 C                     2.85767   1.28922  -0.23964 
 N                     3.63641   1.72529   1.0121 
 C                     2.74207   2.58713   0.39957 
 O                     3.37431   3.72552  -0.21984 
 C                     2.13169   3.8938    0.48275 
 C                     2.18678   4.61327   1.71171 
 N                     2.12216   5.21373   2.70933 
 H                     0.57827  -1.07865   0.07009 
 H                     0.58423   0.34191  -1.00357 
 H                     0.41509   0.54977   0.77749 
 H                     3.16536   1.39862  -1.27736 
 H                     4.61657   1.69942   0.76386 
 H                     1.26099   4.09971  -0.12306 
 

 GradGradGradGradGradGradGradGradGradGradGradGradGradGradGradGradGradGrad
 Berny optimization.
 Initialization pass.
                           ----------------------------
                           !    Initial Parameters    !
                           ! (Angstroms and Degrees)  !
 --------------------------                            --------------------------
 ! Name  Definition              Value          Derivative Info.                !
 --------------------------------------------------------------------------------
 ! R1    R(1,2)                  1.4053         estimate D2E/DX2                !
 ! R2    R(1,10)                 1.0935         estimate D2E/DX2                !
 ! R3    R(1,11)                 1.0915         estimate D2E/DX2                !
 ! R4    R(1,12)                 1.0907         estimate D2E/DX2                !
 ! R5    R(2,3)                  1.4304         estimate D2E/DX2                !
 ! R6    R(3,4)                  1.5374         estimate D2E/DX2                !
 ! R7    R(3,5)                  1.4514         estimate D2E/DX2                !
 ! R8    R(3,13)                 1.0879         estimate D2E/DX2                !
 ! R9    R(4,5)                  1.3848         estimate D2E/DX2                !
 ! R10   R(4,14)                 1.0114         estimate D2E/DX2                !
 ! R11   R(5,6)                  1.442          estimate D2E/DX2                !
 ! R12   R(5,7)                  1.4446         estimate D2E/DX2                !
 ! R13   R(6,7)                  1.4374         estimate D2E/DX2                !
 ! R14   R(7,8)                  1.4251         estimate D2E/DX2                !
 ! R15   R(7,15)                 1.0805         estimate D2E/DX2                !
 ! R16   R(8,9)                  1.1662         estimate D2E/DX2                !
 ! A1    A(2,1,10)             108.0291         estimate D2E/DX2                !
 ! A2    A(2,1,11)             110.2646         estimate D2E/DX2                !
 ! A3    A(2,1,12)             108.6489         estimate D2E/DX2                !
 ! A4    A(10,1,11)            109.1626         estimate D2E/DX2                !
 ! A5    A(10,1,12)            109.4261         estimate D2E/DX2                !
 ! A6    A(11,1,12)            111.2469         estimate D2E/DX2                !
 ! A7    A(1,2,3)              114.8101         estimate D2E/DX2                !
 ! A8    A(2,3,4)              104.2661         estimate D2E/DX2                !
 ! A9    A(2,3,5)              129.6712         estimate D2E/DX2                !
 ! A10   A(2,3,13)             116.6107         estimate D2E/DX2                !
 ! A11   A(4,3,13)             127.2201         estimate D2E/DX2                !
 ! A12   A(5,3,13)             110.6527         estimate D2E/DX2                !
 ! A13   A(3,4,14)             106.4866         estimate D2E/DX2                !
 ! A14   A(5,4,14)             122.2215         estimate D2E/DX2                !
 ! A15   A(3,5,6)              118.8079         estimate D2E/DX2                !
 ! A16   A(3,5,7)              150.2137         estimate D2E/DX2                !
 ! A17   A(4,5,6)              113.4626         estimate D2E/DX2                !
 ! A18   A(4,5,7)              144.1267         estimate D2E/DX2                !
 ! A19   A(5,7,8)              119.338          estimate D2E/DX2                !
 ! A20   A(5,7,15)             118.7223         estimate D2E/DX2                !
 ! A21   A(6,7,8)              116.5642         estimate D2E/DX2                !
 ! A22   A(6,7,15)             116.4162         estimate D2E/DX2                !
 ! A23   A(8,7,15)             114.7356         estimate D2E/DX2                !
 ! A24   L(7,8,9,14,-1)        184.5776         estimate D2E/DX2                !
 ! A25   L(7,8,9,14,-2)        183.6481         estimate D2E/DX2                !
 ! D1    D(10,1,2,3)           167.5905         estimate D2E/DX2                !
 ! D2    D(11,1,2,3)            48.3716         estimate D2E/DX2                !
 ! D3    D(12,1,2,3)           -73.79           estimate D2E/DX2                !
 ! D4    D(1,2,3,4)            124.5497         estimate D2E/DX2                !
 ! D5    D(1,2,3,5)             68.313          estimate D2E/DX2                !
 ! D6    D(1,2,3,13)           -89.8154         estimate D2E/DX2                !
 ! D7    D(2,3,4,14)           113.1698         estimate D2E/DX2                !
 ! D8    D(13,3,4,14)          -27.5025         estimate D2E/DX2                !
 ! D9    D(2,3,5,6)           -176.3869         estimate D2E/DX2                !
 ! D10   D(2,3,5,7)            -97.7657         estimate D2E/DX2                !
 ! D11   D(13,3,5,6)           -17.2381         estimate D2E/DX2                !
 ! D12   D(13,3,5,7)            61.3831         estimate D2E/DX2                !
 ! D13   D(14,4,5,6)           -21.4255         estimate D2E/DX2                !
 ! D14   D(14,4,5,7)           -91.6959         estimate D2E/DX2                !
 ! D15   D(3,5,7,8)            158.5064         estimate D2E/DX2                !
 ! D16   D(3,5,7,15)             9.7097         estimate D2E/DX2                !
 ! D17   D(4,5,7,8)            -16.7247         estimate D2E/DX2                !
 ! D18   D(4,5,7,15)          -165.5213         estimate D2E/DX2                !
 --------------------------------------------------------------------------------
 Trust Radius=3.00D-01 FncErr=1.00D-07 GrdErr=1.00D-06 EigMax=2.50D+02 EigMin=1.00D-04
 Number of steps in this run=     69 maximum allowed number of steps=    100.
 GradGradGradGradGradGradGradGradGradGradGradGradGradGradGradGradGradGrad

                          Input orientation:                          
 ---------------------------------------------------------------------
 Center     Atomic      Atomic             Coordinates (Angstroms)
 Number     Number       Type             X           Y           Z
 ---------------------------------------------------------------------
      1          6           0        0.878560   -0.031130   -0.020900
      2          8           0        2.274490    0.035590    0.126980
      3          6           0        2.857670    1.289220   -0.239640
      4          7           0        3.636410    1.725290    1.012100
      5          6           0        2.742070    2.587130    0.399570
      6          8           0        3.374310    3.725520   -0.219840
      7          6           0        2.131690    3.893800    0.482750
      8          6           0        2.186780    4.613270    1.711710
      9          7           0        2.122160    5.213730    2.709330
     10          1           0        0.578270   -1.078650    0.070090
     11          1           0        0.584230    0.341910   -1.003570
     12          1           0        0.415090    0.549770    0.777490
     13          1           0        3.165360    1.398620   -1.277360
     14          1           0        4.616570    1.699420    0.763860
     15          1           0        1.260990    4.099710   -0.123060
 ---------------------------------------------------------------------
                    Distance matrix (angstroms):
                    1          2          3          4          5
     1  C    0.000000
     2  O    1.405326   0.000000
     3  C    2.389152   1.430419   0.000000
     4  N    3.428970   2.343790   1.537350   0.000000
     5  C    3.241103   2.608312   1.451387   1.384848   0.000000
     6  O    4.514506   3.865937   2.490555   2.363745   1.441988
     7  C    4.150792   3.877209   2.798702   2.691994   1.444600
     8  C    5.126776   4.845020   3.912438   3.306253   2.476954
     9  N    6.042289   5.788339   4.963787   4.164464   3.552226
    10  H    1.093504   2.030254   3.301273   4.254607   4.269488
    11  H    1.091526   2.056442   2.578665   3.910559   3.415566
    12  H    1.090723   2.035906   2.747278   3.437120   3.115846
    13  H    2.975287   2.150272   1.087890   2.360133   2.098529
    14  H    4.193253   2.942666   2.066157   1.011438   2.105822
    15  H    4.149762   4.196043   3.234476   3.545290   2.180513
                    6          7          8          9         10
     6  O    0.000000
     7  C    1.437378   0.000000
     8  C    2.434998   1.425137   0.000000
     9  N    3.516061   2.588429   1.166179   0.000000
    10  H    5.566143   5.225769   6.138418   6.995944   0.000000
    11  H    4.455064   4.149663   5.308995   6.315496   1.780666
    12  H    4.453879   3.770428   4.530307   5.329035   1.782917
    13  H    2.564463   3.223722   4.497347   5.615784   3.826947
    14  H    2.572150   3.327004   3.910604   4.728352   4.950440
    15  H    2.148373   1.080520   2.118304   3.163082   5.226741
                   11         12         13         14         15
    11  H    0.000000
    12  H    1.801108   0.000000
    13  H    2.802468   3.536515   0.000000
    14  H    4.607213   4.355952   2.522513   0.000000
    15  H    3.918464   3.758804   3.500703   4.219945   0.000000
 Stoichiometry    C5H6N2O2
 Framework group  C1[X(C5H6N2O2)]
 Deg. of freedom    39
 Full point group                 C1      NOp   1
 Largest Abelian subgroup         C1      NOp   1
 Largest concise Abelian subgroup C1      NOp   1
                         Standard orientation:                         
 ---------------------------------------------------------------------
 Center     Atomic      Atomic             Coordinates (Angstroms)
 Number     Number       Type             X           Y           Z
 ---------------------------------------------------------------------
      1          6           0       -2.667733    1.272174   -0.273281
      2          8           0       -2.398281    0.074103    0.410065
      3          6           0       -1.292295   -0.673915   -0.103122
      4          7           0       -0.365635   -0.860080    1.109350
      5          6           0        0.125044   -0.361859   -0.085980
      6          8           0        1.041651   -1.256850   -0.747910
      7          6           0        1.302696    0.156615   -0.742630
      8          6           0        2.404521    0.598283    0.045994
      9          7           0        3.302007    1.054516    0.634503
     10          1           0       -3.645533    1.636045    0.054219
     11          1           0       -2.693409    1.095650   -1.350133
     12          1           0       -1.902049    2.003248   -0.010728
     13          1           0       -1.515277   -1.403129   -0.879028
     14          1           0       -0.366071   -1.848954    1.321798
     15          1           0        1.187373    0.670282   -1.686224
 ---------------------------------------------------------------------
 Rotational constants (GHZ):           3.4771760           0.9424524           0.8663927
 Standard basis: 6-31G(2df,p) (6D, 7F)
 There are   309 symmetry adapted cartesian basis functions of A   symmetry.
 There are   282 symmetry adapted basis functions of A   symmetry.
   282 basis functions,   438 primitive gaussians,   309 cartesian basis functions
    33 alpha electrons       33 beta electrons
       nuclear repulsion energy       421.7794150663 Hartrees.
 NAtoms=   15 NActive=   15 NUniq=   15 SFac= 1.00D+00 NAtFMM=   60 NAOKFM=F Big=F
 Integral buffers will be    131072 words long.
 Raffenetti 2 integral format.
 Two-electron integral symmetry is turned on.
 One-electron integrals computed using PRISM.
 PrsmSu:  requested number of processors reduced to:  13 ShMem   1 Linda.
 NBasis=   282 RedAO= T EigKep=  1.39D-04  NBF=   282
 NBsUse=   282 1.00D-06 EigRej= -1.00D+00 NBFU=   282
 ExpMin= 1.61D-01 ExpMax= 5.48D+03 ExpMxC= 8.25D+02 IAcc=3 IRadAn=         5 AccDes= 0.00D+00
 Harris functional with IExCor=  402 and IRadAn=       5 diagonalized for initial guess.
 HarFok:  IExCor=  402 AccDes= 0.00D+00 IRadAn=         5 IDoV= 1 UseB2=F ITyADJ=14
 ICtDFT=  3500011 ScaDFX=  1.000000  1.000000  1.000000  1.000000
 FoFCou: FMM=F IPFlag=           0 FMFlag=      100000 FMFlg1=           0
         NFxFlg=           0 DoJE=T BraDBF=F KetDBF=T FulRan=T
         wScrn=  0.000000 ICntrl=       500 IOpCl=  0 I1Cent=   200000004 NGrid=           0
         NMat0=    1 NMatS0=      1 NMatT0=    0 NMatD0=    1 NMtDS0=    0 NMtDT0=    0
 Petite list used in FoFCou.
 Requested convergence on RMS density matrix=1.00D-08 within 128 cycles.
 Requested convergence on MAX density matrix=1.00D-06.
 Requested convergence on             energy=1.00D-06.
 No special actions if energy rises.
 Integral accuracy reduced to 1.0D-05 until final iterations.
 Initial convergence to 1.0D-05 achieved.  Increase integral accuracy.
 SCF Done:  E(RB3LYP) =  -453.937755646     A.U. after   14 cycles
            NFock= 14  Conv=0.69D-08     -V/T= 2.0066

 **********************************************************************

            Population analysis using the SCF density.

 **********************************************************************

 Orbital symmetries:
       Occupied  (A) (A) (A) (A) (A) (A) (A) (A) (A) (A) (A) (A)
                 (A) (A) (A) (A) (A) (A) (A) (A) (A) (A) (A) (A)
                 (A) (A) (A) (A) (A) (A) (A) (A) (A)
       Virtual   (A) (A) (A) (A) (A) (A) (A) (A) (A) (A) (A) (A)
                 (A) (A) (A) (A) (A) (A) (A) (A) (A) (A) (A) (A)
                 (A) (A) (A) (A) (A) (A) (A) (A) (A) (A) (A) (A)
                 (A) (A) (A) (A) (A) (A) (A) (A) (A) (A) (A) (A)
                 (A) (A) (A) (A) (A) (A) (A) (A) (A) (A) (A) (A)
                 (A) (A) (A) (A) (A) (A) (A) (A) (A) (A) (A) (A)
                 (A) (A) (A) (A) (A) (A) (A) (A) (A) (A) (A) (A)
                 (A) (A) (A) (A) (A) (A) (A) (A) (A) (A) (A) (A)
                 (A) (A) (A) (A) (A) (A) (A) (A) (A) (A) (A) (A)
                 (A) (A) (A) (A) (A) (A) (A) (A) (A) (A) (A) (A)
                 (A) (A) (A) (A) (A) (A) (A) (A) (A) (A) (A) (A)
                 (A) (A) (A) (A) (A) (A) (A) (A) (A) (A) (A) (A)
                 (A) (A) (A) (A) (A) (A) (A) (A) (A) (A) (A) (A)
                 (A) (A) (A) (A) (A) (A) (A) (A) (A) (A) (A) (A)
                 (A) (A) (A) (A) (A) (A) (A) (A) (A) (A) (A) (A)
                 (A) (A) (A) (A) (A) (A) (A) (A) (A) (A) (A) (A)
                 (A) (A) (A) (A) (A) (A) (A) (A) (A) (A) (A) (A)
                 (A) (A) (A) (A) (A) (A) (A) (A) (A) (A) (A) (A)
                 (A) (A) (A) (A) (A) (A) (A) (A) (A) (A) (A) (A)
                 (A) (A) (A) (A) (A) (A) (A) (A) (A) (A) (A) (A)
                 (A) (A) (A) (A) (A) (A) (A) (A) (A)
 The electronic state is 1-A.
 Alpha  occ. eigenvalues --  -19.18804 -19.16198 -14.35730 -14.35209 -10.31115
 Alpha  occ. eigenvalues --  -10.30974 -10.29280 -10.23835 -10.23666  -1.12382
 Alpha  occ. eigenvalues --   -1.05564  -0.97005  -0.91495  -0.75967  -0.71735
 Alpha  occ. eigenvalues --   -0.68097  -0.61941  -0.58293  -0.55718  -0.53013
 Alpha  occ. eigenvalues --   -0.46984  -0.46414  -0.45797  -0.41925  -0.41294
 Alpha  occ. eigenvalues --   -0.37894  -0.36141  -0.34980  -0.34269  -0.32782
 Alpha  occ. eigenvalues --   -0.31294  -0.29096  -0.25845
 Alpha virt. eigenvalues --   -0.02206   0.00553   0.02674   0.06497   0.10043
 Alpha virt. eigenvalues --    0.11142   0.11391   0.13907   0.14851   0.15480
 Alpha virt. eigenvalues --    0.16010   0.16881   0.18451   0.21292   0.23295
 Alpha virt. eigenvalues --    0.27873   0.32312   0.35130   0.38407   0.41887
 Alpha virt. eigenvalues --    0.43303   0.44945   0.45985   0.47781   0.49497
 Alpha virt. eigenvalues --    0.50938   0.51536   0.53397   0.55515   0.58881
 Alpha virt. eigenvalues --    0.59802   0.60998   0.62707   0.63403   0.65910
 Alpha virt. eigenvalues --    0.67919   0.68879   0.69234   0.71227   0.72066
 Alpha virt. eigenvalues --    0.73819   0.74696   0.76219   0.77446   0.78310
 Alpha virt. eigenvalues --    0.80023   0.80653   0.81134   0.82004   0.83995
 Alpha virt. eigenvalues --    0.85904   0.86282   0.88077   0.90505   0.93511
 Alpha virt. eigenvalues --    0.94806   0.96802   0.99269   0.99784   1.04936
 Alpha virt. eigenvalues --    1.09400   1.09533   1.13349   1.15046   1.18626
 Alpha virt. eigenvalues --    1.21475   1.23363   1.24107   1.24403   1.27825
 Alpha virt. eigenvalues --    1.30758   1.31787   1.33738   1.36900   1.39475
 Alpha virt. eigenvalues --    1.40056   1.41640   1.45832   1.46770   1.50979
 Alpha virt. eigenvalues --    1.52470   1.53307   1.56467   1.57812   1.58790
 Alpha virt. eigenvalues --    1.61409   1.65670   1.68370   1.71984   1.74390
 Alpha virt. eigenvalues --    1.75677   1.78023   1.80825   1.82672   1.84084
 Alpha virt. eigenvalues --    1.86588   1.88579   1.91937   1.93655   1.99952
 Alpha virt. eigenvalues --    2.01408   2.08644   2.19860   2.22825   2.26747
 Alpha virt. eigenvalues --    2.31423   2.33379   2.35637   2.38478   2.41286
 Alpha virt. eigenvalues --    2.44576   2.51052   2.53834   2.62891   2.67630
 Alpha virt. eigenvalues --    2.70771   2.72053   2.73519   2.75778   2.76676
 Alpha virt. eigenvalues --    2.77593   2.80734   2.85147   2.87512   2.87898
 Alpha virt. eigenvalues --    2.90676   2.91970   2.93690   2.97006   2.97682
 Alpha virt. eigenvalues --    3.00764   3.02145   3.06367   3.13458   3.13641
 Alpha virt. eigenvalues --    3.17000   3.21441   3.22071   3.27753   3.28450
 Alpha virt. eigenvalues --    3.33599   3.34543   3.35700   3.40134   3.43477
 Alpha virt. eigenvalues --    3.47161   3.48080   3.49517   3.53088   3.55880
 Alpha virt. eigenvalues --    3.59474   3.65400   3.65863   3.67318   3.67814
 Alpha virt. eigenvalues --    3.69930   3.72581   3.74710   3.75620   3.79881
 Alpha virt. eigenvalues --    3.86512   3.89540   3.94585   3.99505   4.01006
 Alpha virt. eigenvalues --    4.06715   4.08905   4.11172   4.15021   4.17026
 Alpha virt. eigenvalues --    4.19660   4.21319   4.23091   4.25476   4.28116
 Alpha virt. eigenvalues --    4.30048   4.30606   4.32825   4.33585   4.34486
 Alpha virt. eigenvalues --    4.35880   4.39036   4.40271   4.42140   4.42947
 Alpha virt. eigenvalues --    4.44233   4.45941   4.48239   4.52007   4.52924
 Alpha virt. eigenvalues --    4.55585   4.57435   4.57732   4.61550   4.63507
 Alpha virt. eigenvalues --    4.65541   4.68910   4.71341   4.72524   4.74383
 Alpha virt. eigenvalues --    4.77308   4.78510   4.80336   4.84757   4.87919
 Alpha virt. eigenvalues --    4.90111   4.92331   4.95631   5.01216   5.04994
 Alpha virt. eigenvalues --    5.13148   5.18568   5.20134   5.23844   5.30422
 Alpha virt. eigenvalues --    5.32704   5.33206   5.36306   5.38000   5.44020
 Alpha virt. eigenvalues --    5.45616   5.52428   5.59920   5.71593   5.75470
 Alpha virt. eigenvalues --    5.85793   5.91443   5.93082   5.94035   6.03278
 Alpha virt. eigenvalues --    6.04023   6.15326   6.18061   6.21816   6.28080
 Alpha virt. eigenvalues --    6.51296   6.98881   7.05100  10.12036  10.52141
 Alpha virt. eigenvalues --   11.20420  11.35243  11.38422  11.60427  11.98424
 Alpha virt. eigenvalues --   13.27008  13.35391  14.84985  19.16481
          Condensed to atoms (all electrons):
               1          2          3          4          5          6
     1  C    4.842294   0.350435  -0.104701   0.007911   0.000421   0.000037
     2  O    0.350435   7.667520   0.396810  -0.047717  -0.048029   0.000356
     3  C   -0.104701   0.396810   5.052545   0.183263   0.269646  -0.006142
     4  N    0.007911  -0.047717   0.183263   6.549327   0.402895  -0.065279
     5  C    0.000421  -0.048029   0.269646   0.402895   4.573082   0.266838
     6  O    0.000037   0.000356  -0.006142  -0.065279   0.266838   7.921846
     7  C    0.000868   0.000310  -0.049695   0.018608   0.242614   0.177748
     8  C   -0.000005  -0.000009   0.001206  -0.001954  -0.018090  -0.015889
     9  N   -0.000000   0.000000  -0.000063   0.000228  -0.009567  -0.001812
    10  H    0.385822  -0.018649   0.004322  -0.000217  -0.000090  -0.000000
    11  H    0.369413  -0.032384  -0.003975  -0.000494  -0.002945  -0.000028
    12  H    0.377595  -0.038151  -0.001388   0.000786   0.006968  -0.000009
    13  H    0.002850  -0.028716   0.357152  -0.025452  -0.039016   0.003048
    14  H   -0.000309   0.002569  -0.020313   0.337722  -0.050168  -0.002764
    15  H    0.000041  -0.000013  -0.001161   0.000732  -0.018286  -0.021689
               7          8          9         10         11         12
     1  C    0.000868  -0.000005  -0.000000   0.385822   0.369413   0.377595
     2  O    0.000310  -0.000009   0.000000  -0.018649  -0.032384  -0.038151
     3  C   -0.049695   0.001206  -0.000063   0.004322  -0.003975  -0.001388
     4  N    0.018608  -0.001954   0.000228  -0.000217  -0.000494   0.000786
     5  C    0.242614  -0.018090  -0.009567  -0.000090  -0.002945   0.006968
     6  O    0.177748  -0.015889  -0.001812  -0.000000  -0.000028  -0.000009
     7  C    5.122965   0.307856   0.006522  -0.000006  -0.000020  -0.000134
     8  C    0.307856   4.472867   0.976198  -0.000000   0.000005   0.000032
     9  N    0.006522   0.976198   6.351854   0.000000  -0.000000   0.000000
    10  H   -0.000006  -0.000000   0.000000   0.561568  -0.032022  -0.036493
    11  H   -0.000020   0.000005  -0.000000  -0.032022   0.636673  -0.046297
    12  H   -0.000134   0.000032   0.000000  -0.036493  -0.046297   0.621852
    13  H    0.003311   0.000178  -0.000001  -0.000211   0.005736  -0.000842
    14  H    0.003545  -0.000282  -0.000004   0.000012   0.000011  -0.000022
    15  H    0.384986  -0.053189   0.001015   0.000000   0.000061  -0.000012
              13         14         15
     1  C    0.002850  -0.000309   0.000041
     2  O   -0.028716   0.002569  -0.000013
     3  C    0.357152  -0.020313  -0.001161
     4  N   -0.025452   0.337722   0.000732
     5  C   -0.039016  -0.050168  -0.018286
     6  O    0.003048  -0.002764  -0.021689
     7  C    0.003311   0.003545   0.384986
     8  C    0.000178  -0.000282  -0.053189
     9  N   -0.000001  -0.000004   0.001015
    10  H   -0.000211   0.000012   0.000000
    11  H    0.005736   0.000011   0.000061
    12  H   -0.000842  -0.000022  -0.000012
    13  H    0.589338  -0.005475  -0.000002
    14  H   -0.005475   0.466501  -0.000033
    15  H   -0.000002  -0.000033   0.552834
 Mulliken charges:
               1
     1  C   -0.232672
     2  O   -0.204333
     3  C   -0.077505
     4  N   -0.360360
     5  C    0.423727
     6  O   -0.256261
     7  C   -0.219479
     8  C    0.331077
     9  N   -0.324368
    10  H    0.135964
    11  H    0.106267
    12  H    0.116116
    13  H    0.138103
    14  H    0.269009
    15  H    0.154716
 Sum of Mulliken charges =  -0.00000
 Mulliken charges with hydrogens summed into heavy atoms:
               1
     1  C    0.125675
     2  O   -0.204333
     3  C    0.060597
     4  N   -0.091350
     5  C    0.423727
     6  O   -0.256261
     7  C   -0.064763
     8  C    0.331077
     9  N   -0.324368
 Electronic spatial extent (au):  <R**2>=           1337.9506
 Charge=             -0.0000 electrons
 Dipole moment (field-independent basis, Debye):
    X=             -2.9808    Y=             -0.3140    Z=             -2.9175  Tot=              4.1828
 Quadrupole moment (field-independent basis, Debye-Ang):
   XX=            -62.3273   YY=            -48.5446   ZZ=            -51.5528
   XY=             -3.6865   XZ=             -1.2640   YZ=             -4.3934
 Traceless Quadrupole moment (field-independent basis, Debye-Ang):
   XX=             -8.1857   YY=              5.5970   ZZ=              2.5887
   XY=             -3.6865   XZ=             -1.2640   YZ=             -4.3934
 Octapole moment (field-independent basis, Debye-Ang**2):
  XXX=            -56.8892  YYY=            -12.2776  ZZZ=             -6.5395  XYY=            -17.0619
  XXY=             -8.6611  XXZ=            -19.9939  XZZ=             -2.4352  YZZ=             -3.4670
  YYZ=              4.7351  XYZ=             -7.2027
 Hexadecapole moment (field-independent basis, Debye-Ang**3):
 XXXX=          -1406.3971 YYYY=           -278.1199 ZZZZ=           -170.2547 XXXY=            -98.9494
 XXXZ=            -45.2308 YYYX=             -7.6268 YYYZ=            -12.5033 ZZZX=             -9.6865
 ZZZY=             -6.6027 XXYY=           -265.7890 XXZZ=           -245.4217 YYZZ=            -71.7195
 XXYZ=            -14.7005 YYXZ=             -8.2018 ZZXY=             -0.5117
 N-N= 4.217794150663D+02 E-N=-1.903722455659D+03  KE= 4.509754307451D+02
 PrsmSu:  requested number of processors reduced to:  13 ShMem   1 Linda.
 Calling FoFJK, ICntrl=      2127 FMM=F ISym2X=0 I1Cent= 0 IOpClX= 0 NMat=1 NMatS=1 NMatT=0.
 ***** Axes restored to original set *****
 -------------------------------------------------------------------
 Center     Atomic                   Forces (Hartrees/Bohr)
 Number     Number              X              Y              Z
 -------------------------------------------------------------------
      1        6          -0.001072955   -0.001414230   -0.001003231
      2        8           0.006408762    0.025118180   -0.021441560
      3        6          -0.012278128   -0.040087076    0.040108537
      4        7          -0.007179935   -0.038243924   -0.014957935
      5        6           0.037605675    0.012888993   -0.012643289
      6        8          -0.023196215    0.008648402   -0.016933906
      7        6           0.003370231   -0.000417684    0.011062590
      8        6          -0.007386703    0.025916438    0.034287660
      9        7           0.003945381   -0.013184000   -0.020681713
     10        1           0.000600116    0.000447229    0.000361287
     11        1          -0.007020765    0.001180757   -0.002590942
     12        1          -0.008683555    0.002553342    0.000363126
     13        1           0.014520661   -0.009929109    0.001277388
     14        1           0.005234276    0.025434493    0.006807829
     15        1          -0.004866847    0.001088189   -0.004015840
 -------------------------------------------------------------------
 Cartesian Forces:  Max     0.040108537 RMS     0.016829705

 GradGradGradGradGradGradGradGradGradGradGradGradGradGradGradGradGradGrad
 Berny optimization.
 FormGI is forming the generalized inverse of G from B-inverse, IUseBI=4.
 Internal  Forces:  Max     0.026687792 RMS     0.009964386
 Search for a local minimum.
 Step number   1 out of a maximum of   69
 All quantities printed in internal units (Hartrees-Bohrs-Radians)
 Mixed Optimization -- RFO/linear search
 Second derivative matrix not updated -- first step.
 ITU=  0
     Eigenvalues ---    0.01289   0.01621   0.02334   0.02558   0.02925
     Eigenvalues ---    0.03083   0.04785   0.04785   0.05665   0.06353
     Eigenvalues ---    0.08175   0.10415   0.10685   0.13315   0.15218
     Eigenvalues ---    0.16000   0.16000   0.16000   0.16000   0.20247
     Eigenvalues ---    0.22444   0.24275   0.25000   0.26895   0.32195
     Eigenvalues ---    0.34411   0.34637   0.34729   0.35058   0.35692
     Eigenvalues ---    0.35932   0.38421   0.39442   0.40929   0.41696
     Eigenvalues ---    0.43283   0.44749   0.45733   1.23834
 RFO step:  Lambda=-3.86087772D-02 EMin= 1.28940089D-02
 Linear search not attempted -- first point.
 Iteration  1 RMS(Cart)=  0.13672507 RMS(Int)=  0.01546814
 Iteration  2 RMS(Cart)=  0.02892211 RMS(Int)=  0.00139526
 Iteration  3 RMS(Cart)=  0.00038192 RMS(Int)=  0.00135656
 Iteration  4 RMS(Cart)=  0.00000061 RMS(Int)=  0.00135656
 Variable       Old X    -DE/DX   Delta X   Delta X   Delta X     New X
                                 (Linear)    (Quad)   (Total)
    R1        2.65568   0.01624   0.00000   0.03341   0.03341   2.68909
    R2        2.06642  -0.00056   0.00000  -0.00147  -0.00147   2.06495
    R3        2.06269   0.00463   0.00000   0.01203   0.01203   2.07471
    R4        2.06117   0.00532   0.00000   0.01377   0.01377   2.07494
    R5        2.70310  -0.02669   0.00000  -0.05958  -0.05958   2.64352
    R6        2.90517  -0.00649   0.00000  -0.02738  -0.02891   2.87626
    R7        2.74272   0.01879   0.00000   0.04149   0.04068   2.78340
    R8        2.05581   0.00189   0.00000   0.00486   0.00486   2.06067
    R9        2.61698   0.00284   0.00000   0.01347   0.01600   2.63298
   R10        1.91134   0.00275   0.00000   0.00555   0.00555   1.91689
   R11        2.72496   0.00770   0.00000   0.01843   0.01750   2.74247
   R12        2.72990   0.01919   0.00000   0.04525   0.04423   2.77413
   R13        2.71625  -0.00759   0.00000  -0.01836  -0.01637   2.69988
   R14        2.69312   0.01804   0.00000   0.03960   0.03960   2.73271
   R15        2.04189   0.00638   0.00000   0.01603   0.01603   2.05792
   R16        2.20376  -0.02470   0.00000  -0.01934  -0.01934   2.18442
    A1        1.88546  -0.00388   0.00000  -0.02082  -0.02076   1.86471
    A2        1.92448   0.00730   0.00000   0.03707   0.03661   1.96109
    A3        1.89628   0.00959   0.00000   0.04932   0.04885   1.94514
    A4        1.90525  -0.00284   0.00000  -0.01631  -0.01624   1.88900
    A5        1.90985  -0.00301   0.00000  -0.01576  -0.01569   1.89415
    A6        1.94163  -0.00712   0.00000  -0.03336  -0.03423   1.90740
    A7        2.00381   0.00201   0.00000   0.00697   0.00697   2.01078
    A8        1.81979   0.01088   0.00000   0.10355   0.10684   1.92663
    A9        2.26319   0.00355   0.00000  -0.02921  -0.03143   2.23176
   A10        2.03524  -0.00723   0.00000  -0.03952  -0.04062   1.99462
   A11        2.22041  -0.00380   0.00000  -0.06083  -0.06016   2.16025
   A12        1.93125   0.00186   0.00000   0.04216   0.04267   1.97392
   A13        1.85854   0.00393   0.00000   0.08084   0.08404   1.94259
   A14        2.13317  -0.00494   0.00000  -0.07104  -0.07493   2.05824
   A15        2.07359   0.00555   0.00000  -0.00228  -0.00129   2.07230
   A16        2.62172   0.01576   0.00000   0.05279   0.05249   2.67421
   A17        1.98030   0.01221   0.00000   0.08832   0.09046   2.07076
   A18        2.51549  -0.00755   0.00000  -0.02927  -0.02923   2.48626
   A19        2.08284   0.00531   0.00000   0.02159   0.02139   2.10423
   A20        2.07210  -0.00046   0.00000   0.00377   0.00361   2.07571
   A21        2.03443   0.00820   0.00000   0.03037   0.03053   2.06496
   A22        2.03185  -0.00849   0.00000  -0.04397  -0.04392   1.98792
   A23        2.00251  -0.00340   0.00000  -0.01061  -0.01077   1.99175
   A24        3.22149  -0.00520   0.00000  -0.06011  -0.06011   3.16138
   A25        3.20526  -0.00210   0.00000  -0.02433  -0.02433   3.18094
    D1        2.92501   0.00049   0.00000   0.01308   0.01309   2.93810
    D2        0.84424   0.00205   0.00000   0.02398   0.02470   0.86894
    D3       -1.28788   0.00004   0.00000   0.00995   0.00923  -1.27865
    D4        2.17380   0.00456   0.00000   0.07276   0.06931   2.24311
    D5        1.19229  -0.00271   0.00000  -0.02567  -0.02158   1.17071
    D6       -1.56757   0.00353   0.00000   0.05738   0.05674  -1.51084
    D7        1.97519   0.01056   0.00000   0.23255   0.23184   2.20703
    D8       -0.48001   0.01240   0.00000   0.22935   0.22739  -0.25262
    D9       -3.07853   0.02222   0.00000   0.28519   0.28528  -2.79326
   D10       -1.70633   0.01683   0.00000   0.24956   0.24932  -1.45701
   D11       -0.30086   0.01466   0.00000   0.19280   0.19363  -0.10723
   D12        1.07134   0.00927   0.00000   0.15717   0.15768   1.22901
   D13       -0.37394   0.01350   0.00000   0.19898   0.19659  -0.17735
   D14       -1.60040   0.01235   0.00000   0.11812   0.11888  -1.48151
   D15        2.76646   0.00199   0.00000   0.03335   0.03408   2.80054
   D16        0.16947   0.00016   0.00000   0.00730   0.00788   0.17735
   D17       -0.29190   0.00632   0.00000   0.11984   0.11931  -0.17259
   D18       -2.88889   0.00449   0.00000   0.09380   0.09312  -2.79578
         Item               Value     Threshold  Converged?
 Maximum Force            0.026688     0.000450     NO 
 RMS     Force            0.009964     0.000300     NO 
 Maximum Displacement     0.411951     0.001800     NO 
 RMS     Displacement     0.155170     0.001200     NO 
 Predicted change in Energy=-2.811334D-02
 GradGradGradGradGradGradGradGradGradGradGradGradGradGradGradGradGradGrad

                          Input orientation:                          
 ---------------------------------------------------------------------
 Center     Atomic      Atomic             Coordinates (Angstroms)
 Number     Number       Type             X           Y           Z
 ---------------------------------------------------------------------
      1          6           0        0.862417   -0.001357   -0.093124
      2          8           0        2.255418    0.026782    0.196183
      3          6           0        2.913930    1.208823   -0.158822
      4          7           0        3.709866    1.747393    1.021461
      5          6           0        2.740652    2.550424    0.423892
      6          8           0        3.170138    3.705064   -0.343229
      7          6           0        2.064119    3.847135    0.549947
      8          6           0        2.239661    4.655908    1.735800
      9          7           0        2.340155    5.288595    2.697992
     10          1           0        0.532939   -1.035095    0.036791
     11          1           0        0.644011    0.301597   -1.125538
     12          1           0        0.295632    0.635103    0.599193
     13          1           0        3.267685    1.232761   -1.190029
     14          1           0        4.679644    1.906486    0.770100
     15          1           0        1.108383    3.993580    0.048893
 ---------------------------------------------------------------------
                    Distance matrix (angstroms):
                    1          2          3          4          5
     1  C    0.000000
     2  O    1.423005   0.000000
     3  C    2.382763   1.398888   0.000000
     4  N    3.522555   2.399376   1.522051   0.000000
     5  C    3.210398   2.579936   1.472914   1.393314   0.000000
     6  O    4.373293   3.828503   2.516122   2.446663   1.451250
     7  C    4.082710   3.841464   2.860983   2.709193   1.468007
     8  C    5.189594   4.878471   3.990818   3.336352   2.530841
     9  N    6.160976   5.826912   5.013496   4.150539   3.581830
    10  H    1.092725   2.029760   3.277584   4.336437   4.228451
    11  H    1.097890   2.102166   2.628713   4.012406   3.442944
    12  H    1.098011   2.091228   2.785539   3.615591   3.110837
    13  H    2.917458   2.097773   1.090460   2.313235   2.149126
    14  H    4.353876   3.120823   2.113616   1.014377   2.072247
    15  H    4.005021   4.131933   3.325360   3.571969   2.210797
                    6          7          8          9         10
     6  O    0.000000
     7  C    1.428715   0.000000
     8  C    2.468249   1.446090   0.000000
     9  N    3.527814   2.601557   1.155943   0.000000
    10  H    5.437679   5.142375   6.179568   7.094863   0.000000
    11  H    4.310095   4.170707   5.449163   6.508950   1.774850
    12  H    4.309943   3.667032   4.608471   5.499093   1.778250
    13  H    2.615123   3.363189   4.619009   5.694454   3.758602
    14  H    2.598653   3.264286   3.800713   4.541876   5.136711
    15  H    2.118452   1.089005   2.136381   3.195630   5.061508
                   11         12         13         14         15
    11  H    0.000000
    12  H    1.790891   0.000000
    13  H    2.784760   3.520172   0.000000
    14  H    4.738718   4.567842   2.507915   0.000000
    15  H    3.902008   3.498966   3.717477   4.198810   0.000000
 Stoichiometry    C5H6N2O2
 Framework group  C1[X(C5H6N2O2)]
 Deg. of freedom    39
 Full point group                 C1      NOp   1
 Largest Abelian subgroup         C1      NOp   1
 Largest concise Abelian subgroup C1      NOp   1
                         Standard orientation:                         
 ---------------------------------------------------------------------
 Center     Atomic      Atomic             Coordinates (Angstroms)
 Number     Number       Type             X           Y           Z
 ---------------------------------------------------------------------
      1          6           0       -2.684173    1.260404   -0.167372
      2          8           0       -2.381262    0.036584    0.492516
      3          6           0       -1.326072   -0.694655   -0.063138
      4          7           0       -0.312064   -1.061917    1.010895
      5          6           0        0.101487   -0.334150   -0.102952
      6          8           0        0.957845   -0.982480   -1.078886
      7          6           0        1.263849    0.354141   -0.677597
      8          6           0        2.452472    0.577118    0.115267
      9          7           0        3.389784    0.797580    0.754835
     10          1           0       -3.639309    1.608269    0.233570
     11          1           0       -2.792739    1.134091   -1.252554
     12          1           0       -1.922014    2.024644    0.034320
     13          1           0       -1.621123   -1.363434   -0.872324
     14          1           0       -0.130580   -2.059881    1.020527
     15          1           0        1.103681    1.096677   -1.457930
 ---------------------------------------------------------------------
 Rotational constants (GHZ):           3.5217952           0.9168987           0.8676317
 Standard basis: 6-31G(2df,p) (6D, 7F)
 There are   309 symmetry adapted cartesian basis functions of A   symmetry.
 There are   282 symmetry adapted basis functions of A   symmetry.
   282 basis functions,   438 primitive gaussians,   309 cartesian basis functions
    33 alpha electrons       33 beta electrons
       nuclear repulsion energy       419.8066782427 Hartrees.
 NAtoms=   15 NActive=   15 NUniq=   15 SFac= 1.00D+00 NAtFMM=   60 NAOKFM=F Big=F
 Integral buffers will be    131072 words long.
 Raffenetti 2 integral format.
 Two-electron integral symmetry is turned on.
 One-electron integrals computed using PRISM.
 PrsmSu:  requested number of processors reduced to:  13 ShMem   1 Linda.
 NBasis=   282 RedAO= T EigKep=  1.42D-04  NBF=   282
 NBsUse=   282 1.00D-06 EigRej= -1.00D+00 NBFU=   282
 Initial guess from the checkpoint file:  "COC1NC12OC2CtN.chk"
 B after Tr=    -0.000000    0.000000    0.000000
         Rot=    0.996579   -0.082213   -0.008241    0.001961 Ang=  -9.48 deg.
 ExpMin= 1.61D-01 ExpMax= 5.48D+03 ExpMxC= 8.25D+02 IAcc=2 IRadAn=         4 AccDes= 0.00D+00
 Harris functional with IExCor=  402 and IRadAn=       4 diagonalized for initial guess.
 HarFok:  IExCor=  402 AccDes= 0.00D+00 IRadAn=         4 IDoV= 1 UseB2=F ITyADJ=14
 ICtDFT=  3500011 ScaDFX=  1.000000  1.000000  1.000000  1.000000
 FoFCou: FMM=F IPFlag=           0 FMFlag=      100000 FMFlg1=           0
         NFxFlg=           0 DoJE=T BraDBF=F KetDBF=T FulRan=T
         wScrn=  0.000000 ICntrl=       500 IOpCl=  0 I1Cent=   200000004 NGrid=           0
         NMat0=    1 NMatS0=      1 NMatT0=    0 NMatD0=    1 NMtDS0=    0 NMtDT0=    0
 Petite list used in FoFCou.
 Requested convergence on RMS density matrix=1.00D-08 within 128 cycles.
 Requested convergence on MAX density matrix=1.00D-06.
 Requested convergence on             energy=1.00D-06.
 No special actions if energy rises.
 Integral accuracy reduced to 1.0D-05 until final iterations.
 Initial convergence to 1.0D-05 achieved.  Increase integral accuracy.
 SCF Done:  E(RB3LYP) =  -453.964862407     A.U. after   13 cycles
            NFock= 13  Conv=0.83D-08     -V/T= 2.0070
 PrsmSu:  requested number of processors reduced to:  13 ShMem   1 Linda.
 Calling FoFJK, ICntrl=      2127 FMM=F ISym2X=0 I1Cent= 0 IOpClX= 0 NMat=1 NMatS=1 NMatT=0.
 ***** Axes restored to original set *****
 -------------------------------------------------------------------
 Center     Atomic                   Forces (Hartrees/Bohr)
 Number     Number              X              Y              Z
 -------------------------------------------------------------------
      1        6           0.000643334   -0.001561628   -0.000368116
      2        8          -0.002293013    0.014623916   -0.008496327
      3        6          -0.012435359   -0.014256216    0.031067126
      4        7          -0.004858217   -0.024197590   -0.012964341
      5        6           0.021510746    0.017893450   -0.024510208
      6        8          -0.008930940   -0.000621352    0.000726567
      7        6          -0.003810873   -0.005705419    0.005982467
      8        6           0.000761304    0.002170553    0.003063522
      9        7           0.000205794   -0.000377489   -0.001607697
     10        1           0.000892417    0.000187173    0.000527709
     11        1           0.000375154    0.000758677   -0.000358745
     12        1           0.000322089    0.001269162   -0.000659119
     13        1           0.009326079   -0.001839388    0.002858492
     14        1           0.000310569    0.012354375    0.002614430
     15        1          -0.002019084   -0.000698225    0.002124240
 -------------------------------------------------------------------
 Cartesian Forces:  Max     0.031067126 RMS     0.009695856

 GradGradGradGradGradGradGradGradGradGradGradGradGradGradGradGradGradGrad
 Berny optimization.
 Using GEDIIS/GDIIS optimizer.
 FormGI is forming the generalized inverse of G from B-inverse, IUseBI=4.
 Internal  Forces:  Max     0.015255252 RMS     0.004076632
 Search for a local minimum.
 Step number   2 out of a maximum of   69
 All quantities printed in internal units (Hartrees-Bohrs-Radians)
 Mixed Optimization -- RFO/linear search
 Update second derivatives using D2CorX and points    1    2
 DE= -2.71D-02 DEPred=-2.81D-02 R= 9.64D-01
 TightC=F SS=  1.41D+00  RLast= 6.84D-01 DXNew= 5.0454D-01 2.0516D+00
 Trust test= 9.64D-01 RLast= 6.84D-01 DXMaxT set to 5.05D-01
 ITU=  1  0
 Use linear search instead of GDIIS.
     Eigenvalues ---    0.01290   0.01620   0.02271   0.02750   0.03116
     Eigenvalues ---    0.03367   0.04781   0.04854   0.05712   0.06883
     Eigenvalues ---    0.07894   0.10061   0.10620   0.13185   0.15279
     Eigenvalues ---    0.15979   0.16000   0.16000   0.16501   0.19310
     Eigenvalues ---    0.22303   0.23537   0.25086   0.27192   0.31496
     Eigenvalues ---    0.34408   0.34629   0.34737   0.35053   0.35382
     Eigenvalues ---    0.35916   0.38050   0.39101   0.39876   0.41925
     Eigenvalues ---    0.43237   0.45388   0.45736   1.23475
 RFO step:  Lambda=-7.77388378D-03 EMin= 1.28979067D-02
 Quartic linear search produced a step of  0.62427.
 Iteration  1 RMS(Cart)=  0.13496517 RMS(Int)=  0.01589008
 Iteration  2 RMS(Cart)=  0.02466018 RMS(Int)=  0.00180311
 Iteration  3 RMS(Cart)=  0.00042914 RMS(Int)=  0.00177522
 Iteration  4 RMS(Cart)=  0.00000158 RMS(Int)=  0.00177522
 Iteration  5 RMS(Cart)=  0.00000000 RMS(Int)=  0.00177522
 Variable       Old X    -DE/DX   Delta X   Delta X   Delta X     New X
                                 (Linear)    (Quad)   (Total)
    R1        2.68909  -0.00202   0.02086  -0.02612  -0.00526   2.68383
    R2        2.06495  -0.00038  -0.00092  -0.00085  -0.00177   2.06318
    R3        2.07471   0.00047   0.00751  -0.00494   0.00257   2.07728
    R4        2.07494   0.00015   0.00860  -0.00737   0.00122   2.07617
    R5        2.64352  -0.01526  -0.03720  -0.02318  -0.06038   2.58314
    R6        2.87626  -0.01262  -0.01805  -0.05862  -0.07910   2.79716
    R7        2.78340   0.00105   0.02540  -0.02385  -0.00013   2.78327
    R8        2.06067   0.00028   0.00303  -0.00160   0.00143   2.06210
    R9        2.63298   0.00202   0.00999   0.00734   0.02164   2.65462
   R10        1.91689   0.00158   0.00347   0.00217   0.00564   1.92253
   R11        2.74247  -0.00142   0.01093  -0.02182  -0.01119   2.73128
   R12        2.77413   0.00106   0.02761  -0.02894  -0.00164   2.77249
   R13        2.69988  -0.00426  -0.01022   0.00670  -0.00289   2.69699
   R14        2.73271   0.00232   0.02472  -0.01421   0.01051   2.74322
   R15        2.05792   0.00070   0.01001  -0.00635   0.00366   2.06158
   R16        2.18442  -0.00153  -0.01208   0.00861  -0.00346   2.18096
    A1        1.86471  -0.00070  -0.01296   0.00990  -0.00303   1.86168
    A2        1.96109  -0.00078   0.02286  -0.03249  -0.00997   1.95113
    A3        1.94514  -0.00030   0.03050  -0.03564  -0.00548   1.93966
    A4        1.88900   0.00117  -0.01014   0.02419   0.01408   1.90308
    A5        1.89415   0.00115  -0.00980   0.02403   0.01426   1.90842
    A6        1.90740  -0.00042  -0.02137   0.01367  -0.00833   1.89907
    A7        2.01078  -0.00323   0.00435  -0.02395  -0.01960   1.99118
    A8        1.92663   0.00268   0.06670   0.00215   0.07327   1.99989
    A9        2.23176  -0.00094  -0.01962  -0.02512  -0.04657   2.18519
   A10        1.99462   0.00076  -0.02536   0.02507  -0.00149   1.99313
   A11        2.16025  -0.00448  -0.03756  -0.04962  -0.08599   2.07426
   A12        1.97392  -0.00079   0.02664   0.00764   0.03580   2.00972
   A13        1.94259   0.00277   0.05247   0.03048   0.08458   2.02717
   A14        2.05824  -0.00236  -0.04678  -0.04018  -0.09180   1.96644
   A15        2.07230   0.00346  -0.00080   0.04060   0.03761   2.10991
   A16        2.67421   0.00693   0.03277   0.01139   0.04133   2.71554
   A17        2.07076   0.00285   0.05647   0.00840   0.06761   2.13837
   A18        2.48626  -0.00089  -0.01825   0.00269  -0.01710   2.46915
   A19        2.10423   0.00053   0.01335  -0.00873   0.00457   2.10880
   A20        2.07571  -0.00030   0.00226  -0.01288  -0.01096   2.06474
   A21        2.06496  -0.00027   0.01906  -0.02479  -0.00610   2.05887
   A22        1.98792   0.00077  -0.02742   0.05373   0.02674   2.01466
   A23        1.99175  -0.00043  -0.00672   0.00203  -0.00490   1.98685
   A24        3.16138   0.00007  -0.03752   0.05531   0.01778   3.17916
   A25        3.18094  -0.00120  -0.01519  -0.01252  -0.02770   3.15324
    D1        2.93810   0.00070   0.00817   0.03085   0.03903   2.97712
    D2        0.86894   0.00015   0.01542   0.01350   0.02942   0.89836
    D3       -1.27865   0.00150   0.00576   0.04613   0.05138  -1.22727
    D4        2.24311   0.00421   0.04327   0.06829   0.10662   2.34973
    D5        1.17071  -0.00156  -0.01347   0.04323   0.03502   1.20573
    D6       -1.51084   0.00112   0.03542   0.01945   0.05454  -1.45630
    D7        2.20703   0.00609   0.14473   0.09201   0.23583   2.44286
    D8       -0.25262   0.00695   0.14196   0.11235   0.25112  -0.00149
    D9       -2.79326   0.00668   0.17809   0.02329   0.20025  -2.59301
   D10       -1.45701   0.01011   0.15565   0.13089   0.28666  -1.17035
   D11       -0.10723   0.00436   0.12088   0.05075   0.17227   0.06504
   D12        1.22901   0.00778   0.09843   0.15835   0.25868   1.48769
   D13       -0.17735   0.00522   0.12273   0.02121   0.14182  -0.03553
   D14       -1.48151   0.00482   0.07421  -0.01116   0.06535  -1.41617
   D15        2.80054  -0.00033   0.02127  -0.08353  -0.06180   2.73874
   D16        0.17735   0.00023   0.00492  -0.04186  -0.03661   0.14074
   D17       -0.17259   0.00368   0.07448   0.05808   0.13191  -0.04068
   D18       -2.79578   0.00424   0.05813   0.09975   0.15710  -2.63868
         Item               Value     Threshold  Converged?
 Maximum Force            0.015255     0.000450     NO 
 RMS     Force            0.004077     0.000300     NO 
 Maximum Displacement     0.415782     0.001800     NO 
 RMS     Displacement     0.156144     0.001200     NO 
 Predicted change in Energy=-9.589703D-03
 GradGradGradGradGradGradGradGradGradGradGradGradGradGradGradGradGradGrad

                          Input orientation:                          
 ---------------------------------------------------------------------
 Center     Atomic      Atomic             Coordinates (Angstroms)
 Number     Number       Type             X           Y           Z
 ---------------------------------------------------------------------
      1          6           0        0.869076    0.059630   -0.151034
      2          8           0        2.218788    0.050254    0.290795
      3          6           0        2.937265    1.149897   -0.087488
      4          7           0        3.762452    1.745939    0.987119
      5          6           0        2.731283    2.515747    0.423686
      6          8           0        2.988546    3.667142   -0.411228
      7          6           0        2.002930    3.774820    0.615333
      8          6           0        2.291021    4.635862    1.747984
      9          7           0        2.476911    5.332622    2.649064
     10          1           0        0.462405   -0.930563    0.063761
     11          1           0        0.794500    0.251387   -1.230857
     12          1           0        0.282120    0.818192    0.384800
     13          1           0        3.349792    1.089462   -1.095914
     14          1           0        4.687487    2.070058    0.714575
     15          1           0        0.970072    3.832750    0.268916
 ---------------------------------------------------------------------
                    Distance matrix (angstroms):
                    1          2          3          4          5
     1  C    0.000000
     2  O    1.420219   0.000000
     3  C    2.338830   1.366939   0.000000
     4  N    3.537040   2.396479   1.480195   0.000000
     5  C    3.135383   2.521698   1.472845   1.404767   0.000000
     6  O    4.192135   3.763939   2.538495   2.499066   1.445330
     7  C    3.959240   3.744905   2.873528   2.711181   1.467138
     8  C    5.154619   4.812111   3.992310   3.331018   2.538205
     9  N    6.183051   5.790636   5.019544   4.156798   3.598860
    10  H    1.091788   2.024458   3.236684   4.348168   4.141788
    11  H    1.099250   2.093914   2.589605   3.995227   3.408220
    12  H    1.098660   2.085485   2.717146   3.651878   2.980202
    13  H    2.847332   2.069319   1.091217   2.222674   2.173943
    14  H    4.401291   3.217712   2.133841   1.017361   2.027311
    15  H    3.797762   3.983346   3.345829   3.559211   2.204613
                    6          7          8          9         10
     6  O    0.000000
     7  C    1.427186   0.000000
     8  C    2.467216   1.451650   0.000000
     9  N    3.521502   2.605276   1.154112   0.000000
    10  H    5.267437   4.981775   6.096354   7.068912   0.000000
    11  H    4.141619   4.157319   5.507875   6.610842   1.784189
    12  H    4.009354   3.428700   4.524219   5.506730   1.787096
    13  H    2.691418   3.457391   4.667516   5.726359   3.709764
    14  H    2.589307   3.181652   3.659827   4.390127   5.222893
    15  H    2.136412   1.090943   2.139518   3.191439   4.794681
                   11         12         13         14         15
    11  H    0.000000
    12  H    1.787218   0.000000
    13  H    2.692600   3.417121   0.000000
    14  H    4.716738   4.591643   2.455376   0.000000
    15  H    3.886683   3.094232   3.879621   4.138221   0.000000
 Stoichiometry    C5H6N2O2
 Framework group  C1[X(C5H6N2O2)]
 Deg. of freedom    39
 Full point group                 C1      NOp   1
 Largest Abelian subgroup         C1      NOp   1
 Largest concise Abelian subgroup C1      NOp   1
                         Standard orientation:                         
 ---------------------------------------------------------------------
 Center     Atomic      Atomic             Coordinates (Angstroms)
 Number     Number       Type             X           Y           Z
 ---------------------------------------------------------------------
      1          6           0       -2.649746    1.233930   -0.026297
      2          8           0       -2.321378   -0.010826    0.573519
      3          6           0       -1.341646   -0.704122   -0.080690
      4          7           0       -0.298866   -1.276159    0.800422
      5          6           0        0.076044   -0.310655   -0.148584
      6          8           0        0.880185   -0.630293   -1.306240
      7          6           0        1.211836    0.529722   -0.543853
      8          6           0        2.448626    0.514215    0.216013
      9          7           0        3.437647    0.545202    0.810026
     10          1           0       -3.544425    1.599791    0.481341
     11          1           0       -2.864904    1.125925   -1.098859
     12          1           0       -1.836299    1.961483    0.100291
     13          1           0       -1.699776   -1.295308   -0.925080
     14          1           0        0.028213   -2.209219    0.560749
     15          1           0        1.004583    1.484445   -1.029351
 ---------------------------------------------------------------------
 Rotational constants (GHZ):           3.5996458           0.9233330           0.8860582
 Standard basis: 6-31G(2df,p) (6D, 7F)
 There are   309 symmetry adapted cartesian basis functions of A   symmetry.
 There are   282 symmetry adapted basis functions of A   symmetry.
   282 basis functions,   438 primitive gaussians,   309 cartesian basis functions
    33 alpha electrons       33 beta electrons
       nuclear repulsion energy       422.0733091502 Hartrees.
 NAtoms=   15 NActive=   15 NUniq=   15 SFac= 1.00D+00 NAtFMM=   60 NAOKFM=F Big=F
 Integral buffers will be    131072 words long.
 Raffenetti 2 integral format.
 Two-electron integral symmetry is turned on.
 One-electron integrals computed using PRISM.
 PrsmSu:  requested number of processors reduced to:  13 ShMem   1 Linda.
 NBasis=   282 RedAO= T EigKep=  1.40D-04  NBF=   282
 NBsUse=   282 1.00D-06 EigRej= -1.00D+00 NBFU=   282
 Initial guess from the checkpoint file:  "COC1NC12OC2CtN.chk"
 B after Tr=    -0.000000    0.000000   -0.000000
         Rot=    0.995429   -0.095231   -0.006842    0.002339 Ang= -10.96 deg.
 ExpMin= 1.61D-01 ExpMax= 5.48D+03 ExpMxC= 8.25D+02 IAcc=2 IRadAn=         4 AccDes= 0.00D+00
 Harris functional with IExCor=  402 and IRadAn=       4 diagonalized for initial guess.
 HarFok:  IExCor=  402 AccDes= 0.00D+00 IRadAn=         4 IDoV= 1 UseB2=F ITyADJ=14
 ICtDFT=  3500011 ScaDFX=  1.000000  1.000000  1.000000  1.000000
 FoFCou: FMM=F IPFlag=           0 FMFlag=      100000 FMFlg1=           0
         NFxFlg=           0 DoJE=T BraDBF=F KetDBF=T FulRan=T
         wScrn=  0.000000 ICntrl=       500 IOpCl=  0 I1Cent=   200000004 NGrid=           0
         NMat0=    1 NMatS0=      1 NMatT0=    0 NMatD0=    1 NMtDS0=    0 NMtDT0=    0
 Petite list used in FoFCou.
 Requested convergence on RMS density matrix=1.00D-08 within 128 cycles.
 Requested convergence on MAX density matrix=1.00D-06.
 Requested convergence on             energy=1.00D-06.
 No special actions if energy rises.
 Integral accuracy reduced to 1.0D-05 until final iterations.
 Initial convergence to 1.0D-05 achieved.  Increase integral accuracy.
 SCF Done:  E(RB3LYP) =  -453.974158267     A.U. after   12 cycles
            NFock= 12  Conv=0.73D-08     -V/T= 2.0068
 PrsmSu:  requested number of processors reduced to:  13 ShMem   1 Linda.
 Calling FoFJK, ICntrl=      2127 FMM=F ISym2X=0 I1Cent= 0 IOpClX= 0 NMat=1 NMatS=1 NMatT=0.
 ***** Axes restored to original set *****
 -------------------------------------------------------------------
 Center     Atomic                   Forces (Hartrees/Bohr)
 Number     Number              X              Y              Z
 -------------------------------------------------------------------
      1        6           0.000671450   -0.000376789   -0.000819058
      2        8          -0.003016913   -0.004498477    0.002621777
      3        6          -0.003359362    0.001439530    0.007991280
      4        7          -0.002173676   -0.000760088    0.003728260
      5        6           0.014004485    0.013942054   -0.022671290
      6        8          -0.001363515   -0.001617167    0.003940113
      7        6          -0.007537105   -0.008794967    0.008692432
      8        6          -0.000764728   -0.001792648   -0.004189628
      9        7           0.000998557    0.001403093    0.002336432
     10        1          -0.000053737    0.000577465    0.000151406
     11        1          -0.000116816   -0.000465191    0.000168654
     12        1           0.000009452   -0.000059213   -0.000390111
     13        1           0.001736076    0.001758846   -0.000936812
     14        1           0.000335382   -0.002765811   -0.000921957
     15        1           0.000630451    0.002009363    0.000298503
 -------------------------------------------------------------------
 Cartesian Forces:  Max     0.022671290 RMS     0.005413517

 GradGradGradGradGradGradGradGradGradGradGradGradGradGradGradGradGradGrad
 Berny optimization.
 Using GEDIIS/GDIIS optimizer.
 FormGI is forming the generalized inverse of G from B-inverse, IUseBI=4.
 Internal  Forces:  Max     0.005676174 RMS     0.001580338
 Search for a local minimum.
 Step number   3 out of a maximum of   69
 All quantities printed in internal units (Hartrees-Bohrs-Radians)
 Mixed Optimization -- RFO/linear search
 Update second derivatives using D2CorX and points    2    3
 DE= -9.30D-03 DEPred=-9.59D-03 R= 9.69D-01
 TightC=F SS=  1.41D+00  RLast= 6.95D-01 DXNew= 8.4853D-01 2.0855D+00
 Trust test= 9.69D-01 RLast= 6.95D-01 DXMaxT set to 8.49D-01
 ITU=  1  1  0
 Use linear search instead of GDIIS.
     Eigenvalues ---    0.01243   0.01593   0.01846   0.03084   0.03163
     Eigenvalues ---    0.04009   0.04785   0.04848   0.05716   0.07159
     Eigenvalues ---    0.08153   0.10184   0.10636   0.13068   0.14834
     Eigenvalues ---    0.15968   0.16000   0.16069   0.16415   0.18799
     Eigenvalues ---    0.22455   0.23379   0.25080   0.26742   0.31376
     Eigenvalues ---    0.34407   0.34636   0.34742   0.35048   0.35404
     Eigenvalues ---    0.35924   0.38153   0.39722   0.39984   0.41911
     Eigenvalues ---    0.43352   0.45393   0.45743   1.23568
 RFO step:  Lambda=-2.64544913D-03 EMin= 1.24320818D-02
 Quartic linear search produced a step of  0.08018.
 Iteration  1 RMS(Cart)=  0.06984683 RMS(Int)=  0.00349707
 Iteration  2 RMS(Cart)=  0.00401230 RMS(Int)=  0.00053070
 Iteration  3 RMS(Cart)=  0.00000951 RMS(Int)=  0.00053067
 Iteration  4 RMS(Cart)=  0.00000000 RMS(Int)=  0.00053067
 Variable       Old X    -DE/DX   Delta X   Delta X   Delta X     New X
                                 (Linear)    (Quad)   (Total)
    R1        2.68383  -0.00021  -0.00042  -0.00023  -0.00065   2.68317
    R2        2.06318  -0.00047  -0.00014  -0.00154  -0.00168   2.06150
    R3        2.07728  -0.00024   0.00021  -0.00046  -0.00026   2.07703
    R4        2.07617  -0.00024   0.00010  -0.00048  -0.00038   2.07579
    R5        2.58314   0.00568  -0.00484   0.01160   0.00676   2.58990
    R6        2.79716  -0.00118  -0.00634  -0.00973  -0.01725   2.77991
    R7        2.78327  -0.00113  -0.00001  -0.00125  -0.00074   2.78254
    R8        2.06210   0.00142   0.00011   0.00441   0.00453   2.06663
    R9        2.65462   0.00191   0.00174   0.00557   0.00800   2.66262
   R10        1.92253  -0.00033   0.00045  -0.00047  -0.00002   1.92252
   R11        2.73128  -0.00316  -0.00090  -0.01592  -0.01696   2.71432
   R12        2.77249  -0.00113  -0.00013  -0.00800  -0.00829   2.76420
   R13        2.69699  -0.00146  -0.00023   0.00854   0.00863   2.70562
   R14        2.74322  -0.00163   0.00084  -0.00319  -0.00235   2.74087
   R15        2.06158  -0.00058   0.00029  -0.00136  -0.00106   2.06052
   R16        2.18096   0.00283  -0.00028   0.00205   0.00177   2.18273
    A1        1.86168   0.00009  -0.00024  -0.00011  -0.00035   1.86133
    A2        1.95113   0.00017  -0.00080   0.00150   0.00070   1.95182
    A3        1.93966   0.00027  -0.00044   0.00256   0.00212   1.94178
    A4        1.90308  -0.00020   0.00113  -0.00139  -0.00026   1.90282
    A5        1.90842  -0.00023   0.00114  -0.00151  -0.00037   1.90805
    A6        1.89907  -0.00011  -0.00067  -0.00117  -0.00185   1.89722
    A7        1.99118  -0.00033  -0.00157  -0.00198  -0.00355   1.98764
    A8        1.99989  -0.00148   0.00587  -0.00425   0.00143   2.00133
    A9        2.18519  -0.00001  -0.00373   0.00501   0.00117   2.18636
   A10        1.99313   0.00121  -0.00012   0.00765   0.00752   2.00065
   A11        2.07426  -0.00024  -0.00689  -0.00891  -0.01554   2.05872
   A12        2.00972  -0.00106   0.00287  -0.00881  -0.00585   2.00387
   A13        2.02717   0.00012   0.00678  -0.00428   0.00223   2.02939
   A14        1.96644   0.00058  -0.00736   0.01716   0.00945   1.97588
   A15        2.10991   0.00100   0.00302   0.03562   0.03851   2.14842
   A16        2.71554  -0.00014   0.00331  -0.00488  -0.00425   2.71129
   A17        2.13837   0.00108   0.00542   0.03257   0.03825   2.17662
   A18        2.46915   0.00026  -0.00137  -0.00818  -0.01179   2.45737
   A19        2.10880  -0.00112   0.00037  -0.00019  -0.00000   2.10880
   A20        2.06474   0.00300  -0.00088   0.02281   0.02165   2.08640
   A21        2.05887  -0.00129  -0.00049  -0.01529  -0.01588   2.04298
   A22        2.01466   0.00095   0.00214  -0.00056   0.00173   2.01639
   A23        1.98685  -0.00079  -0.00039  -0.00448  -0.00512   1.98173
   A24        3.17916  -0.00138   0.00143  -0.03053  -0.02910   3.15006
   A25        3.15324   0.00007  -0.00222   0.00011  -0.00212   3.15112
    D1        2.97712   0.00064   0.00313   0.03662   0.03975   3.01687
    D2        0.89836   0.00073   0.00236   0.03753   0.03989   0.93825
    D3       -1.22727   0.00056   0.00412   0.03616   0.04027  -1.18700
    D4        2.34973   0.00164   0.00855   0.08560   0.09402   2.44375
    D5        1.20573   0.00097   0.00281   0.08163   0.08458   1.29031
    D6       -1.45630   0.00088   0.00437   0.07482   0.07918  -1.37711
    D7        2.44286  -0.00135   0.01891  -0.03174  -0.01306   2.42980
    D8       -0.00149  -0.00110   0.02013  -0.02721  -0.00730  -0.00879
    D9       -2.59301  -0.00052   0.01606   0.01985   0.03610  -2.55691
   D10       -1.17035   0.00220   0.02298   0.11515   0.13823  -1.03212
   D11        0.06504   0.00012   0.01381   0.03071   0.04472   0.10975
   D12        1.48769   0.00284   0.02074   0.12600   0.14685   1.63455
   D13       -0.03553  -0.00083   0.01137  -0.04296  -0.03210  -0.06763
   D14       -1.41617  -0.00260   0.00524  -0.09120  -0.08505  -1.50122
   D15        2.73874  -0.00157  -0.00495  -0.08507  -0.08982   2.64892
   D16        0.14074  -0.00359  -0.00293  -0.12083  -0.12367   0.01707
   D17       -0.04068   0.00346   0.01058   0.08726   0.09765   0.05697
   D18       -2.63868   0.00144   0.01260   0.05150   0.06380  -2.57488
         Item               Value     Threshold  Converged?
 Maximum Force            0.005676     0.000450     NO 
 RMS     Force            0.001580     0.000300     NO 
 Maximum Displacement     0.285376     0.001800     NO 
 RMS     Displacement     0.070136     0.001200     NO 
 Predicted change in Energy=-1.524957D-03
 GradGradGradGradGradGradGradGradGradGradGradGradGradGradGradGradGradGrad

                          Input orientation:                          
 ---------------------------------------------------------------------
 Center     Atomic      Atomic             Coordinates (Angstroms)
 Number     Number       Type             X           Y           Z
 ---------------------------------------------------------------------
      1          6           0        0.873322    0.037648   -0.179490
      2          8           0        2.191935    0.076717    0.345652
      3          6           0        2.920542    1.162686   -0.064361
      4          7           0        3.763108    1.766332    0.979538
      5          6           0        2.732235    2.542550    0.413799
      6          8           0        2.938699    3.695667   -0.417349
      7          6           0        1.985161    3.778232    0.647479
      8          6           0        2.314259    4.646247    1.761894
      9          7           0        2.563706    5.335865    2.654275
     10          1           0        0.449437   -0.924482    0.111518
     11          1           0        0.867558    0.114782   -1.275880
     12          1           0        0.255954    0.846767    0.233786
     13          1           0        3.334984    1.078993   -1.072936
     14          1           0        4.692648    2.063533    0.692080
     15          1           0        0.941102    3.841663    0.339505
 ---------------------------------------------------------------------
                    Distance matrix (angstroms):
                    1          2          3          4          5
     1  C    0.000000
     2  O    1.419873   0.000000
     3  C    2.338819   1.370514   0.000000
     4  N    3.561259   2.392739   1.471065   0.000000
     5  C    3.175230   2.525253   1.472454   1.408998   0.000000
     6  O    4.207548   3.773146   2.557523   2.520571   1.436354
     7  C    3.988989   3.719552   2.867531   2.705383   1.462749
     8  C    5.204273   4.785532   3.979697   3.317402   2.533300
     9  N    6.241693   5.755571   4.993370   4.121271   3.584794
    10  H    1.090898   2.023243   3.239376   4.355956   4.162072
    11  H    1.099115   2.093989   2.603963   4.024766   3.496582
    12  H    1.098460   2.086507   2.699764   3.701605   3.006667
    13  H    2.818231   2.079306   1.093614   2.206439   2.171563
    14  H    4.410340   3.212634   2.126991   1.017352   2.037185
    15  H    3.839854   3.967296   3.355325   3.560949   2.213904
                    6          7          8          9         10
     6  O    0.000000
     7  C    1.431750   0.000000
     8  C    2.458176   1.450406   0.000000
     9  N    3.502249   2.605411   1.155050   0.000000
    10  H    5.274647   4.976065   6.101993   7.080091   0.000000
    11  H    4.224859   4.285931   5.644040   6.751499   1.783190
    12  H    3.967030   3.428525   4.583425   5.597900   1.785976
    13  H    2.726503   3.473865   4.669416   5.710336   3.707185
    14  H    2.640272   3.205101   3.670375   4.369298   5.222080
    15  H    2.141153   1.090381   2.134504   3.197444   4.796858
                   11         12         13         14         15
    11  H    0.000000
    12  H    1.785763   0.000000
    13  H    2.656893   3.352891   0.000000
    14  H    4.722479   4.623290   2.434718   0.000000
    15  H    4.062575   3.074086   3.918929   4.166552   0.000000
 Stoichiometry    C5H6N2O2
 Framework group  C1[X(C5H6N2O2)]
 Deg. of freedom    39
 Full point group                 C1      NOp   1
 Largest Abelian subgroup         C1      NOp   1
 Largest concise Abelian subgroup C1      NOp   1
                         Standard orientation:                         
 ---------------------------------------------------------------------
 Center     Atomic      Atomic             Coordinates (Angstroms)
 Number     Number       Type             X           Y           Z
 ---------------------------------------------------------------------
      1          6           0       -2.707606    1.185424    0.014188
      2          8           0       -2.291972   -0.033871    0.611356
      3          6           0       -1.326946   -0.698995   -0.099027
      4          7           0       -0.276176   -1.318072    0.723565
      5          6           0        0.089157   -0.304753   -0.184726
      6          8           0        0.890470   -0.509053   -1.359150
      7          6           0        1.203482    0.590029   -0.496625
      8          6           0        2.447969    0.513473    0.244365
      9          7           0        3.437400    0.465477    0.838390
     10          1           0       -3.555593    1.546191    0.597987
     11          1           0       -3.025200    1.042559   -1.028298
     12          1           0       -1.904680    1.934652    0.038264
     13          1           0       -1.700287   -1.259423   -0.960727
     14          1           0        0.033167   -2.243929    0.437033
     15          1           0        0.999710    1.580449   -0.904639
 ---------------------------------------------------------------------
 Rotational constants (GHZ):           3.6311188           0.9172788           0.8868952
 Standard basis: 6-31G(2df,p) (6D, 7F)
 There are   309 symmetry adapted cartesian basis functions of A   symmetry.
 There are   282 symmetry adapted basis functions of A   symmetry.
   282 basis functions,   438 primitive gaussians,   309 cartesian basis functions
    33 alpha electrons       33 beta electrons
       nuclear repulsion energy       421.9044258230 Hartrees.
 NAtoms=   15 NActive=   15 NUniq=   15 SFac= 1.00D+00 NAtFMM=   60 NAOKFM=F Big=F
 Integral buffers will be    131072 words long.
 Raffenetti 2 integral format.
 Two-electron integral symmetry is turned on.
 One-electron integrals computed using PRISM.
 PrsmSu:  requested number of processors reduced to:  13 ShMem   1 Linda.
 NBasis=   282 RedAO= T EigKep=  1.43D-04  NBF=   282
 NBsUse=   282 1.00D-06 EigRej= -1.00D+00 NBFU=   282
 Initial guess from the checkpoint file:  "COC1NC12OC2CtN.chk"
 B after Tr=     0.000000    0.000000   -0.000000
         Rot=    0.999552   -0.029665   -0.001109   -0.003698 Ang=  -3.43 deg.
 ExpMin= 1.61D-01 ExpMax= 5.48D+03 ExpMxC= 8.25D+02 IAcc=2 IRadAn=         4 AccDes= 0.00D+00
 Harris functional with IExCor=  402 and IRadAn=       4 diagonalized for initial guess.
 HarFok:  IExCor=  402 AccDes= 0.00D+00 IRadAn=         4 IDoV= 1 UseB2=F ITyADJ=14
 ICtDFT=  3500011 ScaDFX=  1.000000  1.000000  1.000000  1.000000
 FoFCou: FMM=F IPFlag=           0 FMFlag=      100000 FMFlg1=           0
         NFxFlg=           0 DoJE=T BraDBF=F KetDBF=T FulRan=T
         wScrn=  0.000000 ICntrl=       500 IOpCl=  0 I1Cent=   200000004 NGrid=           0
         NMat0=    1 NMatS0=      1 NMatT0=    0 NMatD0=    1 NMtDS0=    0 NMtDT0=    0
 Petite list used in FoFCou.
 Requested convergence on RMS density matrix=1.00D-08 within 128 cycles.
 Requested convergence on MAX density matrix=1.00D-06.
 Requested convergence on             energy=1.00D-06.
 No special actions if energy rises.
 Integral accuracy reduced to 1.0D-05 until final iterations.
 Initial convergence to 1.0D-05 achieved.  Increase integral accuracy.
 SCF Done:  E(RB3LYP) =  -453.976544681     A.U. after   12 cycles
            NFock= 12  Conv=0.40D-08     -V/T= 2.0068
 PrsmSu:  requested number of processors reduced to:  13 ShMem   1 Linda.
 Calling FoFJK, ICntrl=      2127 FMM=F ISym2X=0 I1Cent= 0 IOpClX= 0 NMat=1 NMatS=1 NMatT=0.
 ***** Axes restored to original set *****
 -------------------------------------------------------------------
 Center     Atomic                   Forces (Hartrees/Bohr)
 Number     Number              X              Y              Z
 -------------------------------------------------------------------
      1        6           0.001026151   -0.000039163   -0.000926166
      2        8          -0.001805093   -0.002271684    0.002086233
      3        6          -0.002903352   -0.000266797    0.004191802
      4        7          -0.001408140    0.002816115    0.004420319
      5        6           0.011066501    0.009969483   -0.018608595
      6        8           0.000562792   -0.002915987    0.003299419
      7        6          -0.007743359   -0.004393119    0.007751872
      8        6           0.001321403   -0.001407581   -0.000759160
      9        7          -0.000264767    0.000521882    0.000379526
     10        1          -0.000200018    0.000051285    0.000201200
     11        1          -0.000011568   -0.000332259   -0.000026866
     12        1           0.000010369    0.000045422   -0.000154716
     13        1          -0.000293143    0.000704912   -0.000551137
     14        1           0.000054994   -0.002828240   -0.000951036
     15        1           0.000587230    0.000345730   -0.000352694
 -------------------------------------------------------------------
 Cartesian Forces:  Max     0.018608595 RMS     0.004249954

 GradGradGradGradGradGradGradGradGradGradGradGradGradGradGradGradGradGrad
 Berny optimization.
 Using GEDIIS/GDIIS optimizer.
 FormGI is forming the generalized inverse of G from B-inverse, IUseBI=4.
 Internal  Forces:  Max     0.004287349 RMS     0.001229332
 Search for a local minimum.
 Step number   4 out of a maximum of   69
 All quantities printed in internal units (Hartrees-Bohrs-Radians)
 Mixed Optimization -- RFO/linear search
 Update second derivatives using D2CorX and points    3    4
 DE= -2.39D-03 DEPred=-1.52D-03 R= 1.56D+00
 TightC=F SS=  1.41D+00  RLast= 3.50D-01 DXNew= 1.4270D+00 1.0501D+00
 Trust test= 1.56D+00 RLast= 3.50D-01 DXMaxT set to 1.05D+00
 ITU=  1  1  1  0
 Use linear search instead of GDIIS.
     Eigenvalues ---    0.00378   0.01457   0.01664   0.03055   0.03272
     Eigenvalues ---    0.03858   0.04785   0.05104   0.06121   0.07106
     Eigenvalues ---    0.07960   0.10176   0.10631   0.13053   0.14404
     Eigenvalues ---    0.15976   0.16000   0.16341   0.16529   0.19070
     Eigenvalues ---    0.22268   0.23217   0.25193   0.27050   0.31404
     Eigenvalues ---    0.34416   0.34654   0.34765   0.35062   0.35350
     Eigenvalues ---    0.35929   0.38396   0.39615   0.40146   0.41936
     Eigenvalues ---    0.44466   0.45508   0.45747   1.24000
 RFO step:  Lambda=-2.35707544D-03 EMin= 3.78197585D-03
 Quartic linear search produced a step of  2.00000.
 Iteration  1 RMS(Cart)=  0.14214697 RMS(Int)=  0.05379340
 Iteration  2 RMS(Cart)=  0.06226693 RMS(Int)=  0.00702536
 Iteration  3 RMS(Cart)=  0.00422725 RMS(Int)=  0.00648456
 Iteration  4 RMS(Cart)=  0.00002938 RMS(Int)=  0.00648454
 Iteration  5 RMS(Cart)=  0.00000092 RMS(Int)=  0.00648454
 Variable       Old X    -DE/DX   Delta X   Delta X   Delta X     New X
                                 (Linear)    (Quad)   (Total)
    R1        2.68317  -0.00042  -0.00131  -0.00153  -0.00284   2.68033
    R2        2.06150   0.00009  -0.00337   0.00202  -0.00135   2.06015
    R3        2.07703   0.00000  -0.00051   0.00100   0.00049   2.07751
    R4        2.07579  -0.00003  -0.00075   0.00074  -0.00001   2.07577
    R5        2.58990   0.00289   0.01351   0.00280   0.01631   2.60621
    R6        2.77991   0.00178  -0.03451   0.01857  -0.03363   2.74628
    R7        2.78254  -0.00115  -0.00148  -0.00260   0.00659   2.78912
    R8        2.06663   0.00034   0.00906  -0.00144   0.00762   2.07425
    R9        2.66262  -0.00038   0.01599  -0.00646   0.01657   2.67919
[...]
 ! D14   D(14,4,5,7)          -109.5884         -DE/DX =    0.0                 !
 ! D15   D(3,5,7,8)            128.3864         -DE/DX =    0.0                 !
 ! D16   D(3,5,7,15)           -27.7938         -DE/DX =    0.0                 !
 ! D17   D(4,5,7,8)             17.9587         -DE/DX =    0.0                 !
 ! D18   D(4,5,7,15)          -138.2215         -DE/DX =    0.0                 !
 --------------------------------------------------------------------------------
 GradGradGradGradGradGradGradGradGradGradGradGradGradGradGradGradGradGrad


 ----------------------------------------------------------------------

 Electric dipole moment (input orientation):
 (Debye = 10**-18 statcoulomb cm , SI units = C m)
                  (au)            (Debye)         (10**-30 SI)
   Tot        0.197048D+01      0.500846D+01      0.167064D+02
   x         -0.596126D+00     -0.151520D+01     -0.505417D+01
   y         -0.110745D+01     -0.281484D+01     -0.938931D+01
   z         -0.151690D+01     -0.385558D+01     -0.128608D+02

 Dipole polarizability, Alpha (input orientation).
 (esu units = cm**3 , SI units = C**2 m**2 J**-1)
 Alpha(0;0):
               (au)            (10**-24 esu)      (10**-40 SI)
   iso        0.687463D+02      0.101871D+02      0.113347D+02
   aniso      0.363724D+02      0.538983D+01      0.599699D+01
   xx         0.616944D+02      0.914216D+01      0.101720D+02
   yx         0.338953D+01      0.502276D+00      0.558857D+00
   yy         0.804364D+02      0.119194D+02      0.132622D+02
   zx         0.235233D+01      0.348580D+00      0.387847D+00
   zy         0.178888D+02      0.265085D+01      0.294947D+01
   zz         0.641081D+02      0.949984D+01      0.105700D+02

 ----------------------------------------------------------------------

 Dipole orientation:
     6          1.74772176         -0.02381525         -0.11208559
     8          3.22717128          0.49618077         -2.28511495
     6          4.83706826         -1.45045611         -2.90930625
     7          5.92689921         -1.25039993         -5.45925278
     6          4.30793200         -3.30906120         -4.90306229
     8          4.68993062         -5.90600106         -5.13190252
     6          2.43923839         -4.78499501         -6.28703573
     6          2.38149556         -4.76556258         -9.01500927
     7          2.28209911         -4.74108871        -11.19611369
     1          0.61181355          1.65869475          0.24762253
     1          2.93678344         -0.40653589          1.54900135
     1          0.48650864         -1.64658102         -0.40969623
     1          6.07241014         -2.07567282         -1.37273413
     1          7.79160445         -1.70476809         -5.54464727
     1          0.66989121         -5.31235607         -5.38556934

 Electric dipole moment (dipole orientation):
 (Debye = 10**-18 statcoulomb cm , SI units = C m)
                  (au)            (Debye)         (10**-30 SI)
   Tot        0.197048D+01      0.500846D+01      0.167064D+02
   x          0.000000D+00      0.000000D+00      0.000000D+00
   y          0.000000D+00      0.000000D+00      0.000000D+00
   z          0.197048D+01      0.500846D+01      0.167064D+02

 Dipole polarizability, Alpha (dipole orientation).
 (esu units = cm**3 , SI units = C**2 m**2 J**-1)
 Alpha(0;0):
               (au)            (10**-24 esu)      (10**-40 SI)
   iso        0.687463D+02      0.101871D+02      0.113347D+02
   aniso      0.363724D+02      0.538983D+01      0.599699D+01
   xx         0.611608D+02      0.906310D+01      0.100841D+02
   yx         0.306238D+01      0.453798D+00      0.504919D+00
   yy         0.583058D+02      0.864003D+01      0.961333D+01
   zx         0.272877D+01      0.404362D+00      0.449913D+00
   zy         0.133575D+02      0.197937D+01      0.220235D+01
   zz         0.867721D+02      0.128583D+02      0.143068D+02

 ----------------------------------------------------------------------
 1\1\GINC-LEWIS4-R630-HPC4-NODE537\Freq\RB3LYP\6-31G(2df,p)\C5H6N2O2\KS
 29C\03-Jul-2022\0\\#N Geom=AllCheck Guess=TCheck SCRF=Check GenChk RB3
 LYP/6-31G(2df,p) Freq\\Title Card Required\\0,1\C,0.8937601252,-0.0451
 626695,-0.2412176156\O,2.0104834399,0.2998393263,0.5618079165\C,2.8193
 123587,1.2499019132,-0.0205904528\N,3.7845965425,1.8658977245,0.903201
 0963\C,2.7784803418,2.6777568267,0.3235491928\O,2.8747832645,3.8553717
 502,-0.4167313767\C,1.9872764899,3.8259988308,0.7475435568\C,2.3960128
 905,4.6318048461,1.873855233\N,2.6965543893,5.2748940775,2.7855578456\
 H,0.3516979325,-0.8258380743,0.2944880474\H,1.2050628003,-0.4332498426
 ,-1.2220728089\H,0.2260152185,0.8129369856,-0.4006934536\H,3.161444638
 2,1.0019146419,-1.0302514119\H,4.7108987918,1.9940254114,0.5043329197\
 H,0.9282707764,3.8771082522,0.5067313114\\Version=ES64L-G16RevA.03\Sta
 te=1-A\HF=-453.9814644\RMSD=1.926e-09\RMSF=3.044e-05\ZeroPoint=0.11026
 02\Thermal=0.1190328\Dipole=-0.5961265,-1.107445,-1.5169021\DipoleDeri
 v=0.6799239,0.2618968,0.1863948,0.0835943,0.4207006,0.1053689,0.269891
 8,0.2798496,0.470955,-0.914815,-0.562807,-0.1978497,-0.4586802,-0.9501
 886,-0.1887099,0.0232088,0.0983628,-0.4521079,0.720743,0.5273807,0.065
 0499,0.4131627,1.0400991,0.1751108,-0.2357602,-0.3071906,0.338592,-0.7
 186156,0.1511349,-0.2235173,0.0808827,-0.4898055,-0.0088828,-0.4557287
 ,0.1318253,-0.3770999,0.4796385,-0.3173274,-0.1002566,-0.2192204,0.827
 0968,-0.0116032,0.1774812,-0.207135,0.3937977,-0.3875851,-0.0139544,0.
 1552349,-0.0047039,-0.7554274,0.14496,0.0485968,0.1210536,-0.6266438,0
 .3643243,0.0347297,0.0286191,0.130003,0.0978042,-0.0653334,0.0010981,0
 .0681358,0.438078,-0.0025432,0.0011514,-0.0435578,-0.0159713,0.1046992
 ,-0.0408335,-0.0571776,0.0925438,0.087467,-0.255037,-0.0106538,0.01754
 09,0.0339411,-0.2999888,0.0316507,0.06725,-0.0324921,-0.2500396,-0.004
 1415,-0.0857717,0.0042601,-0.0857832,-0.0366527,0.0368154,0.0364613,0.
 0612552,0.0195906,-0.0359028,0.011353,0.0828537,0.0034775,0.0128331,-0
 .0527196,-0.0188066,-0.1255617,-0.1393451,-0.0776537,0.0233527,-0.0313
 482,0.1357753,-0.0886439,0.0280623,-0.0588307,-0.0441856,0.0109967,-0.
 0013942,-0.0174559,0.027235,-0.0522362,-0.0707531,-0.0922303,0.0698999
 ,-0.0166057,-0.0996322,0.1743088,-0.0108592,0.0245048,-0.0590781,0.121
 4081,-0.0177508,0.155574,-0.0537684,0.1796297,-0.0212504,0.0078303,0.0
 048363,0.0148364,0.0668189,-0.0439046,-0.0231583,-0.0660869,0.0057618\
 Polar=61.6943543,3.3895255,80.4363511,2.3523328,17.8888303,64.1080717\
 Quadrupole=7.1346156,-3.5973008,-3.5373148,-0.8828016,-1.3763491,-1.25
 06069\PG=C01 [X(C5H6N2O2)]\NImag=0\\0.50639042,0.00089107,0.57973544,-
 0.06163258,-0.03812752,0.53736078,-0.15831887,-0.02237730,-0.08223590,
 0.37193370,-0.03675235,-0.07797002,-0.01892008,0.18126647,0.26643593,-
 0.05731175,0.00073320,-0.13239799,0.05598523,-0.06252952,0.28287010,-0
 .04073134,-0.03125699,0.00757057,-0.12422117,-0.07107289,0.03437981,0.
 38192912,-0.02167873,-0.01801595,-0.00165119,-0.07756126,-0.15616080,0
 .05428907,0.10529064,0.53383919,-0.01149340,-0.01566129,0.00739050,0.0
 6660593,0.08626510,-0.13357547,-0.08941163,0.10005818,0.57067285,0.001
 36606,-0.00201237,0.00468958,-0.02631357,-0.01855484,-0.01351339,-0.12
 332740,-0.05801320,-0.06623873,0.68101773,0.00004206,-0.00179638,0.002
 29737,-0.02217243,-0.00717657,-0.01356812,-0.01384126,-0.04533648,-0.0
 5598206,0.01257132,0.23143691,0.00490474,0.00197957,0.00113687,0.00668
 770,-0.01567268,0.01663916,-0.03333177,-0.04085358,-0.11736358,-0.0438
 8939,-0.02282934,0.25029334,0.00263016,-0.00302158,0.00023733,0.002893
 06,-0.01823328,-0.00295245,-0.00763274,0.01296861,0.03187584,-0.196225
 60,0.04522405,-0.03234070,0.39476447,-0.00087069,0.00065397,-0.0013061
 9,-0.00663937,-0.01723803,0.00402148,-0.00204241,-0.24882871,-0.079089
 45,0.10230555,-0.09623641,0.04699635,-0.18099274,0.76514562,-0.0024092
 7,-0.00221280,-0.00126700,-0.00816359,0.02260174,-0.00298867,0.0284147
 2,-0.06182181,-0.06513321,-0.06229213,0.06790578,-0.05887182,-0.002273
 08,0.01694442,0.29148864,0.00042186,0.00077556,0.00045368,0.00185798,-
 0.00346540,-0.00017689,-0.01076720,0.00716431,0.00671105,0.02386460,0.
 02411515,-0.01589093,-0.05916623,-0.03909779,0.01267895,0.14725557,0.0
 0361368,0.00139233,0.00265838,-0.00220497,-0.01247389,0.00077295,-0.01
 048923,-0.00565725,0.02075236,0.01361051,-0.01646965,0.01134586,-0.012
 93214,-0.19864389,0.07947530,0.02503551,0.23774022,-0.00015775,0.00029
 585,-0.00030879,0.00108344,-0.00299140,0.00180570,-0.00459797,-0.00019
 215,0.01657922,0.00024523,0.01228835,-0.01429150,0.00083483,0.11109546
 ,-0.10630428,-0.09635884,-0.11201066,0.26190842,0.00136002,0.00021493,
 0.00061769,-0.00158866,-0.00047149,0.00190298,0.00517916,-0.00032443,-
 0.01326672,-0.01780684,0.00847879,0.01224037,-0.10036953,0.12774776,0.
 00694357,-0.10141151,-0.03233104,0.08227377,0.60687103,-0.00049395,-0.
 00009448,-0.00016657,-0.00211988,0.00197592,0.00220609,0.01657410,-0.0
 0286291,-0.00709589,0.00291624,-0.01380553,0.00662694,0.09993441,-0.18
 754568,-0.05725589,-0.00946281,-0.01369697,-0.00793180,-0.07583184,0.3
 8223554,0.00002570,0.00003478,0.00011384,-0.00087729,0.00274029,0.0006
 4351,0.00809285,0.00515289,-0.01386364,-0.00774929,0.00539370,0.014496
 51,0.02017872,-0.10094644,-0.02698623,0.05155511,0.03084655,-0.1325672
 9,0.05860002,0.15965650,0.39676719,-0.00049152,0.00008235,-0.00027442,
 0.00050775,0.00032220,-0.00013515,-0.00097066,-0.00070398,0.00115083,-
 0.00094695,0.00114313,-0.00218111,0.00654683,0.00004537,0.00936238,0.0
 0624223,0.01205876,0.01326556,-0.10146795,-0.03336566,-0.05425026,0.21
 277259,-0.00003682,0.00007227,-0.00003146,-0.00025515,0.00022018,0.000
 38864,0.00058514,0.00224919,-0.00309523,-0.00122537,0.00186971,0.00231
 242,-0.00634690,-0.02257032,-0.03298727,0.01382636,0.00270095,0.001595
 22,-0.04537405,-0.12865288,-0.09018452,0.21599354,0.55789183,-0.000605
 03,-0.00032642,-0.00054549,0.00125810,0.00110262,-0.00049487,-0.002004
 55,-0.00373930,0.00284609,-0.00414174,0.00171464,-0.00314394,0.0198675
 4,-0.00397979,-0.01119602,0.00922770,-0.02770435,-0.03628803,-0.073459
 69,-0.08070578,-0.17463091,0.30776808,0.65600126,1.02107530,0.00007823
 ,0.00005371,0.00007720,-0.00009053,-0.00017724,0.00008032,0.00001927,0
 .00062910,-0.00034430,0.00130375,-0.00050638,0.00121647,-0.00335983,0.
 00196717,-0.00162561,-0.00013821,-0.00144759,-0.00122192,0.01775723,-0
 .00629971,-0.00505873,-0.11707899,-0.17589961,-0.25041114,0.10089656,0
 .00020981,0.00011163,0.00018662,-0.00027713,-0.00043671,0.00000951,0.0
 0012132,0.00061931,0.00001196,0.00034289,-0.00020326,0.00019054,-0.001
 48527,0.00354870,0.00323173,-0.00181848,0.00002354,-0.00096832,-0.0023
 9190,0.00689716,-0.01187230,-0.17577253,-0.41247503,-0.53394174,0.1799
 8609,0.40274614,0.00034641,0.00023853,0.00030760,-0.00078930,-0.000852
 68,0.00039557,0.00081612,0.00252050,-0.00135872,0.00215363,-0.00084397
 ,0.00201998,-0.00851151,0.00203329,0.00066587,-0.00099478,0.00341326,0
 .00350686,-0.00052516,-0.01658844,-0.00297034,-0.24995262,-0.53329489,
 -0.79128411,0.25543479,0.54468460,0.78956131,-0.10620827,-0.08596545,0
 .06347480,-0.02404260,-0.02534159,0.00981630,-0.00165099,0.00061954,-0
 .00399681,-0.00096177,-0.00087940,0.00020666,-0.00048017,0.00009669,-0
 .00018245,0.00006848,-0.00038050,0.00006895,-0.00010071,-0.00006764,-0
 .00000657,0.00005573,-0.00000101,0.00008751,-0.00000997,-0.00002057,-0
 .00005053,0.12580854,-0.09223822,-0.18794753,0.09843690,-0.00873612,-0
 .00647193,0.00110784,0.00029197,0.00126772,-0.00220227,-0.00065917,0.0
 0012101,0.00030518,0.00024807,0.00059675,0.00024686,-0.00003354,-0.000
 17784,-0.00004852,0.00005257,0.00000362,0.00007213,-0.00002335,0.00000
 704,0.00006763,0.00000101,-0.00002681,-0.00006524,0.10606351,0.1999294
 0,0.07310685,0.10565078,-0.12292565,-0.01669992,-0.01915387,0.01042332
 ,-0.00218362,-0.00066827,-0.00191066,-0.00101215,-0.00044454,0.0002430
 2,-0.00015046,0.00011515,-0.00000054,-0.00001157,-0.00014108,0.0000465
 3,0.00003676,0.00000383,0.00000735,0.00001048,-0.00000171,0.00002101,0
 .00000082,0.00000305,-0.00000866,-0.06656460,-0.10575534,0.12691399,-0
 .07932152,0.02911453,0.07633057,0.00051395,-0.01663951,-0.03325796,0.0
 0473262,0.00265291,-0.00530660,-0.00050977,-0.00005980,-0.00024314,-0.
 00064573,0.00011860,0.00066409,0.00000930,-0.00032036,-0.00009679,-0.0
 0006810,0.00008262,0.00009488,0.00004076,0.00002778,0.00002454,0.00000
 391,-0.00000629,-0.00001344,-0.00362185,0.00687371,0.01207475,0.082856
 42,0.02842898,-0.08164115,-0.07305927,-0.00577891,-0.00216010,-0.00926
 077,0.00253079,0.00148421,-0.00332805,-0.00035672,0.00009375,0.0003310
 7,0.00021825,-0.00024350,0.00008804,-0.00017642,-0.00018771,0.00011189
 ,0.00011956,0.00008242,0.00001725,-0.00005108,0.00000059,0.00000998,-0
 .00000076,-0.00000873,-0.00000672,-0.00707341,0.00962999,0.02036893,-0
 .02776264,0.08141597,0.07174771,-0.07335304,-0.23607336,-0.01090504,-0
 .01201515,-0.02255079,0.00331978,0.00462195,-0.00057927,-0.00055277,-0
 .00000496,0.00025034,-0.00002290,0.00003265,0.00005252,-0.00013653,-0.
 00053036,0.00012417,-0.00006322,0.00011221,-0.00000892,0.00002896,0.00
 001120,0.00008700,-0.00001753,-0.00004277,-0.00004835,0.00639300,-0.00
 618147,-0.01236463,-0.06876079,0.08688097,0.26604648,-0.13018066,0.111
 54031,-0.01354271,-0.03109885,0.01306329,-0.01427407,0.00351404,0.0069
 6058,-0.00226470,0.00034587,-0.00064050,0.00003406,-0.00024095,-0.0008
 8427,0.00007539,0.00006355,-0.00069599,0.00001071,-0.00033540,-0.00015
 613,-0.00011435,0.00012540,-0.00000248,0.00009261,-0.00000757,-0.00000
 966,-0.00002593,0.01102075,-0.01165121,0.00190393,-0.00425064,0.010396
 12,0.00039753,0.15127420,0.11522222,-0.21518029,0.02385936,-0.00726478
 ,0.01379838,-0.00052100,-0.00109530,0.00321370,0.00016212,0.00043059,-
 0.00029947,0.00042661,0.00118110,-0.00012999,-0.00045855,0.00001609,0.
 00051759,-0.00013523,0.00009425,-0.00030162,-0.00008878,-0.00008549,-0
 .00005260,-0.00003013,0.00000624,0.00002230,0.00001514,0.01342512,-0.0
 1663430,0.00056431,0.00550035,-0.00843081,0.00217665,-0.12728435,0.223
 66761,-0.01332045,0.02100430,-0.05400936,-0.02340881,0.01323889,-0.005
 49516,0.00246584,0.00240545,-0.00106493,-0.00010629,-0.00010007,-0.000
 23600,-0.00010084,-0.00007364,0.00051199,0.00014682,-0.00049704,-0.000
 18657,-0.00029562,-0.00022578,-0.00001213,0.00006233,-0.00002296,0.000
 12448,-0.00000504,-0.00002179,-0.00007631,-0.00933684,0.01390892,-0.00
 082483,0.01685660,-0.02288829,0.00432851,0.02712755,-0.02580691,0.0568
 2963,0.00367398,0.00182953,0.00420635,-0.01227663,-0.00620986,0.020765
 75,-0.07212561,0.02156095,0.08057807,0.00873787,-0.01324339,-0.0272733
 6,-0.00888566,0.00279806,0.00928137,0.00086098,-0.00013249,-0.00183772
 ,0.00155554,0.00058724,0.00190066,-0.00012866,0.00061590,-0.00074180,0
 .00015059,-0.00000213,0.00035223,0.00002888,-0.00012538,-0.00046029,0.
 00017529,-0.00041172,-0.00145584,-0.00050083,-0.00001194,-0.00019773,0
 .07557313,0.00315271,0.00210813,0.00429111,-0.01809130,0.00051344,0.02
 680613,0.01988084,-0.06499755,-0.06237515,-0.00217046,-0.00443352,-0.0
 0158450,0.00796497,-0.00601694,-0.02759170,0.00000270,0.00165931,0.003
 53829,-0.00231731,0.00029494,-0.00252203,0.00020115,-0.00079701,0.0005
 6963,-0.00002488,-0.00002570,-0.00023945,0.00009305,-0.00012918,-0.000
 14277,0.00068144,-0.00005336,-0.00142377,-0.00024238,-0.00030931,-0.00
 062885,-0.00877133,0.07172328,-0.00272840,-0.00037751,0.00036660,0.012
 16482,0.00523642,-0.01434606,0.07544558,-0.05799917,-0.26009886,0.0038
 4422,-0.01068311,-0.01419041,-0.00547861,0.00093146,-0.00179721,-0.000
 06308,-0.00186082,-0.00002676,0.00062757,0.00118619,0.00106140,-0.0002
 8910,0.00031559,-0.00027952,0.00015111,0.00000286,0.00025371,0.0001946
 5,0.00019608,0.00045830,0.00141640,0.00072788,0.00073774,0.00051933,-0
 .00014455,0.00006182,-0.08644008,0.06183728,0.28581996,-0.00035360,0.0
 0001966,0.00016720,-0.00001343,0.00194578,-0.00124891,-0.01369739,0.00
 050953,0.00542650,-0.35095991,-0.04029265,0.13022231,-0.02293069,-0.00
 246036,0.00583726,0.00492800,0.00032997,0.00107161,-0.00142364,-0.0034
 9710,-0.00145280,0.00031134,0.00006042,0.00031821,-0.00009281,-0.00009
 037,-0.00019312,0.00005188,-0.00003013,-0.00006070,0.00005350,-0.00004
 741,0.00002590,0.00012701,-0.00001644,0.00006540,0.00313138,-0.0003415
 0,0.00064974,0.38059856,-0.00010594,-0.00104347,0.00124794,-0.00714592
 ,-0.00222628,-0.00440322,-0.01507474,-0.00139069,0.02067057,-0.0522430
 6,-0.04760309,0.01269556,0.03089997,0.00356884,-0.01760963,-0.00659818
 ,0.00153793,-0.00064601,0.00587170,0.00080878,0.00178940,0.00012320,0.
 00051507,0.00052131,-0.00021163,-0.00010122,-0.00021210,-0.00046344,-0
 .00020359,-0.00036314,-0.00014741,-0.00008275,-0.00026214,-0.00013513,
 0.00006512,-0.00010188,0.00173647,0.00049369,0.00076062,0.04354865,0.0
 4712271,-0.00070454,-0.00000080,0.00071930,-0.00055909,0.00144316,-0.0
 0099345,-0.02848425,-0.00286143,-0.00313844,0.18866104,0.01515088,-0.0
 7792574,-0.02287878,0.00348380,-0.01163514,0.00081194,-0.00035512,0.00
 301884,0.00192472,-0.00176599,-0.00055854,0.00071375,0.00049201,0.0007
 4561,-0.00041067,-0.00011199,-0.00041044,-0.00006913,-0.00011511,-0.00
 007050,0.00020859,0.00003750,0.00003767,0.00012195,0.00001204,-0.00000
 190,0.00118607,-0.00057977,0.00197232,-0.14060812,-0.01447305,0.088121
 93,-0.00031494,0.00011203,-0.00013937,0.00025787,0.00032071,-0.0000598
 2,-0.00024972,-0.00007456,-0.00002533,0.00041594,0.00006131,-0.0003619
 2,-0.00689739,-0.00209156,0.00368839,-0.01408937,0.00628588,0.00541688
 ,-0.30815062,0.01120012,-0.07093865,-0.00551790,-0.00196776,-0.0072803
 4,0.00056836,0.00121421,0.00195320,0.00004205,-0.00003372,0.00000973,0
 .00003187,-0.00003463,0.00000174,0.00014408,-0.00011764,0.00004708,0.0
 0002975,-0.00001770,-0.00001414,0.00026978,-0.00005453,0.00008652,0.33
 346025,0.00061618,-0.00038451,0.00028459,-0.00064195,-0.00062953,-0.00
 005226,-0.00040199,0.00057703,0.00090911,0.00305810,-0.00016102,-0.002
 26998,0.02437248,0.00393957,0.00944377,-0.01028307,0.00173532,-0.00400
 097,0.01646251,-0.04533831,-0.00008942,-0.01996761,-0.00097901,-0.0095
 5957,0.00192449,-0.00069133,-0.00080184,-0.00010490,0.00003563,-0.0000
 3531,-0.00011593,0.00010118,-0.00002197,-0.00025820,0.00005370,-0.0001
 9035,-0.00021989,-0.00003021,-0.00012922,0.00036194,-0.00146104,-0.000
 35611,-0.01480216,0.04323254,0.00023176,0.00012237,0.00013216,-0.00014
 628,-0.00049284,0.00006509,-0.00049149,0.00073887,0.00059813,-0.000097
 82,-0.00029454,0.00094377,0.00171506,-0.00025854,-0.00653889,0.0320473
 6,-0.00616523,0.00298349,-0.07755705,0.00194439,-0.06149182,-0.0252797
 2,-0.00149830,-0.00703660,0.00213423,-0.00136196,-0.00055396,-0.000034
 93,0.00002641,-0.00000807,0.00000831,-0.00003040,-0.00003912,-0.000061
 30,-0.00003110,0.00005076,0.00013632,0.00004555,0.00000696,-0.00022049
 ,0.00038577,0.00011847,0.06761603,0.00686952,0.07076964\\0.00000013,0.
 00000217,-0.00000862,0.00000111,-0.00000457,0.00005488,0.00004065,0.00
 002405,-0.00003724,-0.00007211,-0.00003536,-0.00002589,-0.00003209,-0.
 00004125,0.00003526,-0.00001675,0.00001325,-0.00002221,0.00010142,0.00
 005552,0.00006046,-0.00002883,-0.00003917,-0.00003612,-0.00000069,0.00
 001074,0.00000911,0.00000584,0.00000679,0.00000184,-0.00000583,-0.0000
 0229,0.00000045,0.00000189,0.00000063,-0.00000497,0.00001317,0.0000127
 6,0.00000246,0.00000233,0.00001925,-0.00000715,-0.00001025,-0.00002249
 ,-0.00002229\\\@


 THE RARE EARTHS PERPLEX US IN OUR RESEARCHES,
 BAFFLE US IN OUR SPECULATIONS, AND HAUNT US IN OUR
 VERY DREAMS.  THEY STRETCH LIKE AN UNKNOWN BEFORE US,
 MOCKING, MYSTIFYING, AND MURMURING STRANGE REVELATIONS
 AND POSSIBILITIES.  -- SIR WILLIAM CROOKE, 1832-1919
 Job cpu time:       0 days  1 hours 15 minutes 32.1 seconds.
 Elapsed time:       0 days  0 hours 18 minutes 53.6 seconds.
 File lengths (MBytes):  RWF=    104 Int=      0 D2E=      0 Chk=      7 Scr=      1
 Normal termination of Gaussian 16 at Sun Jul  3 20:08:29 2022.
### All Done ###
