### Starting Gaussian ###
 Entering Gaussian System, Link 0=g16
 Initial command:
 /cluster/software/gaussian/gaussian-16-A.03/avx2/g16/l1.exe "/local/scratch/ks29c/Gau-10825.inp" -scrdir="/local/scratch/ks29c/"
 Entering Link 1 = /cluster/software/gaussian/gaussian-16-A.03/avx2/g16/l1.exe PID=     10844.
  
 Copyright (c) 1988,1990,1992,1993,1995,1998,2003,2009,2016,
            Gaussian, Inc.  All Rights Reserved.
  
 This is part of the Gaussian(R) 16 program.  It is based on
 the Gaussian(R) 09 system (copyright 2009, Gaussian, Inc.),
 the Gaussian(R) 03 system (copyright 2003, Gaussian, Inc.),
 the Gaussian(R) 98 system (copyright 1998, Gaussian, Inc.),
 the Gaussian(R) 94 system (copyright 1995, Gaussian, Inc.),
 the Gaussian 92(TM) system (copyright 1992, Gaussian, Inc.),
 the Gaussian 90(TM) system (copyright 1990, Gaussian, Inc.),
 the Gaussian 88(TM) system (copyright 1988, Gaussian, Inc.),
 the Gaussian 86(TM) system (copyright 1986, Carnegie Mellon
 University), and the Gaussian 82(TM) system (copyright 1983,
 Carnegie Mellon University). Gaussian is a federally registered
 trademark of Gaussian, Inc.
  
 This software contains proprietary and confidential information,
 including trade secrets, belonging to Gaussian, Inc.
  
 This software is provided under written license and may be
 used, copied, transmitted, or stored only in accord with that
 written license.
  
 The following legend is applicable only to US Government
 contracts under FAR:
  
                    RESTRICTED RIGHTS LEGEND
  
 Use, reproduction and disclosure by the US Government is
 subject to restrictions as set forth in subparagraphs (a)
 and (c) of the Commercial Computer Software - Restricted
 Rights clause in FAR 52.227-19.
  
 Gaussian, Inc.
 340 Quinnipiac St., Bldg. 40, Wallingford CT 06492
  
  
 ---------------------------------------------------------------
 Warning -- This program may not be used in any manner that
 competes with the business of Gaussian, Inc. or will provide
 assistance to any competitor of Gaussian, Inc.  The licensee
 of this program is prohibited from giving any competitor of
 Gaussian, Inc. access to this program.  By using this program,
 the user acknowledges that Gaussian, Inc. is engaged in the
 business of creating and licensing software in the field of
 computational chemistry and represents and warrants to the
 licensee that it is not a competitor of Gaussian, Inc. and that
 it will not use this program in any manner prohibited above.
 ---------------------------------------------------------------
  

 Cite this work as:
 Gaussian 16, Revision A.03,
 M. J. Frisch, G. W. Trucks, H. B. Schlegel, G. E. Scuseria, 
 M. A. Robb, J. R. Cheeseman, G. Scalmani, V. Barone, 
 G. A. Petersson, H. Nakatsuji, X. Li, M. Caricato, A. V. Marenich, 
 J. Bloino, B. G. Janesko, R. Gomperts, B. Mennucci, H. P. Hratchian, 
 J. V. Ortiz, A. F. Izmaylov, J. L. Sonnenberg, D. Williams-Young, 
 F. Ding, F. Lipparini, F. Egidi, J. Goings, B. Peng, A. Petrone, 
 T. Henderson, D. Ranasinghe, V. G. Zakrzewski, J. Gao, N. Rega, 
 G. Zheng, W. Liang, M. Hada, M. Ehara, K. Toyota, R. Fukuda, 
 J. Hasegawa, M. Ishida, T. Nakajima, Y. Honda, O. Kitao, H. Nakai, 
 T. Vreven, K. Throssell, J. A. Montgomery, Jr., J. E. Peralta, 
 F. Ogliaro, M. J. Bearpark, J. J. Heyd, E. N. Brothers, K. N. Kudin, 
 V. N. Staroverov, T. A. Keith, R. Kobayashi, J. Normand, 
 K. Raghavachari, A. P. Rendell, J. C. Burant, S. S. Iyengar, 
 J. Tomasi, M. Cossi, J. M. Millam, M. Klene, C. Adamo, R. Cammi, 
 J. W. Ochterski, R. L. Martin, K. Morokuma, O. Farkas, 
 J. B. Foresman, and D. J. Fox, Gaussian, Inc., Wallingford CT, 2016.
 
 ******************************************
 Gaussian 16:  ES64L-G16RevA.03 25-Dec-2016
                 3-Aug-2022 
 ******************************************
 %chk=COC1CCCNCC1.chk
 %NProcShared=20
 Will use up to   20 processors via shared memory.
 -----------------------------
 # opt freq b3lyp/6-31g(2df,p)
 -----------------------------
 1/18=20,19=15,26=3,38=1/1,3;
 2/9=110,12=2,17=6,18=5,40=1/2;
 3/5=1,6=6,7=104,11=2,25=1,30=1,71=1,74=-5/1,2,3;
 4//1;
 5/5=2,38=5/2;
 6/7=2,8=2,9=2,10=2,28=1/1;
 7//1,2,3,16;
 1/18=20,19=15,26=3/3(2);
 2/9=110/2;
 99//99;
 2/9=110/2;
 3/5=1,6=6,7=104,11=2,25=1,30=1,71=1,74=-5/1,2,3;
 4/5=5,16=3,69=1/1;
 5/5=2,38=5/2;
 7//1,2,3,16;
 1/18=20,19=15,26=3/3(-5);
 2/9=110/2;
 6/7=2,8=2,9=2,10=2,19=2,28=1/1;
 99/9=1/99;
 -------------------
 Title Card Required
 -------------------
 Symbolic Z-matrix:
 Charge =  0 Multiplicity = 1
 C                     0.98607   0.09327   0.13674 
 O                     2.40842   0.04128   0.04033 
 C                     2.83374  -0.74598  -1.08119 
 C                     2.83335  -2.22615  -0.67525 
 C                     3.00117  -3.19038  -1.84193 
 C                     4.24597  -2.94321  -2.69373 
 N                     4.10078  -1.78397  -3.56504 
 C                     4.50763  -0.50936  -2.98304 
 C                     4.24035  -0.29374  -1.49122 
 H                     0.71451   0.68397   1.01399 
 H                     0.55756  -0.90616   0.2513 
 H                     0.56533   0.57059  -0.75396 
 H                     2.14147  -0.5665   -1.91299 
 H                     1.90383  -2.48417  -0.15694 
 H                     3.62038  -2.40372   0.07026 
 H                     2.10108  -3.15114  -2.47064 
 H                     3.04241  -4.20956  -1.43971 
 H                     4.38487  -3.81794  -3.33802 
 H                     5.14858  -2.87946  -2.07315 
 H                     3.13985  -1.7227   -3.91004 
 H                     4.00139   0.28638  -3.54399 
 H                     5.57801  -0.36643  -3.17562 
 H                     4.38492   0.76959  -1.26138 
 H                     5.00192  -0.81853  -0.89899 
 

 GradGradGradGradGradGradGradGradGradGradGradGradGradGradGradGradGradGrad
 Berny optimization.
 Initialization pass.
                           ----------------------------
                           !    Initial Parameters    !
                           ! (Angstroms and Degrees)  !
 --------------------------                            --------------------------
 ! Name  Definition              Value          Derivative Info.                !
 --------------------------------------------------------------------------------
 ! R1    R(1,2)                  1.4266         estimate D2E/DX2                !
 ! R2    R(1,10)                 1.0919         estimate D2E/DX2                !
 ! R3    R(1,11)                 1.0934         estimate D2E/DX2                !
 ! R4    R(1,12)                 1.0946         estimate D2E/DX2                !
 ! R5    R(2,3)                  1.4347         estimate D2E/DX2                !
 ! R6    R(3,4)                  1.5348         estimate D2E/DX2                !
 ! R7    R(3,9)                  1.5334         estimate D2E/DX2                !
 ! R8    R(3,13)                 1.097          estimate D2E/DX2                !
 ! R9    R(4,5)                  1.5228         estimate D2E/DX2                !
 ! R10   R(4,14)                 1.0951         estimate D2E/DX2                !
 ! R11   R(4,15)                 1.0985         estimate D2E/DX2                !
 ! R12   R(5,6)                  1.5285         estimate D2E/DX2                !
 ! R13   R(5,16)                 1.0986         estimate D2E/DX2                !
 ! R14   R(5,17)                 1.0965         estimate D2E/DX2                !
 ! R15   R(6,7)                  1.4574         estimate D2E/DX2                !
 ! R16   R(6,18)                 1.0952         estimate D2E/DX2                !
 ! R17   R(6,19)                 1.0972         estimate D2E/DX2                !
 ! R18   R(7,8)                  1.4591         estimate D2E/DX2                !
 ! R19   R(7,20)                 1.0228         estimate D2E/DX2                !
 ! R20   R(8,9)                  1.5308         estimate D2E/DX2                !
 ! R21   R(8,21)                 1.0973         estimate D2E/DX2                !
 ! R22   R(8,22)                 1.0969         estimate D2E/DX2                !
 ! R23   R(9,23)                 1.0975         estimate D2E/DX2                !
 ! R24   R(9,24)                 1.0982         estimate D2E/DX2                !
 ! A1    A(2,1,10)             108.7829         estimate D2E/DX2                !
 ! A2    A(2,1,11)             111.3771         estimate D2E/DX2                !
 ! A3    A(2,1,12)             110.129          estimate D2E/DX2                !
 ! A4    A(10,1,11)            108.2301         estimate D2E/DX2                !
 ! A5    A(10,1,12)            108.799          estimate D2E/DX2                !
 ! A6    A(11,1,12)            109.4625         estimate D2E/DX2                !
 ! A7    A(1,2,3)              111.6166         estimate D2E/DX2                !
 ! A8    A(2,3,4)              108.8052         estimate D2E/DX2                !
 ! A9    A(2,3,9)              108.6105         estimate D2E/DX2                !
 ! A10   A(2,3,13)             108.4137         estimate D2E/DX2                !
 ! A11   A(4,3,9)              110.8173         estimate D2E/DX2                !
 ! A12   A(4,3,13)             110.9884         estimate D2E/DX2                !
 ! A13   A(9,3,13)             109.1406         estimate D2E/DX2                !
 ! A14   A(3,4,5)              114.0776         estimate D2E/DX2                !
 ! A15   A(3,4,14)             110.6478         estimate D2E/DX2                !
 ! A16   A(3,4,15)             109.5848         estimate D2E/DX2                !
 ! A17   A(5,4,14)             107.8762         estimate D2E/DX2                !
 ! A18   A(5,4,15)             109.7932         estimate D2E/DX2                !
 ! A19   A(14,4,15)            104.4084         estimate D2E/DX2                !
 ! A20   A(4,5,6)              114.476          estimate D2E/DX2                !
 ! A21   A(4,5,16)             108.9974         estimate D2E/DX2                !
 ! A22   A(4,5,17)             108.1592         estimate D2E/DX2                !
 ! A23   A(6,5,16)             110.0318         estimate D2E/DX2                !
 ! A24   A(6,5,17)             108.9122         estimate D2E/DX2                !
 ! A25   A(16,5,17)            105.8992         estimate D2E/DX2                !
 ! A26   A(5,6,7)              112.3749         estimate D2E/DX2                !
 ! A27   A(5,6,18)             107.5758         estimate D2E/DX2                !
 ! A28   A(5,6,19)             111.3559         estimate D2E/DX2                !
 ! A29   A(7,6,18)             107.2298         estimate D2E/DX2                !
 ! A30   A(7,6,19)             111.9546         estimate D2E/DX2                !
 ! A31   A(18,6,19)            105.9497         estimate D2E/DX2                !
 ! A32   A(6,7,8)              115.3785         estimate D2E/DX2                !
 ! A33   A(6,7,20)             110.0532         estimate D2E/DX2                !
 ! A34   A(8,7,20)             110.132          estimate D2E/DX2                !
 ! A35   A(7,8,9)              117.5859         estimate D2E/DX2                !
 ! A36   A(7,8,21)             107.5137         estimate D2E/DX2                !
 ! A37   A(7,8,22)             108.4148         estimate D2E/DX2                !
 ! A38   A(9,8,21)             108.3896         estimate D2E/DX2                !
 ! A39   A(9,8,22)             108.8511         estimate D2E/DX2                !
 ! A40   A(21,8,22)            105.4227         estimate D2E/DX2                !
 ! A41   A(3,9,8)              112.285          estimate D2E/DX2                !
 ! A42   A(3,9,23)             110.5243         estimate D2E/DX2                !
 ! A43   A(3,9,24)             110.548          estimate D2E/DX2                !
 ! A44   A(8,9,23)             108.5157         estimate D2E/DX2                !
 ! A45   A(8,9,24)             109.7022         estimate D2E/DX2                !
 ! A46   A(23,9,24)            104.9932         estimate D2E/DX2                !
 ! D1    D(10,1,2,3)           178.8326         estimate D2E/DX2                !
 ! D2    D(11,1,2,3)            59.6254         estimate D2E/DX2                !
 ! D3    D(12,1,2,3)           -62.0126         estimate D2E/DX2                !
 ! D4    D(1,2,3,4)            -83.3617         estimate D2E/DX2                !
 ! D5    D(1,2,3,9)            155.9202         estimate D2E/DX2                !
 ! D6    D(1,2,3,13)            37.4464         estimate D2E/DX2                !
 ! D7    D(2,3,4,5)            168.6843         estimate D2E/DX2                !
 ! D8    D(2,3,4,14)            46.8355         estimate D2E/DX2                !
 ! D9    D(2,3,4,15)           -67.7664         estimate D2E/DX2                !
 ! D10   D(9,3,4,5)            -71.9655         estimate D2E/DX2                !
 ! D11   D(9,3,4,14)           166.1858         estimate D2E/DX2                !
 ! D12   D(9,3,4,15)            51.5839         estimate D2E/DX2                !
 ! D13   D(13,3,4,5)            49.4725         estimate D2E/DX2                !
 ! D14   D(13,3,4,14)          -72.3762         estimate D2E/DX2                !
 ! D15   D(13,3,4,15)          173.0219         estimate D2E/DX2                !
 ! D16   D(2,3,9,8)           -151.3817         estimate D2E/DX2                !
 ! D17   D(2,3,9,23)           -30.0572         estimate D2E/DX2                !
 ! D18   D(2,3,9,24)            85.7495         estimate D2E/DX2                !
 ! D19   D(4,3,9,8)             89.1511         estimate D2E/DX2                !
 ! D20   D(4,3,9,23)          -149.5244         estimate D2E/DX2                !
 ! D21   D(4,3,9,24)           -33.7177         estimate D2E/DX2                !
 ! D22   D(13,3,9,8)           -33.368          estimate D2E/DX2                !
 ! D23   D(13,3,9,23)           87.9566         estimate D2E/DX2                !
 ! D24   D(13,3,9,24)         -156.2368         estimate D2E/DX2                !
 ! D25   D(3,4,5,6)             55.3382         estimate D2E/DX2                !
 ! D26   D(3,4,5,16)           -68.3564         estimate D2E/DX2                !
 ! D27   D(3,4,5,17)           176.9458         estimate D2E/DX2                !
 ! D28   D(14,4,5,6)           178.7013         estimate D2E/DX2                !
 ! D29   D(14,4,5,16)           55.0067         estimate D2E/DX2                !
 ! D30   D(14,4,5,17)          -59.6911         estimate D2E/DX2                !
 ! D31   D(15,4,5,6)           -68.0985         estimate D2E/DX2                !
 ! D32   D(15,4,5,16)          168.2069         estimate D2E/DX2                !
 ! D33   D(15,4,5,17)           53.5091         estimate D2E/DX2                !
 ! D34   D(4,5,6,7)            -75.248          estimate D2E/DX2                !
 ! D35   D(4,5,6,18)           166.9512         estimate D2E/DX2                !
 ! D36   D(4,5,6,19)            51.2705         estimate D2E/DX2                !
 ! D37   D(16,5,6,7)            47.891          estimate D2E/DX2                !
 ! D38   D(16,5,6,18)          -69.9099         estimate D2E/DX2                !
 ! D39   D(16,5,6,19)          174.4095         estimate D2E/DX2                !
 ! D40   D(17,5,6,7)           163.5581         estimate D2E/DX2                !
 ! D41   D(17,5,6,18)           45.7572         estimate D2E/DX2                !
 ! D42   D(17,5,6,19)          -69.9234         estimate D2E/DX2                !
 ! D43   D(5,6,7,8)             88.8281         estimate D2E/DX2                !
 ! D44   D(5,6,7,20)           -36.5303         estimate D2E/DX2                !
 ! D45   D(18,6,7,8)          -153.1662         estimate D2E/DX2                !
 ! D46   D(18,6,7,20)           81.4754         estimate D2E/DX2                !
 ! D47   D(19,6,7,8)           -37.3674         estimate D2E/DX2                !
 ! D48   D(19,6,7,20)         -162.7259         estimate D2E/DX2                !
 ! D49   D(6,7,8,9)            -35.5345         estimate D2E/DX2                !
 ! D50   D(6,7,8,21)          -158.09           estimate D2E/DX2                !
 ! D51   D(6,7,8,22)            88.3957         estimate D2E/DX2                !
 ! D52   D(20,7,8,9)            89.7832         estimate D2E/DX2                !
 ! D53   D(20,7,8,21)          -32.7722         estimate D2E/DX2                !
 ! D54   D(20,7,8,22)         -146.2866         estimate D2E/DX2                !
 ! D55   D(7,8,9,3)            -44.7554         estimate D2E/DX2                !
 ! D56   D(7,8,9,23)          -167.2241         estimate D2E/DX2                !
 ! D57   D(7,8,9,24)            78.5888         estimate D2E/DX2                !
 ! D58   D(21,8,9,3)            77.3517         estimate D2E/DX2                !
 ! D59   D(21,8,9,23)          -45.1171         estimate D2E/DX2                !
 ! D60   D(21,8,9,24)         -159.3042         estimate D2E/DX2                !
 ! D61   D(22,8,9,3)          -168.466          estimate D2E/DX2                !
 ! D62   D(22,8,9,23)           69.0653         estimate D2E/DX2                !
 ! D63   D(22,8,9,24)          -45.1219         estimate D2E/DX2                !
 --------------------------------------------------------------------------------
 Trust Radius=3.00D-01 FncErr=1.00D-07 GrdErr=1.00D-06 EigMax=2.50D+02 EigMin=1.00D-04
 Number of steps in this run=    143 maximum allowed number of steps=    144.
 GradGradGradGradGradGradGradGradGradGradGradGradGradGradGradGradGradGrad

                          Input orientation:                          
 ---------------------------------------------------------------------
 Center     Atomic      Atomic             Coordinates (Angstroms)
 Number     Number       Type             X           Y           Z
 ---------------------------------------------------------------------
      1          6           0        0.986070    0.093270    0.136740
      2          8           0        2.408420    0.041280    0.040330
      3          6           0        2.833740   -0.745980   -1.081190
      4          6           0        2.833350   -2.226150   -0.675250
      5          6           0        3.001170   -3.190380   -1.841930
      6          6           0        4.245970   -2.943210   -2.693730
      7          7           0        4.100780   -1.783970   -3.565040
      8          6           0        4.507630   -0.509360   -2.983040
      9          6           0        4.240350   -0.293740   -1.491220
     10          1           0        0.714510    0.683970    1.013990
     11          1           0        0.557560   -0.906160    0.251300
     12          1           0        0.565330    0.570590   -0.753960
     13          1           0        2.141470   -0.566500   -1.912990
     14          1           0        1.903830   -2.484170   -0.156940
     15          1           0        3.620380   -2.403720    0.070260
     16          1           0        2.101080   -3.151140   -2.470640
     17          1           0        3.042410   -4.209560   -1.439710
     18          1           0        4.384870   -3.817940   -3.338020
     19          1           0        5.148580   -2.879460   -2.073150
     20          1           0        3.139850   -1.722700   -3.910040
     21          1           0        4.001390    0.286380   -3.543990
     22          1           0        5.578010   -0.366430   -3.175620
     23          1           0        4.384920    0.769590   -1.261380
     24          1           0        5.001920   -0.818530   -0.898990
 ---------------------------------------------------------------------
                    Distance matrix (angstroms):
                    1          2          3          4          5
     1  C    0.000000
     2  O    1.426561   0.000000
     3  C    2.366765   1.434741   0.000000
     4  C    3.074326   2.415338   1.534826   0.000000
     5  C    4.331065   3.786540   2.565512   1.522841   0.000000
     6  C    5.278136   4.445093   3.069609   2.565917   1.528458
     7  N    5.189280   4.381131   2.975286   3.186344   2.481177
     8  C    4.743161   3.721647   2.544588   3.328134   3.280156
     9  C    3.659285   2.411193   1.533361   2.525800   3.170030
    10  H    1.091897   2.056792   3.305400   3.976407   5.328760
    11  H    1.093437   2.089936   2.642382   2.789281   3.945948
    12  H    1.094625   2.075583   2.643127   3.601647   4.611062
    13  H    2.443694   2.063036   1.096969   2.182919   2.762043
    14  H    2.751677   2.582910   2.177217   1.095092   2.131215
    15  H    3.630285   2.729060   2.166274   1.098514   2.158408
    16  H    4.309046   4.073202   2.872657   2.148314   1.098626
    17  H    5.022756   4.545559   3.488333   2.135889   1.096453
    18  H    6.238859   5.496652   4.115364   3.468624   2.132309
    19  H    5.572004   4.528355   3.300637   2.782306   2.182087
    20  H    4.930816   4.387714   3.008335   3.288050   2.539763
    21  H    4.762060   3.930010   2.914542   3.988332   3.998163
    22  H    5.680578   4.533747   3.472998   4.152537   4.048892
    23  H    3.736888   2.476174   2.176139   3.424234   4.234757
    24  H    4.246312   2.889262   2.177031   2.595024   3.243117
                    6          7          8          9         10
     6  C    0.000000
     7  N    1.457429   0.000000
     8  C    2.464912   1.459069   0.000000
     9  C    2.909597   2.557537   1.530836   0.000000
    10  H    6.274937   6.206857   5.638089   4.434359   0.000000
    11  H    5.140734   5.281042   5.120689   4.119997   1.770549
    12  H    5.445788   5.093676   4.655837   3.846608   1.777852
    13  H    3.269132   2.837322   2.597496   2.158144   3.488137
    14  H    3.483051   4.114853   4.320473   3.469526   3.580876
    15  H    2.884797   3.718908   3.701142   2.697146   4.343793
    16  H    2.166462   2.658132   3.610130   3.701415   5.364074
    17  H    2.150527   3.394210   4.268515   4.095285   5.948647
    18  H    1.095242   2.066223   3.329832   3.981399   7.258011
    19  H    1.097218   2.126904   2.618414   2.801691   6.472205
    20  H    2.047573   1.022822   2.049962   3.017237   5.993364
    21  H    3.348584   2.072841   1.097336   2.146510   5.633546
    22  H    2.940467   2.084053   1.096918   2.152167   6.504599
    23  H    3.981936   3.450834   2.148228   1.097450   4.319323
    24  H    2.882155   2.975223   2.164064   1.098239   4.929390
                   11         12         13         14         15
    11  H    0.000000
    12  H    1.786449   0.000000
    13  H    2.703385   2.262861   0.000000
    14  H    2.114053   3.388152   2.611062   0.000000
    15  H    3.414136   4.342717   3.081531   1.733389   0.000000
    16  H    3.851149   4.376847   2.644422   2.415981   3.053372
    17  H    4.466144   5.427339   3.782535   2.432865   2.423864
    18  H    6.000832   6.365960   4.199454   4.248973   3.768400
    19  H    5.511302   5.886365   3.797123   3.789000   2.675057
    20  H    4.965049   4.674203   2.514313   4.024095   4.066631
    21  H    5.261781   4.435262   2.616652   4.852609   4.521572
    22  H    6.102459   5.645299   3.666616   5.205464   4.303325
    23  H    4.443537   3.858282   2.691245   4.238225   3.525292
    24  H    4.591643   4.651238   3.045306   3.594879   2.315367
                   16         17         18         19         20
    16  H    0.000000
    17  H    1.751905   0.000000
    18  H    2.532324   2.357784   0.000000
    19  H    3.085298   2.570285   1.750398   0.000000
    20  H    2.278455   3.506636   2.503460   2.957576   0.000000
    21  H    4.071830   5.055800   4.127339   3.674501   2.216449
    22  H    4.510061   4.920599   3.655527   2.777619   2.885042
    23  H    4.695781   5.160045   5.035659   3.815457   3.844100
    24  H    4.040548   3.953624   3.914854   2.376467   3.653936
                   21         22         23         24
    21  H    0.000000
    22  H    1.745734   0.000000
    23  H    2.364507   2.525534   0.000000
    24  H    3.036101   2.391510   1.741878   0.000000
 Stoichiometry    C7H15NO
 Framework group  C1[X(C7H15NO)]
 Deg. of freedom    66
 Full point group                 C1      NOp   1
 Largest Abelian subgroup         C1      NOp   1
 Largest concise Abelian subgroup C1      NOp   1
                         Standard orientation:                         
 ---------------------------------------------------------------------
 Center     Atomic      Atomic             Coordinates (Angstroms)
 Number     Number       Type             X           Y           Z
 ---------------------------------------------------------------------
      1          6           0       -3.047230    0.153351    0.568831
      2          8           0       -2.143883   -0.413903   -0.378410
      3          6           0       -0.776853   -0.192459   -0.003344
      4          6           0       -0.354163    1.205091   -0.476499
      5          6           0        0.978997    1.675761    0.089363
      6          6           0        2.147676    0.725217   -0.169168
      7          7           0        2.105187   -0.452385    0.688473
      8          6           0        1.347941   -1.582781    0.161533
      9          6           0        0.091227   -1.274606   -0.656485
     10          1           0       -4.069737   -0.023208    0.228912
     11          1           0       -2.899750    1.232664    0.663376
     12          1           0       -2.913912   -0.320020    1.546762
     13          1           0       -0.698548   -0.278349    1.087451
     14          1           0       -1.113202    1.948549   -0.211251
     15          1           0       -0.321147    1.227832   -1.574281
     16          1           0        0.867801    1.850734    1.168250
     17          1           0        1.211351    2.652651   -0.350984
     18          1           0        3.071212    1.264857    0.066256
     19          1           0        2.217373    0.457177   -1.230858
     20          1           0        1.758181   -0.198100    1.616424
     21          1           0        1.061098   -2.213520    1.012436
     22          1           0        2.022833   -2.199674   -0.444432
     23          1           0       -0.480219   -2.203278   -0.780644
     24          1           0        0.375854   -0.977843   -1.674841
 ---------------------------------------------------------------------
 Rotational constants (GHZ):           2.7064856           1.1383429           0.9121348
 Standard basis: 6-31G(2df,p) (6D, 7F)
 There are   354 symmetry adapted cartesian basis functions of A   symmetry.
 There are   327 symmetry adapted basis functions of A   symmetry.
   327 basis functions,   501 primitive gaussians,   354 cartesian basis functions
    36 alpha electrons       36 beta electrons
       nuclear repulsion energy       502.6824359859 Hartrees.
 NAtoms=   24 NActive=   24 NUniq=   24 SFac= 1.00D+00 NAtFMM=   60 NAOKFM=F Big=F
 Integral buffers will be    131072 words long.
 Raffenetti 2 integral format.
 Two-electron integral symmetry is turned on.
 One-electron integrals computed using PRISM.
 PrsmSu:  requested number of processors reduced to:  13 ShMem   1 Linda.
 NBasis=   327 RedAO= T EigKep=  3.88D-04  NBF=   327
 NBsUse=   327 1.00D-06 EigRej= -1.00D+00 NBFU=   327
 ExpMin= 1.61D-01 ExpMax= 5.48D+03 ExpMxC= 8.25D+02 IAcc=3 IRadAn=         5 AccDes= 0.00D+00
 Harris functional with IExCor=  402 and IRadAn=       5 diagonalized for initial guess.
 HarFok:  IExCor=  402 AccDes= 0.00D+00 IRadAn=         5 IDoV= 1 UseB2=F ITyADJ=14
 ICtDFT=  3500011 ScaDFX=  1.000000  1.000000  1.000000  1.000000
 FoFCou: FMM=F IPFlag=           0 FMFlag=      100000 FMFlg1=           0
         NFxFlg=           0 DoJE=T BraDBF=F KetDBF=T FulRan=T
         wScrn=  0.000000 ICntrl=       500 IOpCl=  0 I1Cent=   200000004 NGrid=           0
         NMat0=    1 NMatS0=      1 NMatT0=    0 NMatD0=    1 NMtDS0=    0 NMtDT0=    0
 Petite list used in FoFCou.
 Requested convergence on RMS density matrix=1.00D-08 within 128 cycles.
 Requested convergence on MAX density matrix=1.00D-06.
 Requested convergence on             energy=1.00D-06.
 No special actions if energy rises.
 Integral accuracy reduced to 1.0D-05 until final iterations.
 Initial convergence to 1.0D-05 achieved.  Increase integral accuracy.
 SCF Done:  E(RB3LYP) =  -405.754266949     A.U. after   12 cycles
            NFock= 12  Conv=0.93D-08     -V/T= 2.0078

 **********************************************************************

            Population analysis using the SCF density.

 **********************************************************************

 Orbital symmetries:
       Occupied  (A) (A) (A) (A) (A) (A) (A) (A) (A) (A) (A) (A)
                 (A) (A) (A) (A) (A) (A) (A) (A) (A) (A) (A) (A)
                 (A) (A) (A) (A) (A) (A) (A) (A) (A) (A) (A) (A)
       Virtual   (A) (A) (A) (A) (A) (A) (A) (A) (A) (A) (A) (A)
                 (A) (A) (A) (A) (A) (A) (A) (A) (A) (A) (A) (A)
                 (A) (A) (A) (A) (A) (A) (A) (A) (A) (A) (A) (A)
                 (A) (A) (A) (A) (A) (A) (A) (A) (A) (A) (A) (A)
                 (A) (A) (A) (A) (A) (A) (A) (A) (A) (A) (A) (A)
                 (A) (A) (A) (A) (A) (A) (A) (A) (A) (A) (A) (A)
                 (A) (A) (A) (A) (A) (A) (A) (A) (A) (A) (A) (A)
                 (A) (A) (A) (A) (A) (A) (A) (A) (A) (A) (A) (A)
                 (A) (A) (A) (A) (A) (A) (A) (A) (A) (A) (A) (A)
                 (A) (A) (A) (A) (A) (A) (A) (A) (A) (A) (A) (A)
                 (A) (A) (A) (A) (A) (A) (A) (A) (A) (A) (A) (A)
                 (A) (A) (A) (A) (A) (A) (A) (A) (A) (A) (A) (A)
                 (A) (A) (A) (A) (A) (A) (A) (A) (A) (A) (A) (A)
                 (A) (A) (A) (A) (A) (A) (A) (A) (A) (A) (A) (A)
                 (A) (A) (A) (A) (A) (A) (A) (A) (A) (A) (A) (A)
                 (A) (A) (A) (A) (A) (A) (A) (A) (A) (A) (A) (A)
                 (A) (A) (A) (A) (A) (A) (A) (A) (A) (A) (A) (A)
                 (A) (A) (A) (A) (A) (A) (A) (A) (A) (A) (A) (A)
                 (A) (A) (A) (A) (A) (A) (A) (A) (A) (A) (A) (A)
                 (A) (A) (A) (A) (A) (A) (A) (A) (A) (A) (A) (A)
                 (A) (A) (A) (A) (A) (A) (A) (A) (A) (A) (A) (A)
                 (A) (A) (A) (A) (A) (A) (A) (A) (A) (A) (A) (A)
                 (A) (A) (A) (A) (A) (A) (A) (A) (A) (A) (A) (A)
                 (A) (A) (A) (A) (A) (A) (A) (A) (A) (A) (A) (A)
                 (A) (A) (A)
 The electronic state is 1-A.
 Alpha  occ. eigenvalues --  -19.13075 -14.30429 -10.22612 -10.21951 -10.19868
 Alpha  occ. eigenvalues --  -10.19850 -10.17707 -10.17401 -10.17077  -1.01750
 Alpha  occ. eigenvalues --   -0.89944  -0.78748  -0.76602  -0.68672  -0.66803
 Alpha  occ. eigenvalues --   -0.63305  -0.57982  -0.56264  -0.49051  -0.47820
 Alpha  occ. eigenvalues --   -0.47126  -0.45710  -0.43486  -0.42815  -0.41829
 Alpha  occ. eigenvalues --   -0.39660  -0.38748  -0.37222  -0.35718  -0.34374
 Alpha  occ. eigenvalues --   -0.33611  -0.32230  -0.31836  -0.30414  -0.24524
 Alpha  occ. eigenvalues --   -0.20813
 Alpha virt. eigenvalues --    0.07403   0.09291   0.10151   0.10963   0.12350
 Alpha virt. eigenvalues --    0.14894   0.15123   0.15468   0.15743   0.16329
 Alpha virt. eigenvalues --    0.16832   0.17848   0.18752   0.20053   0.20289
 Alpha virt. eigenvalues --    0.21430   0.22204   0.24158   0.25677   0.25787
 Alpha virt. eigenvalues --    0.27344   0.29116   0.30455   0.34586   0.43016
 Alpha virt. eigenvalues --    0.47096   0.47362   0.47452   0.48290   0.49788
 Alpha virt. eigenvalues --    0.50580   0.52585   0.53461   0.54614   0.55261
 Alpha virt. eigenvalues --    0.57123   0.57605   0.59056   0.61055   0.61442
 Alpha virt. eigenvalues --    0.63095   0.67089   0.69242   0.70435   0.71012
 Alpha virt. eigenvalues --    0.71908   0.73476   0.73731   0.73857   0.75239
 Alpha virt. eigenvalues --    0.75664   0.76782   0.77409   0.78201   0.79101
 Alpha virt. eigenvalues --    0.79476   0.80838   0.81181   0.85529   0.86139
 Alpha virt. eigenvalues --    0.86632   0.87623   0.88451   0.89060   0.90548
 Alpha virt. eigenvalues --    0.92957   0.95829   0.99979   1.01057   1.04190
 Alpha virt. eigenvalues --    1.06684   1.10899   1.12340   1.12899   1.15854
 Alpha virt. eigenvalues --    1.17698   1.19471   1.21466   1.25480   1.28404
 Alpha virt. eigenvalues --    1.30700   1.33589   1.35601   1.36917   1.38644
 Alpha virt. eigenvalues --    1.40316   1.42085   1.44459   1.46709   1.47618
 Alpha virt. eigenvalues --    1.48650   1.49970   1.51372   1.53631   1.53902
 Alpha virt. eigenvalues --    1.56833   1.58151   1.59002   1.61184   1.64652
 Alpha virt. eigenvalues --    1.67586   1.68494   1.70722   1.73543   1.74226
 Alpha virt. eigenvalues --    1.78098   1.79529   1.80324   1.82011   1.84511
 Alpha virt. eigenvalues --    1.86625   1.87192   1.89890   1.92461   1.95712
 Alpha virt. eigenvalues --    1.96660   1.99523   2.04405   2.06756   2.10049
 Alpha virt. eigenvalues --    2.16530   2.20912   2.23080   2.24179   2.26653
 Alpha virt. eigenvalues --    2.29593   2.31376   2.34369   2.35772   2.37461
 Alpha virt. eigenvalues --    2.40650   2.42557   2.45078   2.47238   2.47691
 Alpha virt. eigenvalues --    2.47852   2.50374   2.52970   2.54156   2.62148
 Alpha virt. eigenvalues --    2.64420   2.68246   2.69751   2.71161   2.73220
 Alpha virt. eigenvalues --    2.76760   2.77180   2.78945   2.80257   2.81395
 Alpha virt. eigenvalues --    2.82460   2.85830   2.86564   2.88277   2.89378
 Alpha virt. eigenvalues --    2.91028   2.93330   2.93805   2.94607   2.96294
 Alpha virt. eigenvalues --    2.98381   2.99179   3.02855   3.03658   3.06930
 Alpha virt. eigenvalues --    3.09825   3.12094   3.15176   3.18335   3.19720
 Alpha virt. eigenvalues --    3.23080   3.26346   3.27231   3.30700   3.33311
 Alpha virt. eigenvalues --    3.35102   3.38448   3.39212   3.41247   3.42033
 Alpha virt. eigenvalues --    3.45174   3.46119   3.47358   3.48657   3.49334
 Alpha virt. eigenvalues --    3.51992   3.53341   3.57721   3.59454   3.63803
 Alpha virt. eigenvalues --    3.66253   3.66902   3.68945   3.70475   3.71726
 Alpha virt. eigenvalues --    3.74309   3.76257   3.80362   3.82178   3.83721
 Alpha virt. eigenvalues --    3.86824   3.90798   3.95878   3.97940   4.00954
 Alpha virt. eigenvalues --    4.05283   4.07092   4.09638   4.11974   4.13994
 Alpha virt. eigenvalues --    4.18441   4.23575   4.28009   4.33322   4.35368
 Alpha virt. eigenvalues --    4.37564   4.38611   4.39673   4.40335   4.43325
 Alpha virt. eigenvalues --    4.44783   4.48059   4.48559   4.50180   4.52243
 Alpha virt. eigenvalues --    4.54551   4.56287   4.58374   4.58991   4.60793
 Alpha virt. eigenvalues --    4.62699   4.65510   4.67407   4.67871   4.70124
 Alpha virt. eigenvalues --    4.70959   4.72234   4.73723   4.73980   4.75770
 Alpha virt. eigenvalues --    4.76875   4.78761   4.80440   4.81674   4.83437
 Alpha virt. eigenvalues --    4.84519   4.87298   4.88758   4.90201   4.90950
 Alpha virt. eigenvalues --    4.94738   4.95735   4.98610   5.00412   5.03178
 Alpha virt. eigenvalues --    5.04205   5.04779   5.08760   5.16112   5.19411
 Alpha virt. eigenvalues --    5.23151   5.29225   5.33860   5.38247   5.39886
 Alpha virt. eigenvalues --    5.42398   5.45993   5.48128   5.49282   5.53056
 Alpha virt. eigenvalues --    5.56102   5.60066   5.77622   5.84685   5.88671
 Alpha virt. eigenvalues --    6.02025   6.07563   6.20989   6.31113   6.44233
 Alpha virt. eigenvalues --    7.12248  10.68831  11.26156  11.38961  11.61341
 Alpha virt. eigenvalues --   11.77288  12.31633  12.57966  12.67337  13.52469
 Alpha virt. eigenvalues --   14.97357
          Condensed to atoms (all electrons):
               1          2          3          4          5          6
     1  C    4.843715   0.370625  -0.086134  -0.003382  -0.000165  -0.000010
     2  O    0.370625   7.710451   0.353023  -0.032676   0.002643   0.000041
     3  C   -0.086134   0.353023   4.595284   0.387965  -0.020282  -0.011255
     4  C   -0.003382  -0.032676   0.387965   4.961121   0.349981  -0.027074
     5  C   -0.000165   0.002643  -0.020282   0.349981   4.960545   0.398398
     6  C   -0.000010   0.000041  -0.011255  -0.027074   0.398398   4.837995
     7  N    0.000023   0.000070   0.006543  -0.003563  -0.049325   0.401767
     8  C   -0.000303   0.001007  -0.022291  -0.000033   0.002283  -0.078900
     9  C    0.005253  -0.024597   0.391116  -0.013287  -0.001233   0.009674
    10  H    0.385294  -0.018372   0.004024   0.000108  -0.000000   0.000000
    11  H    0.362729  -0.036210   0.001624   0.002988  -0.001093  -0.000001
    12  H    0.369480  -0.032661  -0.008788  -0.001283   0.000192   0.000002
    13  H   -0.006739  -0.031181   0.354168  -0.069816   0.003605  -0.001336
    14  H   -0.000709  -0.004189  -0.029859   0.357295  -0.028555   0.004810
    15  H    0.000562   0.000598  -0.026619   0.362468  -0.031889  -0.006133
    16  H    0.000060   0.000029  -0.005824  -0.036762   0.367001  -0.036903
    17  H    0.000004  -0.000058   0.003811  -0.023488   0.338650  -0.025092
    18  H    0.000000   0.000001   0.000530   0.004096  -0.045396   0.362946
    19  H   -0.000001  -0.000003  -0.001045  -0.005936  -0.035903   0.368326
    20  H   -0.000002   0.000002   0.001810  -0.001495  -0.006885  -0.056552
    21  H   -0.000008   0.000043  -0.005588   0.000122  -0.000399   0.007005
    22  H    0.000003  -0.000034   0.004031  -0.000483  -0.000225  -0.003441
    23  H    0.000583   0.004054  -0.021278   0.003998   0.000071  -0.000598
    24  H   -0.000117   0.001054  -0.028531  -0.010986  -0.001714   0.002484
               7          8          9         10         11         12
     1  C    0.000023  -0.000303   0.005253   0.385294   0.362729   0.369480
     2  O    0.000070   0.001007  -0.024597  -0.018372  -0.036210  -0.032661
     3  C    0.006543  -0.022291   0.391116   0.004024   0.001624  -0.008788
     4  C   -0.003563  -0.000033  -0.013287   0.000108   0.002988  -0.001283
     5  C   -0.049325   0.002283  -0.001233  -0.000000  -0.001093   0.000192
     6  C    0.401767  -0.078900   0.009674   0.000000  -0.000001   0.000002
     7  N    6.320577   0.426159  -0.070095  -0.000000  -0.000001  -0.000009
     8  C    0.426159   4.860276   0.341524   0.000001   0.000018   0.000043
     9  C   -0.070095   0.341524   5.057500  -0.000295  -0.000061   0.000507
    10  H   -0.000000   0.000001  -0.000295   0.576885  -0.037318  -0.035668
    11  H   -0.000001   0.000018  -0.000061  -0.037318   0.648836  -0.050970
    12  H   -0.000009   0.000043   0.000507  -0.035668  -0.050970   0.639870
    13  H    0.001976   0.002398  -0.066029   0.000019  -0.001926   0.014487
    14  H   -0.000236  -0.000069   0.004998  -0.000140   0.005205   0.000221
    15  H   -0.000153   0.000315  -0.012732  -0.000010  -0.000041   0.000030
    16  H   -0.007839  -0.000160  -0.000148  -0.000001   0.000010  -0.000003
    17  H    0.004720  -0.000155  -0.000347  -0.000000   0.000040  -0.000001
    18  H   -0.029264   0.004955  -0.000731  -0.000000  -0.000000  -0.000000
    19  H   -0.023268  -0.008949   0.001550  -0.000000  -0.000000  -0.000000
    20  H    0.353039  -0.050853  -0.000957  -0.000000  -0.000002   0.000001
    21  H   -0.024007   0.365090  -0.034460   0.000000   0.000001  -0.000002
    22  H   -0.031161   0.370457  -0.052285  -0.000000  -0.000000   0.000001
    23  H    0.004084  -0.016460   0.335507  -0.000033   0.000079  -0.000129
    24  H   -0.003201  -0.031807   0.358906   0.000012   0.000006  -0.000003
              13         14         15         16         17         18
     1  C   -0.006739  -0.000709   0.000562   0.000060   0.000004   0.000000
     2  O   -0.031181  -0.004189   0.000598   0.000029  -0.000058   0.000001
     3  C    0.354168  -0.029859  -0.026619  -0.005824   0.003811   0.000530
     4  C   -0.069816   0.357295   0.362468  -0.036762  -0.023488   0.004096
     5  C    0.003605  -0.028555  -0.031889   0.367001   0.338650  -0.045396
     6  C   -0.001336   0.004810  -0.006133  -0.036903  -0.025092   0.362946
     7  N    0.001976  -0.000236  -0.000153  -0.007839   0.004720  -0.029264
     8  C    0.002398  -0.000069   0.000315  -0.000160  -0.000155   0.004955
     9  C   -0.066029   0.004998  -0.012732  -0.000148  -0.000347  -0.000731
    10  H    0.000019  -0.000140  -0.000010  -0.000001  -0.000000  -0.000000
    11  H   -0.001926   0.005205  -0.000041   0.000010   0.000040  -0.000000
    12  H    0.014487   0.000221   0.000030  -0.000003  -0.000001  -0.000000
    13  H    0.729576  -0.002947   0.006457   0.004081  -0.000029   0.000045
    14  H   -0.002947   0.652269  -0.039548  -0.005374  -0.003443  -0.000234
    15  H    0.006457  -0.039548   0.632573   0.006123  -0.004706  -0.000039
    16  H    0.004081  -0.005374   0.006123   0.652744  -0.035925  -0.001822
    17  H   -0.000029  -0.003443  -0.004706  -0.035925   0.660202  -0.002467
    18  H    0.000045  -0.000234  -0.000039  -0.001822  -0.002467   0.651877
    19  H    0.000138   0.000003   0.003394   0.005553   0.000302  -0.038513
    20  H    0.002170  -0.000044   0.000069   0.008132   0.000099   0.001580
    21  H    0.003346   0.000011   0.000007  -0.000031   0.000005  -0.000258
    22  H    0.000226   0.000003  -0.000023   0.000004   0.000020   0.000147
    23  H    0.001100  -0.000268   0.000208   0.000005   0.000012  -0.000001
    24  H    0.006483   0.000159   0.007500   0.000057  -0.000063  -0.000008
              19         20         21         22         23         24
     1  C   -0.000001  -0.000002  -0.000008   0.000003   0.000583  -0.000117
     2  O   -0.000003   0.000002   0.000043  -0.000034   0.004054   0.001054
     3  C   -0.001045   0.001810  -0.005588   0.004031  -0.021278  -0.028531
     4  C   -0.005936  -0.001495   0.000122  -0.000483   0.003998  -0.010986
     5  C   -0.035903  -0.006885  -0.000399  -0.000225   0.000071  -0.001714
     6  C    0.368326  -0.056552   0.007005  -0.003441  -0.000598   0.002484
     7  N   -0.023268   0.353039  -0.024007  -0.031161   0.004084  -0.003201
     8  C   -0.008949  -0.050853   0.365090   0.370457  -0.016460  -0.031807
     9  C    0.001550  -0.000957  -0.034460  -0.052285   0.335507   0.358906
    10  H   -0.000000  -0.000000   0.000000  -0.000000  -0.000033   0.000012
    11  H   -0.000000  -0.000002   0.000001  -0.000000   0.000079   0.000006
    12  H   -0.000000   0.000001  -0.000002   0.000001  -0.000129  -0.000003
    13  H    0.000138   0.002170   0.003346   0.000226   0.001100   0.006483
    14  H    0.000003  -0.000044   0.000011   0.000003  -0.000268   0.000159
    15  H    0.003394   0.000069   0.000007  -0.000023   0.000208   0.007500
    16  H    0.005553   0.008132  -0.000031   0.000004   0.000005   0.000057
    17  H    0.000302   0.000099   0.000005   0.000020   0.000012  -0.000063
    18  H   -0.038513   0.001580  -0.000258   0.000147  -0.000001  -0.000008
    19  H    0.617643   0.006273   0.000086   0.002182  -0.000032   0.001591
    20  H    0.006273   0.536348  -0.010333   0.006509  -0.000074  -0.000159
    21  H    0.000086  -0.010333   0.642252  -0.039582  -0.006677   0.006071
    22  H    0.002182   0.006509  -0.039582   0.651152   0.002148  -0.006784
    23  H   -0.000032  -0.000074  -0.006677   0.002148   0.628430  -0.036876
    24  H    0.001591  -0.000159   0.006071  -0.006784  -0.036876   0.638277
 Mulliken charges:
               1
     1  C   -0.240761
     2  O   -0.263662
     3  C    0.163567
     4  C   -0.199879
     5  C   -0.200307
     6  C   -0.146154
     7  N   -0.276835
     8  C   -0.164546
     9  C   -0.229278
    10  H    0.125495
    11  H    0.106088
    12  H    0.104684
    13  H    0.049728
    14  H    0.090639
    15  H    0.101590
    16  H    0.086991
    17  H    0.087910
    18  H    0.092557
    19  H    0.106611
    20  H    0.211324
    21  H    0.097304
    22  H    0.097134
    23  H    0.102148
    24  H    0.097652
 Sum of Mulliken charges =  -0.00000
 Mulliken charges with hydrogens summed into heavy atoms:
               1
     1  C    0.095505
     2  O   -0.263662
     3  C    0.213296
     4  C   -0.007649
     5  C   -0.025406
     6  C    0.053014
     7  N   -0.065511
     8  C    0.029892
     9  C   -0.029478
 Electronic spatial extent (au):  <R**2>=           1385.2262
 Charge=              0.0000 electrons
 Dipole moment (field-independent basis, Debye):
    X=             -0.5054    Y=              0.9568    Z=              0.9047  Tot=              1.4104
 Quadrupole moment (field-independent basis, Debye-Ang):
   XX=            -60.9994   YY=            -56.5444   ZZ=            -55.3679
   XY=              0.0360   XZ=             -3.9999   YZ=             -0.1413
 Traceless Quadrupole moment (field-independent basis, Debye-Ang):
   XX=             -3.3622   YY=              1.0928   ZZ=              2.2694
   XY=              0.0360   XZ=             -3.9999   YZ=             -0.1413
 Octapole moment (field-independent basis, Debye-Ang**2):
  XXX=            -32.5490  YYY=             -3.8984  ZZZ=              2.9405  XYY=             -1.2707
  XXY=              9.0191  XXZ=              1.0041  XZZ=              1.4242  YZZ=             -0.9039
  YYZ=             -0.2785  XYZ=              2.6237
 Hexadecapole moment (field-independent basis, Debye-Ang**3):
 XXXX=          -1136.6007 YYYY=           -497.7434 ZZZZ=           -173.4480 XXXY=             13.9542
 XXXZ=            -24.7661 YYYX=              0.4474 YYYZ=             -1.2501 ZZZX=              8.1495
 ZZZY=             -2.0614 XXYY=           -278.1199 XXZZ=           -224.2641 YYZZ=           -113.7855
 XXYZ=              4.2580 YYXZ=             -0.1680 ZZXY=              1.9512
 N-N= 5.026824359859D+02 E-N=-1.948707892920D+03  KE= 4.026154927679D+02
 PrsmSu:  requested number of processors reduced to:  13 ShMem   1 Linda.
 Calling FoFJK, ICntrl=      2127 FMM=F ISym2X=0 I1Cent= 0 IOpClX= 0 NMat=1 NMatS=1 NMatT=0.
 ***** Axes restored to original set *****
 -------------------------------------------------------------------
 Center     Atomic                   Forces (Hartrees/Bohr)
 Number     Number              X              Y              Z
 -------------------------------------------------------------------
      1        6           0.012985126    0.001093103    0.001559815
      2        8          -0.009335913    0.002402113   -0.003015877
      3        6           0.006556653    0.001639374    0.017808395
      4        6          -0.004855793   -0.003885646    0.001326112
      5        6           0.002124205   -0.007589341    0.008734171
      6        6          -0.010248644   -0.009098019   -0.011909968
      7        7           0.000612400    0.006218725   -0.001714582
      8        6           0.002313842    0.006418439   -0.007970720
      9        6           0.002462772    0.003005506    0.003038716
     10        1           0.002770584    0.000872975    0.000874324
     11        1          -0.003550240   -0.002085256   -0.000405967
     12        1          -0.003650363    0.000580798   -0.002453731
     13        1          -0.002367467   -0.000965847   -0.002715874
     14        1          -0.002249767    0.002623995   -0.000777140
     15        1           0.001410822    0.003997448   -0.001844781
     16        1           0.002016375   -0.000589946   -0.003150195
     17        1          -0.000862742   -0.001610674    0.000126673
     18        1           0.002243395   -0.002862352   -0.000387336
     19        1          -0.001279191    0.004019392   -0.002072612
     20        1           0.008131186   -0.002486246    0.003895558
     21        1           0.000008335   -0.001105133   -0.001151822
     22        1           0.001749161    0.000773648    0.001207304
     23        1          -0.003760874   -0.000834900   -0.000011368
     24        1          -0.003223861   -0.000532156    0.001010903
 -------------------------------------------------------------------
 Cartesian Forces:  Max     0.017808395 RMS     0.004700244

 GradGradGradGradGradGradGradGradGradGradGradGradGradGradGradGradGradGrad
 Berny optimization.
 FormGI is forming the generalized inverse of G from B-inverse, IUseBI=4.
 Internal  Forces:  Max     0.011497118 RMS     0.003050427
 Search for a local minimum.
 Step number   1 out of a maximum of  143
 All quantities printed in internal units (Hartrees-Bohrs-Radians)
 Mixed Optimization -- RFO/linear search
 Second derivative matrix not updated -- first step.
 ITU=  0
     Eigenvalues ---    0.00486   0.00624   0.00747   0.01155   0.01232
     Eigenvalues ---    0.01340   0.02052   0.02320   0.03286   0.03533
     Eigenvalues ---    0.03724   0.04609   0.04675   0.04708   0.04800
     Eigenvalues ---    0.05319   0.05579   0.05904   0.06247   0.06873
     Eigenvalues ---    0.07581   0.07872   0.08333   0.08544   0.08668
     Eigenvalues ---    0.08691   0.09506   0.10100   0.10259   0.10386
     Eigenvalues ---    0.12205   0.12543   0.12854   0.14421   0.15102
     Eigenvalues ---    0.16000   0.16000   0.16000   0.17427   0.20999
     Eigenvalues ---    0.21405   0.25000   0.27746   0.28221   0.28696
     Eigenvalues ---    0.29406   0.29831   0.33835   0.33847   0.33878
     Eigenvalues ---    0.33966   0.33978   0.33992   0.34019   0.34025
     Eigenvalues ---    0.34077   0.34214   0.34231   0.34284   0.34418
     Eigenvalues ---    0.34594   0.35967   0.36426   0.40316   0.41487
     Eigenvalues ---    0.43891
 RFO step:  Lambda=-7.69805511D-03 EMin= 4.85612517D-03
 Linear search not attempted -- first point.
 Iteration  1 RMS(Cart)=  0.05799891 RMS(Int)=  0.00134511
 Iteration  2 RMS(Cart)=  0.00186092 RMS(Int)=  0.00041852
 Iteration  3 RMS(Cart)=  0.00000178 RMS(Int)=  0.00041852
 Iteration  4 RMS(Cart)=  0.00000000 RMS(Int)=  0.00041852
 Variable       Old X    -DE/DX   Delta X   Delta X   Delta X     New X
                                 (Linear)    (Quad)   (Total)
    R1        2.69581  -0.00854   0.00000  -0.02022  -0.02022   2.67559
    R2        2.06339   0.00049   0.00000   0.00137   0.00137   2.06476
    R3        2.06630   0.00325   0.00000   0.00925   0.00925   2.07554
    R4        2.06854   0.00365   0.00000   0.01042   0.01042   2.07896
    R5        2.71127  -0.00089   0.00000  -0.00216  -0.00216   2.70911
    R6        2.90040   0.00379   0.00000   0.01003   0.01009   2.91049
    R7        2.89763   0.00057   0.00000  -0.00001  -0.00003   2.89760
    R8        2.07297   0.00340   0.00000   0.00976   0.00976   2.08273
    R9        2.87775   0.00987   0.00000   0.03415   0.03412   2.91187
   R10        2.06942   0.00092   0.00000   0.00264   0.00264   2.07206
   R11        2.07589  -0.00089   0.00000  -0.00256  -0.00256   2.07333
   R12        2.88837   0.00682   0.00000   0.02533   0.02532   2.91369
   R13        2.07610   0.00013   0.00000   0.00037   0.00037   2.07648
   R14        2.07200   0.00151   0.00000   0.00434   0.00434   2.07633
   R15        2.75414   0.00439   0.00000   0.01450   0.01442   2.76856
   R16        2.06971   0.00280   0.00000   0.00800   0.00800   2.07771
   R17        2.07344  -0.00199   0.00000  -0.00573  -0.00573   2.06772
   R18        2.75724   0.00559   0.00000   0.01464   0.01465   2.77189
   R19        1.93285  -0.00910   0.00000  -0.02038  -0.02038   1.91247
   R20        2.89286   0.00927   0.00000   0.02688   0.02694   2.91980
   R21        2.07366  -0.00022   0.00000  -0.00062  -0.00062   2.07304
   R22        2.07287   0.00160   0.00000   0.00459   0.00459   2.07746
   R23        2.07388  -0.00131   0.00000  -0.00376  -0.00376   2.07012
   R24        2.07537  -0.00144   0.00000  -0.00415  -0.00415   2.07123
    A1        1.89862  -0.00575   0.00000  -0.03608  -0.03596   1.86266
    A2        1.94390   0.00384   0.00000   0.02392   0.02382   1.96772
    A3        1.92211   0.00363   0.00000   0.02244   0.02232   1.94444
    A4        1.88897   0.00052   0.00000   0.00162   0.00175   1.89072
    A5        1.89890   0.00029   0.00000  -0.00033  -0.00022   1.89868
    A6        1.91048  -0.00266   0.00000  -0.01255  -0.01284   1.89765
    A7        1.94808   0.01150   0.00000   0.04461   0.04461   1.99269
    A8        1.89901   0.00561   0.00000   0.03910   0.03958   1.93859
    A9        1.89561  -0.00470   0.00000  -0.02776  -0.02781   1.86780
   A10        1.89218   0.00034   0.00000   0.00249   0.00230   1.89448
   A11        1.93413   0.00113   0.00000   0.01241   0.01171   1.94584
   A12        1.93711  -0.00298   0.00000  -0.02168  -0.02151   1.91561
   A13        1.90486   0.00054   0.00000  -0.00491  -0.00482   1.90004
   A14        1.99103   0.00266   0.00000   0.02732   0.02653   2.01756
   A15        1.93117  -0.00241   0.00000  -0.01908  -0.01913   1.91204
   A16        1.91262  -0.00331   0.00000  -0.04134  -0.04122   1.87139
   A17        1.88279   0.00130   0.00000   0.01264   0.01306   1.89586
   A18        1.91625  -0.00020   0.00000  -0.00064  -0.00017   1.91608
   A19        1.82227   0.00197   0.00000   0.02140   0.02077   1.84304
   A20        1.99798  -0.00186   0.00000   0.02254   0.02136   2.01934
   A21        1.90236   0.00212   0.00000   0.00557   0.00603   1.90839
   A22        1.88773   0.00139   0.00000   0.00909   0.00904   1.89677
   A23        1.92042  -0.00253   0.00000  -0.04307  -0.04278   1.87764
   A24        1.90088   0.00146   0.00000   0.00998   0.00991   1.91078
   A25        1.84829  -0.00041   0.00000  -0.00525  -0.00545   1.84284
   A26        1.96131   0.00553   0.00000   0.04218   0.03995   2.00127
   A27        1.87755   0.00081   0.00000   0.02395   0.02260   1.90015
   A28        1.94353  -0.00179   0.00000  -0.02417  -0.02363   1.91990
   A29        1.87151   0.00147   0.00000   0.03006   0.02869   1.90020
   A30        1.95398  -0.00647   0.00000  -0.06641  -0.06571   1.88826
   A31        1.84917   0.00060   0.00000  -0.00185  -0.00134   1.84783
   A32        2.01374   0.00421   0.00000   0.03832   0.03768   2.05142
   A33        1.92079  -0.00310   0.00000  -0.02607  -0.02599   1.89480
   A34        1.92217  -0.00111   0.00000  -0.00560  -0.00521   1.91695
   A35        2.05226  -0.00295   0.00000   0.00160   0.00075   2.05301
   A36        1.87647  -0.00111   0.00000  -0.01392  -0.01381   1.86266
   A37        1.89220   0.00291   0.00000   0.01193   0.01238   1.90458
   A38        1.89176   0.00262   0.00000   0.00929   0.00969   1.90145
   A39        1.89981  -0.00100   0.00000  -0.01061  -0.01052   1.88929
   A40        1.83997  -0.00022   0.00000   0.00177   0.00172   1.84169
   A41        1.95974   0.00578   0.00000   0.03374   0.03350   1.99324
   A42        1.92901  -0.00303   0.00000  -0.02967  -0.02965   1.89936
   A43        1.92943  -0.00412   0.00000  -0.02912  -0.02955   1.89988
   A44        1.89396  -0.00061   0.00000   0.00304   0.00354   1.89750
   A45        1.91466  -0.00022   0.00000   0.00920   0.00955   1.92422
   A46        1.83248   0.00196   0.00000   0.01176   0.01109   1.84357
    D1        3.12122   0.00023   0.00000   0.00718   0.00716   3.12838
    D2        1.04066   0.00093   0.00000   0.01366   0.01398   1.05464
    D3       -1.08232  -0.00076   0.00000  -0.00189  -0.00220  -1.08453
    D4       -1.45494   0.00025   0.00000  -0.01291  -0.01350  -1.46843
    D5        2.72132  -0.00165   0.00000  -0.03462  -0.03416   2.68716
    D6        0.65356   0.00015   0.00000  -0.01457  -0.01444   0.63912
    D7        2.94410   0.00287   0.00000   0.03147   0.03139   2.97549
    D8        0.81743   0.00108   0.00000   0.00969   0.00976   0.82720
    D9       -1.18275   0.00197   0.00000   0.01846   0.01797  -1.16477
   D10       -1.25603   0.00129   0.00000   0.02939   0.02979  -1.22624
   D11        2.90049  -0.00050   0.00000   0.00761   0.00816   2.90865
   D12        0.90031   0.00040   0.00000   0.01639   0.01638   0.91668
   D13        0.86346   0.00072   0.00000   0.01688   0.01698   0.88044
   D14       -1.26320  -0.00107   0.00000  -0.00490  -0.00465  -1.26785
   D15        3.01980  -0.00018   0.00000   0.00387   0.00356   3.02337
   D16       -2.64211   0.00185   0.00000   0.00171   0.00137  -2.64074
   D17       -0.52460   0.00290   0.00000   0.00781   0.00735  -0.51725
   D18        1.49661   0.00103   0.00000  -0.01292  -0.01271   1.48390
   D19        1.55598  -0.00276   0.00000  -0.03634  -0.03657   1.51941
   D20       -2.60969  -0.00171   0.00000  -0.03024  -0.03059  -2.64028
   D21       -0.58849  -0.00358   0.00000  -0.05097  -0.05065  -0.63913
   D22       -0.58238  -0.00013   0.00000  -0.01396  -0.01398  -0.59636
   D23        1.53513   0.00093   0.00000  -0.00787  -0.00800   1.52713
   D24       -2.72685  -0.00094   0.00000  -0.02859  -0.02806  -2.75491
   D25        0.96583  -0.00227   0.00000  -0.04806  -0.04848   0.91735
   D26       -1.19304   0.00074   0.00000  -0.01203  -0.01218  -1.20523
   D27        3.08829  -0.00062   0.00000  -0.01356  -0.01377   3.07452
   D28        3.11893  -0.00260   0.00000  -0.04462  -0.04477   3.07416
   D29        0.96005   0.00041   0.00000  -0.00860  -0.00847   0.95158
   D30       -1.04181  -0.00095   0.00000  -0.01012  -0.01005  -1.05186
   D31       -1.18854   0.00030   0.00000  -0.01307  -0.01319  -1.20173
   D32        2.93577   0.00331   0.00000   0.02295   0.02311   2.95888
   D33        0.93391   0.00195   0.00000   0.02143   0.02153   0.95544
   D34       -1.31332   0.00533   0.00000   0.09091   0.09165  -1.22167
   D35        2.91385  -0.00016   0.00000   0.01468   0.01458   2.92843
   D36        0.89484  -0.00040   0.00000   0.01591   0.01607   0.91091
   D37        0.83586   0.00479   0.00000   0.08110   0.08143   0.91729
   D38       -1.22016  -0.00070   0.00000   0.00488   0.00436  -1.21580
   D39        3.04402  -0.00093   0.00000   0.00611   0.00585   3.04987
   D40        2.85463   0.00373   0.00000   0.05656   0.05707   2.91170
   D41        0.79861  -0.00177   0.00000  -0.01967  -0.02000   0.77862
   D42       -1.22039  -0.00200   0.00000  -0.01844  -0.01851  -1.23890
   D43        1.55034  -0.00445   0.00000  -0.07110  -0.07205   1.47829
   D44       -0.63757  -0.00365   0.00000  -0.07165  -0.07211  -0.70969
   D45       -2.67325   0.00062   0.00000   0.00120   0.00142  -2.67183
   D46        1.42201   0.00142   0.00000   0.00066   0.00136   1.42337
   D47       -0.65218  -0.00127   0.00000  -0.01888  -0.01918  -0.67136
   D48       -2.84010  -0.00046   0.00000  -0.01943  -0.01924  -2.85935
   D49       -0.62019   0.00168   0.00000   0.00412   0.00448  -0.61572
   D50       -2.75919   0.00119   0.00000   0.00204   0.00237  -2.75682
   D51        1.54280   0.00058   0.00000   0.00112   0.00135   1.54415
   D52        1.56701  -0.00015   0.00000  -0.00587  -0.00575   1.56127
   D53       -0.57198  -0.00064   0.00000  -0.00795  -0.00785  -0.57983
   D54       -2.55318  -0.00124   0.00000  -0.00887  -0.00887  -2.56206
   D55       -0.78113   0.00165   0.00000   0.02451   0.02485  -0.75628
   D56       -2.91861   0.00210   0.00000   0.03774   0.03781  -2.88080
   D57        1.37163   0.00023   0.00000   0.01728   0.01747   1.38910
   D58        1.35004   0.00019   0.00000   0.01471   0.01489   1.36493
   D59       -0.78744   0.00065   0.00000   0.02793   0.02785  -0.75959
   D60       -2.78038  -0.00123   0.00000   0.00748   0.00751  -2.77287
   D61       -2.94029   0.00079   0.00000   0.01616   0.01647  -2.92382
   D62        1.20542   0.00124   0.00000   0.02938   0.02943   1.23485
   D63       -0.78752  -0.00064   0.00000   0.00893   0.00909  -0.77843
         Item               Value     Threshold  Converged?
 Maximum Force            0.011497     0.000450     NO 
 RMS     Force            0.003050     0.000300     NO 
 Maximum Displacement     0.190502     0.001800     NO 
 RMS     Displacement     0.058125     0.001200     NO 
 Predicted change in Energy=-4.230415D-03
 GradGradGradGradGradGradGradGradGradGradGradGradGradGradGradGradGradGrad

                          Input orientation:                          
 ---------------------------------------------------------------------
 Center     Atomic      Atomic             Coordinates (Angstroms)
 Number     Number       Type             X           Y           Z
 ---------------------------------------------------------------------
      1          6           0        0.985474    0.156845    0.174706
      2          8           0        2.389713    0.043966    0.033145
      3          6           0        2.804822   -0.770338   -1.071299
      4          6           0        2.817358   -2.261475   -0.685988
      5          6           0        3.025115   -3.248399   -1.850969
      6          6           0        4.253530   -2.980310   -2.743406
      7          7           0        4.149861   -1.784208   -3.583045
      8          6           0        4.524059   -0.499427   -2.982314
      9          6           0        4.198974   -0.285880   -1.486978
     10          1           0        0.807290    0.784779    1.050933
     11          1           0        0.496017   -0.812548    0.339144
     12          1           0        0.530644    0.637612   -0.704102
     13          1           0        2.106767   -0.607762   -1.908549
     14          1           0        1.881763   -2.516053   -0.173992
     15          1           0        3.609043   -2.397236    0.061380
     16          1           0        2.136847   -3.240165   -2.497749
     17          1           0        3.083863   -4.266922   -1.443036
     18          1           0        4.421771   -3.854399   -3.388782
     19          1           0        5.151797   -2.887137   -2.125602
     20          1           0        3.208889   -1.729838   -3.951603
     21          1           0        4.025397    0.281061   -3.570188
     22          1           0        5.601160   -0.334069   -3.127467
     23          1           0        4.285179    0.781791   -1.257458
     24          1           0        4.948256   -0.783907   -0.860989
 ---------------------------------------------------------------------
                    Distance matrix (angstroms):
                    1          2          3          4          5
     1  C    0.000000
     2  O    1.415864   0.000000
     3  C    2.392118   1.433599   0.000000
     4  C    3.153548   2.452568   1.540166   0.000000
     5  C    4.456364   3.846205   2.607144   1.540897   0.000000
     6  C    5.388628   4.508802   3.127087   2.610036   1.541856
     7  N    5.282209   4.417825   3.024224   3.224328   2.531600
     8  C    4.787385   3.734127   2.584791   3.360172   3.329208
     9  C    3.644693   2.386001   1.533346   2.540360   3.207329
    10  H    1.092624   2.022068   3.303392   4.041897   5.441169
    11  H    1.098330   2.100794   2.705867   2.922141   4.138394
    12  H    1.100141   2.086165   2.699823   3.692437   4.758022
    13  H    2.486337   2.067604   1.102135   2.175859   2.796363
    14  H    2.840653   2.618133   2.169037   1.096489   2.157739
    15  H    3.663235   2.728925   2.139283   1.097158   2.173138
    16  H    4.472958   4.153900   2.929334   2.168735   1.098823
    17  H    5.156553   4.609199   3.527343   2.160085   1.098749
    18  H    6.371551   5.571005   4.182903   3.523726   2.163967
    19  H    5.649379   4.569536   3.331768   2.813103   2.174560
    20  H    5.052679   4.437978   3.062688   3.331693   2.598550
    21  H    4.825017   3.964301   2.973161   4.030193   4.051341
    22  H    5.696482   4.521700   3.498237   4.174359   4.093748
    23  H    3.650987   2.408907   2.152955   3.426740   4.264089
    24  H    4.202538   2.833900   2.153769   2.598953   3.279063
                    6          7          8          9         10
     6  C    0.000000
     7  N    1.465060   0.000000
     8  C    2.506999   1.466821   0.000000
     9  C    2.973473   2.576994   1.545093   0.000000
    10  H    6.359991   6.264682   5.632996   4.369305   0.000000
    11  H    5.321674   5.447777   5.230225   4.162210   1.776229
    12  H    5.577455   5.220370   4.736082   3.862949   1.782790
    13  H    3.306745   2.891747   2.647265   2.158394   3.519425
    14  H    3.527422   4.159508   4.351457   3.473770   3.681091
    15  H    2.936353   3.734987   3.701758   2.683889   4.353649
    16  H    2.146677   2.711071   3.666774   3.741902   5.528205
    17  H    2.171279   3.446717   4.317124   4.134502   6.076377
    18  H    1.099475   2.096989   3.381052   4.049793   7.368685
    19  H    1.094188   2.084339   2.613268   2.842930   6.515219
    20  H    2.028471   1.012037   2.045264   3.023187   6.092318
    21  H    3.372262   2.069056   1.097006   2.165944   5.653734
    22  H    2.994361   2.101600   1.099345   2.158623   6.456938
    23  H    4.045053   3.465692   2.161877   1.095459   4.174253
    24  H    2.974950   3.007927   2.181947   1.096046   4.823259
                   11         12         13         14         15
    11  H    0.000000
    12  H    1.786764   0.000000
    13  H    2.772828   2.342181   0.000000
    14  H    2.255112   3.471619   2.588608   0.000000
    15  H    3.504186   4.390080   3.056088   1.747288   0.000000
    16  H    4.078432   4.564451   2.697704   2.447295   3.070347
    17  H    4.669670   5.578477   3.815871   2.474078   2.456585
    18  H    6.209818   6.521237   4.253350   4.310184   3.832424
    19  H    5.661729   5.983274   3.809839   3.826174   2.720842
    20  H    5.158644   4.829500   2.578332   4.080409   4.087735
    21  H    5.379162   4.533748   2.689273   4.894196   4.531547
    22  H    6.189412   5.703244   3.710991   5.226661   4.288815
    23  H    4.410080   3.797831   2.664631   4.222095   3.507522
    24  H    4.611244   4.643342   3.033558   3.588269   2.290653
                   16         17         18         19         20
    16  H    0.000000
    17  H    1.750282   0.000000
    18  H    2.528261   2.397102   0.000000
    19  H    3.058276   2.577994   1.750474   0.000000
    20  H    2.354582   3.570060   2.510301   2.906632   0.000000
    21  H    4.137122   5.108366   4.158370   3.659656   2.203605
    22  H    4.565458   4.964013   3.721823   2.779175   2.889694
    23  H    4.725440   5.192986   5.104455   3.868557   3.837329
    24  H    4.076299   3.993261   4.011838   2.462570   3.670433
                   21         22         23         24
    21  H    0.000000
    22  H    1.748547   0.000000
    23  H    2.380533   2.544383   0.000000
    24  H    3.053782   2.401158   1.745930   0.000000
 Stoichiometry    C7H15NO
 Framework group  C1[X(C7H15NO)]
 Deg. of freedom    66
 Full point group                 C1      NOp   1
 Largest Abelian subgroup         C1      NOp   1
 Largest concise Abelian subgroup C1      NOp   1
                         Standard orientation:                         
 ---------------------------------------------------------------------
 Center     Atomic      Atomic             Coordinates (Angstroms)
 Number     Number       Type             X           Y           Z
 ---------------------------------------------------------------------
      1          6           0       -3.104893    0.149330    0.552073
      2          8           0       -2.161935   -0.375013   -0.364750
      3          6           0       -0.795396   -0.147340    0.003951
      4          6           0       -0.323796    1.246355   -0.451372
      5          6           0        1.049536    1.692954    0.086098
      6          6           0        2.210204    0.703625   -0.140612
      7          7           0        2.133375   -0.522298    0.657893
      8          6           0        1.321679   -1.624803    0.131397
      9          6           0        0.035774   -1.261030   -0.644122
     10          1           0       -4.094853   -0.078358    0.149627
     11          1           0       -3.022104    1.238144    0.670223
     12          1           0       -3.007758   -0.321721    1.541510
     13          1           0       -0.709466   -0.230158    1.099605
     14          1           0       -1.071381    1.997110   -0.168931
     15          1           0       -0.309748    1.242187   -1.548431
     16          1           0        0.975445    1.875578    1.167103
     17          1           0        1.303352    2.664146   -0.360682
     18          1           0        3.159519    1.212658    0.079692
     19          1           0        2.260208    0.420948   -1.196472
     20          1           0        1.821327   -0.280770    1.589832
     21          1           0        1.054618   -2.256877    0.987307
     22          1           0        1.947421   -2.255451   -0.516128
     23          1           0       -0.585668   -2.158561   -0.735113
     24          1           0        0.282300   -0.967241   -1.670878
 ---------------------------------------------------------------------
 Rotational constants (GHZ):           2.6845483           1.1086364           0.8843943
 Standard basis: 6-31G(2df,p) (6D, 7F)
 There are   354 symmetry adapted cartesian basis functions of A   symmetry.
 There are   327 symmetry adapted basis functions of A   symmetry.
   327 basis functions,   501 primitive gaussians,   354 cartesian basis functions
    36 alpha electrons       36 beta electrons
       nuclear repulsion energy       498.7533302905 Hartrees.
 NAtoms=   24 NActive=   24 NUniq=   24 SFac= 1.00D+00 NAtFMM=   60 NAOKFM=F Big=F
 Integral buffers will be    131072 words long.
 Raffenetti 2 integral format.
 Two-electron integral symmetry is turned on.
 One-electron integrals computed using PRISM.
 PrsmSu:  requested number of processors reduced to:  13 ShMem   1 Linda.
 NBasis=   327 RedAO= T EigKep=  3.94D-04  NBF=   327
 NBsUse=   327 1.00D-06 EigRej= -1.00D+00 NBFU=   327
 Initial guess from the checkpoint file:  "COC1CCCNCC1.chk"
 B after Tr=     0.000000   -0.000000   -0.000000
         Rot=    0.999942   -0.006346   -0.000858    0.008646 Ang=  -1.23 deg.
 ExpMin= 1.61D-01 ExpMax= 5.48D+03 ExpMxC= 8.25D+02 IAcc=2 IRadAn=         4 AccDes= 0.00D+00
 Harris functional with IExCor=  402 and IRadAn=       4 diagonalized for initial guess.
 HarFok:  IExCor=  402 AccDes= 0.00D+00 IRadAn=         4 IDoV= 1 UseB2=F ITyADJ=14
 ICtDFT=  3500011 ScaDFX=  1.000000  1.000000  1.000000  1.000000
 FoFCou: FMM=F IPFlag=           0 FMFlag=      100000 FMFlg1=           0
         NFxFlg=           0 DoJE=T BraDBF=F KetDBF=T FulRan=T
         wScrn=  0.000000 ICntrl=       500 IOpCl=  0 I1Cent=   200000004 NGrid=           0
         NMat0=    1 NMatS0=      1 NMatT0=    0 NMatD0=    1 NMtDS0=    0 NMtDT0=    0
 Petite list used in FoFCou.
 Requested convergence on RMS density matrix=1.00D-08 within 128 cycles.
 Requested convergence on MAX density matrix=1.00D-06.
 Requested convergence on             energy=1.00D-06.
 No special actions if energy rises.
 Integral accuracy reduced to 1.0D-05 until final iterations.
 Initial convergence to 1.0D-05 achieved.  Increase integral accuracy.
 SCF Done:  E(RB3LYP) =  -405.757840901     A.U. after   10 cycles
            NFock= 10  Conv=0.78D-08     -V/T= 2.0081
 PrsmSu:  requested number of processors reduced to:  13 ShMem   1 Linda.
 Calling FoFJK, ICntrl=      2127 FMM=F ISym2X=0 I1Cent= 0 IOpClX= 0 NMat=1 NMatS=1 NMatT=0.
 ***** Axes restored to original set *****
 -------------------------------------------------------------------
 Center     Atomic                   Forces (Hartrees/Bohr)
 Number     Number              X              Y              Z
 -------------------------------------------------------------------
      1        6           0.006596384    0.000287467    0.001061958
      2        8          -0.003253814   -0.003735610   -0.002662334
      3        6           0.000826550    0.002592237    0.002114315
      4        6          -0.000919151   -0.000954623    0.000718650
      5        6           0.000003083    0.001592451    0.000942488
      6        6           0.000077546    0.001398006    0.000424089
      7        7           0.000115838   -0.001247088    0.001465338
      8        6          -0.000160306   -0.000185329    0.000131921
      9        6           0.001517573    0.000618736   -0.000767468
     10        1          -0.000490192    0.000267295    0.000157901
     11        1          -0.000674077   -0.000761133   -0.000339417
     12        1          -0.000701443   -0.000402194   -0.000635336
     13        1          -0.001490197   -0.000007156   -0.000469941
     14        1          -0.000687676    0.000442937   -0.001170728
     15        1           0.000566757   -0.000078940   -0.000074432
     16        1          -0.000770612   -0.000123167   -0.000399076
     17        1           0.000657673    0.001025730    0.000015299
     18        1          -0.001287671    0.001159479   -0.000012916
     19        1           0.001858615   -0.000399502    0.000552577
     20        1          -0.000463189    0.000576088   -0.001231423
     21        1          -0.000046978   -0.000807022    0.000070981
     22        1          -0.000192792   -0.000827866    0.000728447
     23        1          -0.001350349   -0.000108611   -0.000534833
     24        1           0.000268427   -0.000322184   -0.000086060
 -------------------------------------------------------------------
 Cartesian Forces:  Max     0.006596384 RMS     0.001322575

 GradGradGradGradGradGradGradGradGradGradGradGradGradGradGradGradGradGrad
 Berny optimization.
 Using GEDIIS/GDIIS optimizer.
 FormGI is forming the generalized inverse of G from B-inverse, IUseBI=4.
 Internal  Forces:  Max     0.004758905 RMS     0.000862380
 Search for a local minimum.
 Step number   2 out of a maximum of  143
 All quantities printed in internal units (Hartrees-Bohrs-Radians)
 Mixed Optimization -- En-DIIS/RFO-DIIS
 Update second derivatives using D2CorX and points    1    2
 DE= -3.57D-03 DEPred=-4.23D-03 R= 8.45D-01
 TightC=F SS=  1.41D+00  RLast= 2.89D-01 DXNew= 5.0454D-01 8.6816D-01
 Trust test= 8.45D-01 RLast= 2.89D-01 DXMaxT set to 5.05D-01
 ITU=  1  0
 Use linear search instead of GDIIS.
     Eigenvalues ---    0.00481   0.00606   0.00718   0.01118   0.01245
     Eigenvalues ---    0.01339   0.02019   0.02270   0.03213   0.03486
     Eigenvalues ---    0.03605   0.04551   0.04648   0.04729   0.04859
     Eigenvalues ---    0.05158   0.05567   0.05877   0.06371   0.06729
     Eigenvalues ---    0.07869   0.08017   0.08585   0.08826   0.08876
     Eigenvalues ---    0.08960   0.09828   0.09982   0.10263   0.10505
     Eigenvalues ---    0.12377   0.12589   0.13006   0.14655   0.15202
     Eigenvalues ---    0.15888   0.16000   0.16067   0.18063   0.20948
     Eigenvalues ---    0.21541   0.24744   0.27824   0.28446   0.28696
     Eigenvalues ---    0.29366   0.30356   0.33788   0.33851   0.33860
     Eigenvalues ---    0.33896   0.33972   0.33981   0.34018   0.34051
     Eigenvalues ---    0.34129   0.34219   0.34236   0.34365   0.34413
     Eigenvalues ---    0.34596   0.36369   0.36564   0.40731   0.40890
     Eigenvalues ---    0.44294
 RFO step:  Lambda=-7.48880862D-04 EMin= 4.80783779D-03
 Quartic linear search produced a step of -0.05351.
 Iteration  1 RMS(Cart)=  0.03795633 RMS(Int)=  0.00055710
 Iteration  2 RMS(Cart)=  0.00081109 RMS(Int)=  0.00003518
 Iteration  3 RMS(Cart)=  0.00000027 RMS(Int)=  0.00003517
 Variable       Old X    -DE/DX   Delta X   Delta X   Delta X     New X
                                 (Linear)    (Quad)   (Total)
    R1        2.67559  -0.00471   0.00108  -0.01347  -0.01239   2.66321
    R2        2.06476   0.00036  -0.00007   0.00117   0.00109   2.06585
    R3        2.07554   0.00092  -0.00049   0.00379   0.00330   2.07884
    R4        2.07896   0.00062  -0.00056   0.00313   0.00257   2.08153
    R5        2.70911  -0.00476   0.00012  -0.01143  -0.01132   2.69779
    R6        2.91049  -0.00164  -0.00054  -0.00267  -0.00323   2.90726
    R7        2.89760   0.00018   0.00000   0.00240   0.00236   2.89997
    R8        2.08273   0.00130  -0.00052   0.00493   0.00441   2.08714
    R9        2.91187  -0.00263  -0.00183  -0.00420  -0.00601   2.90586
   R10        2.07206  -0.00006  -0.00014   0.00018   0.00004   2.07211
   R11        2.07333   0.00037   0.00014   0.00068   0.00081   2.07414
   R12        2.91369  -0.00038  -0.00135   0.00029  -0.00102   2.91266
   R13        2.07648   0.00086  -0.00002   0.00244   0.00242   2.07889
   R14        2.07633  -0.00091  -0.00023  -0.00193  -0.00216   2.07417
   R15        2.76856  -0.00164  -0.00077  -0.00338  -0.00412   2.76444
   R16        2.07771  -0.00111  -0.00043  -0.00198  -0.00240   2.07530
   R17        2.06772   0.00180   0.00031   0.00423   0.00453   2.07225
   R18        2.77189  -0.00151  -0.00078  -0.00232  -0.00310   2.76880
   R19        1.91247   0.00091   0.00109  -0.00082   0.00027   1.91275
   R20        2.91980  -0.00127  -0.00144   0.00108  -0.00040   2.91940
   R21        2.07304  -0.00059   0.00003  -0.00172  -0.00169   2.07135
   R22        2.07746  -0.00041  -0.00025  -0.00051  -0.00076   2.07670
   R23        2.07012  -0.00032   0.00020  -0.00141  -0.00121   2.06891
   R24        2.07123   0.00028   0.00022   0.00022   0.00044   2.07166
    A1        1.86266   0.00084   0.00192   0.00127   0.00318   1.86584
    A2        1.96772  -0.00004  -0.00127   0.00233   0.00105   1.96877
    A3        1.94444   0.00027  -0.00119   0.00403   0.00284   1.94727
    A4        1.89072  -0.00004  -0.00009   0.00111   0.00100   1.89173
    A5        1.89868  -0.00009   0.00001   0.00073   0.00072   1.89940
    A6        1.89765  -0.00092   0.00069  -0.00926  -0.00856   1.88908
    A7        1.99269   0.00008  -0.00239   0.00638   0.00399   1.99668
    A8        1.93859  -0.00180  -0.00212  -0.01410  -0.01621   1.92238
    A9        1.86780   0.00091   0.00149  -0.00459  -0.00299   1.86481
   A10        1.89448   0.00047  -0.00012   0.00226   0.00207   1.89654
   A11        1.94584   0.00045  -0.00063   0.01196   0.01123   1.95707
   A12        1.91561  -0.00020   0.00115  -0.00551  -0.00448   1.91113
   A13        1.90004   0.00022   0.00026   0.01030   0.01055   1.91059
   A14        2.01756  -0.00081  -0.00142   0.00277   0.00131   2.01888
   A15        1.91204  -0.00005   0.00102  -0.00918  -0.00815   1.90389
   A16        1.87139   0.00034   0.00221  -0.00248  -0.00025   1.87114
   A17        1.89586   0.00033  -0.00070  -0.00255  -0.00325   1.89260
   A18        1.91608  -0.00009   0.00001   0.00062   0.00061   1.91669
   A19        1.84304   0.00037  -0.00111   0.01180   0.01072   1.85376
   A20        2.01934   0.00049  -0.00114   0.00671   0.00560   2.02494
   A21        1.90839  -0.00001  -0.00032   0.00261   0.00226   1.91066
   A22        1.89677  -0.00037  -0.00048  -0.00386  -0.00432   1.89245
   A23        1.87764  -0.00006   0.00229  -0.00280  -0.00054   1.87711
   A24        1.91078  -0.00030  -0.00053  -0.00469  -0.00520   1.90558
   A25        1.84284   0.00024   0.00029   0.00171   0.00201   1.84486
   A26        2.00127   0.00019  -0.00214   0.00580   0.00376   2.00503
   A27        1.90015  -0.00031  -0.00121  -0.00552  -0.00666   1.89349
   A28        1.91990   0.00032   0.00126   0.00594   0.00714   1.92703
   A29        1.90020  -0.00068  -0.00153  -0.00740  -0.00888   1.89132
   A30        1.88826   0.00030   0.00352  -0.00120   0.00223   1.89050
   A31        1.84783   0.00017   0.00007   0.00205   0.00212   1.84994
   A32        2.05142  -0.00038  -0.00202   0.00434   0.00231   2.05373
   A33        1.89480   0.00081   0.00139   0.00725   0.00862   1.90342
   A34        1.91695  -0.00043   0.00028   0.00027   0.00049   1.91744
   A35        2.05301  -0.00012  -0.00004   0.00492   0.00481   2.05782
   A36        1.86266  -0.00061   0.00074  -0.00592  -0.00518   1.85748
   A37        1.90458   0.00033  -0.00066  -0.00176  -0.00239   1.90219
[...]
 00013507,0.00007640,-0.00029956,0.00340855,0.00007700,0.00349226,-0.20
 242412,0.00196780,-0.11862233,-0.02725203,0.00025595,-0.01614572,0.002
 55884,0.00167760,-0.00130438,0.00022350,-0.00028562,-0.00014322,0.0000
 4807,0.00011680,-0.00011223,0.00001131,-0.00001451,0.00001104,-0.00002
 314,-0.00000338,0.00001094,0.00001361,-0.00002680,0.00002693,0.0000901
 9,-0.00044308,0.00012257,0.00113419,-0.00040946,-0.00022885,0.00116662
 ,0.00093608,0.00102624,0.22504413,0.00000909,0.00003624,-0.00003839,0.
 00038236,-0.00005973,0.00042818,-0.00115165,0.00166240,-0.00091190,-0.
 01773355,-0.00051750,-0.01473986,0.00313634,-0.04811831,0.00129908,-0.
 00570011,-0.00098214,-0.00171651,-0.00070870,0.00091571,-0.00148922,-0
 .00002833,-0.00034568,-0.00025400,-0.00015818,-0.00001044,0.00017122,0
 .00000755,-0.00000590,0.00001424,-0.00001359,-0.00003382,-0.00001632,0
 .00003973,-0.00004473,0.00001858,0.00034701,-0.00031950,0.00041168,0.0
 0007040,0.00095883,0.00095768,0.00053413,-0.00240946,-0.00342217,-0.00
 264426,0.04938943,-0.00035210,0.00005142,-0.00004252,0.00061046,-0.000
 33724,0.00030219,-0.00034932,0.00175830,-0.00015636,-0.01974013,-0.000
 34205,-0.01816554,-0.11835619,0.00225445,-0.13493281,0.01693467,0.0012
 7985,0.00864524,0.00079335,-0.00173147,0.00246743,0.00016233,-0.000093
 94,-0.00010020,0.00005478,0.00000054,0.00006764,0.00004033,-0.00001059
 ,0.00000548,-0.00000791,0.00000778,-0.00004409,0.00006750,-0.00006930,
 0.00006422,0.00032601,-0.00082729,0.00062300,0.00019924,0.00056231,0.0
 0070158,0.00131858,-0.00422841,-0.00307463,0.12720382,0.00026140,0.152
 32890,0.00016328,-0.00004165,-0.00007907,0.00026799,0.00054414,0.00024
 863,0.00020201,-0.00011848,0.00076485,-0.00080958,0.00353010,-0.002051
 34,-0.04903697,0.01348851,-0.00604351,0.00335022,-0.02517295,0.0103555
 3,-0.00462627,-0.00251221,0.00416838,0.00030879,0.00106483,0.00124954,
 0.00012107,0.00025728,-0.00021266,0.00000172,0.00000232,0.00001151,-0.
 00003136,-0.00001373,0.00000223,-0.00001039,-0.00002475,0.00000324,0.0
 0003660,-0.00042389,0.00019225,-0.00005141,0.00017153,-0.00038368,0.00
 041350,-0.00042282,0.00034660,-0.00187308,0.02414444,-0.01053396,0.050
 11107,-0.00089602,-0.00013782,0.00013674,0.00073527,-0.00226751,-0.000
 60200,0.00065590,0.00150108,-0.00413066,0.00134481,-0.02186714,0.00751
 496,0.01271199,-0.25917300,0.09180116,0.00177254,-0.00558438,0.0009409
 7,-0.00176377,0.00031242,0.00201980,0.00016909,0.00091671,0.00017201,0
 .00035119,0.00024913,-0.00003457,0.00012814,-0.00002686,-0.00005042,0.
 00012709,0.00012546,-0.00000071,0.00012490,-0.00000202,0.00002921,0.00
 006385,0.00026401,0.00010880,0.00046687,0.00066117,-0.00003213,-0.0007
 1934,0.00092302,0.00006875,0.00043180,-0.00058003,0.00040131,-0.014736
 54,0.28398098,-0.00067559,-0.00007994,0.00008474,0.00057866,-0.0024437
 4,-0.00067653,0.00079559,-0.00016887,-0.00395155,0.00143541,-0.0272677
 4,0.00835158,-0.00581857,0.09169026,-0.08427654,-0.00384781,0.01620592
 ,-0.00731610,0.00459773,0.00246889,-0.00247586,0.00000821,-0.00125084,
 -0.00138425,0.00025159,0.00007442,0.00012935,0.00008978,-0.00000470,-0
 .00003219,0.00010326,0.00008997,-0.00000224,0.00009659,-0.00001642,0.0
 0002764,0.00020919,-0.00006313,0.00024739,-0.00012348,0.00079145,0.000
 92917,-0.00031020,0.00055361,0.00121066,-0.00103567,0.01760438,-0.0082
 4389,0.00360706,-0.09778266,0.09534071,0.00008500,-0.00007911,0.000045
 12,-0.00002147,0.00035886,-0.00000485,-0.00015518,-0.00081586,0.000079
 02,-0.00463211,-0.00237197,0.00146771,-0.00485189,0.02144125,0.0216529
 0,-0.05365734,0.02188492,0.01517271,0.00302815,0.00192689,-0.00061692,
 0.00008674,-0.00054651,0.00005669,-0.00044504,0.00023260,-0.00013385,0
 .00000714,0.00003786,-0.00000139,0.00007129,0.00000950,-0.00004432,-0.
 00001114,0.00002232,-0.00002718,0.00001076,0.00011260,-0.00003329,-0.0
 0024199,0.00102054,0.00150071,0.00012244,-0.00002521,0.00024780,0.0008
 6947,0.00044583,-0.00100218,0.00121134,-0.00024996,-0.00045229,0.05502
 316,-0.00014231,-0.00001951,0.00002224,0.00029892,0.00021171,-0.000236
 04,-0.00049011,-0.00025465,0.00054035,-0.00062307,0.00105215,0.0003425
 4,-0.00123576,0.00340676,0.00185032,0.02312894,-0.19352781,-0.12080848
 ,-0.00390332,-0.03339157,-0.00564004,0.00517889,-0.00133169,0.00314623
 ,-0.00000827,0.00005451,0.00032505,0.00002947,-0.00000986,-0.00002105,
 0.00004917,0.00001274,-0.00001623,0.00001427,0.00000400,0.00000960,-0.
 00006055,0.00002395,-0.00003193,-0.00015229,0.00006802,0.00009157,-0.0
 0001062,-0.00004844,-0.00000244,0.00034071,0.00000806,-0.00003448,0.00
 044443,0.00089438,-0.00031804,-0.02243632,0.22558641,-0.00013444,0.000
 08211,-0.00003580,0.00008625,-0.00035167,-0.00004464,-0.00007002,0.000
 84121,-0.00006389,0.00404425,0.00169218,-0.00018769,0.00207221,-0.0142
 3258,-0.01306457,0.01485121,-0.12414968,-0.14275917,0.00108853,0.02304
 301,0.01276217,-0.00192624,0.00280792,-0.00107249,-0.00005279,0.000541
 80,-0.00029314,0.00000136,-0.00004617,-0.00000808,-0.00005037,-0.00002
 274,0.00004657,0.00002308,-0.00002056,0.00002960,0.00007787,-0.0000839
 1,0.00005731,0.00039977,-0.00099176,-0.00095411,-0.00014371,0.00022381
 ,0.00036091,0.00023133,0.00021827,0.00100057,-0.00033504,0.00026668,-0
 .00004759,-0.02226848,0.12415280,0.15446502,-0.00002941,0.00000101,-0.
 00003087,0.00010165,0.00023573,0.00010387,-0.00026186,-0.00013431,0.00
 029607,0.00136783,0.00006635,-0.00151733,-0.02318512,-0.00251601,-0.01
 520695,-0.21746832,-0.01407430,-0.11749192,-0.00198586,0.00184213,-0.0
 0242092,0.00073391,-0.00057364,-0.00080149,-0.00048297,0.00002849,-0.0
 0041956,0.00000494,0.00000470,0.00000436,0.00001406,-0.00000274,-0.000
 01689,0.00000591,-0.00001591,0.00001316,0.00016421,-0.00013344,0.00000
 260,0.00044818,-0.00021135,0.00005116,0.00019182,0.00048264,0.00102281
 ,-0.00374819,-0.00122037,0.00349022,0.00044007,-0.00036089,0.00019849,
 0.00332155,-0.00039107,0.00213865,0.23820553,0.00008867,-0.00000874,0.
 00000823,-0.00017606,0.00010573,0.00001754,0.00027928,-0.00012318,0.00
 012850,0.00051424,0.00010138,0.00026498,-0.00326656,0.00035929,-0.0031
 3590,-0.02061949,-0.05158426,-0.01457096,0.02660469,-0.00167142,0.0212
 3510,0.00140848,0.00200178,0.00017653,0.00023373,-0.00072024,-0.000348
 76,-0.00001084,0.00001192,0.00000808,-0.00000779,-0.00000682,-0.000007
 51,-0.00001683,0.00000347,-0.00000643,-0.00015447,0.00001995,-0.000058
 65,-0.00007216,-0.00006937,0.00000411,0.00007592,0.00018658,0.00016995
 ,-0.00074769,0.00059334,0.00124407,0.00021739,-0.00002768,-0.00021621,
 -0.02080725,-0.00104882,-0.01407613,0.01622188,0.05716034,0.00005020,-
 0.00000048,-0.00001294,-0.00007105,-0.00000436,0.00005245,0.00009369,-
 0.00014247,-0.00012553,-0.00026439,0.00005830,0.00165335,0.01662557,0.
 00087144,0.01112043,-0.11534843,-0.00830189,-0.12834705,-0.01811481,0.
 00181493,-0.01435120,-0.00045840,-0.00183972,0.00039712,0.00001062,-0.
 00007231,0.00007481,-0.00000580,0.00000835,0.00000438,0.00000106,-0.00
 000213,0.00000269,-0.00000672,0.00000435,-0.00000559,0.00001567,0.0000
 2814,-0.00007431,-0.00022853,0.00022077,0.00014860,-0.00040967,0.00016
 580,-0.00008438,0.00413486,0.00049455,-0.00147213,-0.00098894,-0.00014
 885,0.00049876,-0.01617240,-0.00206505,-0.01111728,0.12931003,0.005810
 08,0.14280075,-0.00003765,-0.00000108,-0.00002160,0.00014762,-0.000125
 72,-0.00003613,-0.00019535,0.00040733,-0.00023046,0.00001928,0.0001073
 8,0.00008074,0.00302014,-0.00095567,0.00171345,-0.00396173,-0.00224789
 ,0.00490069,-0.35726831,0.02023602,-0.17639205,-0.01035211,0.00410423,
 0.00357595,0.00067965,0.00131131,0.00070459,0.00000878,-0.00001446,-0.
 00001087,-0.00000789,-0.00000042,0.00001296,0.00000716,0.00000432,0.00
 000102,-0.00006650,0.00017271,0.00044042,0.00000085,-0.00007862,-0.000
 01790,-0.00008172,0.00001217,-0.00003806,0.00052941,0.00004104,-0.0008
 4708,-0.00019756,-0.00012897,0.00026865,-0.00042151,0.00071443,-0.0006
 8017,0.00117719,0.00091955,0.00089411,0.36540445,0.00002538,0.00003409
 ,-0.00009617,0.00017529,0.00003736,0.00028717,-0.00046809,0.00006879,-
 0.00067352,-0.00024341,0.00006454,0.00008130,0.00151906,0.00120751,0.0
 0015531,0.02993386,-0.00309535,0.01538375,0.02606968,-0.05958359,0.019
 75441,-0.03336629,-0.00263822,-0.01472250,-0.00059128,-0.00074305,0.00
 043817,0.00000726,-0.00000313,0.00000700,0.00000971,-0.00001046,0.0000
 1013,0.00001661,-0.00001300,0.00000529,0.00061491,-0.00012436,-0.00006
 884,-0.00002087,0.00012305,0.00007947,0.00002630,-0.00020316,-0.000135
 77,-0.00142689,-0.00012502,-0.00020807,-0.00006458,-0.00002976,-0.0004
 2109,0.00008057,-0.00037149,-0.00053448,0.00017896,-0.00495165,0.00328
 728,-0.02033325,0.07458707,0.00050473,-0.00001665,-0.00011107,-0.00013
 012,0.00040833,0.00092558,-0.00089962,-0.00031489,-0.00152671,0.000275
 96,0.00008529,-0.00059847,-0.00165490,-0.00220898,0.00104312,-0.022971
 57,0.00772928,-0.01558234,-0.13133203,0.01166429,-0.07527227,-0.014460
 59,-0.00180125,-0.00925307,-0.00133457,-0.00075674,-0.00054946,-0.0000
 4382,0.00003934,0.00005152,-0.00003554,-0.00002771,-0.00001801,-0.0000
 4520,-0.00002786,-0.00005899,0.00095162,-0.00042558,0.00014444,0.00002
 972,0.00000768,0.00007678,0.00006401,-0.00001259,0.00027275,0.00132492
 ,0.00049242,-0.00005108,-0.00001195,-0.00059744,0.00108663,0.00021126,
 -0.00036160,0.00016855,0.00010624,0.00406251,-0.00165372,0.16603140,-0
 .01936230,0.09902504,-0.00008337,0.00004605,-0.00001791,0.00002855,0.0
 0009509,-0.00020732,0.00124015,-0.00039597,0.00036250,0.00002870,0.000
 01848,0.00006758,0.00012623,0.00003303,0.00006022,0.00027470,-0.002123
 17,-0.00120462,0.00314859,-0.01212332,0.00521442,-0.09544593,0.0788592
 0,-0.06171850,0.00372507,-0.00687189,0.00612266,0.00000929,-0.00000533
 ,-0.00001846,0.00002395,0.00000400,-0.00000431,-0.00001264,0.00000807,
 0.00001070,-0.00006360,0.00013764,-0.00036916,-0.00000819,0.00001211,0
 .00000255,-0.00011136,-0.00004718,-0.00004719,0.00001727,-0.00000298,-
 0.00006711,-0.00004597,0.00003528,0.00003267,0.00015224,-0.00047372,0.
 00029448,0.00016278,-0.00022900,0.00025538,0.00169362,-0.00035420,0.00
 099882,0.09715962,0.00003907,-0.00006484,0.00010071,-0.00016334,0.0001
 4365,-0.00006123,0.00006508,-0.00023079,0.00027467,-0.00014285,0.00004
 278,-0.00021118,0.00042646,-0.00028643,-0.00010675,-0.00106648,-0.0027
 9914,-0.00542930,0.01111438,-0.03098634,0.01683186,0.07183114,-0.17246
 750,0.10132461,-0.00165753,0.00299283,-0.00424524,-0.00001093,0.000011
 58,-0.00000648,0.00000465,0.00001698,-0.00002108,-0.00001741,0.0000167
 6,-0.00002348,-0.00032125,-0.00012384,0.00008455,-0.00000599,0.0000680
 7,0.00009119,0.00002539,0.00005599,0.00002602,-0.00009008,-0.00000159,
 0.00002033,-0.00021005,0.00002918,0.00018782,-0.00017237,-0.00163157,0
 .00094027,-0.00000213,0.00036592,-0.00011044,-0.00039232,0.00065586,0.
 00109985,-0.07926334,0.19927363,-0.00014384,-0.00001530,-0.00002561,0.
 00047763,-0.00007151,0.00021531,-0.00204296,-0.00026056,-0.00004753,-0
 .00006984,0.00005532,0.00006333,0.00006180,-0.00035026,-0.00000943,-0.
 00051339,-0.00158155,-0.00070456,0.00435344,-0.01292632,0.00736977,-0.
 06162722,0.10730204,-0.13109092,-0.01398761,0.01930445,-0.02160789,0.0
 0003439,-0.00001395,-0.00001361,0.00002648,0.00000393,0.00001771,0.000
 09531,-0.00001548,0.00002038,0.00095039,0.00007563,0.00031663,0.000108
 61,0.00008081,0.00005621,0.00008899,-0.00015653,0.00021059,0.00000849,
 0.00005280,0.00005622,-0.00011414,0.00002551,0.00007901,0.00006282,-0.
 00044654,0.00024831,0.00021331,-0.00011067,-0.00000019,0.00075644,0.00
 002508,0.00139759,0.06793770,-0.10777659,0.14593608,0.00035141,-0.0000
 2817,0.00005803,-0.00096326,0.00006773,0.00058069,0.00187802,0.0009857
 0,0.00087439,-0.00009592,-0.00004458,-0.00011486,0.00002140,-0.0002449
 0,0.00035131,-0.00061463,0.00094958,-0.00068316,-0.00515090,-0.0090352
 8,-0.00803653,-0.29100667,-0.01600307,0.02238361,-0.00960264,0.0005709
 1,0.00120278,-0.00007365,0.00002014,0.00003522,-0.00007200,-0.00002653
 ,0.00000973,-0.00003646,-0.00001126,-0.00003627,0.00038253,0.00004823,
 -0.00006117,-0.00002313,-0.00000934,0.00004237,0.00000217,-0.00004773,
 0.00006892,0.00012815,0.00006562,-0.00009627,-0.00008278,-0.00009585,0
 .00014117,0.00014952,-0.00021550,0.00019319,0.00002371,-0.00054989,0.0
 0045055,0.00006321,-0.00193007,0.00194782,-0.01341718,0.00001421,0.000
 95779,0.31694959,-0.00007517,-0.00002333,-0.00000850,0.00006085,0.0000
 3103,-0.00018512,-0.00021744,0.00055160,-0.00046571,0.00023165,-0.0001
 4902,-0.00022323,0.00009466,-0.00056783,0.00054346,-0.00224391,0.00185
 485,-0.00105489,-0.03298131,-0.01165078,-0.00951364,-0.01209082,-0.048
 91246,0.00585514,0.00243647,0.00302892,0.00130115,0.00001667,0.0000007
 0,-0.00001007,0.00001325,0.00001335,-0.00001108,-0.00000996,0.00000483
 ,0.00000187,-0.00022960,-0.00015979,-0.00002161,-0.00000729,0.00009286
 ,0.00000895,-0.00000145,0.00008072,0.00003574,0.00032823,0.00002148,0.
 00004047,-0.00013670,-0.00009945,0.00034546,-0.00004034,0.00018205,-0.
 00016655,0.00070141,0.00009383,0.00056450,-0.00386390,-0.00485874,0.00
 023502,0.02302590,0.00242031,-0.00210382,0.02580864,0.05766482,-0.0004
 6142,-0.00008025,-0.00051275,0.00276090,0.00007835,-0.00111930,-0.0021
 2699,-0.00295002,-0.00481648,0.00036474,-0.00021595,0.00006883,0.00006
 208,-0.00043684,-0.00011998,-0.00016688,0.00095387,-0.00037395,-0.0163
 1487,-0.00683432,-0.00194286,0.02267685,0.00489806,-0.04804901,0.03425
 757,0.00392419,-0.00788325,0.00022997,-0.00003651,-0.00007197,0.000160
 55,0.00005695,-0.00002774,0.00006964,-0.00001042,0.00008343,0.00005843
 ,-0.00013651,0.00025671,0.00000090,0.00024747,-0.00000947,-0.00003312,
 0.00005298,0.00000245,0.00006858,0.00008614,0.00002484,-0.00009739,-0.
 00002257,0.00026294,-0.00006606,-0.00010047,-0.00001001,0.00011165,0.0
 0001579,0.00009489,-0.00161364,-0.00301115,0.00068586,-0.01834571,-0.0
 0104779,0.00170854,-0.02106491,0.00428020,0.05973077,-0.00037324,-0.00
 002832,-0.00008940,0.00231554,0.00043298,-0.00147415,-0.00260345,-0.03
 223395,-0.00321901,-0.00534450,0.00024914,0.00140201,-0.00003190,0.000
 43864,0.00022790,-0.00056014,-0.00009978,0.00021174,0.00060512,0.00009
 132,0.00024718,0.00053207,0.00647987,-0.00014303,-0.04752941,-0.006280
 57,-0.00225292,0.00009354,-0.00000324,-0.00003050,0.00033968,0.0000972
 5,-0.00010055,0.00006057,-0.00006927,0.00003856,0.00032706,0.00053142,
 -0.00013857,0.00009846,-0.00186656,0.00076573,0.00017958,-0.00001462,0
 .00026544,0.00004681,-0.00001641,-0.00004939,0.00007703,-0.00006994,-0
 .00007477,0.00012174,-0.00002640,0.00000989,0.00028870,-0.00007120,0.0
 0005438,-0.00013607,0.00009201,0.00031069,0.00080027,-0.00027359,-0.00
 015726,-0.00031375,-0.00040377,-0.00041000,0.05046126,-0.00007259,0.00
 058303,0.00009765,0.00227949,0.00172060,-0.00113587,-0.00024385,-0.012
 77999,-0.00103531,-0.00275726,0.00045213,0.00044613,0.00021694,0.00039
 827,0.00005421,-0.00001024,0.00067484,0.00034322,0.00044804,0.00063762
 ,-0.00122543,-0.00039730,-0.00428066,0.00091515,-0.00972650,-0.2996902
 7,-0.04112339,-0.00008845,0.00003892,0.00001131,0.00034670,0.00011388,
 -0.00014089,0.00004528,-0.00002240,0.00002642,-0.00042370,0.00018275,-
 0.00003143,-0.00012986,-0.00080966,0.00010445,-0.00002403,0.00026917,-
 0.00026327,-0.00003863,-0.00002335,-0.00004562,0.00001743,-0.00007664,
 -0.00000909,0.00002020,0.00002489,-0.00008865,-0.00014255,-0.00000294,
 -0.00007512,0.00015596,-0.00000465,0.00004119,-0.00034511,0.00143419,-
 0.00015465,0.00021390,-0.00005777,-0.00054245,0.01092706,0.32510543,0.
 00024963,-0.00003221,-0.00008121,0.00053025,0.00081843,-0.00014720,0.0
 0076945,0.00773122,0.00006878,0.00213313,0.00054627,-0.00107318,0.0000
 3592,-0.00014381,-0.00019286,-0.00025390,0.00166638,-0.00096192,0.0016
 4624,-0.00245363,-0.00689038,-0.00371443,-0.03142022,-0.00560191,-0.00
 322220,-0.04291687,-0.05030862,-0.00001582,0.00001350,0.00000020,-0.00
 017699,-0.00000775,0.00001202,-0.00013355,0.00000081,-0.00004631,-0.00
 009153,-0.00018999,0.00008687,0.00038949,0.00083624,0.00009564,0.00016
 157,-0.00023367,0.00027676,0.00004688,0.00002154,0.00002809,-0.0000675
 0,-0.00006531,0.00008424,0.00014215,-0.00025706,0.00030573,0.00021246,
 -0.00010816,0.00018495,0.00034210,-0.00021746,-0.00009558,-0.00094855,
 -0.00031269,0.00124785,0.00081723,0.00083393,0.00046770,0.00076082,0.0
 4601396,0.05919375,0.00014534,0.00025524,0.00024135,0.00055891,-0.0005
 3454,0.00087196,-0.02506923,0.01149225,-0.02070717,0.00082659,0.002295
 30,-0.00162669,-0.00001243,-0.00032236,0.00010632,-0.00070651,0.000556
 21,-0.00038541,0.00022334,-0.00054197,-0.00056052,0.00501532,-0.004436
 81,0.00765051,-0.16088298,0.07300271,-0.10272241,-0.00010829,0.0000048
 0,0.00019022,-0.00005736,-0.00009002,0.00000547,0.00022220,-0.00010505
 ,0.00013605,-0.00481539,-0.00183891,0.00222474,0.00059998,0.00030418,0
 .00036055,0.00060503,-0.00120097,0.00117440,0.00008298,0.00015459,0.00
 020032,0.00006069,-0.00009746,-0.00007568,0.00017713,-0.00002992,0.000
 14918,0.00050972,0.00016540,0.00017299,-0.00002495,0.00004936,0.000162
 71,0.00059719,0.00026929,0.00252271,0.00150326,-0.00041608,-0.00012088
 ,0.00054504,-0.00027097,0.00038714,0.18000441,-0.00009059,0.00008032,-
 0.00004323,0.00054061,0.00041450,-0.00056789,-0.00938204,0.00316023,-0
 .00600600,-0.00159886,0.00053294,-0.00120887,-0.00014690,-0.00008225,0
 .00003443,0.00032749,-0.00036596,-0.00009128,0.00004107,0.00052100,0.0
 0016726,-0.00481725,0.00233321,-0.00373710,0.07487870,-0.09573576,0.06
 596548,0.00004059,-0.00000719,0.00005433,0.00002827,0.00002789,-0.0000
 2958,-0.00001628,-0.00006551,0.00001723,-0.00261402,-0.00026100,0.0003
 7144,0.00006653,0.00009136,-0.00014053,-0.00018564,0.00018995,0.000265
 17,0.00009867,-0.00000829,0.00004624,-0.00000405,0.00001473,0.00003031
 ,-0.00004905,0.00010579,-0.00004517,0.00001539,-0.00078843,-0.00056570
 ,-0.00004417,-0.00002266,0.00004841,-0.00003966,0.00106429,-0.00094184
 ,-0.00050251,0.00043782,0.00083125,0.02211794,-0.01388739,0.01987656,-
 0.07866424,0.10225042,-0.00001906,-0.00005299,0.00004425,-0.00053985,0
 .00073383,0.00040979,0.00552449,-0.00280956,0.00345242,0.00089556,-0.0
 0023199,0.00074420,-0.00011940,-0.00021196,0.00030553,-0.00116751,0.00
 042424,-0.00056463,0.00070349,-0.00025871,0.00054718,-0.01953839,0.016
 23667,-0.02090211,-0.10323655,0.06522439,-0.13779613,-0.00001539,-0.00
 001804,-0.00003055,-0.00004240,0.00001407,0.00002826,0.00001647,-0.000
 02205,-0.00009838,0.00102598,0.00040810,0.00017614,0.00030197,-0.00006
 021,0.00019338,0.00008567,-0.00027835,0.00019786,0.00012006,0.00005623
 ,-0.00003214,-0.00003064,-0.00001859,0.00007393,0.00018432,-0.00014123
 ,0.00021374,0.00063088,-0.00050609,0.00021115,0.00016543,-0.00006302,-
 0.00010709,0.00158917,-0.00162963,-0.00544380,-0.00002165,-0.00028165,
 0.00154981,0.00384521,-0.00218253,0.00334659,0.10964214,-0.07433091,0.
 15348060\\-0.00002741,0.00000938,0.00001124,0.00000689,0.00000263,-0.0
 0000071,0.00000955,-0.00000028,-0.00001152,-0.00000198,-0.00000134,0.0
 0001336,-0.00001195,-0.00001213,0.00000482,0.00001182,0.00000457,-0.00
 001116,-0.00001226,0.00001008,0.00002395,0.00001052,-0.00002010,-0.000
 03873,0.00000396,0.00001150,0.00002503,-0.00000116,0.00000338,-0.00000
 160,0.00000257,0.00000297,-0.00000346,0.00000631,-0.00000167,-0.000001
 86,-0.00000237,-0.00000394,0.00000058,0.00000056,0.00000323,-0.0000032
 5,0.00000080,0.00000032,-0.00000330,-0.00000058,0.00000133,-0.00000056
 ,0.00000108,0.00000344,0.00000055,-0.00000141,0.00000221,0.00000301,0.
 00000200,0.00000041,0.00000431,0.00000638,-0.00000241,-0.00000194,-0.0
 0000015,-0.00000583,0.00000071,0.00000116,-0.00000158,0.00000237,-0.00
 000600,-0.00000503,-0.00000418,0.00000163,-0.00000114,-0.00000767\\\@


 NEVER LOSE YOUR IGNORANCE, IT CAN'T BE REPLACED.
   -- ANDY CAPP
 Job cpu time:       0 days  2 hours 33 minutes  5.3 seconds.
 Elapsed time:       0 days  0 hours 38 minutes 17.4 seconds.
 File lengths (MBytes):  RWF=    192 Int=      0 D2E=      0 Chk=     10 Scr=      1
 Normal termination of Gaussian 16 at Thu Aug  4 00:18:29 2022.
### All Done ###
