### Starting Gaussian ###
 Entering Gaussian System, Link 0=g16
 Initial command:
 /cluster/software/gaussian/gaussian-16-A.03/avx2/g16/l1.exe "/local/scratch/ks29c/Gau-28265.inp" -scrdir="/local/scratch/ks29c/"
 Entering Link 1 = /cluster/software/gaussian/gaussian-16-A.03/avx2/g16/l1.exe PID=     28278.
  
 Copyright (c) 1988,1990,1992,1993,1995,1998,2003,2009,2016,
            Gaussian, Inc.  All Rights Reserved.
  
 This is part of the Gaussian(R) 16 program.  It is based on
 the Gaussian(R) 09 system (copyright 2009, Gaussian, Inc.),
 the Gaussian(R) 03 system (copyright 2003, Gaussian, Inc.),
 the Gaussian(R) 98 system (copyright 1998, Gaussian, Inc.),
 the Gaussian(R) 94 system (copyright 1995, Gaussian, Inc.),
 the Gaussian 92(TM) system (copyright 1992, Gaussian, Inc.),
 the Gaussian 90(TM) system (copyright 1990, Gaussian, Inc.),
 the Gaussian 88(TM) system (copyright 1988, Gaussian, Inc.),
 the Gaussian 86(TM) system (copyright 1986, Carnegie Mellon
 University), and the Gaussian 82(TM) system (copyright 1983,
 Carnegie Mellon University). Gaussian is a federally registered
 trademark of Gaussian, Inc.
  
 This software contains proprietary and confidential information,
 including trade secrets, belonging to Gaussian, Inc.
  
 This software is provided under written license and may be
 used, copied, transmitted, or stored only in accord with that
 written license.
  
 The following legend is applicable only to US Government
 contracts under FAR:
  
                    RESTRICTED RIGHTS LEGEND
  
 Use, reproduction and disclosure by the US Government is
 subject to restrictions as set forth in subparagraphs (a)
 and (c) of the Commercial Computer Software - Restricted
 Rights clause in FAR 52.227-19.
  
 Gaussian, Inc.
 340 Quinnipiac St., Bldg. 40, Wallingford CT 06492
  
  
 ---------------------------------------------------------------
 Warning -- This program may not be used in any manner that
 competes with the business of Gaussian, Inc. or will provide
 assistance to any competitor of Gaussian, Inc.  The licensee
 of this program is prohibited from giving any competitor of
 Gaussian, Inc. access to this program.  By using this program,
 the user acknowledges that Gaussian, Inc. is engaged in the
 business of creating and licensing software in the field of
 computational chemistry and represents and warrants to the
 licensee that it is not a competitor of Gaussian, Inc. and that
 it will not use this program in any manner prohibited above.
 ---------------------------------------------------------------
  

 Cite this work as:
 Gaussian 16, Revision A.03,
 M. J. Frisch, G. W. Trucks, H. B. Schlegel, G. E. Scuseria, 
 M. A. Robb, J. R. Cheeseman, G. Scalmani, V. Barone, 
 G. A. Petersson, H. Nakatsuji, X. Li, M. Caricato, A. V. Marenich, 
 J. Bloino, B. G. Janesko, R. Gomperts, B. Mennucci, H. P. Hratchian, 
 J. V. Ortiz, A. F. Izmaylov, J. L. Sonnenberg, D. Williams-Young, 
 F. Ding, F. Lipparini, F. Egidi, J. Goings, B. Peng, A. Petrone, 
 T. Henderson, D. Ranasinghe, V. G. Zakrzewski, J. Gao, N. Rega, 
 G. Zheng, W. Liang, M. Hada, M. Ehara, K. Toyota, R. Fukuda, 
 J. Hasegawa, M. Ishida, T. Nakajima, Y. Honda, O. Kitao, H. Nakai, 
 T. Vreven, K. Throssell, J. A. Montgomery, Jr., J. E. Peralta, 
 F. Ogliaro, M. J. Bearpark, J. J. Heyd, E. N. Brothers, K. N. Kudin, 
 V. N. Staroverov, T. A. Keith, R. Kobayashi, J. Normand, 
 K. Raghavachari, A. P. Rendell, J. C. Burant, S. S. Iyengar, 
 J. Tomasi, M. Cossi, J. M. Millam, M. Klene, C. Adamo, R. Cammi, 
 J. W. Ochterski, R. L. Martin, K. Morokuma, O. Farkas, 
 J. B. Foresman, and D. J. Fox, Gaussian, Inc., Wallingford CT, 2016.
 
 ******************************************
 Gaussian 16:  ES64L-G16RevA.03 25-Dec-2016
                 3-Aug-2022 
 ******************************************
 %chk=COC1NC1C1CC1O.chk
 %NProcShared=20
 Will use up to   20 processors via shared memory.
 -----------------------------
 # opt freq b3lyp/6-31g(2df,p)
 -----------------------------
 1/18=20,19=15,26=3,38=1/1,3;
 2/9=110,12=2,17=6,18=5,40=1/2;
 3/5=1,6=6,7=104,11=2,25=1,30=1,71=1,74=-5/1,2,3;
 4//1;
 5/5=2,38=5/2;
 6/7=2,8=2,9=2,10=2,28=1/1;
 7//1,2,3,16;
 1/18=20,19=15,26=3/3(2);
 2/9=110/2;
 99//99;
 2/9=110/2;
 3/5=1,6=6,7=104,11=2,25=1,30=1,71=1,74=-5/1,2,3;
 4/5=5,16=3,69=1/1;
 5/5=2,38=5/2;
 7//1,2,3,16;
 1/18=20,19=15,26=3/3(-5);
 2/9=110/2;
 6/7=2,8=2,9=2,10=2,19=2,28=1/1;
 99/9=1/99;
 -------------------
 Title Card Required
 -------------------
 Symbolic Z-matrix:
 Charge =  0 Multiplicity = 1
 C                     0.96768   0.01228  -0.02965 
 O                     2.39036  -0.01641   0.06512 
 C                     2.80391  -0.01042   1.43813 
 N                     4.10384  -0.57639   1.72329 
 C                     3.97623   0.88331   1.78857 
 C                     4.03786   1.62202   3.12838 
 C                     2.81271   1.77162   4.01026 
 C                     3.96843   0.94084   4.47668 
 O                     4.75049   1.5055    5.53795 
 H                     0.66924  -0.00389  -1.07982 
 H                     0.57951   0.92309   0.43945 
 H                     0.54746  -0.8656    0.47259 
 H                     2.05847  -0.202     2.19982 
 H                     4.5385   -0.86623   0.84858 
 H                     4.47166   1.39515   0.96537 
 H                     4.68909   2.49642   3.09063 
 H                     1.89962   1.25223   3.74766 
 H                     2.62679   2.7334    4.47019 
 H                     3.85567  -0.14063   4.47628 
 H                     4.82328   2.47506   5.47362 
 

 GradGradGradGradGradGradGradGradGradGradGradGradGradGradGradGradGradGrad
 Berny optimization.
 Initialization pass.
                           ----------------------------
                           !    Initial Parameters    !
                           ! (Angstroms and Degrees)  !
 --------------------------                            --------------------------
 ! Name  Definition              Value          Derivative Info.                !
 --------------------------------------------------------------------------------
 ! R1    R(1,2)                  1.4261         estimate D2E/DX2                !
 ! R2    R(1,10)                 1.0919         estimate D2E/DX2                !
 ! R3    R(1,11)                 1.0956         estimate D2E/DX2                !
 ! R4    R(1,12)                 1.0952         estimate D2E/DX2                !
 ! R5    R(2,3)                  1.434          estimate D2E/DX2                !
 ! R6    R(3,4)                  1.4462         estimate D2E/DX2                !
 ! R7    R(3,5)                  1.5152         estimate D2E/DX2                !
 ! R8    R(3,13)                 1.0828         estimate D2E/DX2                !
 ! R9    R(4,5)                  1.4667         estimate D2E/DX2                !
 ! R10   R(4,14)                 1.0188         estimate D2E/DX2                !
 ! R11   R(5,6)                  1.5312         estimate D2E/DX2                !
 ! R12   R(5,15)                 1.0886         estimate D2E/DX2                !
 ! R13   R(6,7)                  1.5169         estimate D2E/DX2                !
 ! R14   R(6,8)                  1.5122         estimate D2E/DX2                !
 ! R15   R(6,16)                 1.0909         estimate D2E/DX2                !
 ! R16   R(7,8)                  1.4978         estimate D2E/DX2                !
 ! R17   R(7,17)                 1.0828         estimate D2E/DX2                !
 ! R18   R(7,18)                 1.0822         estimate D2E/DX2                !
 ! R19   R(8,9)                  1.4341         estimate D2E/DX2                !
 ! R20   R(8,19)                 1.0873         estimate D2E/DX2                !
 ! R21   R(9,20)                 0.9744         estimate D2E/DX2                !
 ! A1    A(2,1,10)             109.6508         estimate D2E/DX2                !
 ! A2    A(2,1,11)             109.9817         estimate D2E/DX2                !
 ! A3    A(2,1,12)             109.6432         estimate D2E/DX2                !
 ! A4    A(10,1,11)            109.1044         estimate D2E/DX2                !
 ! A5    A(10,1,12)            108.9242         estimate D2E/DX2                !
 ! A6    A(11,1,12)            109.5166         estimate D2E/DX2                !
 ! A7    A(1,2,3)              110.5636         estimate D2E/DX2                !
 ! A8    A(2,3,4)              116.5128         estimate D2E/DX2                !
 ! A9    A(2,3,5)              116.5544         estimate D2E/DX2                !
 ! A10   A(2,3,13)             118.3102         estimate D2E/DX2                !
 ! A11   A(4,3,13)             114.2581         estimate D2E/DX2                !
 ! A12   A(5,3,13)             118.313          estimate D2E/DX2                !
 ! A13   A(3,4,14)             108.9971         estimate D2E/DX2                !
 ! A14   A(5,4,14)             111.0047         estimate D2E/DX2                !
 ! A15   A(3,5,6)              121.2029         estimate D2E/DX2                !
 ! A16   A(3,5,15)             117.0355         estimate D2E/DX2                !
 ! A17   A(4,5,6)              121.0356         estimate D2E/DX2                !
 ! A18   A(4,5,15)             113.2455         estimate D2E/DX2                !
 ! A19   A(6,5,15)             114.6151         estimate D2E/DX2                !
 ! A20   A(5,6,7)              121.5849         estimate D2E/DX2                !
 ! A21   A(5,6,8)              124.1252         estimate D2E/DX2                !
 ! A22   A(5,6,16)             112.3607         estimate D2E/DX2                !
 ! A23   A(7,6,16)             115.0369         estimate D2E/DX2                !
 ! A24   A(8,6,16)             114.7914         estimate D2E/DX2                !
 ! A25   A(6,7,17)             119.5227         estimate D2E/DX2                !
 ! A26   A(6,7,18)             118.2604         estimate D2E/DX2                !
 ! A27   A(8,7,17)             117.3958         estimate D2E/DX2                !
 ! A28   A(8,7,18)             119.549          estimate D2E/DX2                !
 ! A29   A(17,7,18)            112.6128         estimate D2E/DX2                !
 ! A30   A(6,8,9)              117.2199         estimate D2E/DX2                !
 ! A31   A(6,8,19)             116.9017         estimate D2E/DX2                !
 ! A32   A(7,8,9)              115.6468         estimate D2E/DX2                !
 ! A33   A(7,8,19)             118.1343         estimate D2E/DX2                !
 ! A34   A(9,8,19)             116.6429         estimate D2E/DX2                !
 ! A35   A(8,9,20)             112.5598         estimate D2E/DX2                !
 ! D1    D(10,1,2,3)          -179.3752         estimate D2E/DX2                !
 ! D2    D(11,1,2,3)            60.6493         estimate D2E/DX2                !
 ! D3    D(12,1,2,3)           -59.8302         estimate D2E/DX2                !
 ! D4    D(1,2,3,4)            155.2532         estimate D2E/DX2                !
 ! D5    D(1,2,3,5)           -137.5838         estimate D2E/DX2                !
 ! D6    D(1,2,3,13)            13.0458         estimate D2E/DX2                !
 ! D7    D(2,3,4,14)             2.1453         estimate D2E/DX2                !
 ! D8    D(13,3,4,14)          145.8634         estimate D2E/DX2                !
 ! D9    D(2,3,5,6)            144.1089         estimate D2E/DX2                !
 ! D10   D(2,3,5,15)            -4.7389         estimate D2E/DX2                !
 ! D11   D(13,3,5,6)            -6.5199         estimate D2E/DX2                !
 ! D12   D(13,3,5,15)         -155.3676         estimate D2E/DX2                !
 ! D13   D(14,4,5,6)          -149.1152         estimate D2E/DX2                !
 ! D14   D(14,4,5,15)           -7.1613         estimate D2E/DX2                !
 ! D15   D(3,5,6,7)            -15.0639         estimate D2E/DX2                !
 ! D16   D(3,5,6,8)             56.9993         estimate D2E/DX2                !
 ! D17   D(3,5,6,16)          -157.26           estimate D2E/DX2                !
 ! D18   D(4,5,6,7)            -84.0436         estimate D2E/DX2                !
 ! D19   D(4,5,6,8)            -11.9803         estimate D2E/DX2                !
 ! D20   D(4,5,6,16)           133.7604         estimate D2E/DX2                !
 ! D21   D(15,5,6,7)           134.4823         estimate D2E/DX2                !
 ! D22   D(15,5,6,8)          -153.4544         estimate D2E/DX2                !
 ! D23   D(15,5,6,16)           -7.7137         estimate D2E/DX2                !
 ! D24   D(5,6,7,17)             7.0522         estimate D2E/DX2                !
 ! D25   D(5,6,7,18)          -136.663          estimate D2E/DX2                !
 ! D26   D(16,6,7,17)          148.3214         estimate D2E/DX2                !
 ! D27   D(16,6,7,18)            4.6062         estimate D2E/DX2                !
 ! D28   D(5,6,8,9)            144.9714         estimate D2E/DX2                !
 ! D29   D(5,6,8,19)            -0.7632         estimate D2E/DX2                !
 ! D30   D(16,6,8,9)            -0.0368         estimate D2E/DX2                !
 ! D31   D(16,6,8,19)         -145.7714         estimate D2E/DX2                !
 ! D32   D(17,7,8,9)          -141.804          estimate D2E/DX2                !
 ! D33   D(17,7,8,19)            3.3628         estimate D2E/DX2                !
 ! D34   D(18,7,8,9)             0.5333         estimate D2E/DX2                !
 ! D35   D(18,7,8,19)          145.7001         estimate D2E/DX2                !
 ! D36   D(6,8,9,20)            33.3489         estimate D2E/DX2                !
 ! D37   D(7,8,9,20)           -35.1284         estimate D2E/DX2                !
 ! D38   D(19,8,9,20)          179.1723         estimate D2E/DX2                !
 --------------------------------------------------------------------------------
 Trust Radius=3.00D-01 FncErr=1.00D-07 GrdErr=1.00D-06 EigMax=2.50D+02 EigMin=1.00D-04
 Number of steps in this run=    104 maximum allowed number of steps=    120.
 GradGradGradGradGradGradGradGradGradGradGradGradGradGradGradGradGradGrad

                          Input orientation:                          
 ---------------------------------------------------------------------
 Center     Atomic      Atomic             Coordinates (Angstroms)
 Number     Number       Type             X           Y           Z
 ---------------------------------------------------------------------
      1          6           0        0.967680    0.012280   -0.029650
      2          8           0        2.390360   -0.016410    0.065120
      3          6           0        2.803910   -0.010420    1.438130
      4          7           0        4.103840   -0.576390    1.723290
      5          6           0        3.976230    0.883310    1.788570
      6          6           0        4.037860    1.622020    3.128380
      7          6           0        2.812710    1.771620    4.010260
      8          6           0        3.968430    0.940840    4.476680
      9          8           0        4.750490    1.505500    5.537950
     10          1           0        0.669240   -0.003890   -1.079820
     11          1           0        0.579510    0.923090    0.439450
     12          1           0        0.547460   -0.865600    0.472590
     13          1           0        2.058470   -0.202000    2.199820
     14          1           0        4.538500   -0.866230    0.848580
     15          1           0        4.471660    1.395150    0.965370
     16          1           0        4.689090    2.496420    3.090630
     17          1           0        1.899620    1.252230    3.747660
     18          1           0        2.626790    2.733400    4.470190
     19          1           0        3.855670   -0.140630    4.476280
     20          1           0        4.823280    2.475060    5.473620
 ---------------------------------------------------------------------
                    Distance matrix (angstroms):
                    1          2          3          4          5
     1  C    0.000000
     2  O    1.426122   0.000000
     3  C    2.350879   1.433951   0.000000
     4  N    3.640718   2.449310   1.446187   0.000000
     5  C    3.621601   2.508936   1.515221   1.466721   0.000000
     6  C    4.689395   3.844772   2.654136   2.609911   1.531203
     7  C    4.777058   4.351961   3.129153   3.522840   2.660598
     8  C    5.493062   4.782101   3.390249   3.146662   2.688737
     9  O    6.894746   6.151284   4.784946   4.393638   3.878717
    10  H    1.091872   2.067196   3.301050   4.470085   4.466651
    11  H    1.095585   2.074117   2.610892   4.039503   3.655053
    12  H    1.095218   2.069646   2.599070   3.780970   4.067795
    13  H    2.491240   2.168303   1.082846   2.133257   2.241613
    14  H    3.780717   2.439367   2.022074   1.018849   2.064127
    15  H    3.896187   2.671097   2.231708   2.143993   1.088618
    16  H    5.454905   4.555457   3.545265   3.413839   2.192180
    17  H    4.083388   3.925732   2.783155   3.507208   2.878619
    18  H    5.514136   5.198269   4.093080   4.547730   3.526316
    19  H    5.354183   4.649828   3.217687   2.798290   2.878676
    20  H    7.156600   6.432604   5.151761   4.888140   4.102530
                    6          7          8          9         10
     6  C    0.000000
     7  C    1.516933   0.000000
     8  C    1.512197   1.497809   0.000000
     9  O    2.515442   2.481864   1.434138   0.000000
    10  H    5.630287   5.801363   6.530839   7.920211   0.000000
    11  H    4.436106   4.296262   5.271083   6.612940   1.782000
    12  H    5.042258   4.959979   5.567674   6.996102   1.779705
    13  H    2.847325   2.782399   3.184042   4.615803   3.567246
    14  H    3.411674   4.464619   4.093115   5.259300   4.408348
    15  H    2.217716   3.487865   3.576162   4.582402   4.538558
    16  H    1.090917   2.211754   2.204612   2.641035   6.308993
    17  H    2.256618   1.082801   2.215493   3.375906   5.137727
    18  H    2.242039   1.082184   2.239043   2.675435   6.490560
    19  H    2.226424   2.227474   1.087333   2.153506   6.406425
    20  H    2.616240   2.584307   2.019527   0.974414   8.145478
                   11         12         13         14         15
    11  H    0.000000
    12  H    1.789284   0.000000
    13  H    2.559698   2.388899   0.000000
    14  H    4.363789   4.008712   2.901310   0.000000
    15  H    3.955789   4.555565   3.146147   2.265380   0.000000
    16  H    5.137389   5.942256   3.872360   4.044364   2.403498
    17  H    3.577049   4.127908   2.129748   4.456032   3.791695
    18  H    4.869850   5.766907   3.754216   5.452342   4.180696
    19  H    5.306668   5.243984   2.901028   3.762042   3.881308
    20  H    6.764692   7.379224   5.052583   5.712820   4.649103
                   16         17         18         19         20
    16  H    0.000000
    17  H    3.124234   0.000000
    18  H    2.492474   1.801302   0.000000
    19  H    3.093323   2.509398   3.125737   0.000000
    20  H    2.386861   3.608606   2.428617   2.961890   0.000000
 Stoichiometry    C6H11NO2
 Framework group  C1[X(C6H11NO2)]
 Deg. of freedom    54
 Full point group                 C1      NOp   1
 Largest Abelian subgroup         C1      NOp   1
 Largest concise Abelian subgroup C1      NOp   1
                         Standard orientation:                         
 ---------------------------------------------------------------------
 Center     Atomic      Atomic             Coordinates (Angstroms)
 Number     Number       Type             X           Y           Z
 ---------------------------------------------------------------------
      1          6           0        3.292869    0.972937   -0.133800
      2          8           0        2.607523   -0.228410    0.213891
      3          6           0        1.260101   -0.199375   -0.275831
      4          7           0        0.628149   -1.480134   -0.503317
      5          6           0        0.186650   -0.709595    0.663995
      6          6           0       -1.202182   -0.066190    0.705934
      7          6           0       -1.468859    1.289758    0.080336
      8          6           0       -2.112723    0.065510   -0.494195
      9          8           0       -3.522803   -0.060025   -0.264698
     10          1           0        4.319263    0.930360    0.236183
     11          1           0        2.786242    1.835627    0.312742
     12          1           0        3.312310    1.083598   -1.223240
     13          1           0        0.991842    0.563289   -0.996204
     14          1           0        1.271953   -2.220888   -0.229721
     15          1           0        0.518243   -1.134577    1.609789
     16          1           0       -1.715077   -0.247255    1.651584
     17          1           0       -0.694965    1.767922   -0.506950
     18          1           0       -2.070298    1.999673    0.632980
     19          1           0       -1.737014   -0.315085   -1.440917
     20          1           0       -3.792434    0.287472    0.604801
 ---------------------------------------------------------------------
 Rotational constants (GHZ):           4.1861889           0.7692822           0.7079034
 Standard basis: 6-31G(2df,p) (6D, 7F)
 There are   334 symmetry adapted cartesian basis functions of A   symmetry.
 There are   307 symmetry adapted basis functions of A   symmetry.
   307 basis functions,   473 primitive gaussians,   334 cartesian basis functions
    35 alpha electrons       35 beta electrons
       nuclear repulsion energy       458.3498609237 Hartrees.
 NAtoms=   20 NActive=   20 NUniq=   20 SFac= 1.00D+00 NAtFMM=   60 NAOKFM=F Big=F
 Integral buffers will be    131072 words long.
 Raffenetti 2 integral format.
 Two-electron integral symmetry is turned on.
 One-electron integrals computed using PRISM.
 PrsmSu:  requested number of processors reduced to:  13 ShMem   1 Linda.
 NBasis=   307 RedAO= T EigKep=  3.42D-04  NBF=   307
 NBsUse=   307 1.00D-06 EigRej= -1.00D+00 NBFU=   307
 ExpMin= 1.61D-01 ExpMax= 5.48D+03 ExpMxC= 8.25D+02 IAcc=3 IRadAn=         5 AccDes= 0.00D+00
 Harris functional with IExCor=  402 and IRadAn=       5 diagonalized for initial guess.
 HarFok:  IExCor=  402 AccDes= 0.00D+00 IRadAn=         5 IDoV= 1 UseB2=F ITyADJ=14
 ICtDFT=  3500011 ScaDFX=  1.000000  1.000000  1.000000  1.000000
 FoFCou: FMM=F IPFlag=           0 FMFlag=      100000 FMFlg1=           0
         NFxFlg=           0 DoJE=T BraDBF=F KetDBF=T FulRan=T
         wScrn=  0.000000 ICntrl=       500 IOpCl=  0 I1Cent=   200000004 NGrid=           0
         NMat0=    1 NMatS0=      1 NMatT0=    0 NMatD0=    1 NMtDS0=    0 NMtDT0=    0
 Petite list used in FoFCou.
 Requested convergence on RMS density matrix=1.00D-08 within 128 cycles.
 Requested convergence on MAX density matrix=1.00D-06.
 Requested convergence on             energy=1.00D-06.
 No special actions if energy rises.
 Integral accuracy reduced to 1.0D-05 until final iterations.
 Initial convergence to 1.0D-05 achieved.  Increase integral accuracy.
 SCF Done:  E(RB3LYP) =  -440.369471994     A.U. after   12 cycles
            NFock= 12  Conv=0.53D-08     -V/T= 2.0077

 **********************************************************************

            Population analysis using the SCF density.

 **********************************************************************

 Orbital symmetries:
       Occupied  (A) (A) (A) (A) (A) (A) (A) (A) (A) (A) (A) (A)
                 (A) (A) (A) (A) (A) (A) (A) (A) (A) (A) (A) (A)
                 (A) (A) (A) (A) (A) (A) (A) (A) (A) (A) (A)
       Virtual   (A) (A) (A) (A) (A) (A) (A) (A) (A) (A) (A) (A)
                 (A) (A) (A) (A) (A) (A) (A) (A) (A) (A) (A) (A)
                 (A) (A) (A) (A) (A) (A) (A) (A) (A) (A) (A) (A)
                 (A) (A) (A) (A) (A) (A) (A) (A) (A) (A) (A) (A)
                 (A) (A) (A) (A) (A) (A) (A) (A) (A) (A) (A) (A)
                 (A) (A) (A) (A) (A) (A) (A) (A) (A) (A) (A) (A)
                 (A) (A) (A) (A) (A) (A) (A) (A) (A) (A) (A) (A)
                 (A) (A) (A) (A) (A) (A) (A) (A) (A) (A) (A) (A)
                 (A) (A) (A) (A) (A) (A) (A) (A) (A) (A) (A) (A)
                 (A) (A) (A) (A) (A) (A) (A) (A) (A) (A) (A) (A)
                 (A) (A) (A) (A) (A) (A) (A) (A) (A) (A) (A) (A)
                 (A) (A) (A) (A) (A) (A) (A) (A) (A) (A) (A) (A)
                 (A) (A) (A) (A) (A) (A) (A) (A) (A) (A) (A) (A)
                 (A) (A) (A) (A) (A) (A) (A) (A) (A) (A) (A) (A)
                 (A) (A) (A) (A) (A) (A) (A) (A) (A) (A) (A) (A)
                 (A) (A) (A) (A) (A) (A) (A) (A) (A) (A) (A) (A)
                 (A) (A) (A) (A) (A) (A) (A) (A) (A) (A) (A) (A)
                 (A) (A) (A) (A) (A) (A) (A) (A) (A) (A) (A) (A)
                 (A) (A) (A) (A) (A) (A) (A) (A) (A) (A) (A) (A)
                 (A) (A) (A) (A) (A) (A) (A) (A) (A) (A) (A) (A)
                 (A) (A) (A) (A) (A) (A) (A) (A) (A) (A) (A) (A)
                 (A) (A) (A) (A) (A) (A) (A) (A) (A) (A) (A) (A)
                 (A) (A) (A) (A) (A) (A) (A) (A)
 The electronic state is 1-A.
 Alpha  occ. eigenvalues --  -19.15281 -19.13317 -14.32331 -10.26043 -10.23663
 Alpha  occ. eigenvalues --  -10.23195 -10.21708 -10.19313 -10.18245  -1.04086
 Alpha  occ. eigenvalues --   -1.00688  -0.94850  -0.84120  -0.69522  -0.66819
 Alpha  occ. eigenvalues --   -0.62717  -0.60674  -0.56632  -0.52721  -0.50565
 Alpha  occ. eigenvalues --   -0.49581  -0.45694  -0.45011  -0.43051  -0.41691
 Alpha  occ. eigenvalues --   -0.38390  -0.37291  -0.36509  -0.35079  -0.34359
 Alpha  occ. eigenvalues --   -0.33462  -0.28526  -0.27963  -0.24086  -0.21551
 Alpha virt. eigenvalues --    0.06840   0.07865   0.09397   0.09928   0.10572
 Alpha virt. eigenvalues --    0.11731   0.12808   0.14550   0.16011   0.17073
 Alpha virt. eigenvalues --    0.17471   0.19100   0.19749   0.20024   0.22528
 Alpha virt. eigenvalues --    0.24398   0.25017   0.26575   0.29049   0.30660
 Alpha virt. eigenvalues --    0.35253   0.40958   0.43237   0.46336   0.48131
 Alpha virt. eigenvalues --    0.49882   0.50300   0.51078   0.51364   0.52483
 Alpha virt. eigenvalues --    0.53380   0.54005   0.55123   0.56094   0.59135
 Alpha virt. eigenvalues --    0.59923   0.60579   0.64722   0.67774   0.68336
 Alpha virt. eigenvalues --    0.68698   0.70983   0.72276   0.72663   0.72844
 Alpha virt. eigenvalues --    0.73013   0.74220   0.77533   0.78272   0.78280
 Alpha virt. eigenvalues --    0.79298   0.81301   0.82387   0.85139   0.87072
 Alpha virt. eigenvalues --    0.87886   0.89226   0.91412   0.93682   0.95669
 Alpha virt. eigenvalues --    0.96768   0.98414   1.01044   1.01800   1.03674
 Alpha virt. eigenvalues --    1.06080   1.11095   1.11809   1.14762   1.17115
 Alpha virt. eigenvalues --    1.17461   1.23031   1.24404   1.25289   1.28043
 Alpha virt. eigenvalues --    1.30032   1.32617   1.34584   1.37511   1.39368
 Alpha virt. eigenvalues --    1.39735   1.42557   1.43304   1.45871   1.47967
 Alpha virt. eigenvalues --    1.48415   1.50723   1.52301   1.52849   1.56117
 Alpha virt. eigenvalues --    1.57426   1.58631   1.60797   1.61613   1.64869
 Alpha virt. eigenvalues --    1.68878   1.69942   1.71864   1.75757   1.76814
 Alpha virt. eigenvalues --    1.79210   1.80481   1.82208   1.83490   1.85650
 Alpha virt. eigenvalues --    1.91525   1.93630   2.01033   2.05278   2.08192
 Alpha virt. eigenvalues --    2.11216   2.13647   2.15619   2.19240   2.23128
 Alpha virt. eigenvalues --    2.25429   2.27563   2.30337   2.33279   2.35371
 Alpha virt. eigenvalues --    2.39900   2.42408   2.44069   2.49127   2.52960
 Alpha virt. eigenvalues --    2.54324   2.60914   2.62901   2.64182   2.68676
 Alpha virt. eigenvalues --    2.68906   2.71562   2.75997   2.77574   2.77964
 Alpha virt. eigenvalues --    2.79634   2.84471   2.85383   2.87876   2.90772
 Alpha virt. eigenvalues --    2.91821   2.92906   2.94022   2.95050   2.97495
 Alpha virt. eigenvalues --    3.02310   3.03352   3.05967   3.07184   3.08717
 Alpha virt. eigenvalues --    3.10219   3.12596   3.14001   3.16038   3.18413
 Alpha virt. eigenvalues --    3.21427   3.21810   3.24219   3.27386   3.29246
 Alpha virt. eigenvalues --    3.33810   3.34659   3.36058   3.39345   3.41152
 Alpha virt. eigenvalues --    3.43107   3.45286   3.46998   3.50363   3.50524
 Alpha virt. eigenvalues --    3.52041   3.54720   3.56587   3.63006   3.65058
 Alpha virt. eigenvalues --    3.67740   3.74772   3.80079   3.84378   3.84942
 Alpha virt. eigenvalues --    3.89936   3.93034   3.94741   3.98018   4.02184
 Alpha virt. eigenvalues --    4.08190   4.09655   4.15230   4.16020   4.20770
 Alpha virt. eigenvalues --    4.22669   4.25943   4.29164   4.29235   4.31316
 Alpha virt. eigenvalues --    4.34185   4.34359   4.35724   4.37394   4.38962
 Alpha virt. eigenvalues --    4.41323   4.42404   4.43355   4.47067   4.48465
 Alpha virt. eigenvalues --    4.50919   4.51696   4.53420   4.54309   4.57160
 Alpha virt. eigenvalues --    4.57536   4.60246   4.62664   4.65416   4.67909
 Alpha virt. eigenvalues --    4.68965   4.71640   4.72262   4.74056   4.75206
 Alpha virt. eigenvalues --    4.76723   4.78347   4.79235   4.84471   4.84590
 Alpha virt. eigenvalues --    4.86900   4.89434   4.91870   4.94176   4.98128
 Alpha virt. eigenvalues --    4.99526   5.05645   5.15706   5.17834   5.19685
 Alpha virt. eigenvalues --    5.24312   5.27650   5.31073   5.33478   5.38508
 Alpha virt. eigenvalues --    5.42400   5.43954   5.46888   5.49547   5.51334
 Alpha virt. eigenvalues --    5.55207   5.60095   5.63134   5.65521   5.71151
 Alpha virt. eigenvalues --    5.78651   5.82804   5.84674   5.90318   5.96910
 Alpha virt. eigenvalues --    6.02412   6.12149   6.14601   6.22114   6.64248
 Alpha virt. eigenvalues --    7.12520   7.19256  10.21891  10.91375  11.22871
 Alpha virt. eigenvalues --   11.41754  11.74547  11.94469  12.44072  13.24972
 Alpha virt. eigenvalues --   13.49029  14.62191
          Condensed to atoms (all electrons):
               1          2          3          4          5          6
     1  C    4.827848   0.355941  -0.080799   0.004129   0.002525  -0.000028
     2  O    0.355941   7.698725   0.369671  -0.026488  -0.020003   0.001081
     3  C   -0.080799   0.369671   4.735407   0.306025   0.291392  -0.017080
     4  N    0.004129  -0.026488   0.306025   6.535821   0.281272  -0.026624
     5  C    0.002525  -0.020003   0.291392   0.281272   4.976398   0.300389
     6  C   -0.000028   0.001081  -0.017080  -0.026624   0.300389   4.969855
     7  C   -0.000044   0.000153  -0.016290   0.001696  -0.003578   0.280559
     8  C    0.000001   0.000013  -0.002307  -0.005302  -0.002653   0.317838
     9  O   -0.000000   0.000000  -0.000043  -0.000016   0.002230  -0.027208
    10  H    0.386096  -0.017709   0.003656  -0.000095  -0.000128  -0.000000
    11  H    0.372269  -0.034048  -0.000697  -0.000617   0.002239  -0.000186
    12  H    0.373568  -0.032518  -0.007098   0.000746  -0.000735   0.000059
    13  H   -0.004543  -0.031763   0.349554  -0.027136  -0.040812   0.001107
    14  H    0.000146   0.003126  -0.045314   0.332096  -0.032924   0.004789
    15  H    0.000166   0.000440  -0.015310  -0.044628   0.377754  -0.046234
    16  H   -0.000002  -0.000033   0.004038   0.002385  -0.026875   0.369915
    17  H   -0.000015  -0.000141   0.003311  -0.000261  -0.009362  -0.011822
    18  H   -0.000001  -0.000004   0.000160  -0.000054   0.001611  -0.018239
    19  H   -0.000004   0.000003  -0.000329   0.011321  -0.003036  -0.042229
    20  H   -0.000000  -0.000000  -0.000005  -0.000000   0.000163   0.000216
               7          8          9         10         11         12
     1  C   -0.000044   0.000001  -0.000000   0.386096   0.372269   0.373568
     2  O    0.000153   0.000013   0.000000  -0.017709  -0.034048  -0.032518
     3  C   -0.016290  -0.002307  -0.000043   0.003656  -0.000697  -0.007098
     4  N    0.001696  -0.005302  -0.000016  -0.000095  -0.000617   0.000746
     5  C   -0.003578  -0.002653   0.002230  -0.000128   0.002239  -0.000735
     6  C    0.280559   0.317838  -0.027208  -0.000000  -0.000186   0.000059
     7  C    5.125649   0.305478  -0.021669   0.000001   0.000024  -0.000006
     8  C    0.305478   4.628077   0.359940  -0.000000   0.000004  -0.000001
     9  O   -0.021669   0.359940   7.861202   0.000000  -0.000000   0.000000
    10  H    0.000001  -0.000000   0.000000   0.566041  -0.035685  -0.034351
    11  H    0.000024   0.000004  -0.000000  -0.035685   0.629862  -0.049638
    12  H   -0.000006  -0.000001   0.000000  -0.034351  -0.049638   0.624951
    13  H    0.002506  -0.001223   0.000003  -0.000151   0.000612   0.009197
    14  H   -0.000129  -0.000118  -0.000001  -0.000029   0.000089  -0.000022
    15  H    0.003439   0.004572  -0.000035  -0.000013   0.000057   0.000024
    16  H   -0.037115  -0.040794  -0.002388  -0.000000   0.000004  -0.000000
    17  H    0.355121  -0.016025   0.001923  -0.000001   0.000411  -0.000056
    18  H    0.368705  -0.013309  -0.004145  -0.000000   0.000003  -0.000000
    19  H   -0.039225   0.382495  -0.016476   0.000000   0.000002  -0.000001
    20  H   -0.000115  -0.064140   0.310252  -0.000000   0.000000   0.000000
              13         14         15         16         17         18
     1  C   -0.004543   0.000146   0.000166  -0.000002  -0.000015  -0.000001
     2  O   -0.031763   0.003126   0.000440  -0.000033  -0.000141  -0.000004
     3  C    0.349554  -0.045314  -0.015310   0.004038   0.003311   0.000160
     4  N   -0.027136   0.332096  -0.044628   0.002385  -0.000261  -0.000054
     5  C   -0.040812  -0.032924   0.377754  -0.026875  -0.009362   0.001611
     6  C    0.001107   0.004789  -0.046234   0.369915  -0.011822  -0.018239
     7  C    0.002506  -0.000129   0.003439  -0.037115   0.355121   0.368705
     8  C   -0.001223  -0.000118   0.004572  -0.040794  -0.016025  -0.013309
     9  O    0.000003  -0.000001  -0.000035  -0.002388   0.001923  -0.004145
    10  H   -0.000151  -0.000029  -0.000013  -0.000000  -0.000001  -0.000000
    11  H    0.000612   0.000089   0.000057   0.000004   0.000411   0.000003
    12  H    0.009197  -0.000022   0.000024  -0.000000  -0.000056  -0.000000
    13  H    0.625044   0.004012   0.002733   0.000036   0.004154  -0.000057
    14  H    0.004012   0.509162  -0.012032  -0.000051   0.000008   0.000004
    15  H    0.002733  -0.012032   0.643496  -0.008976   0.000085  -0.000071
    16  H    0.000036  -0.000051  -0.008976   0.658607   0.003177  -0.007622
    17  H    0.004154   0.000008   0.000085   0.003177   0.600595  -0.035188
    18  H   -0.000057   0.000004  -0.000071  -0.007622  -0.035188   0.598064
    19  H    0.000095  -0.000282   0.000274   0.002628  -0.003453   0.002038
    20  H    0.000001   0.000000  -0.000009   0.003976  -0.000051   0.002793
              19         20
     1  C   -0.000004  -0.000000
     2  O    0.000003  -0.000000
     3  C   -0.000329  -0.000005
     4  N    0.011321  -0.000000
     5  C   -0.003036   0.000163
     6  C   -0.042229   0.000216
     7  C   -0.039225  -0.000115
     8  C    0.382495  -0.064140
     9  O   -0.016476   0.310252
    10  H    0.000000  -0.000000
    11  H    0.000002   0.000000
    12  H   -0.000001   0.000000
    13  H    0.000095   0.000001
    14  H   -0.000282   0.000000
    15  H    0.000274  -0.000009
    16  H    0.002628   0.003976
    17  H   -0.003453  -0.000051
    18  H    0.002038   0.002793
    19  H    0.565205   0.004010
    20  H    0.004010   0.454574
 Mulliken charges:
               1
     1  C   -0.237252
     2  O   -0.266445
     3  C    0.122058
     4  N   -0.344270
     5  C   -0.095864
     6  C   -0.056158
     7  C   -0.325161
     8  C    0.147454
     9  O   -0.463569
    10  H    0.132368
    11  H    0.115294
    12  H    0.115881
    13  H    0.106632
    14  H    0.237471
    15  H    0.094267
    16  H    0.079091
    17  H    0.107591
    18  H    0.105312
    19  H    0.136966
    20  H    0.288334
 Sum of Mulliken charges =  -0.00000
 Mulliken charges with hydrogens summed into heavy atoms:
               1
     1  C    0.126291
     2  O   -0.266445
     3  C    0.228690
     4  N   -0.106799
     5  C   -0.001597
     6  C    0.022933
     7  C   -0.112258
     8  C    0.284420
     9  O   -0.175235
 Electronic spatial extent (au):  <R**2>=           1621.5430
 Charge=             -0.0000 electrons
 Dipole moment (field-independent basis, Debye):
    X=              1.4603    Y=              1.7494    Z=              1.5128  Tot=              2.7352
 Quadrupole moment (field-independent basis, Debye-Ang):
   XX=            -55.3115   YY=            -52.6713   ZZ=            -52.8940
   XY=             -0.6938   XZ=             -7.0903   YZ=             -1.9539
 Traceless Quadrupole moment (field-independent basis, Debye-Ang):
   XX=             -1.6859   YY=              0.9543   ZZ=              0.7316
   XY=             -0.6938   XZ=             -7.0903   YZ=             -1.9539
 Octapole moment (field-independent basis, Debye-Ang**2):
  XXX=             26.1429  YYY=             -6.8446  ZZZ=              1.1276  XYY=              6.7712
  XXY=             17.7421  XXZ=             20.0953  XZZ=             -5.3653  YZZ=             -0.5703
  YYZ=              3.8182  XYZ=             -3.3232
 Hexadecapole moment (field-independent basis, Debye-Ang**3):
 XXXX=          -1538.9825 YYYY=           -284.3641 ZZZZ=           -144.4739 XXXY=             -2.2679
 XXXZ=            -93.1684 YYYX=            -20.0716 YYYZ=             -2.2262 ZZZX=              0.5394
 ZZZY=             -4.5972 XXYY=           -301.6910 XXZZ=           -274.3635 YYZZ=            -77.8827
 XXYZ=             11.7113 YYXZ=             -1.1645 ZZXY=              0.7651
 N-N= 4.583498609237D+02 E-N=-1.944320737764D+03  KE= 4.370014408469D+02
 PrsmSu:  requested number of processors reduced to:  13 ShMem   1 Linda.
 Calling FoFJK, ICntrl=      2127 FMM=F ISym2X=0 I1Cent= 0 IOpClX= 0 NMat=1 NMatS=1 NMatT=0.
 ***** Axes restored to original set *****
 -------------------------------------------------------------------
 Center     Atomic                   Forces (Hartrees/Bohr)
 Number     Number              X              Y              Z
 -------------------------------------------------------------------
      1        6           0.006991213    0.000178036    0.003072946
      2        8          -0.004539389   -0.004440317    0.022741770
      3        6           0.024340070    0.017009984   -0.026253804
      4        7          -0.000530311   -0.014908403    0.005877502
      5        6          -0.012519892    0.003574666    0.007828588
      6        6           0.004117795   -0.008161435   -0.013088629
      7        6          -0.006527016   -0.004456401   -0.001965953
      8        6           0.007685707    0.037270238    0.006164776
      9        8           0.000790347   -0.017291710   -0.002451108
     10        1           0.004207595    0.000155478   -0.000893087
     11        1          -0.004012381    0.000816465   -0.000229343
     12        1          -0.004411825   -0.000613565    0.000245251
     13        1          -0.007626438   -0.002625967   -0.005264621
     14        1           0.000817709    0.001197627    0.002048641
     15        1          -0.007748404    0.003831715   -0.000099549
     16        1          -0.001336344   -0.002367097    0.001362241
     17        1          -0.001577587    0.000785773   -0.003505348
     18        1           0.001618722    0.001232513    0.003237780
     19        1           0.006966254    0.003370643    0.008572947
     20        1          -0.006705826   -0.014558243   -0.007401001
 -------------------------------------------------------------------
 Cartesian Forces:  Max     0.037270238 RMS     0.009575288

 GradGradGradGradGradGradGradGradGradGradGradGradGradGradGradGradGradGrad
 Berny optimization.
 FormGI is forming the generalized inverse of G from B-inverse, IUseBI=4.
 Internal  Forces:  Max     0.023352839 RMS     0.006374220
 Search for a local minimum.
 Step number   1 out of a maximum of  104
 All quantities printed in internal units (Hartrees-Bohrs-Radians)
 Mixed Optimization -- RFO/linear search
 Second derivative matrix not updated -- first step.
 ITU=  0
     Eigenvalues ---    0.00353   0.01240   0.01243   0.01346   0.01732
     Eigenvalues ---    0.01824   0.02267   0.02557   0.02973   0.03078
     Eigenvalues ---    0.03257   0.03915   0.03986   0.04145   0.05734
     Eigenvalues ---    0.09651   0.10283   0.10340   0.10477   0.11405
     Eigenvalues ---    0.11643   0.12885   0.15032   0.15500   0.16000
     Eigenvalues ---    0.16000   0.16000   0.16000   0.17492   0.18025
     Eigenvalues ---    0.18765   0.19324   0.25000   0.26561   0.26942
     Eigenvalues ---    0.28377   0.29313   0.30135   0.31540   0.34175
     Eigenvalues ---    0.34216   0.34597   0.34707   0.34973   0.35123
     Eigenvalues ---    0.35653   0.35658   0.35732   0.36312   0.40400
     Eigenvalues ---    0.40427   0.41552   0.44522   0.52485
 RFO step:  Lambda=-1.90694616D-02 EMin= 3.53196278D-03
 Linear search not attempted -- first point.
 Iteration  1 RMS(Cart)=  0.12450648 RMS(Int)=  0.00484869
 Iteration  2 RMS(Cart)=  0.00752005 RMS(Int)=  0.00083036
 Iteration  3 RMS(Cart)=  0.00002604 RMS(Int)=  0.00083021
 Iteration  4 RMS(Cart)=  0.00000003 RMS(Int)=  0.00083021
 Variable       Old X    -DE/DX   Delta X   Delta X   Delta X     New X
                                 (Linear)    (Quad)   (Total)
    R1        2.69498  -0.00290   0.00000  -0.00668  -0.00668   2.68830
    R2        2.06334  -0.00029   0.00000  -0.00080  -0.00080   2.06254
    R3        2.07035   0.00200   0.00000   0.00555   0.00555   2.07591
    R4        2.06966   0.00230   0.00000   0.00636   0.00636   2.07602
    R5        2.70977  -0.02335   0.00000  -0.05516  -0.05516   2.65461
    R6        2.73290   0.00066   0.00000   0.00253   0.00542   2.73832
    R7        2.86335  -0.01394   0.00000  -0.05070  -0.05217   2.81118
    R8        2.04628   0.00201   0.00000   0.00536   0.00536   2.05164
    R9        2.77170   0.01031   0.00000   0.03335   0.03201   2.80371
   R10        1.92535  -0.00175   0.00000  -0.00377  -0.00377   1.92158
   R11        2.89355  -0.00975   0.00000  -0.03124  -0.03124   2.86231
   R12        2.05719  -0.00165   0.00000  -0.00447  -0.00447   2.05272
   R13        2.86659  -0.00046   0.00000   0.01079   0.00969   2.87627
   R14        2.85764  -0.00013   0.00000  -0.01088  -0.01040   2.84724
   R15        2.06154  -0.00274   0.00000  -0.00749  -0.00749   2.05405
   R16        2.83045   0.00433   0.00000   0.01103   0.01167   2.84212
   R17        2.04620   0.00180   0.00000   0.00480   0.00480   2.05100
   R18        2.04503   0.00219   0.00000   0.00583   0.00583   2.05086
   R19        2.71013  -0.02306   0.00000  -0.05450  -0.05450   2.65563
   R20        2.05476  -0.00408   0.00000  -0.01101  -0.01101   2.04375
   R21        1.84138  -0.01450   0.00000  -0.02666  -0.02666   1.81472
    A1        1.91377  -0.00911   0.00000  -0.05463  -0.05441   1.85936
    A2        1.91954   0.00577   0.00000   0.03370   0.03328   1.95282
    A3        1.91363   0.00649   0.00000   0.03853   0.03815   1.95179
    A4        1.90423  -0.00045   0.00000  -0.00704  -0.00687   1.89736
    A5        1.90109  -0.00008   0.00000  -0.00336  -0.00310   1.89799
    A6        1.91143  -0.00271   0.00000  -0.00779  -0.00868   1.90275
    A7        1.92970   0.01114   0.00000   0.04142   0.04142   1.97112
    A8        2.03353   0.00535   0.00000   0.00687   0.00551   2.03905
    A9        2.03426   0.00142   0.00000   0.02195   0.02225   2.05651
   A10        2.06490  -0.00670   0.00000  -0.05289  -0.05355   2.01135
   A11        1.99418  -0.00424   0.00000  -0.00002  -0.00032   1.99386
   A12        2.06495   0.00429   0.00000   0.04052   0.04058   2.10553
   A13        1.90236  -0.00648   0.00000  -0.01086  -0.01077   1.89159
   A14        1.93740  -0.00242   0.00000  -0.00414  -0.00396   1.93344
   A15        2.11539   0.01054   0.00000   0.07660   0.07888   2.19427
   A16        2.04266  -0.00798   0.00000  -0.05999  -0.06021   1.98245
   A17        2.11247  -0.00533   0.00000  -0.04755  -0.04572   2.06675
   A18        1.97651   0.00472   0.00000   0.04995   0.04996   2.02646
   A19        2.00041  -0.00199   0.00000  -0.01551  -0.01633   1.98408
   A20        2.12206  -0.00142   0.00000   0.02183   0.02158   2.14364
   A21        2.16639   0.00072   0.00000  -0.01182  -0.01185   2.15454
   A22        1.96106   0.00083   0.00000   0.00155   0.00106   1.96212
   A23        2.00777   0.00088   0.00000  -0.00124  -0.00126   2.00652
   A24        2.00349  -0.00264   0.00000  -0.01246  -0.01284   1.99065
   A25        2.08606  -0.00281   0.00000  -0.01664  -0.01693   2.06914
   A26        2.06403   0.00219   0.00000   0.00741   0.00767   2.07171
   A27        2.04894   0.00266   0.00000   0.02483   0.02483   2.07378
   A28        2.08652  -0.00264   0.00000  -0.02139  -0.02144   2.06509
   A29        1.96546   0.00064   0.00000   0.00675   0.00677   1.97223
   A30        2.04587   0.01090   0.00000   0.04767   0.04628   2.09216
   A31        2.04032  -0.00013   0.00000   0.00761   0.00707   2.04739
   A32        2.01842   0.01202   0.00000   0.07773   0.07694   2.09536
   A33        2.06183   0.00086   0.00000   0.02029   0.02042   2.08225
   A34        2.03580  -0.01393   0.00000  -0.09425  -0.09389   1.94191
   A35        1.96454  -0.01855   0.00000  -0.10359  -0.10359   1.86095
    D1       -3.13069  -0.00022   0.00000   0.00048   0.00056  -3.13013
    D2        1.05853   0.00245   0.00000   0.02239   0.02321   1.08174
    D3       -1.04423  -0.00193   0.00000  -0.01350  -0.01439  -1.05862
    D4        2.70968  -0.00614   0.00000  -0.01293  -0.01206   2.69762
    D5       -2.40129   0.00446   0.00000   0.02497   0.02507  -2.37622
    D6        0.22769   0.00384   0.00000   0.05643   0.05546   0.28315
    D7        0.03744   0.00343   0.00000   0.03828   0.03849   0.07593
    D8        2.54580  -0.00726   0.00000  -0.04829  -0.04827   2.49752
    D9        2.51517   0.00259   0.00000   0.08532   0.08536   2.60053
   D10       -0.08271   0.00230   0.00000   0.08967   0.08925   0.00654
   D11       -0.11379   0.00655   0.00000   0.08218   0.08199  -0.03181
   D12       -2.71168   0.00626   0.00000   0.08653   0.08587  -2.62580
   D13       -2.60255   0.00720   0.00000   0.09997   0.09967  -2.50288
   D14       -0.12499   0.00287   0.00000   0.07740   0.07753  -0.04745
   D15       -0.26292   0.00126   0.00000   0.01388   0.01220  -0.25072
   D16        0.99483   0.00322   0.00000   0.02571   0.02388   1.01871
   D17       -2.74470   0.00040   0.00000  -0.01812  -0.01999  -2.76470
   D18       -1.46684  -0.00239   0.00000  -0.00439  -0.00223  -1.46907
   D19       -0.20910  -0.00042   0.00000   0.00744   0.00945  -0.19965
   D20        2.33456  -0.00324   0.00000  -0.03640  -0.03443   2.30013
   D21        2.34716  -0.00031   0.00000  -0.00417  -0.00431   2.34284
   D22       -2.67829   0.00165   0.00000   0.00766   0.00737  -2.67092
   D23       -0.13463  -0.00117   0.00000  -0.03618  -0.03651  -0.17114
   D24        0.12308  -0.00193   0.00000  -0.05492  -0.05495   0.06813
   D25       -2.38522  -0.00221   0.00000  -0.05323  -0.05323  -2.43845
   D26        2.58870  -0.00110   0.00000  -0.02086  -0.02093   2.56776
   D27        0.08039  -0.00139   0.00000  -0.01917  -0.01921   0.06118
   D28        2.53023  -0.00817   0.00000  -0.10908  -0.10960   2.42063
   D29       -0.01332   0.00186   0.00000  -0.01197  -0.01133  -0.02465
   D30       -0.00064  -0.00637   0.00000  -0.06850  -0.06927  -0.06991
   D31       -2.54419   0.00367   0.00000   0.02861   0.02900  -2.51519
   D32       -2.47495   0.00263   0.00000  -0.00922  -0.00895  -2.48390
   D33        0.05869  -0.00385   0.00000  -0.03570  -0.03569   0.02300
   D34        0.00931   0.00396   0.00000   0.00985   0.01009   0.01939
   D35        2.54295  -0.00252   0.00000  -0.01664  -0.01665   2.52629
   D36        0.58205   0.00395   0.00000   0.03650   0.03721   0.61925
   D37       -0.61311  -0.00263   0.00000  -0.01186  -0.01381  -0.62692
   D38        3.12715  -0.00135   0.00000  -0.02556  -0.02432   3.10283
         Item               Value     Threshold  Converged?
 Maximum Force            0.023353     0.000450     NO 
 RMS     Force            0.006374     0.000300     NO 
 Maximum Displacement     0.406716     0.001800     NO 
 RMS     Displacement     0.126480     0.001200     NO 
 Predicted change in Energy=-1.100344D-02
 GradGradGradGradGradGradGradGradGradGradGradGradGradGradGradGradGradGrad

                          Input orientation:                          
 ---------------------------------------------------------------------
 Center     Atomic      Atomic             Coordinates (Angstroms)
 Number     Number       Type             X           Y           Z
 ---------------------------------------------------------------------
      1          6           0        0.998356   -0.039405   -0.130455
      2          8           0        2.404290   -0.059567    0.085653
      3          6           0        2.750369    0.016212    1.445004
      4          7           0        4.029661   -0.547338    1.826564
      5          6           0        3.862311    0.926851    1.828818
      6          6           0        3.986807    1.664386    3.145925
      7          6           0        2.828074    1.811487    4.121815
      8          6           0        4.023163    0.973456    4.484365
      9          8           0        4.917055    1.413775    5.475296
     10          1           0        0.848787   -0.114531   -1.208991
     11          1           0        0.542859    0.895194    0.224225
     12          1           0        0.498174   -0.888349    0.355340
     13          1           0        1.944328   -0.196532    2.140517
     14          1           0        4.508754   -0.854703    0.983957
     15          1           0        4.298406    1.458730    0.988063
     16          1           0        4.640587    2.529938    3.076214
     17          1           0        1.890717    1.314609    3.892820
     18          1           0        2.691765    2.760832    4.629723
     19          1           0        3.932215   -0.104208    4.489040
     20          1           0        4.974123    2.368513    5.389207
 ---------------------------------------------------------------------
                    Distance matrix (angstroms):
                    1          2          3          4          5
     1  C    0.000000
     2  O    1.422589   0.000000
     3  C    2.356844   1.404760   0.000000
     4  N    3.643724   2.431157   1.449056   0.000000
     5  C    3.602032   2.477392   1.487612   1.483660   0.000000
     6  C    4.750621   3.852485   2.671776   2.575708   1.514671
     7  C    4.985526   4.468897   3.224029   3.503718   2.666470
     8  C    5.609983   4.799642   3.431331   3.062150   2.660823
     9  O    6.992308   6.126416   4.784449   4.236351   3.827059
    10  H    1.091447   2.024528   3.267538   4.418131   4.403872
    11  H    1.098522   2.096592   2.671331   4.099533   3.687069
    12  H    1.098583   2.095922   2.660447   3.840857   4.096767
    13  H    2.465130   2.110164   1.085680   2.137813   2.244506
    14  H    3.772203   2.422387   2.015683   1.016854   2.074998
    15  H    3.792864   2.589835   2.164733   2.190803   1.086251
    16  H    5.490910   4.544229   3.542963   3.377053   2.175224
    17  H    4.337788   4.080030   2.901145   3.508752   2.880563
    18  H    5.776526   5.355919   4.204617   4.537803   3.546651
    19  H    5.472793   4.661155   3.267631   2.700858   2.853901
    20  H    7.216055   6.373955   5.102463   4.699640   3.998860
                    6          7          8          9         10
     6  C    0.000000
     7  C    1.522058   0.000000
     8  C    1.506695   1.503986   0.000000
     9  O    2.520741   2.520699   1.405299   0.000000
    10  H    5.654822   6.003717   6.608683   7.972842   0.000000
    11  H    4.581349   4.610098   5.501584   6.853922   1.779676
    12  H    5.145325   5.186895   5.739400   7.144244   1.780128
    13  H    2.940337   2.956127   3.344256   4.748783   3.525073
    14  H    3.360409   4.447405   3.978797   5.048250   4.330385
    15  H    2.189921   3.479470   3.540533   4.529901   4.382017
    16  H    1.086954   2.212387   2.187862   2.660422   6.303488
    17  H    2.252507   1.085341   2.239115   3.416546   5.399680
    18  H    2.254103   1.085268   2.233486   2.735227   6.764234
    19  H    2.221455   2.241399   1.081505   2.060796   6.478827
    20  H    2.550079   2.553838   1.915528   0.960309   8.168239
                   11         12         13         14         15
    11  H    0.000000
    12  H    1.788914   0.000000
    13  H    2.613074   2.399339   0.000000
    14  H    4.400870   4.059685   2.889136   0.000000
    15  H    3.873648   4.511194   3.099956   2.322980   0.000000
    16  H    5.253342   6.020583   3.947022   3.981296   2.371698
    17  H    3.930803   4.393855   2.314516   4.474542   3.775626
    18  H    5.244694   6.033134   3.937106   5.446573   4.187893
    19  H    5.538518   5.430929   3.078275   3.630599   3.851455
    20  H    6.963031   7.482050   5.129629   5.478314   4.544707
                   16         17         18         19         20
    16  H    0.000000
    17  H    3.115390   0.000000
    18  H    2.502920   1.810046   0.000000
    19  H    3.071904   2.556607   3.125214   0.000000
    20  H    2.342485   3.585705   2.437188   2.830234   0.000000
 Stoichiometry    C6H11NO2
 Framework group  C1[X(C6H11NO2)]
 Deg. of freedom    54
 Full point group                 C1      NOp   1
 Largest Abelian subgroup         C1      NOp   1
 Largest concise Abelian subgroup C1      NOp   1
                         Standard orientation:                         
 ---------------------------------------------------------------------
 Center     Atomic      Atomic             Coordinates (Angstroms)
 Number     Number       Type             X           Y           Z
 ---------------------------------------------------------------------
      1          6           0        3.403980    0.838991   -0.158992
      2          8           0        2.602605   -0.279976    0.200827
      3          6           0        1.277767   -0.173391   -0.253918
      4          7           0        0.554729   -1.412456   -0.458125
      5          6           0        0.188122   -0.544877    0.688241
      6          6           0       -1.199650    0.061253    0.718569
      7          6           0       -1.553017    1.350217   -0.009694
      8          6           0       -2.140823    0.040391   -0.457818
      9          8           0       -3.506418   -0.223624   -0.257035
     10          1           0        4.404044    0.643367    0.231982
     11          1           0        3.028385    1.771223    0.284429
     12          1           0        3.468679    0.961552   -1.248798
     13          1           0        1.111721    0.571962   -1.025656
     14          1           0        1.145256   -2.182209   -0.153576
     15          1           0        0.546231   -0.863913    1.662877
     16          1           0       -1.689091   -0.071456    1.679977
     17          1           0       -0.794994    1.821911   -0.626842
     18          1           0       -2.204309    2.065241    0.482612
     19          1           0       -1.783384   -0.415345   -1.371161
     20          1           0       -3.743405    0.178149    0.582375
 ---------------------------------------------------------------------
 Rotational constants (GHZ):           4.4441104           0.7538834           0.7004282
 Standard basis: 6-31G(2df,p) (6D, 7F)
 There are   334 symmetry adapted cartesian basis functions of A   symmetry.
 There are   307 symmetry adapted basis functions of A   symmetry.
   307 basis functions,   473 primitive gaussians,   334 cartesian basis functions
    35 alpha electrons       35 beta electrons
       nuclear repulsion energy       459.0655571954 Hartrees.
 NAtoms=   20 NActive=   20 NUniq=   20 SFac= 1.00D+00 NAtFMM=   60 NAOKFM=F Big=F
 Integral buffers will be    131072 words long.
 Raffenetti 2 integral format.
 Two-electron integral symmetry is turned on.
 One-electron integrals computed using PRISM.
 PrsmSu:  requested number of processors reduced to:  13 ShMem   1 Linda.
 NBasis=   307 RedAO= T EigKep=  3.44D-04  NBF=   307
 NBsUse=   307 1.00D-06 EigRej= -1.00D+00 NBFU=   307
 Initial guess from the checkpoint file:  "COC1NC1C1CC1O.chk"
 B after Tr=     0.000000   -0.000000   -0.000000
         Rot=    0.999515    0.031008   -0.000329    0.002972 Ang=   3.57 deg.
 ExpMin= 1.61D-01 ExpMax= 5.48D+03 ExpMxC= 8.25D+02 IAcc=2 IRadAn=         4 AccDes= 0.00D+00
 Harris functional with IExCor=  402 and IRadAn=       4 diagonalized for initial guess.
 HarFok:  IExCor=  402 AccDes= 0.00D+00 IRadAn=         4 IDoV= 1 UseB2=F ITyADJ=14
 ICtDFT=  3500011 ScaDFX=  1.000000  1.000000  1.000000  1.000000
 FoFCou: FMM=F IPFlag=           0 FMFlag=      100000 FMFlg1=           0
         NFxFlg=           0 DoJE=T BraDBF=F KetDBF=T FulRan=T
         wScrn=  0.000000 ICntrl=       500 IOpCl=  0 I1Cent=   200000004 NGrid=           0
         NMat0=    1 NMatS0=      1 NMatT0=    0 NMatD0=    1 NMtDS0=    0 NMtDT0=    0
 Petite list used in FoFCou.
 Requested convergence on RMS density matrix=1.00D-08 within 128 cycles.
 Requested convergence on MAX density matrix=1.00D-06.
 Requested convergence on             energy=1.00D-06.
 No special actions if energy rises.
 Integral accuracy reduced to 1.0D-05 until final iterations.
 Initial convergence to 1.0D-05 achieved.  Increase integral accuracy.
 SCF Done:  E(RB3LYP) =  -440.380233571     A.U. after   11 cycles
            NFock= 11  Conv=0.50D-08     -V/T= 2.0073
 PrsmSu:  requested number of processors reduced to:  13 ShMem   1 Linda.
 Calling FoFJK, ICntrl=      2127 FMM=F ISym2X=0 I1Cent= 0 IOpClX= 0 NMat=1 NMatS=1 NMatT=0.
 ***** Axes restored to original set *****
 -------------------------------------------------------------------
 Center     Atomic                   Forces (Hartrees/Bohr)
 Number     Number              X              Y              Z
 -------------------------------------------------------------------
      1        6           0.004610545    0.000942645   -0.002204143
      2        8          -0.005220696   -0.001326751    0.009124842
      3        6           0.005572691    0.001555585   -0.004387684
      4        7          -0.000686681   -0.002862138   -0.002248389
      5        6          -0.001109448    0.002569463    0.006062448
      6        6           0.000323658   -0.002280315   -0.005567440
      7        6          -0.002504573   -0.003388599    0.001555749
      8        6           0.001110428    0.008496028   -0.000307041
      9        8          -0.002457382   -0.005652149   -0.002563843
     10        1          -0.000241813   -0.000028131   -0.000434822
     11        1          -0.000107428   -0.000012346    0.000293666
     12        1           0.000255645    0.000038937    0.000669402
     13        1          -0.004217166   -0.000520524   -0.001251083
     14        1           0.001864238   -0.000099060   -0.000084828
     15        1          -0.000635489   -0.000008011   -0.001386530
     16        1          -0.000130705    0.000954735    0.000289681
     17        1           0.000158847   -0.000402603   -0.000470052
     18        1           0.001317577    0.000999114   -0.000068818
     19        1           0.000198007   -0.001040427    0.000873003
     20        1           0.001899744    0.002064549    0.002105883
 -------------------------------------------------------------------
 Cartesian Forces:  Max     0.009124842 RMS     0.002797350

 GradGradGradGradGradGradGradGradGradGradGradGradGradGradGradGradGradGrad
 Berny optimization.
 Using GEDIIS/GDIIS optimizer.
 FormGI is forming the generalized inverse of G from B-inverse, IUseBI=4.
 Internal  Forces:  Max     0.007014128 RMS     0.001602827
 Search for a local minimum.
 Step number   2 out of a maximum of  104
 All quantities printed in internal units (Hartrees-Bohrs-Radians)
 Mixed Optimization -- RFO/linear search
 Update second derivatives using D2CorX and points    1    2
 DE= -1.08D-02 DEPred=-1.10D-02 R= 9.78D-01
 TightC=F SS=  1.41D+00  RLast= 3.95D-01 DXNew= 5.0454D-01 1.1835D+00
 Trust test= 9.78D-01 RLast= 3.95D-01 DXMaxT set to 5.05D-01
 ITU=  1  0
 Use linear search instead of GDIIS.
     Eigenvalues ---    0.00353   0.01238   0.01240   0.01346   0.01736
     Eigenvalues ---    0.01874   0.02301   0.02565   0.03034   0.03073
     Eigenvalues ---    0.03267   0.03883   0.04044   0.04197   0.05937
     Eigenvalues ---    0.09402   0.09965   0.10165   0.10538   0.11070
     Eigenvalues ---    0.11519   0.12390   0.14974   0.15325   0.15960
     Eigenvalues ---    0.16000   0.16000   0.17207   0.17369   0.18075
     Eigenvalues ---    0.18228   0.20171   0.24443   0.26460   0.26979
     Eigenvalues ---    0.28318   0.29133   0.29998   0.31552   0.34172
     Eigenvalues ---    0.34213   0.34599   0.34729   0.34988   0.35190
     Eigenvalues ---    0.35585   0.35673   0.35727   0.36305   0.38651
     Eigenvalues ---    0.40623   0.41744   0.44557   0.52965
 RFO step:  Lambda=-1.49126891D-03 EMin= 3.53398923D-03
 Quartic linear search produced a step of  0.12529.
 Iteration  1 RMS(Cart)=  0.04016481 RMS(Int)=  0.00101948
 Iteration  2 RMS(Cart)=  0.00142616 RMS(Int)=  0.00016911
 Iteration  3 RMS(Cart)=  0.00000170 RMS(Int)=  0.00016910
 Iteration  4 RMS(Cart)=  0.00000000 RMS(Int)=  0.00016910
 Variable       Old X    -DE/DX   Delta X   Delta X   Delta X     New X
                                 (Linear)    (Quad)   (Total)
    R1        2.68830  -0.00420  -0.00084  -0.01088  -0.01172   2.67659
    R2        2.06254   0.00046  -0.00010   0.00156   0.00146   2.06399
    R3        2.07591   0.00013   0.00070   0.00005   0.00075   2.07665
    R4        2.07602   0.00015   0.00080   0.00007   0.00086   2.07688
    R5        2.65461  -0.00701  -0.00691  -0.01584  -0.02275   2.63186
    R6        2.73832   0.00030   0.00068   0.00093   0.00200   2.74032
    R7        2.81118  -0.00126  -0.00654  -0.00315  -0.00986   2.80132
    R8        2.05164   0.00243   0.00067   0.00728   0.00795   2.05959
    R9        2.80371   0.00270   0.00401   0.00767   0.01147   2.81518
   R10        1.92158   0.00098  -0.00047   0.00271   0.00223   1.92381
   R11        2.86231  -0.00374  -0.00391  -0.01214  -0.01606   2.84626
   R12        2.05272   0.00081  -0.00056   0.00290   0.00234   2.05506
   R13        2.87627   0.00021   0.00121   0.00735   0.00811   2.88438
   R14        2.84724  -0.00034  -0.00130  -0.00301  -0.00412   2.84312
   R15        2.05405   0.00066  -0.00094   0.00264   0.00170   2.05574
   R16        2.84212  -0.00035   0.00146  -0.00650  -0.00477   2.83736
   R17        2.05100   0.00015   0.00060   0.00014   0.00074   2.05174
   R18        2.05086   0.00068   0.00073   0.00173   0.00246   2.05332
   R19        2.65563  -0.00180  -0.00683  -0.00144  -0.00827   2.64736
   R20        2.04375   0.00102  -0.00138   0.00399   0.00261   2.04636
   R21        1.81472   0.00198  -0.00334   0.00592   0.00258   1.81730
    A1        1.85936   0.00063  -0.00682   0.00998   0.00319   1.86254
    A2        1.95282  -0.00002   0.00417  -0.00340   0.00071   1.95353
    A3        1.95179  -0.00085   0.00478  -0.00971  -0.00498   1.94680
    A4        1.89736   0.00012  -0.00086   0.00300   0.00215   1.89951
    A5        1.89799   0.00038  -0.00039   0.00411   0.00376   1.90175
    A6        1.90275  -0.00019  -0.00109  -0.00312  -0.00433   1.89842
    A7        1.97112   0.00474   0.00519   0.01832   0.02351   1.99463
    A8        2.03905  -0.00123   0.00069  -0.00530  -0.00481   2.03423
    A9        2.05651  -0.00030   0.00279  -0.00052   0.00227   2.05878
   A10        2.01135  -0.00206  -0.00671  -0.01657  -0.02332   1.98803
   A11        1.99386   0.00204  -0.00004   0.02234   0.02217   2.01603
   A12        2.10553   0.00196   0.00508   0.00983   0.01484   2.12037
   A13        1.89159   0.00071  -0.00135   0.01551   0.01415   1.90573
   A14        1.93344  -0.00011  -0.00050  -0.00451  -0.00501   1.92842
   A15        2.19427   0.00082   0.00988   0.00453   0.01467   2.20894
   A16        1.98245  -0.00094  -0.00754  -0.00803  -0.01556   1.96689
   A17        2.06675   0.00114  -0.00573   0.00648   0.00103   2.06777
   A18        2.02646  -0.00120   0.00626  -0.00666  -0.00044   2.02602
   A19        1.98408   0.00012  -0.00205   0.00237   0.00023   1.98432
   A20        2.14364  -0.00069   0.00270   0.00430   0.00683   2.15046
   A21        2.15454  -0.00058  -0.00149  -0.01227  -0.01368   2.14086
   A22        1.96212   0.00041   0.00013   0.00564   0.00568   1.96781
   A23        2.00652   0.00057  -0.00016  -0.00498  -0.00507   2.00144
   A24        1.99065   0.00014  -0.00161   0.00596   0.00425   1.99490
   A25        2.06914  -0.00109  -0.00212  -0.00052  -0.00281   2.06633
   A26        2.07171   0.00027   0.00096  -0.01149  -0.01040   2.06131
   A27        2.07378  -0.00027   0.00311  -0.00199   0.00110   2.07488
   A28        2.06509  -0.00015  -0.00269   0.00183  -0.00094   2.06415
   A29        1.97223   0.00080   0.00085   0.00793   0.00875   1.98099
   A30        2.09216   0.00300   0.00580   0.02139   0.02669   2.11885
   A31        2.04739  -0.00081   0.00089  -0.00483  -0.00398   2.04341
   A32        2.09536   0.00305   0.00964   0.01935   0.02856   2.12392
   A33        2.08225  -0.00089   0.00256  -0.01131  -0.00871   2.07354
   A34        1.94191  -0.00278  -0.01176  -0.01697  -0.02847   1.91344
   A35        1.86095   0.00525  -0.01298   0.04449   0.03151   1.89246
    D1       -3.13013   0.00022   0.00007   0.01268   0.01276  -3.11737
    D2        1.08174  -0.00030   0.00291   0.00475   0.00776   1.08950
    D3       -1.05862   0.00059  -0.00180   0.01843   0.01650  -1.04212
    D4        2.69762   0.00020  -0.00151   0.06028   0.05890   2.75652
    D5       -2.37622   0.00122   0.00314   0.06250   0.06559  -2.31063
    D6        0.28315   0.00096   0.00695   0.05047   0.05734   0.34048
    D7        0.07593   0.00134   0.00482   0.01638   0.02131   0.09725
    D8        2.49752  -0.00107  -0.00605   0.01038   0.00420   2.50172
    D9        2.60053  -0.00019   0.01069  -0.00140   0.00923   2.60976
   D10        0.00654  -0.00017   0.01118   0.00070   0.01179   0.01833
   D11       -0.03181   0.00128   0.01027   0.01905   0.02936  -0.00245
   D12       -2.62580   0.00131   0.01076   0.02115   0.03193  -2.59388
   D13       -2.50288   0.00101   0.01249   0.02224   0.03471  -2.46817
   D14       -0.04745   0.00113   0.00971   0.02621   0.03596  -0.01149
   D15       -0.25072   0.00086   0.00153   0.01808   0.01943  -0.23128
   D16        1.01871   0.00010   0.00299   0.00989   0.01263   1.03134
   D17       -2.76470   0.00014  -0.00251   0.01172   0.00895  -2.75575
   D18       -1.46907   0.00016  -0.00028   0.01363   0.01366  -1.45541
   D19       -0.19965  -0.00060   0.00118   0.00545   0.00686  -0.19278
   D20        2.30013  -0.00056  -0.00431   0.00728   0.00318   2.30332
   D21        2.34284   0.00055  -0.00054   0.01321   0.01270   2.35555
   D22       -2.67092  -0.00021   0.00092   0.00502   0.00590  -2.66502
   D23       -0.17114  -0.00017  -0.00457   0.00685   0.00222  -0.16892
   D24        0.06813  -0.00062  -0.00689  -0.01573  -0.02261   0.04552
   D25       -2.43845  -0.00087  -0.00667  -0.01177  -0.01841  -2.45686
   D26        2.56776   0.00006  -0.00262  -0.00571  -0.00838   2.55938
   D27        0.06118  -0.00019  -0.00241  -0.00175  -0.00418   0.05700
   D28        2.42063  -0.00193  -0.01373  -0.02554  -0.03950   2.38113
   D29       -0.02465   0.00004  -0.00142  -0.01813  -0.01941  -0.04406
   D30       -0.06991  -0.00205  -0.00868  -0.02715  -0.03609  -0.10600
   D31       -2.51519  -0.00007   0.00363  -0.01975  -0.01601  -2.53119
   D32       -2.48390   0.00131  -0.00112   0.02029   0.01938  -2.46451
   D33        0.02300  -0.00074  -0.00447  -0.00120  -0.00573   0.01727
   D34        0.01939   0.00222   0.00126   0.03592   0.03737   0.05677
   D35        2.52629   0.00017  -0.00209   0.01443   0.01226   2.53855
   D36        0.61925   0.00143   0.00466   0.01444   0.01956   0.63881
   D37       -0.62692  -0.00135  -0.00173  -0.00852  -0.01083  -0.63775
   D38        3.10283   0.00012  -0.00305   0.01077   0.00784   3.11067
         Item               Value     Threshold  Converged?
 Maximum Force            0.007014     0.000450     NO 
 RMS     Force            0.001603     0.000300     NO 
 Maximum Displacement     0.128540     0.001800     NO 
 RMS     Displacement     0.040754     0.001200     NO 
 Predicted change in Energy=-9.299679D-04
 GradGradGradGradGradGradGradGradGradGradGradGradGradGradGradGradGradGrad

                          Input orientation:                          
 ---------------------------------------------------------------------
 Center     Atomic      Atomic             Coordinates (Angstroms)
 Number     Number       Type             X           Y           Z
 ---------------------------------------------------------------------
      1          6           0        1.014270   -0.031925   -0.148294
      2          8           0        2.404735   -0.104343    0.111548
      3          6           0        2.741541   -0.004349    1.459227
      4          7           0        4.028378   -0.548252    1.847884
      5          6           0        3.830462    0.928224    1.836134
      6          6           0        3.958339    1.680245    3.134853
      7          6           0        2.819373    1.807374    4.142986
      8          6           0        4.035395    0.989232    4.469067
      9          8           0        4.952885    1.392401    5.447973
     10          1           0        0.889867   -0.147532   -1.227228
     11          1           0        0.589667    0.934828    0.156205
     12          1           0        0.465833   -0.835728    0.362592
     13          1           0        1.916453   -0.220106    2.137854
     14          1           0        4.530883   -0.847088    1.014467
     15          1           0        4.242855    1.459121    0.981315
     16          1           0        4.590265    2.561667    3.050067
     17          1           0        1.884574    1.296648    3.932917
     18          1           0        2.688543    2.759400    4.650104
     19          1           0        3.952813   -0.090501    4.470486
     20          1           0        5.033668    2.350035    5.412943
 ---------------------------------------------------------------------
                    Distance matrix (angstroms):
                    1          2          3          4          5
     1  C    0.000000
     2  O    1.416388   0.000000
     3  C    2.359735   1.392722   0.000000
     4  N    3.651872   2.418292   1.450115   0.000000
     5  C    3.576420   2.464363   1.482396   1.489728   0.000000
     6  C    4.730552   3.839116   2.669490   2.574373   1.506173
     7  C    5.005647   4.480968   3.238976   3.504021   2.667728
     8  C    5.611594   4.779428   3.423507   3.038834   2.641601
     9  O    6.989964   6.100060   4.769805   4.193029   3.810600
    10  H    1.092218   2.022131   3.265921   4.412159   4.380472
    11  H    1.098917   2.091971   2.685234   4.109262   3.650336
    12  H    1.099040   2.087413   2.659446   3.870461   4.074750
    13  H    2.464918   2.087519   1.089888   2.156847   2.252360
    14  H    3.792502   2.426404   2.027255   1.018036   2.077849
    15  H    3.731353   2.565073   2.150369   2.196927   1.087491
    16  H    5.453804   4.529795   3.540196   3.381207   2.172342
    17  H    4.379363   4.103194   2.923376   3.513818   2.884218
    18  H    5.798216   5.374017   4.221707   4.537418   3.546211
    19  H    5.474632   4.625697   3.246888   2.663323   2.827115
    20  H    7.263377   6.406250   5.140898   4.703225   4.032718
                    6          7          8          9         10
     6  C    0.000000
     7  C    1.526348   0.000000
     8  C    1.504515   1.501464   0.000000
     9  O    2.534265   2.535166   1.400924   0.000000
    10  H    5.637734   6.031903   6.605631   7.964786   0.000000
    11  H    4.558063   4.650521   5.520578   6.873852   1.781996
    12  H    5.119878   5.178467   5.738937   7.138578   1.783521
    13  H    2.962202   2.991070   3.374459   4.772524   3.518938
    14  H    3.348321   4.445567   3.943583   4.984914   4.332617
    15  H    2.183476   3.484788   3.525372   4.523231   4.324527
    16  H    1.087853   2.213479   2.189519   2.692327   6.271201
    17  H    2.254896   1.085734   2.237855   3.423316   5.449972
    18  H    2.252320   1.086572   2.231654   2.762702   6.799156
    19  H    2.217992   2.234697   1.082888   2.038289   6.469068
    20  H    2.606654   2.609669   1.933709   0.961673   8.215887
                   11         12         13         14         15
    11  H    0.000000
    12  H    1.786841   0.000000
    13  H    2.649748   2.373783   0.000000
    14  H    4.409651   4.117002   2.913820   0.000000
    15  H    3.781729   4.462629   3.093466   2.324362   0.000000
    16  H    5.198637   5.981284   3.964804   3.970743   2.369818
    17  H    4.008896   4.393982   2.350279   4.485076   3.781513
    18  H    5.284834   6.020643   3.973032   5.442318   4.191255
    19  H    5.565525   5.439595   3.099150   3.584782   3.828808
    20  H    7.027464   7.517995   5.200852   5.460859   4.588947
                   16         17         18         19         20
    16  H    0.000000
    17  H    3.114556   0.000000
    18  H    2.493143   1.816691   0.000000
    19  H    3.075375   2.547700   3.122911   0.000000
    20  H    2.413416   3.635505   2.499823   2.830669   0.000000
 Stoichiometry    C6H11NO2
 Framework group  C1[X(C6H11NO2)]
 Deg. of freedom    54
 Full point group                 C1      NOp   1
 Largest Abelian subgroup         C1      NOp   1
 Largest concise Abelian subgroup C1      NOp   1
                         Standard orientation:                         
 ---------------------------------------------------------------------
 Center     Atomic      Atomic             Coordinates (Angstroms)
 Number     Number       Type             X           Y           Z
 ---------------------------------------------------------------------
      1          6           0        3.411437    0.816876   -0.144815
      2          8           0        2.592522   -0.294824    0.170868
      3          6           0        1.275766   -0.179180   -0.267829
      4          7           0        0.535428   -1.415537   -0.429551
      5          6           0        0.192631   -0.497848    0.692780
      6          6           0       -1.184285    0.111650    0.727030
      7          6           0       -1.563264    1.365552   -0.056453
      8          6           0       -2.137248    0.030593   -0.434373
      9          8           0       -3.493177   -0.267347   -0.246559
     10          1           0        4.411325    0.586937    0.229742
     11          1           0        3.055601    1.738522    0.336398
     12          1           0        3.465956    0.982781   -1.229892
     13          1           0        1.136790    0.557990   -1.058476
     14          1           0        1.102855   -2.191613   -0.094691
     15          1           0        0.570459   -0.779261    1.672927
     16          1           0       -1.658592    0.024797    1.702178
     17          1           0       -0.815733    1.816667   -0.701830
     18          1           0       -2.216845    2.089934    0.421815
     19          1           0       -1.778917   -0.455923   -1.333009
     20          1           0       -3.785881    0.149439    0.569180
 ---------------------------------------------------------------------
 Rotational constants (GHZ):           4.4618047           0.7564729           0.7021430
 Standard basis: 6-31G(2df,p) (6D, 7F)
 There are   334 symmetry adapted cartesian basis functions of A   symmetry.
 There are   307 symmetry adapted basis functions of A   symmetry.
   307 basis functions,   473 primitive gaussians,   334 cartesian basis functions
    35 alpha electrons       35 beta electrons
       nuclear repulsion energy       459.5924716844 Hartrees.
 NAtoms=   20 NActive=   20 NUniq=   20 SFac= 1.00D+00 NAtFMM=   60 NAOKFM=F Big=F
 Integral buffers will be    131072 words long.
 Raffenetti 2 integral format.
 Two-electron integral symmetry is turned on.
 One-electron integrals computed using PRISM.
 PrsmSu:  requested number of processors reduced to:  13 ShMem   1 Linda.
 NBasis=   307 RedAO= T EigKep=  3.40D-04  NBF=   307
 NBsUse=   307 1.00D-06 EigRej= -1.00D+00 NBFU=   307
 Initial guess from the checkpoint file:  "COC1NC1C1CC1O.chk"
 B after Tr=    -0.000000   -0.000000    0.000000
         Rot=    0.999926    0.012120   -0.000413    0.000500 Ang=   1.39 deg.
 ExpMin= 1.61D-01 ExpMax= 5.48D+03 ExpMxC= 8.25D+02 IAcc=2 IRadAn=         4 AccDes= 0.00D+00
 Harris functional with IExCor=  402 and IRadAn=       4 diagonalized for initial guess.
 HarFok:  IExCor=  402 AccDes= 0.00D+00 IRadAn=         4 IDoV= 1 UseB2=F ITyADJ=14
 ICtDFT=  3500011 ScaDFX=  1.000000  1.000000  1.000000  1.000000
 FoFCou: FMM=F IPFlag=           0 FMFlag=      100000 FMFlg1=           0
         NFxFlg=           0 DoJE=T BraDBF=F KetDBF=T FulRan=T
         wScrn=  0.000000 ICntrl=       500 IOpCl=  0 I1Cent=   200000004 NGrid=           0
         NMat0=    1 NMatS0=      1 NMatT0=    0 NMatD0=    1 NMtDS0=    0 NMtDT0=    0
 Petite list used in FoFCou.
 Requested convergence on RMS density matrix=1.00D-08 within 128 cycles.
 Requested convergence on MAX density matrix=1.00D-06.
 Requested convergence on             energy=1.00D-06.
 No special actions if energy rises.
 Integral accuracy reduced to 1.0D-05 until final iterations.
 Initial convergence to 1.0D-05 achieved.  Increase integral accuracy.
 SCF Done:  E(RB3LYP) =  -440.381323903     A.U. after   10 cycles
            NFock= 10  Conv=0.56D-08     -V/T= 2.0073
 PrsmSu:  requested number of processors reduced to:  13 ShMem   1 Linda.
 Calling FoFJK, ICntrl=      2127 FMM=F ISym2X=0 I1Cent= 0 IOpClX= 0 NMat=1 NMatS=1 NMatT=0.
 ***** Axes restored to original set *****
 -------------------------------------------------------------------
 Center     Atomic                   Forces (Hartrees/Bohr)
 Number     Number              X              Y              Z
 -------------------------------------------------------------------
      1        6           0.002180405    0.001007545   -0.000283954
      2        8          -0.001529862   -0.001427502   -0.000684751
      3        6           0.000798016   -0.001589290    0.000347410
      4        7          -0.001280389    0.000601909   -0.001897012
      5        6           0.001055189    0.002217697    0.002456545
      6        6           0.000786233   -0.000085588   -0.000973557
      7        6          -0.001518159   -0.001388212    0.000821740
      8        6           0.001185794    0.003692783    0.001302853
      9        8          -0.000598614   -0.001945899   -0.000325491
     10        1          -0.000181360   -0.000064801    0.000231268
     11        1          -0.000283153    0.000131902   -0.000054833
     12        1          -0.000265564   -0.000018897    0.000147233
[...]
 09507303,0.07044144,0.34389915,0.00028532,-0.00028420,0.00032877,-0.00
 017848,-0.00033689,-0.00099926,0.00002996,0.00025816,0.00041716,0.0006
 8690,-0.00128074,-0.00022676,-0.00171692,0.00107201,0.00188770,-0.0082
 1200,-0.01089546,-0.00702047,-0.01283180,-0.03318415,-0.01027438,-0.09
 245269,-0.06721900,-0.01985845,0.11716482,0.00045967,-0.00049217,0.000
 37969,-0.00058619,0.00006208,-0.00138727,0.00050685,-0.00011245,0.0008
 4512,-0.00070401,0.00016784,-0.00061089,0.00007408,0.00065516,0.001527
 35,-0.00333095,0.00415719,-0.00491706,-0.01042713,-0.01867369,-0.00386
 533,-0.05927534,-0.21597003,-0.02681425,0.10533838,0.30185163,0.000605
 65,-0.00050086,0.00048913,-0.00097518,-0.00108990,-0.00152999,0.000818
 05,0.00087789,-0.00162661,0.00064708,-0.00028087,0.00077603,-0.0081691
 4,-0.00009869,0.00054369,-0.01109747,-0.03400310,-0.01471463,-0.001177
 35,0.01342811,0.00789110,-0.03896484,-0.06901672,-0.10203324,0.1119072
 7,0.01099568,0.59878195,-0.04913869,-0.00408554,-0.00490652,-0.0041904
 8,-0.00449080,-0.02575021,-0.00216427,0.00262672,0.00007995,-0.0002443
 6,0.00010465,-0.00165214,0.00036854,0.00030658,0.00025979,-0.00009129,
 0.00005862,0.00001765,0.00003068,0.00000404,-0.00001447,0.00003114,0.0
 0000608,0.00003988,-0.00002851,-0.00005389,-0.00004995,0.05179427,-0.0
 0721002,-0.09080127,-0.10373918,0.00463684,0.00726354,0.02923882,0.002
 07271,-0.00267005,0.00115120,0.00050820,0.00063580,0.00136211,0.000446
 96,0.00008181,0.00017447,0.00006807,-0.00006553,0.00000018,-0.00001324
 ,-0.00000963,0.00001836,0.00001103,0.00001664,0.00002682,-0.00001480,0
 .00001203,0.00000763,0.00095503,0.09383993,-0.01151481,-0.09303636,-0.
 27447284,-0.00635664,-0.00113109,-0.02271281,-0.00212730,0.00317622,0.
 00184029,-0.00027591,-0.00004636,-0.00118655,0.00017207,0.00008411,0.0
 0015362,-0.00014158,0.00009597,-0.00000667,0.00000719,-0.00001713,0.00
 001091,0.00007343,0.00003946,0.00007919,-0.00008689,-0.00012417,-0.000
 10094,0.01906068,0.09758585,0.30402901,-0.10201379,-0.10235697,0.00029
 317,0.00919058,0.02633957,-0.00595427,0.00163263,0.00160119,0.00248201
 ,0.00009922,-0.00035425,0.00008694,-0.00000505,-0.00029203,0.00047634,
 -0.00012162,-0.00015191,0.00007008,0.00001335,0.00001585,0.00004274,0.
 00000675,0.00003031,0.00004136,-0.00002437,-0.00001953,-0.00001541,0.0
 0000622,-0.00007222,0.00114518,0.10384037,-0.09839922,-0.24363838,-0.0
 0089782,0.00380206,-0.02852001,0.01327258,-0.00063420,-0.00062520,-0.0
 0544928,0.00004487,0.00055858,-0.00011182,0.00003292,0.00101480,0.0015
 7711,0.00055859,-0.00019612,0.00004181,0.00000764,-0.00003718,-0.00003
 737,-0.00006779,0.00011250,0.00002366,0.00006656,0.00010475,0.00011866
 ,-0.00649359,-0.00881064,-0.00022223,0.10187023,0.27715028,0.00015252,
 -0.00423510,-0.05255813,0.00066225,0.02370060,-0.00528370,0.00301084,0
 .00369049,0.00427032,0.00005635,-0.00083986,-0.00022667,-0.00078765,-0
 .00081776,0.00036906,-0.00002887,-0.00002154,-0.00003511,-0.00001501,0
 .00000535,-0.00001432,-0.00000897,0.00001502,-0.00005951,0.00002770,0.
 00001016,0.00003679,-0.01345469,-0.02609803,0.00241393,0.00234820,-0.0
 0719846,0.05025131,-0.24920746,0.00696397,0.09212400,-0.02358185,0.013
 60303,-0.00590951,0.00065724,0.00130232,0.00575034,0.00035337,-0.00040
 155,-0.00103517,-0.00021535,-0.00012426,-0.00018411,-0.00019989,0.0002
 0993,-0.00005948,0.00006657,-0.00001870,-0.00005874,0.00005466,-0.0000
 4286,0.00007584,-0.00002424,-0.00008065,-0.00010449,0.00311410,-0.0012
 5337,-0.00016276,-0.01197978,-0.00068790,0.00819794,0.28023550,0.00471
 432,-0.05096654,-0.00305276,0.03088252,-0.00634590,-0.00142365,-0.0006
 9985,-0.00068296,-0.00426421,0.00012198,0.00008084,0.00038121,-0.00033
 470,-0.00006174,0.00069930,0.00015670,-0.00009919,0.00003369,0.0000175
 0,0.00001587,-0.00001536,-0.00003488,-0.00000030,-0.00002109,0.0000543
 7,0.00006763,0.00006342,0.01130599,0.00029412,-0.00599259,-0.02643867,
 0.00253541,0.01199404,-0.01905529,0.05468782,0.09563698,-0.00571547,-0
 .09619055,-0.02346186,0.00527452,0.00524379,-0.00324374,0.00090987,0.0
 0550133,-0.00009700,-0.00000360,-0.00031259,0.00015619,0.00002246,-0.0
 0062959,-0.00007567,0.00000672,-0.00002012,0.00001284,0.00001159,-0.00
 000943,-0.00001451,-0.00003010,-0.00001003,0.00001089,0.00002002,0.000
 00296,0.02695342,0.00017413,-0.01013225,-0.00057090,-0.00149881,0.0010
 6421,-0.09704346,0.00114504,0.09513583,0.00209973,-0.00074800,-0.00028
 724,0.00805709,0.00074888,-0.00255503,-0.24283695,0.00859004,0.1144931
 4,-0.01745186,0.00384160,-0.00033625,-0.01176124,0.00365267,0.00616793
 ,0.00035001,-0.00025288,0.00133228,0.00085594,-0.00018178,-0.00058970,
 -0.00011056,0.00011676,0.00053066,0.00028003,0.00003096,-0.00018903,0.
 00028606,-0.00019547,0.00016046,-0.00039977,-0.00015526,0.00002644,0.0
 0012019,-0.00043386,0.00144913,0.26391359,0.00009151,-0.00058842,0.000
 92221,0.00839222,0.00144483,-0.01061096,0.00099803,-0.04496734,-0.0045
 2739,0.01947923,-0.00037547,-0.01137194,-0.01782125,-0.00034267,0.0149
 4582,0.00114648,0.00129672,0.00195510,0.00035741,0.00005873,-0.0008598
 0,0.00041732,0.00009178,-0.00014184,0.00008422,-0.00001733,-0.00000269
 ,-0.00005024,0.00000978,-0.00017076,-0.00027551,0.00014946,-0.00010208
 ,-0.00021632,0.00030792,-0.00018722,-0.01323603,0.04205517,0.00554060,
 -0.00425248,0.00300922,0.02286293,-0.00474691,-0.03489213,0.11529642,-
 0.00694634,-0.11020631,-0.01469387,0.00409031,0.00738155,-0.00369710,-
 0.00010643,0.00195569,-0.00001425,-0.00029972,0.00095928,-0.00000261,-
 0.00003974,-0.00008831,0.00013354,0.00022474,0.00011808,0.00004838,-0.
 00002200,0.00001783,-0.00069475,0.00022458,0.00005812,-0.00042040,0.00
 064906,-0.00040546,-0.00190385,0.00073299,0.00047046,-0.11864351,0.011
 37157,0.13241073,0.00012208,0.00035502,-0.00002087,0.00429565,-0.00481
 008,0.00224004,-0.02618507,0.02103908,0.02669278,-0.15401899,0.1110101
 0,0.12781740,0.00629422,-0.00907844,-0.01172506,0.00111192,-0.00389343
 ,0.00118094,0.00009053,-0.00020204,0.00017963,0.00039128,-0.00018868,0
 .00043046,-0.00022800,0.00005555,-0.00012241,0.00018168,-0.00013489,0.
 00010296,0.00007314,-0.00025278,0.00014727,0.00046865,-0.00025779,0.00
 018216,-0.00231179,0.00448504,-0.00335570,0.16939818,-0.00034589,-0.00
 048372,0.00003495,-0.00064187,0.00203274,-0.00122832,0.00613473,-0.010
 23496,0.00203572,0.09412431,-0.12148816,-0.11463594,0.02128689,-0.0232
 2352,-0.02097654,0.00271873,-0.00406291,0.00394036,-0.00001212,0.00018
 940,0.00054768,-0.00014782,0.00018723,0.00033424,0.00005865,0.00015577
 ,0.00008807,-0.00007997,0.00009040,-0.00013020,0.00005265,-0.00000898,
 -0.00009582,-0.00016767,0.00014041,-0.00009422,-0.00265692,0.00030066,
 -0.00104339,-0.11777658,0.15360583,-0.00048286,0.00061588,-0.00057920,
 0.00045396,-0.00196343,0.00187424,-0.01749647,0.01956675,0.00482188,0.
 16359697,-0.16531331,-0.20297461,-0.00437918,0.01376388,-0.00575124,-0
 .00022100,-0.00145872,-0.00081645,0.00006108,-0.00008756,0.00013174,0.
 00084276,-0.00052671,0.00017794,-0.00045112,0.00001611,-0.00010698,0.0
 0009598,-0.00014553,0.00006028,0.00004940,-0.00019457,0.00020931,0.000
 33592,-0.00018258,-0.00014802,0.00019891,0.00076611,-0.00023531,-0.141
 98111,0.13455553,0.20059394,-0.00047689,-0.00029861,-0.00023538,0.0038
 6921,0.00346087,-0.00026779,-0.01817607,-0.00815864,0.02472482,0.00694
 676,0.00468795,-0.01241383,-0.14145989,-0.04441598,0.12867727,0.001374
 70,-0.00005687,-0.00238995,0.00061649,-0.00028443,-0.00098918,0.000594
 27,0.00022314,0.00084335,0.00010684,0.00008457,0.00016906,0.00005248,0
 .00018310,-0.00007687,-0.00035226,0.00031989,-0.00030898,0.00018916,0.
 00002813,0.00010751,-0.00090899,-0.00374550,-0.00037549,0.00061139,-0.
 00238076,-0.00006394,0.14693050,-0.00017367,0.00004304,-0.00034268,-0.
 00004955,0.00031316,-0.00012577,-0.00006508,-0.00716340,0.00365810,-0.
 02383897,-0.01761437,0.01972824,-0.03875227,-0.05860302,0.04339569,0.0
 1192791,0.00744236,-0.01591763,0.00053324,-0.00296249,-0.00191321,0.00
 017526,0.00058141,0.00083286,-0.00021194,-0.00022425,0.00001694,-0.000
 09229,0.00002314,-0.00006415,-0.00000532,0.00003904,0.00005097,0.00004
 594,-0.00002953,-0.00001906,0.00092219,0.00074226,0.00010102,0.0003375
 0,0.00327839,0.00095692,0.04985510,0.07347514,-0.00029363,0.00036881,-
 0.00006617,0.00092804,0.00119540,0.00088630,-0.00908287,-0.00339577,0.
 00870714,0.00510241,0.00470996,-0.00623572,0.12859335,0.04827237,-0.20
 567095,0.01402228,0.00557920,-0.01814081,0.00085315,-0.00419286,-0.000
 33744,0.00029763,0.00086695,0.00133250,-0.00045282,-0.00031657,-0.0000
 3638,0.00002213,0.00002142,-0.00001698,-0.00005641,-0.00012126,-0.0000
 2241,0.00003072,-0.00010450,0.00004333,-0.00092687,-0.00170637,-0.0003
 1587,-0.00055287,-0.00137272,0.00214294,-0.13754210,-0.05014898,0.2185
 2788,0.00002528,-0.00001187,-0.00000507,0.00000675,0.00018073,0.000083
 71,0.00027029,0.00017096,0.00071695,0.00066754,-0.00032650,-0.00046181
 ,-0.00011948,-0.00111463,0.00009361,-0.04730499,0.05684448,-0.01538562
 ,0.00324794,-0.02223709,0.00397918,-0.00866703,0.02980815,-0.00776644,
 0.00228822,-0.00100516,0.00477298,-0.00000288,0.00001981,0.00001179,0.
 00003183,-0.00000288,-0.00003442,-0.00003585,-0.00002321,0.00000388,-0
 .00006977,-0.00012893,-0.00005388,-0.00009119,-0.00021123,-0.00017175,
 0.00014619,-0.00018096,-0.00009681,0.04930321,0.00016227,-0.00043825,0
 .00019443,-0.00036473,0.00023273,-0.00057433,0.00005389,-0.00014183,0.
 00065338,0.00156490,-0.00027285,-0.00280625,0.00320637,-0.01520275,0.0
 0599776,0.05799892,-0.30119578,0.06279922,0.00238835,-0.00530075,0.000
 76994,-0.00137214,-0.00048586,-0.00022384,-0.00029041,0.00096248,-0.00
 025535,-0.00002069,0.00006704,-0.00003543,0.00004580,0.00012979,-0.000
 04585,-0.00005654,0.00002648,-0.00000636,-0.00027961,-0.00022050,-0.00
 012661,-0.00089682,-0.00077974,-0.00015876,0.00020561,0.00032932,-0.00
 050522,-0.06195245,0.32049593,0.00012654,-0.00033185,0.00017138,-0.000
 15576,0.00031335,-0.00038759,0.00031946,0.00050598,0.00118375,0.001434
 05,-0.00323053,-0.00365674,0.00488083,-0.02281515,0.00879203,-0.015894
 60,0.05931833,-0.06162260,-0.00574186,0.01888367,-0.00851476,-0.000443
 48,0.01374665,-0.00646757,-0.00033420,-0.00119146,0.00168683,-0.000013
 02,0.00004617,-0.00005044,-0.00000139,0.00008980,-0.00004031,-0.000031
 37,0.00004298,0.00000054,-0.00041636,-0.00000483,-0.00006225,-0.000931
 57,-0.00133713,-0.00007342,0.00018908,0.00094247,0.00039413,0.01635510
 ,-0.06563222,0.07111528,-0.00003243,0.00005151,-0.00011863,-0.00012896
 ,0.00038547,0.00010808,0.00074423,-0.00050681,0.00007216,-0.00075605,-
 0.00011322,-0.00076179,0.00118468,-0.00101975,0.00159521,-0.00375894,0
 .00587186,0.00144456,-0.06216364,-0.06984719,0.01530572,-0.00224549,-0
 .02678244,0.00291278,-0.00597280,-0.00389762,0.00251867,-0.00001312,0.
 00000569,-0.00000441,-0.00000693,-0.00001275,0.00000094,-0.00000778,-0
 .00000124,-0.00000601,-0.00021054,0.00000170,-0.00014019,-0.00008860,0
 .00003426,-0.00014265,-0.00003896,0.00015935,0.00006758,0.00055326,0.0
 0041713,-0.00179650,0.06535373,-0.00006642,-0.00006121,0.00004249,0.00
 005895,-0.00000837,-0.00015110,-0.00009857,0.00015088,0.00040673,0.000
 20135,0.00036185,-0.00167114,0.00027802,-0.00127664,-0.00138398,-0.001
 67102,-0.00422001,0.00164607,-0.07218598,-0.31702555,0.03126635,0.0007
 3373,-0.00031885,0.00103174,0.00009822,0.00110220,-0.00006566,0.000010
 37,0.00000199,0.00000333,0.00000298,0.00000728,-0.00001052,0.00000691,
 0.00001100,-0.00000157,0.00026860,0.00006978,0.00015162,0.00013144,0.0
 0000202,-0.00005795,0.00007105,-0.00011334,0.00011605,-0.00107393,0.00
 031628,0.00014316,0.07880758,0.33274020,-0.00005392,0.00021816,-0.0001
 0728,-0.00002502,-0.00041876,0.00038258,-0.00001114,0.00052452,-0.0013
 0022,-0.00034109,-0.00015568,-0.00052449,-0.00279333,0.00032233,0.0025
 0894,0.00689472,0.02952996,-0.00118719,0.01341460,0.02857593,-0.044224
 63,0.00296800,-0.00755540,-0.00434205,-0.00436008,-0.00186474,0.000893
 50,0.00002072,-0.00003189,0.00004292,-0.00000821,-0.00004015,0.0000217
 6,0.00001987,-0.00003008,-0.00001176,-0.00028124,-0.00010890,-0.000204
 96,0.00000761,-0.00046184,0.00071842,0.00007154,-0.00005102,0.00044034
 ,0.00454464,0.00067311,-0.00338979,-0.01561923,-0.03540472,0.04675310,
 0.00003253,-0.00005474,0.00002361,-0.00012778,0.00003060,-0.00006896,0
 .00036017,-0.00001722,0.00009769,0.00017304,0.00007268,-0.00022508,0.0
 0082657,0.00020727,-0.00211460,-0.00121843,-0.00672633,-0.00246767,-0.
 11424391,0.09694525,0.08358489,-0.01420560,0.02315429,0.01821446,0.005
 95658,0.00079114,-0.00323993,-0.00000765,0.00000722,-0.00000243,0.0000
 1145,0.00001074,-0.00000187,-0.00001616,0.00000247,-0.00000288,0.00000
 814,-0.00003499,0.00005144,-0.00004267,0.00008331,-0.00018730,0.000051
 57,-0.00029514,-0.00053939,0.00015656,-0.00008763,0.00157397,0.0052857
 5,-0.00589027,-0.00638009,0.12128375,0.00003663,-0.00008441,0.00002018
 ,-0.00015210,0.00011305,-0.00021897,0.00047682,-0.00037371,0.00017306,
 0.00002674,0.00005411,-0.00085681,-0.00159139,-0.00126864,0.00069866,-
 0.00618927,0.00517241,0.00730157,0.09946390,-0.18416869,-0.10874693,-0
 .00320346,-0.00002280,0.00396949,0.00015639,0.00123177,0.00036400,-0.0
 0001228,0.00001103,-0.00001620,-0.00000082,0.00001795,-0.00000359,-0.0
 0001741,0.00001233,-0.00000212,0.00002138,0.00004268,0.00006126,-0.000
 00684,0.00017246,-0.00025295,0.00008003,0.00032209,0.00043294,0.000798
 18,0.00126139,0.00035974,0.01545759,-0.01222592,-0.01423222,-0.1054910
 0,0.18919071,0.00022518,-0.00013113,0.00013324,-0.00032329,-0.00008913
 ,-0.00024688,0.00035676,0.00061490,0.00022873,0.00019976,0.00003376,0.
 00035646,0.00426622,0.00263776,-0.00202588,0.01524515,-0.02008073,-0.0
 1425871,0.08363175,-0.10564653,-0.11901825,-0.00536582,0.00898365,0.00
 064260,0.00210149,0.00080983,0.00047795,-0.00002135,0.00000819,-0.0000
 2107,0.00001072,0.00001823,0.00000169,-0.00005927,0.00000283,0.0000037
 3,-0.00018791,-0.00019939,0.00002249,-0.00007177,0.00003262,-0.0000024
 1,-0.00020503,-0.00110544,-0.00126985,-0.00275589,-0.00067018,0.001916
 96,-0.00394621,0.00381309,0.00271342,-0.09081120,0.11151515,0.12968101
 ,0.00000311,0.00005954,0.00006362,0.00018304,-0.00032867,0.00007474,-0
 .00028518,0.00076428,0.00021641,0.00115251,-0.00101759,0.00052953,0.00
 061179,0.00195210,-0.00074259,-0.00705759,0.00431002,0.00167012,-0.014
 63189,0.01679157,-0.00066910,-0.15786286,0.13354924,0.00172156,0.01256
 678,-0.01862010,-0.00181302,0.00001561,-0.00002518,0.00000681,-0.00000
 568,-0.00001385,0.00001285,0.00001870,0.00000079,0.00000436,0.00015507
 ,0.00003186,0.00006347,-0.00009269,-0.00006290,-0.00010804,-0.00009292
 ,-0.00038080,-0.00050357,-0.00116480,-0.00055915,0.00055586,0.00161752
 ,0.00012923,0.00153317,-0.00316780,0.00010866,-0.00238880,0.16735905,0
 .00000800,-0.00006317,0.00001609,-0.00012779,0.00003179,-0.00008698,-0
 .00001518,0.00014022,0.00001835,-0.00010115,0.00074247,-0.00022357,-0.
 00094120,-0.00067131,-0.00106400,0.00464888,-0.00288241,-0.00001280,-0
 .00528864,0.00742137,0.00283961,0.13361935,-0.20580428,-0.00906323,0.0
 0625282,-0.03145567,-0.00816744,-0.00000034,0.00000860,-0.00000370,0.0
 0000888,0.00000970,-0.00000158,-0.00001200,0.00000413,-0.00000096,-0.0
 0004187,-0.00005286,-0.00003949,0.00010433,0.00011768,0.00012541,0.000
 11799,0.00008591,0.00026537,0.00030569,0.00006663,-0.00000967,0.000658
 75,0.00061544,0.00060655,-0.00233442,0.00035728,-0.00073951,-0.1370965
 3,0.23173780,-0.00003864,0.00014066,-0.00003280,0.00022295,-0.00005334
 ,0.00022397,0.00010002,0.00001308,0.00024887,0.00036758,-0.00111277,-0
 .00024059,0.00191680,0.00193721,0.00199726,-0.01754634,0.02211487,0.00
 063000,0.01051226,-0.01310485,-0.00214845,0.00432092,-0.00902290,-0.04
 248140,0.00392428,-0.01445199,0.00013902,0.00000749,-0.00002390,0.0000
 1054,-0.00001908,-0.00002921,0.00000545,0.00001772,-0.00000756,0.00000
 109,0.00007022,0.00004030,-0.00001048,-0.00018988,-0.00019243,-0.00003
 126,0.00003571,-0.00000381,-0.00040690,-0.00464664,-0.00000238,-0.0013
 1633,-0.00203037,0.00004603,0.00037847,0.00317596,0.00002762,0.0007422
 5,-0.00103689,0.01439418,0.04222060,0.00003359,-0.00000233,0.00000160,
 -0.00006976,-0.00013086,0.00002000,0.00018640,-0.00002574,-0.00043887,
 -0.00003187,-0.00003762,0.00017765,-0.00162143,-0.00022248,0.00010716,
 -0.00121577,-0.00412587,-0.00292167,0.00140863,0.00235098,-0.00098238,
 -0.00544736,-0.00042458,-0.02076361,-0.01769564,-0.00934064,-0.0555205
 4,0.00000047,0.00000453,0.00000905,0.00000370,0.00000670,-0.00000285,-
 0.00000978,-0.00000527,-0.00000135,-0.00006437,0.00002375,-0.00000120,
 0.00002026,-0.00000980,0.00005043,0.00001641,0.00008950,0.00013002,0.0
 0075892,-0.00016305,0.00032523,0.00068507,0.00018775,0.00039851,-0.001
 11610,0.00003824,0.00009951,0.00067821,0.00023442,0.00083593,0.0234804
 3,0.00000685,-0.00001273,0.00002020,-0.00005546,-0.00021898,-0.0000484
 2,0.00002114,0.00027665,-0.00043323,0.00031441,0.00003968,0.00030771,-
 0.00158892,-0.00011517,-0.00049947,0.00084408,-0.00467427,-0.00091636,
 -0.00031746,0.00180775,0.00158909,-0.01155602,-0.00453666,-0.04404658,
 0.00027782,-0.04358494,0.08752087,0.00000154,0.00000127,0.00000544,-0.
 00000023,0.00000696,0.00000354,0.00000241,0.00000222,-0.00000483,-0.00
 001139,-0.00000515,0.00001594,-0.00001970,0.00000900,-0.00002453,0.000
 02337,0.00003515,0.00003578,0.00014081,0.00015025,0.00016053,0.0003301
 2,-0.00012901,-0.00009516,-0.00037321,0.00018490,0.00019202,0.00040747
 ,-0.00040932,-0.00070881,0.01155236,0.05117241,0.00001800,-0.00000244,
 0.00002104,-0.00001495,-0.00013761,-0.00001247,0.00010620,0.00024994,-
 0.00021676,0.00020300,-0.00010661,0.00021429,-0.00104739,-0.00017347,-
 0.00007405,0.00146505,-0.00378174,0.00168781,-0.00175029,0.00256000,0.
 00154635,-0.00235682,0.00290696,-0.01574633,-0.07658922,0.04096176,-0.
 49158802,-0.00000057,-0.00000140,0.00000175,-0.00000008,0.00001007,0.0
 0000180,-0.00000014,-0.00000113,-0.00000293,-0.00001604,-0.00000694,0.
 00001763,-0.00003003,-0.00000062,-0.00001177,0.00005021,0.00000855,0.0
 0004495,0.00081650,-0.00004505,0.00032090,0.00054029,0.00007997,0.0004
 3891,-0.00068060,-0.00059388,-0.00007749,0.00080952,0.00114736,0.00007
 069,0.07847738,-0.04307373,0.50336370\\-0.00003185,0.00004249,-0.00003
 112,0.00001334,-0.00000951,0.00002190,-0.00000524,0.00001147,0.0000288
 5,0.00001209,0.00005402,-0.00001986,-0.00001622,-0.00008462,-0.0000511
 4,0.00000769,0.00002088,0.00007958,0.00004651,-0.00008248,-0.00007622,
 -0.00003388,0.00008166,-0.00000932,-0.00001168,-0.00004318,0.00000659,
 0.00000233,-0.00000611,-0.00000016,0.00000229,-0.00001150,-0.00000042,
 0.00001093,-0.00000641,0.00000352,-0.00000456,-0.00000290,-0.00000292,
 0.00000363,-0.00001258,0.00001752,0.00001342,0.00002320,0.00001096,-0.
 00000353,-0.00001597,-0.00000956,-0.00001789,0.00002563,0.00002322,0.0
 0000034,0.00002876,0.00000775,0.00001006,-0.00002736,0.00000335,0.0000
 0221,0.00001452,-0.00000254\\\@


          EVOLUTION
 IN THE BEGINNING GOD MADE MAN.
 HE WORKED THE DIRT WITH HIS HANDS.
 THEN GOD DECIDED TO GIVE MAN SCIENCE,
 MAN SHOULD BE USEFUL (LIKE AN APPLIANCE.)
 BUT SOON MAN'S KNOWLEDGE GREW TOO GREAT,
 TO THE HEADING SCIENCE HE COULDN'T RELATE
 SO GOD SAID "LETS HAVE DIFFERENT FIELDS,
 WE'LL DIVIDE THEM UP, SEE WHAT IT YIELDS."
 ENTER PHYSICS, CHEMISTRY, BIO
 THEY SPRANG UP AROUND THE NILE.
 BUT CHEMISTRY SURPASSED THE REST
 FAR AND AWAY IT WAS THE BEST.
 EXPERIMENT WAS GOD'S DECREE
 EXPERIMENT DID CHEMISTS WITH LOTS OF GLEE
 BUT SOON THEIR TESTS BEGAN TO BOG,
 THEY FOUND THEMSELVES DEEP IN A FOG.
 "GIVE US SOME HELP" THEY CRIED TO GOD.
 GOD LOOKED AROUND, THEN GAVE THE NOD.
 ENTER EINSTEIN, HEISENBERG, BOHR,
 REACTION PATHS WERE CLEAR ONCE MORE.
 WITH THEORISTS GOD SEND DIRECTION
 AND THEN HE STOPPED, HE'D MADE PERFECTION.
          -- THOMAS A. HOLME, 1981
 Job cpu time:       0 days  1 hours 41 minutes 33.6 seconds.
 Elapsed time:       0 days  0 hours 25 minutes 24.7 seconds.
 File lengths (MBytes):  RWF=    148 Int=      0 D2E=      0 Chk=      9 Scr=      1
 Normal termination of Gaussian 16 at Thu Aug  4 01:31:47 2022.
### All Done ###
