### Starting Gaussian ###
 Entering Gaussian System, Link 0=g16
 Initial command:
 /cluster/software/gaussian/gaussian-16-A.03/avx2/g16/l1.exe "/local/scratch/ks29c/Gau-17173.inp" -scrdir="/local/scratch/ks29c/"
 Entering Link 1 = /cluster/software/gaussian/gaussian-16-A.03/avx2/g16/l1.exe PID=     17174.
  
 Copyright (c) 1988,1990,1992,1993,1995,1998,2003,2009,2016,
            Gaussian, Inc.  All Rights Reserved.
  
 This is part of the Gaussian(R) 16 program.  It is based on
 the Gaussian(R) 09 system (copyright 2009, Gaussian, Inc.),
 the Gaussian(R) 03 system (copyright 2003, Gaussian, Inc.),
 the Gaussian(R) 98 system (copyright 1998, Gaussian, Inc.),
 the Gaussian(R) 94 system (copyright 1995, Gaussian, Inc.),
 the Gaussian 92(TM) system (copyright 1992, Gaussian, Inc.),
 the Gaussian 90(TM) system (copyright 1990, Gaussian, Inc.),
 the Gaussian 88(TM) system (copyright 1988, Gaussian, Inc.),
 the Gaussian 86(TM) system (copyright 1986, Carnegie Mellon
 University), and the Gaussian 82(TM) system (copyright 1983,
 Carnegie Mellon University). Gaussian is a federally registered
 trademark of Gaussian, Inc.
  
 This software contains proprietary and confidential information,
 including trade secrets, belonging to Gaussian, Inc.
  
 This software is provided under written license and may be
 used, copied, transmitted, or stored only in accord with that
 written license.
  
 The following legend is applicable only to US Government
 contracts under FAR:
  
                    RESTRICTED RIGHTS LEGEND
  
 Use, reproduction and disclosure by the US Government is
 subject to restrictions as set forth in subparagraphs (a)
 and (c) of the Commercial Computer Software - Restricted
 Rights clause in FAR 52.227-19.
  
 Gaussian, Inc.
 340 Quinnipiac St., Bldg. 40, Wallingford CT 06492
  
  
 ---------------------------------------------------------------
 Warning -- This program may not be used in any manner that
 competes with the business of Gaussian, Inc. or will provide
 assistance to any competitor of Gaussian, Inc.  The licensee
 of this program is prohibited from giving any competitor of
 Gaussian, Inc. access to this program.  By using this program,
 the user acknowledges that Gaussian, Inc. is engaged in the
 business of creating and licensing software in the field of
 computational chemistry and represents and warrants to the
 licensee that it is not a competitor of Gaussian, Inc. and that
 it will not use this program in any manner prohibited above.
 ---------------------------------------------------------------
  

 Cite this work as:
 Gaussian 16, Revision A.03,
 M. J. Frisch, G. W. Trucks, H. B. Schlegel, G. E. Scuseria, 
 M. A. Robb, J. R. Cheeseman, G. Scalmani, V. Barone, 
 G. A. Petersson, H. Nakatsuji, X. Li, M. Caricato, A. V. Marenich, 
 J. Bloino, B. G. Janesko, R. Gomperts, B. Mennucci, H. P. Hratchian, 
 J. V. Ortiz, A. F. Izmaylov, J. L. Sonnenberg, D. Williams-Young, 
 F. Ding, F. Lipparini, F. Egidi, J. Goings, B. Peng, A. Petrone, 
 T. Henderson, D. Ranasinghe, V. G. Zakrzewski, J. Gao, N. Rega, 
 G. Zheng, W. Liang, M. Hada, M. Ehara, K. Toyota, R. Fukuda, 
 J. Hasegawa, M. Ishida, T. Nakajima, Y. Honda, O. Kitao, H. Nakai, 
 T. Vreven, K. Throssell, J. A. Montgomery, Jr., J. E. Peralta, 
 F. Ogliaro, M. J. Bearpark, J. J. Heyd, E. N. Brothers, K. N. Kudin, 
 V. N. Staroverov, T. A. Keith, R. Kobayashi, J. Normand, 
 K. Raghavachari, A. P. Rendell, J. C. Burant, S. S. Iyengar, 
 J. Tomasi, M. Cossi, J. M. Millam, M. Klene, C. Adamo, R. Cammi, 
 J. W. Ochterski, R. L. Martin, K. Morokuma, O. Farkas, 
 J. B. Foresman, and D. J. Fox, Gaussian, Inc., Wallingford CT, 2016.
 
 ******************************************
 Gaussian 16:  ES64L-G16RevA.03 25-Dec-2016
                 3-Jul-2022 
 ******************************************
 %chk=COCCCCCpCpdN.chk
 %NProcShared=20
 Will use up to   20 processors via shared memory.
 -----------------------------
 # opt freq b3lyp/6-31g(2df,p)
 -----------------------------
 1/18=20,19=15,26=3,38=1/1,3;
 2/9=110,12=2,17=6,18=5,40=1/2;
 3/5=1,6=6,7=104,11=2,25=1,30=1,71=1,74=-5/1,2,3;
 4//1;
 5/5=2,38=5/2;
 6/7=2,8=2,9=2,10=2,28=1/1;
 7//1,2,3,16;
 1/18=20,19=15,26=3/3(2);
 2/9=110/2;
 99//99;
 2/9=110/2;
 3/5=1,6=6,7=104,11=2,25=1,30=1,71=1,74=-5/1,2,3;
 4/5=5,16=3,69=1/1;
 5/5=2,38=5/2;
 7//1,2,3,16;
 1/18=20,19=15,26=3/3(-5);
 2/9=110/2;
 6/7=2,8=2,9=2,10=2,19=2,28=1/1;
 99/9=1/99;
 -------------------
 Title Card Required
 -------------------
 Symbolic Z-matrix:
 Charge =  0 Multiplicity = 1
 C                     0.87578   0.0184    0.0072 
 O                     2.29721   0.01154   0.00141 
 C                     2.78693  -1.00822  -0.85893 
 C                     4.30904  -0.98527  -0.83956 
 C                     4.82919  -2.07455  -1.75854 
 C                     6.3449   -2.14567  -1.81854 
 C                     6.85481  -3.23961  -2.74146 
 C                     5.91521  -4.14264  -3.5033 
 N                     8.12935  -3.42407  -2.89708 
 H                     0.53659   0.81165   0.67643 
 H                     0.49373  -0.94049   0.37132 
 H                     0.49373   0.21586  -0.99931 
 H                     2.42147  -0.83546  -1.87886 
 H                     2.42147  -1.98451  -0.51688 
 H                     4.67302  -1.136     0.18329 
 H                     4.67302  -0.00241  -1.16037 
 H                     4.43475  -1.89665  -2.7672 
 H                     4.43475  -3.03885  -1.41334 
 H                     6.75276  -2.32848  -0.81693 
 H                     6.75276  -1.18914  -2.1674 
 H                     4.86121  -3.93349  -3.32686 
 H                     6.09898  -5.17861  -3.2083 
 H                     6.09898  -4.02629  -4.57416 
 H                     8.67221  -2.75983  -2.33668 
 

 GradGradGradGradGradGradGradGradGradGradGradGradGradGradGradGradGradGrad
 Berny optimization.
 Initialization pass.
                           ----------------------------
                           !    Initial Parameters    !
                           ! (Angstroms and Degrees)  !
 --------------------------                            --------------------------
 ! Name  Definition              Value          Derivative Info.                !
 --------------------------------------------------------------------------------
 ! R1    R(1,2)                  1.4215         estimate D2E/DX2                !
 ! R2    R(1,10)                 1.0919         estimate D2E/DX2                !
 ! R3    R(1,11)                 1.0945         estimate D2E/DX2                !
 ! R4    R(1,12)                 1.0945         estimate D2E/DX2                !
 ! R5    R(2,3)                  1.4212         estimate D2E/DX2                !
 ! R6    R(3,4)                  1.5224         estimate D2E/DX2                !
 ! R7    R(3,13)                 1.0971         estimate D2E/DX2                !
 ! R8    R(3,14)                 1.0971         estimate D2E/DX2                !
 ! R9    R(4,5)                  1.5171         estimate D2E/DX2                !
 ! R10   R(4,15)                 1.0961         estimate D2E/DX2                !
 ! R11   R(4,16)                 1.0961         estimate D2E/DX2                !
 ! R12   R(5,6)                  1.5186         estimate D2E/DX2                !
 ! R13   R(5,17)                 1.0976         estimate D2E/DX2                !
 ! R14   R(5,18)                 1.0976         estimate D2E/DX2                !
 ! R15   R(6,7)                  1.5194         estimate D2E/DX2                !
 ! R16   R(6,19)                 1.0968         estimate D2E/DX2                !
 ! R17   R(6,20)                 1.0968         estimate D2E/DX2                !
 ! R18   R(7,8)                  1.5095         estimate D2E/DX2                !
 ! R19   R(7,9)                  1.2972         estimate D2E/DX2                !
 ! R20   R(8,21)                 1.0889         estimate D2E/DX2                !
 ! R21   R(8,22)                 1.0927         estimate D2E/DX2                !
 ! R22   R(8,23)                 1.0927         estimate D2E/DX2                !
 ! R23   R(9,24)                 1.0247         estimate D2E/DX2                !
 ! A1    A(2,1,10)             108.4604         estimate D2E/DX2                !
 ! A2    A(2,1,11)             110.2533         estimate D2E/DX2                !
 ! A3    A(2,1,12)             110.2532         estimate D2E/DX2                !
 ! A4    A(10,1,11)            108.9133         estimate D2E/DX2                !
 ! A5    A(10,1,12)            108.9129         estimate D2E/DX2                !
 ! A6    A(11,1,12)            110.0064         estimate D2E/DX2                !
 ! A7    A(1,2,3)              110.5175         estimate D2E/DX2                !
 ! A8    A(2,3,4)              109.0254         estimate D2E/DX2                !
 ! A9    A(2,3,13)             109.572          estimate D2E/DX2                !
 ! A10   A(2,3,14)             109.5713         estimate D2E/DX2                !
 ! A11   A(4,3,13)             110.0292         estimate D2E/DX2                !
 ! A12   A(4,3,14)             110.0285         estimate D2E/DX2                !
 ! A13   A(13,3,14)            108.6022         estimate D2E/DX2                !
 ! A14   A(3,4,5)              108.9207         estimate D2E/DX2                !
 ! A15   A(3,4,15)             109.9869         estimate D2E/DX2                !
 ! A16   A(3,4,16)             109.9866         estimate D2E/DX2                !
 ! A17   A(5,4,15)             110.6513         estimate D2E/DX2                !
 ! A18   A(5,4,16)             110.6514         estimate D2E/DX2                !
 ! A19   A(15,4,16)            106.6286         estimate D2E/DX2                !
 ! A20   A(4,5,6)              113.564          estimate D2E/DX2                !
 ! A21   A(4,5,17)             108.487          estimate D2E/DX2                !
 ! A22   A(4,5,18)             108.4872         estimate D2E/DX2                !
 ! A23   A(6,5,17)             109.2679         estimate D2E/DX2                !
 ! A24   A(6,5,18)             109.2679         estimate D2E/DX2                !
 ! A25   A(17,5,18)            107.5957         estimate D2E/DX2                !
 ! A26   A(5,6,7)              113.1223         estimate D2E/DX2                !
 ! A27   A(5,6,19)             110.0528         estimate D2E/DX2                !
 ! A28   A(5,6,20)             110.0526         estimate D2E/DX2                !
 ! A29   A(7,6,19)             108.0537         estimate D2E/DX2                !
 ! A30   A(7,6,20)             108.0534         estimate D2E/DX2                !
 ! A31   A(19,6,20)            107.3097         estimate D2E/DX2                !
 ! A32   A(6,7,8)              121.896          estimate D2E/DX2                !
 ! A33   A(6,7,9)              120.3315         estimate D2E/DX2                !
 ! A34   A(8,7,9)              117.7725         estimate D2E/DX2                !
 ! A35   A(7,8,21)             113.9412         estimate D2E/DX2                !
 ! A36   A(7,8,22)             109.0395         estimate D2E/DX2                !
 ! A37   A(7,8,23)             109.0388         estimate D2E/DX2                !
 ! A38   A(21,8,22)            107.5256         estimate D2E/DX2                !
 ! A39   A(21,8,23)            107.5246         estimate D2E/DX2                !
 ! A40   A(22,8,23)            109.7083         estimate D2E/DX2                !
 ! A41   A(7,9,24)             111.269          estimate D2E/DX2                !
 ! D1    D(10,1,2,3)          -179.9996         estimate D2E/DX2                !
 ! D2    D(11,1,2,3)            60.8294         estimate D2E/DX2                !
 ! D3    D(12,1,2,3)           -60.829          estimate D2E/DX2                !
 ! D4    D(1,2,3,4)           -179.9997         estimate D2E/DX2                !
 ! D5    D(1,2,3,13)            59.5293         estimate D2E/DX2                !
 ! D6    D(1,2,3,14)           -59.53           estimate D2E/DX2                !
 ! D7    D(2,3,4,5)            179.9996         estimate D2E/DX2                !
 ! D8    D(2,3,4,15)            58.5741         estimate D2E/DX2                !
 ! D9    D(2,3,4,16)           -58.5749         estimate D2E/DX2                !
 ! D10   D(13,3,4,5)           -59.8107         estimate D2E/DX2                !
 ! D11   D(13,3,4,15)          178.7637         estimate D2E/DX2                !
 ! D12   D(13,3,4,16)           61.6147         estimate D2E/DX2                !
 ! D13   D(14,3,4,5)            59.8113         estimate D2E/DX2                !
 ! D14   D(14,3,4,15)          -61.6142         estimate D2E/DX2                !
 ! D15   D(14,3,4,16)         -178.7632         estimate D2E/DX2                !
 ! D16   D(3,4,5,6)            179.9998         estimate D2E/DX2                !
 ! D17   D(3,4,5,17)            58.3037         estimate D2E/DX2                !
 ! D18   D(3,4,5,18)           -58.3039         estimate D2E/DX2                !
 ! D19   D(15,4,5,6)           -58.9805         estimate D2E/DX2                !
 ! D20   D(15,4,5,17)          179.3234         estimate D2E/DX2                !
 ! D21   D(15,4,5,18)           62.7158         estimate D2E/DX2                !
 ! D22   D(16,4,5,6)            58.9804         estimate D2E/DX2                !
 ! D23   D(16,4,5,17)          -62.7157         estimate D2E/DX2                !
 ! D24   D(16,4,5,18)         -179.3233         estimate D2E/DX2                !
 ! D25   D(4,5,6,7)           -179.9997         estimate D2E/DX2                !
 ! D26   D(4,5,6,19)            59.0305         estimate D2E/DX2                !
 ! D27   D(4,5,6,20)           -59.0305         estimate D2E/DX2                !
 ! D28   D(17,5,6,7)           -58.7397         estimate D2E/DX2                !
 ! D29   D(17,5,6,19)         -179.7095         estimate D2E/DX2                !
 ! D30   D(17,5,6,20)           62.2295         estimate D2E/DX2                !
 ! D31   D(18,5,6,7)            58.74           estimate D2E/DX2                !
 ! D32   D(18,5,6,19)          -62.2297         estimate D2E/DX2                !
 ! D33   D(18,5,6,20)          179.7092         estimate D2E/DX2                !
 ! D34   D(5,6,7,8)             -0.0006         estimate D2E/DX2                !
 ! D35   D(5,6,7,9)           -179.9999         estimate D2E/DX2                !
 ! D36   D(19,6,7,8)           122.0945         estimate D2E/DX2                !
 ! D37   D(19,6,7,9)           -57.9049         estimate D2E/DX2                !
 ! D38   D(20,6,7,8)          -122.0952         estimate D2E/DX2                !
 ! D39   D(20,6,7,9)            57.9054         estimate D2E/DX2                !
 ! D40   D(6,7,8,21)             0.001          estimate D2E/DX2                !
 ! D41   D(6,7,8,22)          -120.1161         estimate D2E/DX2                !
 ! D42   D(6,7,8,23)           120.1165         estimate D2E/DX2                !
 ! D43   D(9,7,8,21)          -179.9996         estimate D2E/DX2                !
 ! D44   D(9,7,8,22)            59.8833         estimate D2E/DX2                !
 ! D45   D(9,7,8,23)           -59.8841         estimate D2E/DX2                !
 ! D46   D(6,7,9,24)             0.0001         estimate D2E/DX2                !
 ! D47   D(8,7,9,24)          -179.9993         estimate D2E/DX2                !
 --------------------------------------------------------------------------------
 Trust Radius=3.00D-01 FncErr=1.00D-07 GrdErr=1.00D-06 EigMax=2.50D+02 EigMin=1.00D-04
 Number of steps in this run=    121 maximum allowed number of steps=    144.
 GradGradGradGradGradGradGradGradGradGradGradGradGradGradGradGradGradGrad

                          Input orientation:                          
 ---------------------------------------------------------------------
 Center     Atomic      Atomic             Coordinates (Angstroms)
 Number     Number       Type             X           Y           Z
 ---------------------------------------------------------------------
      1          6           0        0.875780    0.018400    0.007200
      2          8           0        2.297210    0.011540    0.001410
      3          6           0        2.786930   -1.008220   -0.858930
      4          6           0        4.309040   -0.985270   -0.839560
      5          6           0        4.829190   -2.074550   -1.758540
      6          6           0        6.344900   -2.145670   -1.818540
      7          6           0        6.854810   -3.239610   -2.741460
      8          6           0        5.915210   -4.142640   -3.503300
      9          7           0        8.129350   -3.424070   -2.897080
     10          1           0        0.536590    0.811650    0.676430
     11          1           0        0.493730   -0.940490    0.371320
     12          1           0        0.493730    0.215860   -0.999310
     13          1           0        2.421470   -0.835460   -1.878860
     14          1           0        2.421470   -1.984510   -0.516880
     15          1           0        4.673020   -1.136000    0.183290
     16          1           0        4.673020   -0.002410   -1.160370
     17          1           0        4.434750   -1.896650   -2.767200
     18          1           0        4.434750   -3.038850   -1.413340
     19          1           0        6.752760   -2.328480   -0.816930
     20          1           0        6.752760   -1.189140   -2.167400
     21          1           0        4.861210   -3.933490   -3.326860
     22          1           0        6.098980   -5.178610   -3.208300
     23          1           0        6.098980   -4.026290   -4.574160
     24          1           0        8.672210   -2.759830   -2.336680
 ---------------------------------------------------------------------
                    Distance matrix (angstroms):
                    1          2          3          4          5
     1  C    0.000000
     2  O    1.421458   0.000000
     3  C    2.335942   1.421239   0.000000
     4  C    3.675817   2.397566   1.522406   0.000000
     5  C    4.809130   3.722918   2.473294   1.517106   0.000000
     6  C    6.158555   4.934528   3.856656   2.539617   1.518563
     7  C    7.342926   6.234182   5.007062   3.896180   2.535080
     8  C    7.418471   6.529175   5.157850   4.432187   2.915583
     9  N    8.538133   7.363322   6.207402   4.977540   3.742798
    10  H    1.091863   2.048319   3.276170   4.445056   5.717136
    11  H    1.094539   2.072615   2.603242   4.003102   4.961714
    12  H    1.094539   2.072614   2.603237   4.003102   4.961716
    13  H    2.583691   2.065978   1.097116   2.159979   2.710523
    14  H    2.583692   2.065982   1.097133   2.159982   2.710524
    15  H    3.972742   2.644693   2.158677   1.096094   2.162399
    16  H    3.972743   2.644693   2.158670   1.096090   2.162397
    17  H    4.902140   3.984403   2.673221   2.135934   1.097555
    18  H    4.902140   3.984404   2.673226   2.135935   1.097552
    19  H    6.381687   5.098755   4.180031   2.788636   2.156671
    20  H    6.381687   5.098754   4.180028   2.788636   2.156673
    21  H    6.528173   5.763223   4.353220   3.896608   2.432347
    22  H    8.039289   7.189809   5.820770   5.137987   3.653677
    23  H    8.039291   7.189810   5.820769   5.137988   3.653679
    24  H    8.602131   7.334015   6.315727   4.942437   3.946221
                    6          7          8          9         10
     6  C    0.000000
     7  C    1.519373   0.000000
     8  C    2.647818   1.509540   0.000000
     9  N    2.445775   1.297187   2.405465   0.000000
    10  H    6.979046   8.247095   8.422867   9.400069   0.000000
    11  H    6.362715   7.445716   7.393165   8.669100   1.779023
    12  H    6.362716   7.445717   7.393168   8.669101   1.779019
    13  H    4.136858   5.116495   5.077644   6.349612   3.577045
    14  H    4.136858   5.116496   5.077642   6.349613   3.577048
    15  H    2.796773   4.211834   4.916693   5.164316   4.598541
    16  H    2.796772   4.211831   4.916692   5.164314   4.598541
    17  H    2.147240   2.767832   2.788920   3.999994   5.864224
    18  H    2.147238   2.767833   2.788915   3.999993   5.864225
    19  H    1.096810   2.131757   3.348022   2.724397   7.122592
    20  H    1.096815   2.131757   3.348026   2.724398   7.122591
    21  H    2.769958   2.190572   1.088940   3.335410   7.566044
    22  H    3.345241   2.132824   1.092717   2.701420   9.050664
    23  H    3.345243   2.132823   1.092726   2.701420   9.050665
    24  H    2.462120   1.922753   3.297607   1.024676   9.382037
                   11         12         13         14         15
    11  H    0.000000
    12  H    1.793257   0.000000
    13  H    2.964882   2.365389   0.000000
    14  H    2.365388   2.964886   1.781939   0.000000
    15  H    4.188084   4.548905   3.067941   2.505930   0.000000
    16  H    4.548905   4.188084   2.505928   3.067943   1.757967
    17  H    5.127981   4.808302   2.443065   3.020754   3.056264
    18  H    4.808302   5.127982   3.020750   2.443066   2.495363
    19  H    6.520269   6.758875   4.702858   4.355275   2.597646
    20  H    6.758874   6.520270   4.355275   4.702861   3.139090
    21  H    6.458287   6.458287   4.200812   4.200814   4.492496
    22  H    7.886328   8.086951   5.844180   5.565078   5.466163
    23  H    8.086950   7.886331   5.565080   5.844182   5.746344
    24  H    8.805157   8.805159   6.556260   6.556260   4.998059
                   16         17         18         19         20
    16  H    0.000000
    17  H    2.495360   0.000000
    18  H    3.056261   1.771315   0.000000
    19  H    3.139088   3.059935   2.496698   0.000000
    20  H    2.597644   2.496698   3.059935   1.766880   0.000000
    21  H    4.492492   2.154949   2.154950   3.528990   3.528989
    22  H    5.746340   3.706142   3.251171   3.777475   4.174539
    23  H    5.466163   3.251174   3.706141   4.174538   3.777478
    24  H    4.998059   4.345859   4.345857   2.485959   2.485963
                   21         22         23         24
    21  H    0.000000
    22  H    1.759675   0.000000
    23  H    1.759671   1.787013   0.000000
    24  H    4.108729   3.637545   3.637547   0.000000
 Stoichiometry    C7H15NO
 Framework group  C1[X(C7H15NO)]
 Deg. of freedom    66
 Full point group                 C1      NOp   1
 Largest Abelian subgroup         C1      NOp   1
 Largest concise Abelian subgroup C1      NOp   1
                         Standard orientation:                         
 ---------------------------------------------------------------------
 Center     Atomic      Atomic             Coordinates (Angstroms)
 Number     Number       Type             X           Y           Z
 ---------------------------------------------------------------------
      1          6           0        4.432134    0.414485    0.000002
      2          8           0        3.318013   -0.468281    0.000001
      3          6           0        2.100939    0.265649   -0.000007
      4          6           0        0.932720   -0.710561    0.000000
      5          6           0       -0.365015    0.075247    0.000001
      6          6           0       -1.605288   -0.800971    0.000003
      7          6           0       -2.898857   -0.003994   -0.000003
      8          6           0       -2.905668    1.505531    0.000004
      9          7           0       -4.043876   -0.613607   -0.000001
     10          1           0        5.346305   -0.182555   -0.000000
     11          1           0        4.418277    1.042086    0.896629
     12          1           0        4.418279    1.042082   -0.896628
     13          1           0        2.056912    0.904332   -0.890967
     14          1           0        2.056911    0.904334    0.890972
     15          1           0        0.989620   -1.362917    0.878986
     16          1           0        0.989619   -1.362917   -0.878981
     17          1           0       -0.379434    0.723340   -0.885659
     18          1           0       -0.379435    0.723343    0.885656
     19          1           0       -1.606529   -1.450993    0.883441
     20          1           0       -1.606528   -1.450996   -0.883439
     21          1           0       -1.912421    1.951906   -0.000005
     22          1           0       -3.425557    1.859650    0.893505
     23          1           0       -3.425558    1.859650   -0.893508
     24          1           0       -3.923224   -1.631155    0.000005
 ---------------------------------------------------------------------
 Rotational constants (GHZ):           5.7071832           0.4699697           0.4414513
 Standard basis: 6-31G(2df,p) (6D, 7F)
 There are   354 symmetry adapted cartesian basis functions of A   symmetry.
 There are   327 symmetry adapted basis functions of A   symmetry.
   327 basis functions,   501 primitive gaussians,   354 cartesian basis functions
    36 alpha electrons       36 beta electrons
       nuclear repulsion energy       445.0104450149 Hartrees.
 NAtoms=   24 NActive=   24 NUniq=   24 SFac= 1.00D+00 NAtFMM=   60 NAOKFM=F Big=F
 Integral buffers will be    131072 words long.
 Raffenetti 2 integral format.
 Two-electron integral symmetry is turned on.
 One-electron integrals computed using PRISM.
 PrsmSu:  requested number of processors reduced to:  13 ShMem   1 Linda.
 NBasis=   327 RedAO= T EigKep=  3.61D-04  NBF=   327
 NBsUse=   327 1.00D-06 EigRej= -1.00D+00 NBFU=   327
 ExpMin= 1.61D-01 ExpMax= 5.48D+03 ExpMxC= 8.25D+02 IAcc=3 IRadAn=         5 AccDes= 0.00D+00
 Harris functional with IExCor=  402 and IRadAn=       5 diagonalized for initial guess.
 HarFok:  IExCor=  402 AccDes= 0.00D+00 IRadAn=         5 IDoV= 1 UseB2=F ITyADJ=14
 ICtDFT=  3500011 ScaDFX=  1.000000  1.000000  1.000000  1.000000
 FoFCou: FMM=F IPFlag=           0 FMFlag=      100000 FMFlg1=           0
         NFxFlg=           0 DoJE=T BraDBF=F KetDBF=T FulRan=T
         wScrn=  0.000000 ICntrl=       500 IOpCl=  0 I1Cent=   200000004 NGrid=           0
         NMat0=    1 NMatS0=      1 NMatT0=    0 NMatD0=    1 NMtDS0=    0 NMtDT0=    0
 Petite list used in FoFCou.
 Requested convergence on RMS density matrix=1.00D-08 within 128 cycles.
 Requested convergence on MAX density matrix=1.00D-06.
 Requested convergence on             energy=1.00D-06.
 No special actions if energy rises.
 Integral accuracy reduced to 1.0D-05 until final iterations.
 Initial convergence to 1.0D-05 achieved.  Increase integral accuracy.
 SCF Done:  E(RB3LYP) =  -405.750812827     A.U. after   13 cycles
            NFock= 13  Conv=0.54D-08     -V/T= 2.0079

 **********************************************************************

            Population analysis using the SCF density.

 **********************************************************************

 Orbital symmetries:
       Occupied  (A) (A) (A) (A) (A) (A) (A) (A) (A) (A) (A) (A)
                 (A) (A) (A) (A) (A) (A) (A) (A) (A) (A) (A) (A)
                 (A) (A) (A) (A) (A) (A) (A) (A) (A) (A) (A) (A)
       Virtual   (A) (A) (A) (A) (A) (A) (A) (A) (A) (A) (A) (A)
                 (A) (A) (A) (A) (A) (A) (A) (A) (A) (A) (A) (A)
                 (A) (A) (A) (A) (A) (A) (A) (A) (A) (A) (A) (A)
                 (A) (A) (A) (A) (A) (A) (A) (A) (A) (A) (A) (A)
                 (A) (A) (A) (A) (A) (A) (A) (A) (A) (A) (A) (A)
                 (A) (A) (A) (A) (A) (A) (A) (A) (A) (A) (A) (A)
                 (A) (A) (A) (A) (A) (A) (A) (A) (A) (A) (A) (A)
                 (A) (A) (A) (A) (A) (A) (A) (A) (A) (A) (A) (A)
                 (A) (A) (A) (A) (A) (A) (A) (A) (A) (A) (A) (A)
                 (A) (A) (A) (A) (A) (A) (A) (A) (A) (A) (A) (A)
                 (A) (A) (A) (A) (A) (A) (A) (A) (A) (A) (A) (A)
                 (A) (A) (A) (A) (A) (A) (A) (A) (A) (A) (A) (A)
                 (A) (A) (A) (A) (A) (A) (A) (A) (A) (A) (A) (A)
                 (A) (A) (A) (A) (A) (A) (A) (A) (A) (A) (A) (A)
                 (A) (A) (A) (A) (A) (A) (A) (A) (A) (A) (A) (A)
                 (A) (A) (A) (A) (A) (A) (A) (A) (A) (A) (A) (A)
                 (A) (A) (A) (A) (A) (A) (A) (A) (A) (A) (A) (A)
                 (A) (A) (A) (A) (A) (A) (A) (A) (A) (A) (A) (A)
                 (A) (A) (A) (A) (A) (A) (A) (A) (A) (A) (A) (A)
                 (A) (A) (A) (A) (A) (A) (A) (A) (A) (A) (A) (A)
                 (A) (A) (A) (A) (A) (A) (A) (A) (A) (A) (A) (A)
                 (A) (A) (A) (A) (A) (A) (A) (A) (A) (A) (A) (A)
                 (A) (A) (A) (A) (A) (A) (A) (A) (A) (A) (A) (A)
                 (A) (A) (A) (A) (A) (A) (A) (A) (A) (A) (A) (A)
                 (A) (A) (A)
 The electronic state is 1-A.
 Alpha  occ. eigenvalues --  -19.13665 -14.29658 -10.22900 -10.22615 -10.22262
 Alpha  occ. eigenvalues --  -10.19097 -10.18810 -10.18211 -10.17918  -1.02551
 Alpha  occ. eigenvalues --   -0.88817  -0.80912  -0.74614  -0.71706  -0.67857
 Alpha  occ. eigenvalues --   -0.62381  -0.59205  -0.53669  -0.49766  -0.48081
 Alpha  occ. eigenvalues --   -0.47462  -0.46626  -0.44563  -0.42826  -0.41234
 Alpha  occ. eigenvalues --   -0.40843  -0.38558  -0.37234  -0.36746  -0.35290
 Alpha  occ. eigenvalues --   -0.34111  -0.33867  -0.31727  -0.27587  -0.25458
 Alpha  occ. eigenvalues --   -0.24402
 Alpha virt. eigenvalues --   -0.00063   0.07862   0.08880   0.10784   0.11491
 Alpha virt. eigenvalues --    0.11780   0.13488   0.13816   0.16156   0.16193
 Alpha virt. eigenvalues --    0.16914   0.17715   0.18770   0.19341   0.19402
 Alpha virt. eigenvalues --    0.19564   0.20940   0.21105   0.22289   0.23530
 Alpha virt. eigenvalues --    0.26859   0.30294   0.33042   0.34876   0.42280
 Alpha virt. eigenvalues --    0.44788   0.47729   0.48145   0.49496   0.49770
 Alpha virt. eigenvalues --    0.51570   0.52597   0.54205   0.55044   0.57213
 Alpha virt. eigenvalues --    0.58225   0.58497   0.59695   0.61612   0.61878
 Alpha virt. eigenvalues --    0.63752   0.65639   0.66747   0.67750   0.69990
 Alpha virt. eigenvalues --    0.71567   0.72442   0.72492   0.72743   0.73626
 Alpha virt. eigenvalues --    0.74314   0.74409   0.75664   0.76303   0.77421
 Alpha virt. eigenvalues --    0.77545   0.79040   0.79554   0.80228   0.80362
 Alpha virt. eigenvalues --    0.81599   0.84230   0.86115   0.86804   0.88937
 Alpha virt. eigenvalues --    0.89078   0.92241   0.92641   0.95512   0.95759
 Alpha virt. eigenvalues --    0.97676   1.00929   1.02471   1.08138   1.12239
 Alpha virt. eigenvalues --    1.15005   1.17836   1.19866   1.19938   1.22364
 Alpha virt. eigenvalues --    1.24572   1.25762   1.26069   1.29637   1.31986
 Alpha virt. eigenvalues --    1.34847   1.35366   1.36882   1.37857   1.39731
 Alpha virt. eigenvalues --    1.40992   1.44108   1.44825   1.46184   1.47304
 Alpha virt. eigenvalues --    1.51161   1.55342   1.58904   1.60374   1.64730
 Alpha virt. eigenvalues --    1.64787   1.65962   1.71083   1.73608   1.73905
 Alpha virt. eigenvalues --    1.74059   1.78148   1.78390   1.80645   1.84710
 Alpha virt. eigenvalues --    1.85425   1.85534   1.86952   1.90873   1.92983
 Alpha virt. eigenvalues --    1.93222   1.94482   1.95558   1.98322   2.00587
 Alpha virt. eigenvalues --    2.11934   2.13100   2.16476   2.16831   2.19237
 Alpha virt. eigenvalues --    2.23637   2.29208   2.29625   2.32309   2.33121
 Alpha virt. eigenvalues --    2.34745   2.38908   2.40030   2.42587   2.42680
 Alpha virt. eigenvalues --    2.44120   2.49623   2.50934   2.56051   2.56888
 Alpha virt. eigenvalues --    2.58748   2.68508   2.70683   2.70833   2.73013
 Alpha virt. eigenvalues --    2.74601   2.76212   2.76718   2.77873   2.78851
 Alpha virt. eigenvalues --    2.80105   2.82812   2.85527   2.86117   2.87034
 Alpha virt. eigenvalues --    2.89275   2.90624   2.91734   2.92231   2.93086
 Alpha virt. eigenvalues --    2.93451   2.94376   2.94605   2.95310   3.00650
 Alpha virt. eigenvalues --    3.00761   3.08004   3.09585   3.10298   3.13051
 Alpha virt. eigenvalues --    3.15364   3.18016   3.21088   3.26873   3.29046
 Alpha virt. eigenvalues --    3.29937   3.30398   3.30743   3.33511   3.38641
 Alpha virt. eigenvalues --    3.40482   3.41982   3.44706   3.45890   3.46078
 Alpha virt. eigenvalues --    3.48513   3.50274   3.54583   3.56898   3.58892
 Alpha virt. eigenvalues --    3.60800   3.65294   3.65299   3.66639   3.69157
 Alpha virt. eigenvalues --    3.69833   3.72167   3.75322   3.75909   3.77869
 Alpha virt. eigenvalues --    3.81479   3.84173   3.86865   3.89427   3.92508
 Alpha virt. eigenvalues --    3.95692   3.96548   3.96616   3.99698   4.04963
 Alpha virt. eigenvalues --    4.09262   4.10326   4.19618   4.25952   4.31172
 Alpha virt. eigenvalues --    4.31808   4.34234   4.36554   4.37832   4.38105
 Alpha virt. eigenvalues --    4.41312   4.41697   4.43294   4.44186   4.45314
 Alpha virt. eigenvalues --    4.47361   4.48656   4.49555   4.50955   4.53288
 Alpha virt. eigenvalues --    4.54373   4.54443   4.56480   4.57235   4.60046
 Alpha virt. eigenvalues --    4.61343   4.61973   4.62473   4.66083   4.66115
 Alpha virt. eigenvalues --    4.67163   4.68237   4.70751   4.73883   4.74548
 Alpha virt. eigenvalues --    4.75234   4.76956   4.76963   4.82259   4.83136
 Alpha virt. eigenvalues --    4.85163   4.86177   4.87610   4.89021   4.93169
 Alpha virt. eigenvalues --    4.94224   4.95599   4.97162   4.97630   5.00688
 Alpha virt. eigenvalues --    5.05900   5.16365   5.26738   5.28884   5.33002
 Alpha virt. eigenvalues --    5.41185   5.41990   5.46899   5.48442   5.53049
 Alpha virt. eigenvalues --    5.57672   5.62719   5.70162   5.75436   5.84556
 Alpha virt. eigenvalues --    5.96508   6.01348   6.14954   6.24318   6.34686
 Alpha virt. eigenvalues --    7.02304  10.22873  11.17361  11.19233  11.33074
 Alpha virt. eigenvalues --   11.69082  11.79149  11.93382  12.19321  12.54051
 Alpha virt. eigenvalues --   13.36126
          Condensed to atoms (all electrons):
               1          2          3          4          5          6
     1  C    4.824069   0.366443  -0.081979   0.004908  -0.000300   0.000000
     2  O    0.366443   7.688779   0.361787  -0.028192   0.001609  -0.000014
     3  C   -0.081979   0.361787   4.741610   0.429363  -0.036524   0.000632
     4  C    0.004908  -0.028192   0.429363   4.912875   0.357485  -0.023391
     5  C   -0.000300   0.001609  -0.036524   0.357485   4.858793   0.388112
     6  C    0.000000  -0.000014   0.000632  -0.023391   0.388112   4.994611
     7  C   -0.000000   0.000000  -0.000065   0.000591  -0.030343   0.449534
     8  C   -0.000000   0.000000   0.000004   0.000704  -0.009693  -0.072610
     9  N    0.000000  -0.000000   0.000002  -0.000159   0.005895  -0.069629
    10  H    0.384248  -0.018955   0.005170  -0.000322  -0.000000  -0.000000
    11  H    0.369516  -0.033245  -0.006742   0.000163   0.000042   0.000000
    12  H    0.369517  -0.033245  -0.006742   0.000163   0.000042   0.000000
    13  H   -0.005107  -0.032203   0.348130  -0.034583   0.000813   0.000021
    14  H   -0.005107  -0.032204   0.348129  -0.034583   0.000813   0.000021
    15  H    0.000148   0.002561  -0.027225   0.358241  -0.025362  -0.002797
    16  H    0.000148   0.002561  -0.027226   0.358241  -0.025362  -0.002797
    17  H    0.000008   0.000036  -0.003471  -0.037367   0.371803  -0.033744
    18  H    0.000008   0.000036  -0.003471  -0.037367   0.371804  -0.033745
    19  H    0.000000   0.000001   0.000116  -0.003313  -0.030008   0.353649
    20  H    0.000000   0.000001   0.000116  -0.003313  -0.030008   0.353648
    21  H    0.000000  -0.000000   0.000052  -0.000045   0.002845  -0.008792
    22  H   -0.000000  -0.000000  -0.000000  -0.000018  -0.000139   0.004371
    23  H   -0.000000  -0.000000  -0.000000  -0.000018  -0.000139   0.004371
    24  H    0.000000  -0.000000   0.000000  -0.000021   0.000619  -0.014027
               7          8          9         10         11         12
     1  C   -0.000000  -0.000000   0.000000   0.384248   0.369516   0.369517
     2  O    0.000000   0.000000  -0.000000  -0.018955  -0.033245  -0.033245
     3  C   -0.000065   0.000004   0.000002   0.005170  -0.006742  -0.006742
     4  C    0.000591   0.000704  -0.000159  -0.000322   0.000163   0.000163
     5  C   -0.030343  -0.009693   0.005895  -0.000000   0.000042   0.000042
     6  C    0.449534  -0.072610  -0.069629  -0.000000   0.000000   0.000000
     7  C    4.439856   0.372978   0.651760   0.000000   0.000000   0.000000
     8  C    0.372978   5.057448  -0.030879  -0.000000  -0.000000  -0.000000
     9  N    0.651760  -0.030879   6.586757  -0.000000   0.000000   0.000000
    10  H    0.000000  -0.000000  -0.000000   0.575260  -0.035715  -0.035715
    11  H    0.000000  -0.000000   0.000000  -0.035715   0.638855  -0.049206
    12  H    0.000000  -0.000000   0.000000  -0.035715  -0.049206   0.638855
    13  H    0.000020  -0.000009   0.000000  -0.000066  -0.002866   0.014590
    14  H    0.000020  -0.000009   0.000000  -0.000066   0.014590  -0.002866
    15  H    0.000179  -0.000006  -0.000001   0.000008  -0.000050   0.000039
    16  H    0.000179  -0.000006  -0.000001   0.000008   0.000039  -0.000050
    17  H   -0.002331  -0.001407   0.000135   0.000000   0.000000  -0.000001
    18  H   -0.002331  -0.001407   0.000135   0.000000  -0.000001   0.000000
    19  H   -0.019836   0.003930  -0.004143   0.000000   0.000000  -0.000000
    20  H   -0.019836   0.003930  -0.004143   0.000000  -0.000000   0.000000
    21  H   -0.019448   0.369697   0.002186  -0.000000   0.000000   0.000000
    22  H   -0.016079   0.368644  -0.004231   0.000000   0.000000  -0.000000
    23  H   -0.016079   0.368642  -0.004231   0.000000  -0.000000   0.000000
    24  H   -0.106484   0.010096   0.343222  -0.000000   0.000000   0.000000
              13         14         15         16         17         18
     1  C   -0.005107  -0.005107   0.000148   0.000148   0.000008   0.000008
     2  O   -0.032203  -0.032204   0.002561   0.002561   0.000036   0.000036
     3  C    0.348130   0.348129  -0.027225  -0.027226  -0.003471  -0.003471
     4  C   -0.034583  -0.034583   0.358241   0.358241  -0.037367  -0.037367
     5  C    0.000813   0.000813  -0.025362  -0.025362   0.371803   0.371804
     6  C    0.000021   0.000021  -0.002797  -0.002797  -0.033744  -0.033745
     7  C    0.000020   0.000020   0.000179   0.000179  -0.002331  -0.002331
     8  C   -0.000009  -0.000009  -0.000006  -0.000006  -0.001407  -0.001407
     9  N    0.000000   0.000000  -0.000001  -0.000001   0.000135   0.000135
    10  H   -0.000066  -0.000066   0.000008   0.000008   0.000000   0.000000
    11  H   -0.002866   0.014590  -0.000050   0.000039   0.000000  -0.000001
    12  H    0.014590  -0.002866   0.000039  -0.000050  -0.000001   0.000000
    13  H    0.683965  -0.061654   0.006561  -0.007023   0.005843  -0.000588
    14  H   -0.061654   0.683971  -0.007023   0.006561  -0.000588   0.005843
    15  H    0.006561  -0.007023   0.626241  -0.041862   0.006226  -0.006048
    16  H   -0.007023   0.006561  -0.041862   0.626242  -0.006048   0.006226
    17  H    0.005843  -0.000588   0.006226  -0.006048   0.637863  -0.045706
    18  H   -0.000588   0.005843  -0.006048   0.006226  -0.045706   0.637861
    19  H    0.000005   0.000008   0.004649  -0.000511   0.006014  -0.005705
    20  H    0.000008   0.000005  -0.000511   0.004649  -0.005705   0.006014
    21  H    0.000022   0.000022   0.000017   0.000017   0.003329   0.003329
    22  H    0.000000   0.000000   0.000001  -0.000000   0.000066   0.000125
    23  H    0.000000   0.000000  -0.000000   0.000001   0.000125   0.000066
    24  H    0.000000   0.000000   0.000002   0.000002   0.000031   0.000031
              19         20         21         22         23         24
     1  C    0.000000   0.000000   0.000000  -0.000000  -0.000000   0.000000
     2  O    0.000001   0.000001  -0.000000  -0.000000  -0.000000  -0.000000
     3  C    0.000116   0.000116   0.000052  -0.000000  -0.000000   0.000000
     4  C   -0.003313  -0.003313  -0.000045  -0.000018  -0.000018  -0.000021
     5  C   -0.030008  -0.030008   0.002845  -0.000139  -0.000139   0.000619
     6  C    0.353649   0.353648  -0.008792   0.004371   0.004371  -0.014027
     7  C   -0.019836  -0.019836  -0.019448  -0.016079  -0.016079  -0.106484
     8  C    0.003930   0.003930   0.369697   0.368644   0.368642   0.010096
     9  N   -0.004143  -0.004143   0.002186  -0.004231  -0.004231   0.343222
    10  H    0.000000   0.000000  -0.000000   0.000000   0.000000  -0.000000
    11  H    0.000000  -0.000000   0.000000   0.000000  -0.000000   0.000000
    12  H   -0.000000   0.000000   0.000000  -0.000000   0.000000   0.000000
    13  H    0.000005   0.000008   0.000022   0.000000   0.000000   0.000000
    14  H    0.000008   0.000005   0.000022   0.000000   0.000000   0.000000
    15  H    0.004649  -0.000511   0.000017   0.000001  -0.000000   0.000002
    16  H   -0.000511   0.004649   0.000017  -0.000000   0.000001   0.000002
    17  H    0.006014  -0.005705   0.003329   0.000066   0.000125   0.000031
    18  H   -0.005705   0.006014   0.003329   0.000125   0.000066   0.000031
    19  H    0.604478  -0.034190   0.000211  -0.000238  -0.000064   0.003812
    20  H   -0.034190   0.604480   0.000211  -0.000064  -0.000238   0.003812
    21  H    0.000211   0.000211   0.586944  -0.030688  -0.030687  -0.000318
    22  H   -0.000238  -0.000064  -0.030688   0.553219  -0.020588  -0.000269
    23  H   -0.000064  -0.000238  -0.030687  -0.020588   0.553222  -0.000269
    24  H    0.003812   0.003812  -0.000318  -0.000269  -0.000269   0.551114
 Mulliken charges:
               1
     1  C   -0.226521
     2  O   -0.245754
     3  C   -0.041665
     4  C   -0.220040
     5  C   -0.172798
     6  C   -0.287424
     7  C    0.317716
     8  C   -0.440050
     9  N   -0.472676
    10  H    0.126144
    11  H    0.104620
    12  H    0.104620
    13  H    0.084121
    14  H    0.084117
    15  H    0.106010
    16  H    0.106010
    17  H    0.104890
    18  H    0.104891
    19  H    0.121135
    20  H    0.121134
    21  H    0.121097
    22  H    0.145889
    23  H    0.145888
    24  H    0.208647
 Sum of Mulliken charges =  -0.00000
 Mulliken charges with hydrogens summed into heavy atoms:
               1
     1  C    0.108862
     2  O   -0.245754
     3  C    0.126574
     4  C   -0.008020
     5  C    0.036983
     6  C   -0.045155
     7  C    0.317716
     8  C   -0.027176
     9  N   -0.264029
 Electronic spatial extent (au):  <R**2>=           2483.7720
 Charge=             -0.0000 electrons
 Dipole moment (field-independent basis, Debye):
    X=              2.2713    Y=              0.9728    Z=             -0.0000  Tot=              2.4708
 Quadrupole moment (field-independent basis, Debye-Ang):
   XX=            -71.8989   YY=            -54.7224   ZZ=            -56.0927
   XY=              3.9721   XZ=             -0.0001   YZ=             -0.0000
 Traceless Quadrupole moment (field-independent basis, Debye-Ang):
   XX=            -10.9942   YY=              6.1823   ZZ=              4.8119
   XY=              3.9721   XZ=             -0.0001   YZ=             -0.0000
 Octapole moment (field-independent basis, Debye-Ang**2):
  XXX=            126.4118  YYY=             -7.2771  ZZZ=             -0.0000  XYY=            -10.1024
  XXY=             13.8900  XXZ=              0.0001  XZZ=              2.7933  YZZ=             -0.1411
  YYZ=              0.0000  XYZ=              0.0000
 Hexadecapole moment (field-independent basis, Debye-Ang**3):
 XXXX=          -3166.1426 YYYY=           -301.5051 ZZZZ=            -95.8308 XXXY=             21.1012
 XXXZ=             -0.0015 YYYX=             12.4579 YYYZ=             -0.0001 ZZZX=             -0.0002
 ZZZY=             -0.0000 XXYY=           -493.0543 XXZZ=           -490.3543 YYZZ=            -62.3463
 XXYZ=             -0.0001 YYXZ=             -0.0002 ZZXY=             -2.3010
 N-N= 4.450104450149D+02 E-N=-1.833014961105D+03  KE= 4.025631123458D+02
 PrsmSu:  requested number of processors reduced to:  13 ShMem   1 Linda.
 Calling FoFJK, ICntrl=      2127 FMM=F ISym2X=0 I1Cent= 0 IOpClX= 0 NMat=1 NMatS=1 NMatT=0.
 ***** Axes restored to original set *****
 -------------------------------------------------------------------
 Center     Atomic                   Forces (Hartrees/Bohr)
 Number     Number              X              Y              Z
 -------------------------------------------------------------------
      1        6           0.012223493    0.003148935    0.002655875
      2        8          -0.007371015   -0.003230308   -0.002726211
      3        6           0.004034070    0.014440946    0.012197050
      4        6          -0.004561807    0.000844009    0.000713778
      5        6          -0.000014915    0.004048890    0.003413991
      6        6          -0.006406346   -0.004976283   -0.004202419
      7        6           0.042741523    0.000984749    0.000833126
      8        6          -0.001951140    0.000108610    0.000083281
      9        7          -0.026120394   -0.002931710   -0.002473303
     10        1           0.001407383    0.000757669    0.000639723
     11        1          -0.004236972   -0.002825227   -0.000408282
     12        1          -0.004237198   -0.000878482   -0.002716426
     13        1          -0.001788805   -0.001726677   -0.003708262
     14        1          -0.001785811   -0.003937567   -0.001081701
     15        1          -0.001308206   -0.000064843    0.000689180
     16        1          -0.001306666    0.000670582   -0.000180800
     17        1          -0.000582840   -0.001763518    0.000417039
     18        1          -0.000583621    0.000112977   -0.001807827
     19        1           0.000510925    0.001305434    0.000137956
     20        1           0.000509824    0.000353358    0.001264814
     21        1           0.000654857    0.000157402    0.000133756
     22        1           0.001547947   -0.001262325   -0.003727717
     23        1           0.001547314   -0.003888303   -0.000611532
     24        1          -0.002921601    0.000551681    0.000464910
 -------------------------------------------------------------------
 Cartesian Forces:  Max     0.042741523 RMS     0.006902984

 GradGradGradGradGradGradGradGradGradGradGradGradGradGradGradGradGradGrad
 Berny optimization.
 FormGI is forming the generalized inverse of G from B-inverse, IUseBI=4.
 Internal  Forces:  Max     0.027955622 RMS     0.004995059
 Search for a local minimum.
 Step number   1 out of a maximum of  121
 All quantities printed in internal units (Hartrees-Bohrs-Radians)
 Mixed Optimization -- RFO/linear search
 Second derivative matrix not updated -- first step.
 ITU=  0
     Eigenvalues ---    0.00470   0.00510   0.00520   0.00540   0.00640
     Eigenvalues ---    0.00910   0.01408   0.01411   0.03052   0.03624
     Eigenvalues ---    0.03975   0.04104   0.04964   0.05008   0.05282
     Eigenvalues ---    0.05407   0.05904   0.06974   0.07462   0.07816
     Eigenvalues ---    0.08524   0.09485   0.10226   0.10474   0.11283
     Eigenvalues ---    0.11789   0.12322   0.12883   0.13711   0.16000
     Eigenvalues ---    0.16000   0.16000   0.16000   0.16000   0.16000
     Eigenvalues ---    0.16000   0.21817   0.21972   0.21975   0.22022
     Eigenvalues ---    0.25000   0.25000   0.25000   0.30136   0.30427
     Eigenvalues ---    0.30505   0.30647   0.31397   0.33954   0.33954
     Eigenvalues ---    0.34001   0.34003   0.34037   0.34037   0.34118
     Eigenvalues ---    0.34118   0.34293   0.34293   0.34500   0.34501
     Eigenvalues ---    0.34598   0.34935   0.42241   0.42274   0.43600
     Eigenvalues ---    0.67980
 RFO step:  Lambda=-9.99543393D-03 EMin= 4.69555961D-03
 Linear search not attempted -- first point.
 Iteration  1 RMS(Cart)=  0.16552279 RMS(Int)=  0.00427800
 Iteration  2 RMS(Cart)=  0.01265429 RMS(Int)=  0.00021766
 Iteration  3 RMS(Cart)=  0.00008502 RMS(Int)=  0.00021635
 Iteration  4 RMS(Cart)=  0.00000001 RMS(Int)=  0.00021635
 Variable       Old X    -DE/DX   Delta X   Delta X   Delta X     New X
                                 (Linear)    (Quad)   (Total)
    R1        2.68617  -0.00516   0.00000  -0.01192  -0.01192   2.67424
    R2        2.06332   0.00051   0.00000   0.00142   0.00142   2.06474
    R3        2.06838   0.00382   0.00000   0.01082   0.01082   2.07920
    R4        2.06838   0.00382   0.00000   0.01082   0.01082   2.07920
    R5        2.68575  -0.00296   0.00000  -0.00683  -0.00683   2.67892
    R6        2.87693   0.00161   0.00000   0.00516   0.00516   2.88209
    R7        2.07325   0.00377   0.00000   0.01077   0.01077   2.08402
    R8        2.07328   0.00376   0.00000   0.01075   0.01075   2.08403
    R9        2.86692   0.01191   0.00000   0.03764   0.03764   2.90455
   R10        2.07132   0.00022   0.00000   0.00062   0.00062   2.07194
   R11        2.07131   0.00022   0.00000   0.00063   0.00063   2.07194
   R12        2.86967   0.01086   0.00000   0.03448   0.03448   2.90415
   R13        2.07408  -0.00046   0.00000  -0.00131  -0.00131   2.07276
   R14        2.07407  -0.00046   0.00000  -0.00131  -0.00131   2.07276
   R15        2.87120   0.01294   0.00000   0.04118   0.04118   2.91238
   R16        2.07267   0.00010   0.00000   0.00028   0.00028   2.07295
   R17        2.07268   0.00010   0.00000   0.00027   0.00027   2.07295
   R18        2.85262   0.00388   0.00000   0.01199   0.01199   2.86460
   R19        2.45133  -0.02796   0.00000  -0.04053  -0.04053   2.41080
   R20        2.05780  -0.00058   0.00000  -0.00162  -0.00162   2.05618
   R21        2.06494   0.00045   0.00000   0.00127   0.00127   2.06621
   R22        2.06495   0.00045   0.00000   0.00125   0.00125   2.06621
   R23        1.93636  -0.00094   0.00000  -0.00210  -0.00210   1.93426
    A1        1.89299  -0.00371   0.00000  -0.02226  -0.02217   1.87082
    A2        1.92428   0.00413   0.00000   0.02450   0.02442   1.94870
    A3        1.92428   0.00413   0.00000   0.02451   0.02442   1.94871
    A4        1.90090  -0.00032   0.00000  -0.00228  -0.00219   1.89870
    A5        1.90089  -0.00031   0.00000  -0.00228  -0.00219   1.89870
    A6        1.91997  -0.00401   0.00000  -0.02277  -0.02300   1.89698
    A7        1.92889   0.00868   0.00000   0.03337   0.03337   1.96226
    A8        1.90285   0.00056   0.00000   0.00661   0.00657   1.90943
    A9        1.91239   0.00039   0.00000   0.00734   0.00732   1.91972
   A10        1.91238   0.00040   0.00000   0.00735   0.00734   1.91972
   A11        1.92037   0.00007   0.00000  -0.00039  -0.00045   1.91993
   A12        1.92036   0.00007   0.00000  -0.00038  -0.00044   1.91992
   A13        1.89547  -0.00150   0.00000  -0.02049  -0.02051   1.87495
   A14        1.90102   0.01241   0.00000   0.05809   0.05814   1.95917
   A15        1.91963  -0.00459   0.00000  -0.02307  -0.02341   1.89622
   A16        1.91963  -0.00459   0.00000  -0.02306  -0.02341   1.89622
   A17        1.93123  -0.00303   0.00000  -0.00633  -0.00611   1.92512
   A18        1.93123  -0.00303   0.00000  -0.00633  -0.00611   1.92512
   A19        1.86102   0.00237   0.00000  -0.00164  -0.00211   1.85891
   A20        1.98207  -0.00132   0.00000  -0.00288  -0.00288   1.97919
   A21        1.89346   0.00073   0.00000   0.00548   0.00548   1.89893
   A22        1.89346   0.00073   0.00000   0.00547   0.00547   1.89893
   A23        1.90708   0.00051   0.00000   0.00309   0.00309   1.91017
   A24        1.90708   0.00051   0.00000   0.00309   0.00309   1.91018
   A25        1.87790  -0.00119   0.00000  -0.01509  -0.01508   1.86282
   A26        1.97436   0.02409   0.00000   0.11544   0.11496   2.08932
   A27        1.92078  -0.00636   0.00000  -0.02496  -0.02576   1.89503
   A28        1.92078  -0.00636   0.00000  -0.02496  -0.02575   1.89503
   A29        1.88589  -0.00731   0.00000  -0.02277  -0.02326   1.86263
   A30        1.88589  -0.00731   0.00000  -0.02276  -0.02325   1.86263
   A31        1.87291   0.00227   0.00000  -0.02680  -0.02809   1.84481
   A32        2.12749   0.00546   0.00000   0.02100   0.02100   2.14849
   A33        2.10018   0.00487   0.00000   0.01875   0.01875   2.11893
   A34        2.05552  -0.01033   0.00000  -0.03975  -0.03975   2.01577
   A35        1.98865  -0.00014   0.00000   0.00589   0.00579   1.99444
   A36        1.90310   0.00152   0.00000   0.00572   0.00566   1.90876
   A37        1.90309   0.00152   0.00000   0.00573   0.00567   1.90875
   A38        1.87667   0.00059   0.00000   0.01000   0.00991   1.88659
   A39        1.87666   0.00060   0.00000   0.01001   0.00992   1.88658
   A40        1.91477  -0.00438   0.00000  -0.03975  -0.03976   1.87501
   A41        1.94201  -0.00554   0.00000  -0.03258  -0.03258   1.90943
    D1       -3.14158  -0.00000   0.00000  -0.00000  -0.00000  -3.14159
    D2        1.06167   0.00022   0.00000   0.00192   0.00216   1.06383
    D3       -1.06167  -0.00021   0.00000  -0.00191  -0.00216  -1.06383
    D4       -3.14159  -0.00000   0.00000  -0.00001  -0.00001   3.14159
    D5        1.03898  -0.00068   0.00000  -0.00807  -0.00810   1.03088
    D6       -1.03899   0.00068   0.00000   0.00807   0.00811  -1.03089
    D7        3.14159   0.00000   0.00000   0.00001   0.00001  -3.14159
    D8        1.02231  -0.00129   0.00000  -0.01472  -0.01447   1.00784
    D9       -1.02232   0.00129   0.00000   0.01473   0.01449  -1.00783
   D10       -1.04389   0.00088   0.00000   0.01289   0.01289  -1.03101
   D11        3.12001  -0.00041   0.00000  -0.00183  -0.00160   3.11842
   D12        1.07538   0.00217   0.00000   0.02762   0.02737   1.10275
   D13        1.04390  -0.00088   0.00000  -0.01290  -0.01289   1.03101
   D14       -1.07537  -0.00217   0.00000  -0.02763  -0.02738  -1.10275
   D15       -3.12001   0.00041   0.00000   0.00183   0.00159  -3.11842
   D16        3.14159   0.00000   0.00000   0.00000   0.00000   3.14159
   D17        1.01759  -0.00031   0.00000  -0.00597  -0.00598   1.01162
   D18       -1.01760   0.00031   0.00000   0.00598   0.00598  -1.01162
   D19       -1.02940   0.00043   0.00000   0.00498   0.00508  -1.02433
   D20        3.12978   0.00012   0.00000  -0.00100  -0.00090   3.12888
   D21        1.09460   0.00074   0.00000   0.01096   0.01105   1.10565
   D22        1.02940  -0.00043   0.00000  -0.00498  -0.00508   1.02433
   D23       -1.09460  -0.00074   0.00000  -0.01096  -0.01106  -1.10565
   D24       -3.12978  -0.00012   0.00000   0.00099   0.00090  -3.12888
   D25       -3.14159  -0.00000   0.00000  -0.00000  -0.00000  -3.14159
   D26        1.03028  -0.00248   0.00000  -0.03161  -0.03139   0.99889
   D27       -1.03028   0.00248   0.00000   0.03161   0.03139  -0.99889
   D28       -1.02520   0.00042   0.00000   0.00731   0.00731  -1.01789
   D29       -3.13652  -0.00205   0.00000  -0.02429  -0.02407   3.12259
   D30        1.08611   0.00290   0.00000   0.03893   0.03871   1.12481
   D31        1.02521  -0.00042   0.00000  -0.00732  -0.00732   1.01789
   D32       -1.08611  -0.00290   0.00000  -0.03892  -0.03870  -1.12482
   D33        3.13652   0.00205   0.00000   0.02430   0.02407  -3.12259
   D34       -0.00001   0.00000   0.00000   0.00001   0.00001  -0.00000
   D35       -3.14159  -0.00000   0.00000  -0.00001  -0.00001   3.14159
   D36        2.13095   0.00247   0.00000   0.02756   0.02749   2.15844
   D37       -1.01063   0.00247   0.00000   0.02754   0.02748  -0.98315
   D38       -2.13096  -0.00247   0.00000  -0.02755  -0.02748  -2.15845
   D39        1.01064  -0.00247   0.00000  -0.02756  -0.02750   0.98314
   D40        0.00002  -0.00000   0.00000  -0.00001  -0.00001   0.00001
   D41       -2.09642  -0.00175   0.00000  -0.02072  -0.02075  -2.11717
   D42        2.09643   0.00175   0.00000   0.02071   0.02074   2.11717
   D43       -3.14159  -0.00000   0.00000   0.00000   0.00000  -3.14158
   D44        1.04516  -0.00175   0.00000  -0.02071  -0.02073   1.02443
   D45       -1.04517   0.00175   0.00000   0.02073   0.02075  -1.02442
   D46        0.00000  -0.00000   0.00000  -0.00000  -0.00000  -0.00000
   D47       -3.14158  -0.00000   0.00000  -0.00002  -0.00002   3.14159
         Item               Value     Threshold  Converged?
 Maximum Force            0.027956     0.000450     NO 
 RMS     Force            0.004995     0.000300     NO 
 Maximum Displacement     0.632335     0.001800     NO 
 RMS     Displacement     0.174401     0.001200     NO 
 Predicted change in Energy=-5.247309D-03
 GradGradGradGradGradGradGradGradGradGradGradGradGradGradGradGradGradGrad

                          Input orientation:                          
 ---------------------------------------------------------------------
 Center     Atomic      Atomic             Coordinates (Angstroms)
 Number     Number       Type             X           Y           Z
 ---------------------------------------------------------------------
      1          6           0        0.872302    0.170054    0.135139
      2          8           0        2.280642    0.064073    0.045731
      3          6           0        2.690535   -0.973173   -0.829351
      4          6           0        4.214106   -1.025964   -0.873887
      5          6           0        4.731130   -2.132290   -1.807251
      6          6           0        6.264662   -2.208960   -1.871935
      7          6           0        6.939456   -3.267995   -2.765403
      8          6           0        6.160213   -4.261819   -3.603851
      9          7           0        8.209453   -3.360414   -2.843381
     10          1           0        0.653210    0.988207    0.825377
     11          1           0        0.419634   -0.753695    0.525472
     12          1           0        0.419636    0.399263   -0.841149
     13          1           0        2.289551   -0.793559   -1.840864
     14          1           0        2.289551   -1.940000   -0.481976
     15          1           0        4.589390   -1.181279    0.144534
     16          1           0        4.589393   -0.048238   -1.198471
     17          1           0        4.331309   -1.960777   -2.814140
     18          1           0        4.331308   -3.095921   -1.468644
     19          1           0        6.650121   -2.360966   -0.856241
     20          1           0        6.650120   -1.233364   -2.192798
     21          1           0        5.079475   -4.165347   -3.522466
     22          1           0        6.433597   -5.278412   -3.308387
     23          1           0        6.433595   -4.141751   -4.655682
     24          1           0        8.639460   -2.650461   -2.244427
 ---------------------------------------------------------------------
                    Distance matrix (angstroms):
                    1          2          3          4          5
     1  C    0.000000
     2  O    1.415149   0.000000
     3  C    2.354396   1.417625   0.000000
     4  C    3.690019   2.402532   1.525135   0.000000
     5  C    4.895326   3.776565   2.542414   1.537023   0.000000
     6  C    6.226203   4.971573   3.922822   2.569117   1.536809
     7  C    7.552726   6.380415   5.202675   4.004006   2.661688
     8  C    7.847518   6.861768   5.527360   4.659484   3.131285
     9  N    8.670039   7.431345   6.341427   5.029052   3.831526
    10  H    1.092614   2.027414   3.276558   4.429939   5.770413
    11  H    1.100264   2.088600   2.653434   4.053437   5.092261
    12  H    1.100264   2.088601   2.653433   4.053436   5.092259
    13  H    2.615671   2.072403   1.102818   2.166326   2.784715
    14  H    2.615675   2.072405   1.102820   2.166325   2.784715
    15  H    3.955115   2.625068   2.144157   1.096422   2.175770
    16  H    3.955115   2.625068   2.144158   1.096422   2.175769
    17  H    5.020300   4.060063   2.758059   2.156895   1.096859
    18  H    5.020302   4.060064   2.758059   2.156895   1.096858
    19  H    6.385302   5.078062   4.195832   2.777897   2.153889
    20  H    6.385300   5.078060   4.195831   2.777896   2.153888
    21  H    7.062158   6.201087   4.811431   4.197566   2.682653
    22  H    8.513029   7.552436   6.220226   5.379242   3.879419
    23  H    8.513026   7.552434   6.220224   5.379241   3.879417
    24  H    8.599208   7.283412   6.340776   4.909291   3.966695
                    6          7          8          9         10
     6  C    0.000000
     7  C    1.541164   0.000000
     8  C    2.687875   1.515883   0.000000
     9  N    2.460034   1.275741   2.364367   0.000000
    10  H    6.998983   8.397966   8.803858   9.458705   0.000000
    11  H    6.483033   7.723965   7.893826   8.878370   1.782898
    12  H    6.483031   7.723962   7.893823   8.878365   1.782897
    13  H    4.219696   5.347823   5.488075   6.529856   3.600159
    14  H    4.219695   5.347824   5.488075   6.529858   3.600164
    15  H    2.815814   4.283097   5.099765   5.175048   4.545737
    16  H    2.815812   4.283095   5.099764   5.175043   4.545736
    17  H    2.164994   2.917811   3.043571   4.123087   5.955754
    18  H    2.164995   2.917813   3.043571   4.123090   5.955757
    19  H    1.096958   2.133381   3.376775   2.716457   7.071615
    20  H    1.096959   2.133380   3.376776   2.716453   7.071611
    21  H    2.820704   2.199526   1.088083   3.302399   8.065648
    22  H    3.393150   2.143012   1.093389   2.654922   9.474777
    23  H    3.393150   2.143011   1.093390   2.654918   9.474773
    24  H    2.444042   1.882227   3.254408   1.023565   9.297515
                   11         12         13         14         15
    11  H    0.000000
    12  H    1.788006   0.000000
    13  H    3.016244   2.432867   0.000000
    14  H    2.432872   3.016247   1.777893   0.000000
    15  H    4.208897   4.566896   3.062906   2.501485   0.000000
    16  H    4.566896   4.208897   2.501489   3.062907   1.757112
    17  H    5.283111   4.976311   2.545277   3.099709   3.070501
    18  H    4.976315   5.283109   3.099707   2.545277   2.516903
    19  H    6.581141   6.814546   4.737173   4.396800   2.576785
    20  H    6.814546   6.581137   4.396799   4.737173   3.116479
    21  H    7.052609   7.052604   4.688327   4.688328   4.753076
    22  H    8.446260   8.630817   6.280179   6.025505   5.666592
    23  H    8.630818   8.446253   6.025503   6.280177   5.933595
    24  H    8.878942   8.878937   6.628144   6.628147   4.926327
                   16         17         18         19         20
    16  H    0.000000
    17  H    2.516903   0.000000
    18  H    3.070500   1.760373   0.000000
    19  H    3.116477   3.061112   2.508404   0.000000
    20  H    2.576782   2.508401   3.061112   1.748677   0.000000
    21  H    4.753074   2.433435   2.433436   3.582105   3.582103
    22  H    5.933595   3.958611   3.545073   3.817249   4.201646
    23  H    5.666589   3.545071   3.958609   4.201646   3.817249
    24  H    4.926320   4.400046   4.400051   2.443019   2.443011
                   21         22         23         24
    21  H    0.000000
    22  H    1.765897   0.000000
    23  H    1.765893   1.762725   0.000000
    24  H    4.074526   3.592209   3.592205   0.000000
 Stoichiometry    C7H15NO
 Framework group  C1[X(C7H15NO)]
 Deg. of freedom    66
 Full point group                 C1      NOp   1
 Largest Abelian subgroup         C1      NOp   1
 Largest concise Abelian subgroup C1      NOp   1
                         Standard orientation:                         
 ---------------------------------------------------------------------
 Center     Atomic      Atomic             Coordinates (Angstroms)
 Number     Number       Type             X           Y           Z
 ---------------------------------------------------------------------
      1          6           0        4.555300    0.323756   -0.000003
      2          8           0        3.380255   -0.464861    0.000000
      3          6           0        2.200904    0.321773    0.000001
      4          6           0        0.981187   -0.593829    0.000003
      5          6           0       -0.338318    0.194426    0.000002
      6          6           0       -1.585592   -0.703399    0.000003
      7          6           0       -2.987506   -0.063225    0.000001
      8          6           0       -3.213029    1.435788    0.000001
      9          7           0       -4.044508   -0.777552   -0.000005
     10          1           0        5.405108   -0.362998   -0.000007
     11          1           0        4.615702    0.962263    0.894000
     12          1           0        4.615698    0.962264   -0.894006
     13          1           0        2.182866    0.974197   -0.888945
     14          1           0        2.182865    0.974199    0.888948
     15          1           0        1.033703   -1.247680    0.878560
     16          1           0        1.033701   -1.247684   -0.878552
     17          1           0       -0.359296    0.848588   -0.880186
     18          1           0       -0.359295    0.848591    0.880187
     19          1           0       -1.540438   -1.364315    0.874342
     20          1           0       -1.540437   -1.364317   -0.874335
     21          1           0       -2.298718    2.025671   -0.000003
     22          1           0       -3.796979    1.714543    0.881362
     23          1           0       -3.796977    1.714541   -0.881363
     24          1           0       -3.785659   -1.767846   -0.000008
 ---------------------------------------------------------------------
 Rotational constants (GHZ):           5.9724452           0.4431649           0.4190022
 Standard basis: 6-31G(2df,p) (6D, 7F)
 There are   354 symmetry adapted cartesian basis functions of A   symmetry.
 There are   327 symmetry adapted basis functions of A   symmetry.
   327 basis functions,   501 primitive gaussians,   354 cartesian basis functions
    36 alpha electrons       36 beta electrons
       nuclear repulsion energy       439.6159426584 Hartrees.
 NAtoms=   24 NActive=   24 NUniq=   24 SFac= 1.00D+00 NAtFMM=   60 NAOKFM=F Big=F
 Integral buffers will be    131072 words long.
 Raffenetti 2 integral format.
 Two-electron integral symmetry is turned on.
 One-electron integrals computed using PRISM.
 PrsmSu:  requested number of processors reduced to:  13 ShMem   1 Linda.
 NBasis=   327 RedAO= T EigKep=  3.60D-04  NBF=   327
 NBsUse=   327 1.00D-06 EigRej= -1.00D+00 NBFU=   327
 Initial guess from the checkpoint file:  "COCCCCCpCpdN.chk"
 B after Tr=    -0.000000    0.000000   -0.000000
         Rot=    0.999975    0.000000   -0.000000   -0.007091 Ang=   0.81 deg.
 ExpMin= 1.61D-01 ExpMax= 5.48D+03 ExpMxC= 8.25D+02 IAcc=2 IRadAn=         4 AccDes= 0.00D+00
 Harris functional with IExCor=  402 and IRadAn=       4 diagonalized for initial guess.
 HarFok:  IExCor=  402 AccDes= 0.00D+00 IRadAn=         4 IDoV= 1 UseB2=F ITyADJ=14
 ICtDFT=  3500011 ScaDFX=  1.000000  1.000000  1.000000  1.000000
 FoFCou: FMM=F IPFlag=           0 FMFlag=      100000 FMFlg1=           0
         NFxFlg=           0 DoJE=T BraDBF=F KetDBF=T FulRan=T
         wScrn=  0.000000 ICntrl=       500 IOpCl=  0 I1Cent=   200000004 NGrid=           0
         NMat0=    1 NMatS0=      1 NMatT0=    0 NMatD0=    1 NMtDS0=    0 NMtDT0=    0
 Petite list used in FoFCou.
 Requested convergence on RMS density matrix=1.00D-08 within 128 cycles.
 Requested convergence on MAX density matrix=1.00D-06.
 Requested convergence on             energy=1.00D-06.
 No special actions if energy rises.
 Integral accuracy reduced to 1.0D-05 until final iterations.
 Initial convergence to 1.0D-05 achieved.  Increase integral accuracy.
 SCF Done:  E(RB3LYP) =  -405.754447593     A.U. after   11 cycles
            NFock= 11  Conv=0.82D-08     -V/T= 2.0082
 PrsmSu:  requested number of processors reduced to:  13 ShMem   1 Linda.
 Calling FoFJK, ICntrl=      2127 FMM=F ISym2X=0 I1Cent= 0 IOpClX= 0 NMat=1 NMatS=1 NMatT=0.
 ***** Axes restored to original set *****
 -------------------------------------------------------------------
 Center     Atomic                   Forces (Hartrees/Bohr)
 Number     Number              X              Y              Z
 -------------------------------------------------------------------
      1        6           0.006114320    0.000919632    0.000775850
      2        8          -0.002049695   -0.002694605   -0.002273530
      3        6           0.000226006    0.002860263    0.002414614
      4        6           0.001333042    0.000003096    0.000002500
      5        6           0.000458630   -0.001521911   -0.001284102
      6        6          -0.002230741   -0.001022989   -0.000863517
      7        6           0.003610949   -0.000308911   -0.000260877
      8        6          -0.004273901    0.001236553    0.001041950
      9        7          -0.002730352    0.003040106    0.002564770
     10        1          -0.000083358    0.000071552    0.000060512
     11        1          -0.000596214   -0.000589173   -0.000418215
     12        1          -0.000595997   -0.000511554   -0.000510376
     13        1          -0.000794419   -0.000720250   -0.000648571
     14        1          -0.000794102   -0.000759385   -0.000601184
     15        1           0.000199203   -0.000188969    0.000208999
     16        1           0.000199106    0.000174239   -0.000221433
     17        1          -0.000537569   -0.000909283   -0.000628280
     18        1          -0.000537616   -0.000772609   -0.000790434
     19        1           0.000742876    0.000078318    0.000562012
     20        1           0.000742835    0.000566922   -0.000017255
     21        1          -0.002409274    0.001262032    0.001065275
     22        1           0.000550661   -0.000049485   -0.000488206
     23        1           0.000550887   -0.000489783    0.000034130
     24        1           0.002904723    0.000326195    0.000275367
 -------------------------------------------------------------------
 Cartesian Forces:  Max     0.006114320 RMS     0.001526445

 GradGradGradGradGradGradGradGradGradGradGradGradGradGradGradGradGradGrad
 Berny optimization.
 Using GEDIIS/GDIIS optimizer.
 FormGI is forming the generalized inverse of G from B-inverse, IUseBI=4.
 Internal  Forces:  Max     0.010997077 RMS     0.002076642
 Search for a local minimum.
 Step number   2 out of a maximum of  121
 All quantities printed in internal units (Hartrees-Bohrs-Radians)
 Mixed Optimization -- RFO/linear search
 Update second derivatives using D2CorX and points    1    2
 DE= -3.63D-03 DEPred=-5.25D-03 R= 6.93D-01
 TightC=F SS=  1.41D+00  RLast= 2.26D-01 DXNew= 5.0454D-01 6.7768D-01
 Trust test= 6.93D-01 RLast= 2.26D-01 DXMaxT set to 5.05D-01
 ITU=  1  0
 Use linear search instead of GDIIS.
     Eigenvalues ---    0.00470   0.00510   0.00520   0.00540   0.00640
     Eigenvalues ---    0.00898   0.01408   0.01411   0.03052   0.03438
     Eigenvalues ---    0.03605   0.03676   0.04936   0.04941   0.05195
     Eigenvalues ---    0.05389   0.05907   0.06828   0.07412   0.08345
     Eigenvalues ---    0.08529   0.10005   0.10495   0.10498   0.11303
     Eigenvalues ---    0.12192   0.12327   0.13548   0.13754   0.15473
     Eigenvalues ---    0.16000   0.16000   0.16000   0.16000   0.16000
     Eigenvalues ---    0.16275   0.20065   0.21927   0.21971   0.23006
     Eigenvalues ---    0.24668   0.25000   0.28058   0.30134   0.30420
     Eigenvalues ---    0.30585   0.31348   0.33815   0.33917   0.33954
     Eigenvalues ---    0.34002   0.34011   0.34037   0.34114   0.34118
     Eigenvalues ---    0.34224   0.34293   0.34499   0.34500   0.34597
     Eigenvalues ---    0.34655   0.37657   0.42230   0.42792   0.43870
     Eigenvalues ---    0.66951
 RFO step:  Lambda=-9.59635012D-04 EMin= 4.69555961D-03
 Quartic linear search produced a step of -0.19665.
 Iteration  1 RMS(Cart)=  0.03227781 RMS(Int)=  0.00023667
 Iteration  2 RMS(Cart)=  0.00044774 RMS(Int)=  0.00003890
 Iteration  3 RMS(Cart)=  0.00000007 RMS(Int)=  0.00003890
 Variable       Old X    -DE/DX   Delta X   Delta X   Delta X     New X
                                 (Linear)    (Quad)   (Total)
    R1        2.67424  -0.00483   0.00234  -0.01256  -0.01021   2.66403
    R2        2.06474   0.00011  -0.00028   0.00065   0.00037   2.06511
    R3        2.07920   0.00059  -0.00213   0.00444   0.00232   2.08151
    R4        2.07920   0.00059  -0.00213   0.00444   0.00232   2.08151
    R5        2.67892  -0.00432   0.00134  -0.01014  -0.00879   2.67013
    R6        2.88209  -0.00151  -0.00101  -0.00255  -0.00357   2.87852
    R7        2.08402   0.00077  -0.00212   0.00485   0.00273   2.08676
    R8        2.08403   0.00077  -0.00211   0.00484   0.00273   2.08676
    R9        2.90455  -0.00283  -0.00740   0.00320  -0.00421   2.90035
   R10        2.07194   0.00029  -0.00012   0.00085   0.00073   2.07267
   R11        2.07194   0.00029  -0.00012   0.00086   0.00073   2.07267
   R12        2.90415  -0.00293  -0.00678   0.00202  -0.00476   2.89939
   R13        2.07276   0.00063   0.00026   0.00111   0.00137   2.07414
   R14        2.07276   0.00063   0.00026   0.00112   0.00137   2.07414
   R15        2.91238  -0.00669  -0.00810  -0.00601  -0.01411   2.89827
   R16        2.07295   0.00077  -0.00006   0.00189   0.00184   2.07479
   R17        2.07295   0.00077  -0.00005   0.00189   0.00184   2.07479
   R18        2.86460   0.00067  -0.00236   0.00508   0.00272   2.86733
   R19        2.41080  -0.00024   0.00797  -0.01201  -0.00404   2.40676
   R20        2.05618   0.00258   0.00032   0.00546   0.00578   2.06196
   R21        2.06621   0.00005  -0.00025   0.00048   0.00023   2.06644
   R22        2.06621   0.00005  -0.00025   0.00047   0.00023   2.06643
   R23        1.93426   0.00161   0.00041   0.00236   0.00277   1.93703
    A1        1.87082   0.00026   0.00436  -0.00383   0.00051   1.87134
    A2        1.94870   0.00023  -0.00480   0.00723   0.00245   1.95115
    A3        1.94871   0.00023  -0.00480   0.00723   0.00244   1.95115
    A4        1.89870   0.00012   0.00043   0.00085   0.00126   1.89996
    A5        1.89870   0.00012   0.00043   0.00085   0.00126   1.89996
    A6        1.89698  -0.00093   0.00452  -0.01233  -0.00777   1.88921
    A7        1.96226   0.00054  -0.00656   0.01101   0.00445   1.96671
    A8        1.90943  -0.00359  -0.00129  -0.01109  -0.01236   1.89707
    A9        1.91972   0.00119  -0.00144   0.00599   0.00457   1.92428
   A10        1.91972   0.00119  -0.00144   0.00599   0.00457   1.92428
   A11        1.91993   0.00119   0.00009   0.00479   0.00489   1.92482
   A12        1.91992   0.00119   0.00009   0.00479   0.00489   1.92482
   A13        1.87495  -0.00109   0.00403  -0.01025  -0.00623   1.86872
   A14        1.95917  -0.00002  -0.01143   0.01543   0.00399   1.96315
   A15        1.89622   0.00010   0.00460  -0.00539  -0.00071   1.89551
   A16        1.89622   0.00010   0.00460  -0.00539  -0.00071   1.89551
   A17        1.92512  -0.00010   0.00120  -0.00329  -0.00214   1.92298
   A18        1.92512  -0.00010   0.00120  -0.00329  -0.00214   1.92298
   A19        1.85891   0.00004   0.00042   0.00112   0.00163   1.86053
   A20        1.97919  -0.00480   0.00057  -0.01835  -0.01776   1.96142
   A21        1.89893   0.00173  -0.00108   0.00849   0.00741   1.90634
   A22        1.89893   0.00173  -0.00108   0.00849   0.00741   1.90634
   A23        1.91017   0.00140  -0.00061   0.00519   0.00460   1.91478
   A24        1.91018   0.00140  -0.00061   0.00519   0.00460   1.91478
   A25        1.86282  -0.00128   0.00297  -0.00852  -0.00559   1.85723
   A26        2.08932  -0.00727  -0.02261   0.00292  -0.01959   2.06973
   A27        1.89503   0.00236   0.00506   0.00205   0.00724   1.90227
   A28        1.89503   0.00236   0.00506   0.00206   0.00724   1.90227
   A29        1.86263   0.00209   0.00457  -0.00212   0.00257   1.86520
   A30        1.86263   0.00209   0.00457  -0.00211   0.00257   1.86520
   A31        1.84481  -0.00113   0.00552  -0.00379   0.00194   1.84676
   A32        2.14849  -0.01100  -0.00413  -0.02934  -0.03347   2.11502
   A33        2.11893   0.00257  -0.00369   0.01343   0.00975   2.12867
   A34        2.01577   0.00843   0.00782   0.01591   0.02372   2.03949
   A35        1.99444  -0.00182  -0.00114  -0.00742  -0.00853   1.98591
   A36        1.90876   0.00028  -0.00111   0.00288   0.00178   1.91054
   A37        1.90875   0.00028  -0.00111   0.00288   0.00178   1.91053
   A38        1.88659   0.00092  -0.00195   0.00733   0.00540   1.89199
   A39        1.88658   0.00092  -0.00195   0.00733   0.00541   1.89199
   A40        1.87501  -0.00052   0.00782  -0.01358  -0.00576   1.86925
   A41        1.90943   0.00475   0.00641   0.01495   0.02136   1.93079
    D1       -3.14159  -0.00000   0.00000  -0.00000  -0.00000  -3.14159
    D2        1.06383  -0.00044  -0.00042  -0.00280  -0.00327   1.06056
    D3       -1.06383   0.00044   0.00042   0.00279   0.00327  -1.06056
    D4        3.14159  -0.00000   0.00000  -0.00000   0.00000   3.14159
    D5        1.03088   0.00005   0.00159  -0.00264  -0.00103   1.02985
    D6       -1.03089  -0.00005  -0.00159   0.00265   0.00104  -1.02985
    D7       -3.14159  -0.00000  -0.00000   0.00000  -0.00000  -3.14159
    D8        1.00784   0.00008   0.00285  -0.00222   0.00058   1.00842
    D9       -1.00783  -0.00008  -0.00285   0.00222  -0.00058  -1.00842
   D10       -1.03101  -0.00006  -0.00253   0.00337   0.00083  -1.03018
   D11        3.11842   0.00002   0.00031   0.00115   0.00141   3.11983
   D12        1.10275  -0.00014  -0.00538   0.00559   0.00025   1.10300
   D13        1.03101   0.00006   0.00254  -0.00337  -0.00084   1.03018
   D14       -1.10275   0.00014   0.00538  -0.00559  -0.00025  -1.10300
   D15       -3.11842  -0.00002  -0.00031  -0.00116  -0.00142  -3.11983
   D16        3.14159  -0.00000  -0.00000   0.00000   0.00000   3.14159
   D17        1.01162   0.00018   0.00118  -0.00044   0.00075   1.01237
   D18       -1.01162  -0.00018  -0.00118   0.00044  -0.00075  -1.01237
   D19       -1.02433   0.00004  -0.00100   0.00132   0.00030  -1.02403
   D20        3.12888   0.00022   0.00018   0.00087   0.00105   3.12993
   D21        1.10565  -0.00014  -0.00217   0.00176  -0.00045   1.10520
   D22        1.02433  -0.00004   0.00100  -0.00132  -0.00030   1.02403
   D23       -1.10565   0.00014   0.00217  -0.00176   0.00045  -1.10520
   D24       -3.12888  -0.00022  -0.00018  -0.00088  -0.00105  -3.12993
   D25       -3.14159  -0.00000   0.00000  -0.00000  -0.00000  -3.14159
   D26        0.99889   0.00057   0.00617  -0.00116   0.00500   1.00389
   D27       -0.99889  -0.00057  -0.00617   0.00116  -0.00500  -1.00389
   D28       -1.01789  -0.00003  -0.00144   0.00216   0.00072  -1.01716
   D29        3.12259   0.00053   0.00473   0.00101   0.00572   3.12831
   D30        1.12481  -0.00060  -0.00761   0.00332  -0.00427   1.12054
   D31        1.01789   0.00003   0.00144  -0.00216  -0.00072   1.01716
   D32       -1.12482   0.00060   0.00761  -0.00332   0.00427  -1.12054
   D33       -3.12259  -0.00053  -0.00473  -0.00101  -0.00572  -3.12831
   D34       -0.00000  -0.00000  -0.00000  -0.00000  -0.00000  -0.00001
   D35        3.14159   0.00000   0.00000   0.00001   0.00001  -3.14159
   D36        2.15844  -0.00030  -0.00541   0.00310  -0.00228   2.15616
   D37       -0.98315  -0.00030  -0.00540   0.00311  -0.00227  -0.98542
   D38       -2.15845   0.00030   0.00540  -0.00311   0.00227  -2.15618
   D39        0.98314   0.00030   0.00541  -0.00310   0.00228   0.98542
   D40        0.00001  -0.00000   0.00000  -0.00000   0.00000   0.00001
   D41       -2.11717  -0.00015   0.00408  -0.00653  -0.00244  -2.11961
   D42        2.11717   0.00015  -0.00408   0.00654   0.00245   2.11962
   D43       -3.14158  -0.00000  -0.00000  -0.00001  -0.00001   3.14159
   D44        1.02443  -0.00015   0.00408  -0.00654  -0.00245   1.02197
[...]
 001002,-0.00005812,-0.00005903,0.00004051,0.00013672,-0.00001586,0.000
 32050,0.00021986,-0.00016573,0.00001730,-0.00003680,0.00000477,0.00175
 103,0.00026417,-0.00030616,-0.00653844,0.00089191,0.00037482,0.0035413
 3,0.00985419,-0.00330902,0.08536596,0.00021793,0.00035705,0.00000074,-
 0.00003017,0.00126129,0.00034166,0.00032989,-0.00070247,-0.00029814,-0
 .07667183,-0.24728457,0.07134983,-0.00716451,-0.02276089,0.00694529,-0
 .00162357,0.00076078,0.00083129,0.00011156,0.00015651,-0.00053868,-0.0
 0021906,0.00005954,-0.00001163,0.00005881,-0.00000108,0.00012606,-0.00
 008549,0.00000365,0.00003000,0.00012393,-0.00014429,-0.00005296,-0.000
 02786,-0.00000948,-0.00001379,-0.00043220,0.00051366,-0.00036006,0.000
 39266,0.00081406,-0.00076126,-0.00160267,-0.00452361,0.00161232,0.0835
 5948,0.27223586,0.00007726,-0.00014446,-0.00007300,-0.00006267,0.00010
 035,0.00014158,0.00004095,0.00028997,-0.00055176,0.02524505,0.07184436
 ,-0.07401819,-0.00649847,-0.01980537,0.00579337,-0.00101186,0.00009912
 ,0.00055529,-0.00025638,-0.00008715,-0.00019008,-0.00007469,0.00003301
 ,-0.00015589,-0.00003844,0.00007479,0.00010484,0.00004696,-0.00001374,
 -0.00001786,-0.00010248,-0.00006847,-0.00000884,-0.00005471,0.00000508
 ,-0.00002107,0.00026322,-0.00081225,0.00051694,0.00005621,-0.00057229,
 0.00113428,0.01027074,0.02698369,-0.00940815,-0.02939564,-0.07526162,0
 .07658898,-0.00001604,-0.00002790,-0.00003920,-0.00010810,-0.00000174,
 -0.00022884,0.00095954,-0.00036884,0.00120280,0.00333522,-0.00191927,0
 .01083024,-0.07752015,0.01278976,-0.08000587,-0.01423186,0.00623625,-0
 .03178444,0.00090122,-0.00095191,-0.00105554,-0.00036927,0.00006136,0.
 00052552,0.00004664,0.00021895,0.00056248,0.00001809,-0.00000443,-0.00
 001150,0.00000308,-0.00000234,0.00000374,-0.00002742,0.00001377,-0.000
 00706,-0.00002173,0.00024206,-0.00024394,-0.00006322,0.00001876,-0.000
 00421,-0.00052161,0.00185499,0.00143156,0.00020108,-0.00020812,-0.0006
 2186,0.08789533,0.00003443,0.00001459,0.00012324,-0.00010195,0.0000062
 8,0.00033282,-0.00096548,0.00050436,-0.00037039,-0.00798006,0.00311531
 ,-0.02435758,0.01281546,-0.05549310,0.03890761,0.00017330,-0.00054279,
 0.00034651,0.00010181,0.00051763,0.00084391,0.00076089,-0.00007029,-0.
 00019611,-0.00014242,-0.00020713,-0.00021635,-0.00002503,0.00000090,-0
 .00000120,-0.00000466,-0.00000051,0.00000302,0.00004969,-0.00000434,-0
 .00000552,0.00038024,0.00009310,0.00034932,0.00016011,0.00001877,0.000
 10542,0.00194562,-0.00285393,-0.00345903,-0.00064388,0.00108990,0.0005
 6459,-0.01684455,0.05887503,0.00002973,0.00000093,-0.00000851,0.000303
 24,0.00000977,0.00077525,-0.00162601,0.00067694,-0.00061332,-0.0060715
 4,0.00245729,-0.02080484,-0.08082429,0.03932446,-0.26066018,0.00032929
 ,0.00028911,0.00141993,-0.00053631,-0.00093924,-0.00038119,-0.00034679
 ,-0.00076805,0.00030635,-0.00011823,0.00047630,0.00034130,0.00000121,-
 0.00000500,-0.00000114,0.00000587,0.00000184,0.00000287,0.00006531,-0.
 00003787,0.00000496,0.00111439,-0.00032740,0.00060616,0.00007947,-0.00
 009520,0.00004935,0.00164857,-0.00358150,-0.00105188,-0.00012213,-0.00
 014970,0.00108768,0.08812902,-0.03797369,0.28718040,-0.00001615,-0.000
 04345,-0.00002082,-0.00010809,-0.00022572,0.00003684,0.00095957,0.0011
 2344,-0.00056608,0.00333533,0.01035243,-0.00371540,-0.07752046,-0.0767
 1041,0.02607818,-0.01423201,-0.03028056,0.01149895,0.00090125,-0.00120
 094,-0.00076069,-0.00036928,0.00052827,-0.00002808,0.00004656,0.000591
 41,0.00012121,0.00001808,-0.00001205,-0.00000244,-0.00002741,-0.000004
 61,0.00001473,0.00000311,0.00000330,-0.00000294,-0.00006324,-0.0000009
 8,0.00001915,-0.00002173,-0.00019977,0.00027967,0.00020105,-0.00064803
 ,-0.00010046,-0.00052161,0.00172349,0.00158746,0.00389170,0.01027418,-
 0.00339536,0.08789564,0.00003492,0.00001282,0.00000121,0.00028180,0.00
 081036,-0.00012739,-0.00176530,-0.00053077,0.00085368,-0.00732838,-0.0
 2376147,0.00704816,-0.07751291,-0.24185921,0.07115820,0.00035365,0.001
 46982,-0.00005463,-0.00051144,-0.00037165,-0.00078756,-0.00021367,0.00
 013544,-0.00080333,-0.00014071,0.00036893,0.00037807,-0.00000304,-0.00
 000210,-0.00000450,0.00007280,-0.00000254,-0.00003819,0.00000501,0.000
 00358,0.00000118,0.00010523,0.00005017,-0.00010065,0.00116248,0.000595
 17,-0.00041314,-0.00022884,0.00115660,-0.00016107,0.00195261,-0.002271
 50,-0.00368099,-0.00161697,-0.00509095,0.00164580,0.08403486,0.2681027
 5,0.00002901,0.00012366,-0.00000670,-0.00015153,0.00019532,-0.00002882
 ,-0.00067800,-0.00019347,0.00042176,-0.00684388,-0.01976662,0.00607196
 ,0.02624132,0.07074127,-0.07429370,0.00011534,0.00000271,-0.00059264,0
 .00019065,0.00099579,0.00050796,0.00080844,-0.00023127,0.00010039,-0.0
 0012045,-0.00031471,-0.00023474,-0.00002490,-0.00000070,0.00000186,0.0
 0003798,-0.00000586,0.00000313,-0.00000559,0.00000231,-0.00000121,0.00
 014448,0.00010004,0.00001801,0.00018719,0.00026359,0.00010401,-0.00061
 413,0.00055320,0.00102098,0.00164025,-0.00355854,-0.00163431,0.0106992
 4,0.02643650,-0.00988777,-0.03144282,-0.07371230,0.07795247,0.00007808
 ,-0.00000579,-0.00002700,-0.00004996,0.00010725,0.00027278,-0.00000595
 ,-0.00024112,-0.00008116,0.00138604,-0.00083830,-0.00178026,-0.0148785
 5,0.00643081,-0.03230113,-0.07211575,0.01144443,-0.07724513,0.00136108
 ,-0.00183320,0.01231505,-0.00045165,0.00045800,0.00017026,0.00061816,0
 .00218803,0.00061442,-0.00000851,0.00000713,0.00000356,-0.00001325,-0.
 00000885,-0.00000006,-0.00000183,-0.00001059,-0.00000206,0.00026963,-0
 .00004817,0.00023097,-0.00001423,-0.00001644,-0.00000999,-0.00001735,0
 .00036748,0.00113425,0.00000169,0.00005825,0.00015334,-0.00692249,0.00
 018562,0.00061341,0.00169289,-0.00051870,0.00021656,0.08554439,0.00001
 420,-0.00000024,-0.00000681,0.00002204,-0.00003819,-0.00004115,0.00003
 165,-0.00004271,-0.00011033,0.00015599,0.00009746,0.00091475,-0.000234
 68,-0.00024367,-0.00049849,0.01161609,-0.04677859,0.03260883,-0.004933
 09,0.00009441,-0.02598165,0.00118475,-0.00245156,0.00022185,-0.0020095
 5,-0.00089806,0.00252747,0.00000358,-0.00000038,0.00000066,-0.00000390
 ,-0.00000273,0.00000079,-0.00000670,-0.00000009,-0.00000129,-0.0000679
 6,-0.00002111,-0.00004789,-0.00004924,-0.00002969,-0.00000067,0.000224
 36,0.00015344,-0.00030377,0.00004638,-0.00005252,0.00011465,0.00004932
 ,0.00083008,-0.00054604,0.00010929,0.00033610,-0.00065656,-0.01599501,
 0.05275625,0.00001456,0.00001675,-0.00000307,-0.00013617,0.00004533,0.
 00003065,0.00017543,-0.00001976,0.00043378,0.00054772,-0.00006713,0.00
 082113,-0.00030782,-0.00020936,-0.00004362,-0.07879142,0.03577210,-0.2
 6545774,-0.00491095,0.00013823,-0.01934579,0.00145663,-0.00080566,-0.0
 0022974,-0.00073564,-0.00209057,0.00414752,-0.00001118,0.00000463,0.00
 000083,-0.00000493,-0.00000495,0.00000004,-0.00000685,0.00000086,0.000
 00341,0.00018351,-0.00004923,-0.00008966,-0.00001197,0.00000760,-0.000
 00978,-0.00028883,0.00040077,0.00039943,-0.00004347,-0.00001762,-0.000
 05533,0.00035835,-0.00060704,0.00125314,-0.00037005,-0.00028467,0.0005
 6744,0.08542956,-0.03520250,0.28895036,0.00007798,-0.00002813,-0.00000
 079,-0.00004996,0.00028732,0.00005971,-0.00000589,-0.00012076,-0.00022
 394,0.00138613,-0.00189604,-0.00052652,-0.01487864,-0.03075723,0.01177
 771,-0.07211611,-0.07421567,0.02428729,0.00136128,0.01183046,-0.003880
 65,-0.00045163,0.00024495,0.00042272,0.00061805,0.00097398,0.00205336,
 -0.00000851,0.00000482,0.00000637,-0.00000184,-0.00000364,-0.00001018,
 -0.00001323,-0.00000145,-0.00000884,-0.00001424,-0.00001256,-0.0000145
 5,0.00026964,0.00021940,-0.00008643,0.00000162,0.00016094,0.00003151,-
 0.00001733,0.00118003,0.00017124,0.00169285,0.00012610,-0.00054783,-0.
 00692241,0.00063601,0.00007965,0.00378364,0.00994516,-0.00335726,0.085
 54461,0.00001653,-0.00000178,0.00001685,-0.00013055,0.00002974,0.00003
 422,0.00017845,0.00039863,-0.00009535,0.00056632,0.00094134,-0.0002112
 9,-0.00034298,-0.00016665,-0.00022247,-0.07571097,-0.24790881,0.070127
 64,-0.00567186,-0.02308411,0.00409753,0.00163556,-0.00038979,-0.001158
 07,-0.00106358,0.00407678,-0.00294049,-0.00001041,0.00000184,0.0000042
 9,-0.00000785,0.00000335,0.00000026,-0.00000555,-0.00000062,-0.0000052
 7,-0.00002010,-0.00000922,0.00000397,0.00016947,-0.00010409,-0.0000350
 8,-0.00003514,-0.00003917,-0.00001995,-0.00024694,0.00040854,0.0003571
 8,-0.00034634,0.00040464,-0.00029635,0.00036159,0.00104977,-0.00064461
 ,-0.00163481,-0.00478946,0.00180760,0.08151721,0.27056928,0.00001158,-
 0.00000650,-0.00000195,0.00004469,-0.00005280,-0.00003697,0.00000161,-
 0.00018565,-0.00000760,0.00006154,0.00077061,-0.00002272,-0.00017949,-
 0.00051167,-0.00012055,0.02471684,0.06696445,-0.06432741,-0.00403599,-
 0.02202248,0.00383269,0.00092258,-0.00013049,-0.00229175,-0.00185688,0
 .00167781,-0.00082759,0.00000541,0.00000027,-0.00000124,-0.00000545,-0
 .00000188,0.00000008,-0.00000302,0.00000043,-0.00000197,-0.00004652,-0
 .00000419,-0.00003027,-0.00009790,-0.00003374,-0.00000693,0.00005305,0
 .00011237,-0.00006868,0.00026979,-0.00034735,0.00014432,0.00017004,-0.
 00066828,0.00049887,-0.00001174,-0.00058358,0.00103345,0.01036849,0.02
 806752,-0.00989243,-0.03015082,-0.07240765,0.07113745,0.00007340,-0.00
 000952,-0.00000803,-0.00010809,0.00007170,0.00006056,0.00017488,-0.000
 09656,-0.00008154,0.00048312,0.00029181,0.00024616,-0.00057139,0.00166
 781,0.00140709,-0.00081826,0.00015431,0.00013014,-0.01287442,0.0057586
 0,0.00485826,-0.31161693,0.03157855,0.02664095,-0.00312073,-0.00330228
 ,-0.00278601,-0.00000984,0.00000980,0.00000825,-0.00001126,-0.00000620
 ,-0.00000061,-0.00001126,-0.00000164,-0.00000602,-0.00000207,0.0000053
 2,-0.00000014,-0.00000207,0.00000075,0.00000529,-0.00007568,0.00012320
 ,0.00012788,-0.00007567,0.00014681,0.00009991,0.00029171,0.00017935,0.
 00073617,0.00029173,0.00075591,0.00005288,0.00009657,-0.00006794,0.000
 02014,0.00009655,0.00000838,-0.00007035,0.34043284,0.00012476,0.000003
 54,-0.00001274,-0.00017642,0.00008003,0.00008933,0.00017723,-0.0000052
 3,-0.00008130,0.00023115,-0.00043594,0.00000103,-0.00001635,-0.0009135
 3,-0.00198477,0.00012970,0.00033664,0.00044292,-0.01990821,0.00524507,
 0.00723091,0.03649131,-0.05284268,-0.00500038,-0.00342317,-0.00304951,
 -0.00336912,-0.00001734,0.00000969,0.00000942,-0.00001954,-0.00001393,
 0.00000398,-0.00001632,-0.00000206,-0.00000840,0.00000787,-0.00000204,
 0.00001453,-0.00001512,-0.00001047,0.00002152,-0.00004731,0.00011386,0
 .00013025,-0.00002084,0.00004908,0.00000162,0.00062700,-0.00125845,-0.
 00021570,0.00017620,-0.00027844,-0.00032509,0.00015681,0.00012029,0.00
 019759,0.00003325,0.00013031,0.00001610,-0.03838637,0.05547886,0.00010
 519,-0.00001295,0.00000793,-0.00014888,0.00008956,0.00004954,0.0001495
 8,-0.00008141,0.00002256,0.00019503,0.00000100,-0.00043628,-0.00001384
 ,-0.00198482,-0.00023539,0.00010938,0.00044293,0.00018528,-0.01679522,
 0.00723071,0.00277431,0.03078563,-0.00500038,-0.05113384,-0.00288795,-
 0.00336901,-0.00189838,-0.00001462,0.00000946,0.00000649,-0.00001322,-
 0.00000631,-0.00000131,-0.00001702,0.00000198,-0.00001319,-0.00001668,
 0.00002010,-0.00001668,0.00001057,0.00001591,-0.00000821,-0.00001306,-
 0.00000946,0.00002654,-0.00004443,0.00014135,0.00009133,0.00007161,-0.
 00015762,-0.00018605,0.00060604,-0.00038313,-0.00116614,0.00000695,0.0
 0001778,0.00009378,0.00015344,0.00019593,0.00008379,-0.03238435,0.0080
 8178,0.05271724,0.00004126,0.00000418,-0.00001164,-0.00005359,0.000023
 58,0.00003989,0.00006689,-0.00001361,-0.00006481,0.00023041,-0.0001197
 7,0.00023891,-0.00025213,0.00064524,-0.00034096,-0.00096659,-0.0001070
 8,-0.00067386,0.00256290,-0.01726375,0.00583212,-0.06031447,0.06036084
 ,-0.01769507,-0.00041286,-0.00025389,-0.00178492,-0.00000521,0.0000032
 6,0.00000365,-0.00000718,-0.00000553,0.00000161,-0.00000529,-0.0000022
 2,-0.00000044,0.00001108,-0.00001092,0.00001257,-0.00000590,-0.0000049
 5,0.00000562,-0.00004974,0.00009884,0.00009768,-0.00001729,0.00002729,
 0.00000360,0.00022749,-0.00023262,0.00046055,0.00004205,-0.00006090,-0
 .00013693,0.00009376,-0.00020429,-0.00005106,0.00008236,-0.00008921,-0
 .00000413,-0.00600026,0.02987729,-0.00975125,0.06281212,-0.00005427,-0
 .00000704,0.00000474,0.00008477,-0.00002287,-0.00003553,-0.00006788,-0
 .00001553,0.00002486,0.00006524,0.00006902,0.00002990,-0.00037173,-0.0
 0010371,0.00009338,-0.00148919,-0.00027808,-0.00094074,0.00334011,-0.0
 2074825,0.00315833,0.06069012,-0.27755576,0.06889146,0.00167958,0.0016
 1926,0.00064147,0.00000822,-0.00000507,-0.00000441,0.00000861,0.000006
 93,-0.00000169,0.00000663,0.00000118,0.00000244,0.00000661,0.00000055,
 -0.00000537,0.00001721,0.00000694,-0.00000976,0.00000144,-0.00002154,0
 .00000318,-0.00000680,0.00001470,-0.00000298,-0.00003404,0.00009733,-0
 .00000404,0.00013827,0.00003258,-0.00002171,-0.00000087,-0.00041756,-0
 .00025529,0.00001821,-0.00032103,-0.00012885,0.00041485,-0.00223213,0.
 00078951,-0.06552715,0.30164495,-0.00001186,-0.00000626,-0.00000255,0.
 00002901,0.00000020,-0.00000396,-0.00003400,-0.00002566,-0.00000533,0.
 00004989,0.00005567,-0.00002221,-0.00025646,-0.00010726,-0.00001549,-0
 .00107227,-0.00012153,-0.00224377,0.00302102,-0.02031421,0.00307010,-0
 .01750541,0.06697550,-0.05860040,0.00137154,-0.00018975,0.00149363,0.0
 0000316,-0.00000048,-0.00000034,0.00000294,0.00000188,-0.00000020,0.00
 000242,0.00000041,0.00000067,0.00001030,0.00000046,0.00000164,0.000011
 62,0.00000526,-0.00000313,0.00001053,-0.00002254,0.00000929,-0.0000164
 0,0.00000896,0.00000295,-0.00000949,0.00005112,-0.00002245,0.00013110,
 0.00001445,0.00000885,0.00008773,-0.00060579,-0.00033830,-0.00002202,-
 0.00014113,-0.00001969,0.00106940,-0.00480598,0.00024322,0.02146710,-0
 .07197008,0.06584755,0.00004121,-0.00001082,0.00000594,-0.00005361,0.0
 0004341,0.00001667,0.00006698,-0.00006619,-0.00000256,0.00023044,0.000
 21535,-0.00015830,-0.00025219,-0.00022744,0.00069346,-0.00096662,-0.00
 068236,0.00000789,0.00256318,0.00284150,-0.01799941,-0.06031435,-0.007
 27664,0.06247852,-0.00041298,-0.00180218,0.00005044,-0.00000520,0.0000
 0416,0.00000264,-0.00000529,-0.00000080,-0.00000208,-0.00000719,0.0000
 0067,-0.00000569,-0.00000589,0.00000469,-0.00000589,0.00001107,0.00001
 048,-0.00001287,-0.00001729,0.00000814,0.00002630,-0.00004976,0.000112
 92,0.00008099,0.00004206,-0.00014523,-0.00003696,0.00022751,0.00041484
 ,-0.00030686,0.00008237,-0.00001909,-0.00008721,0.00009376,-0.00008476
 ,-0.00019280,-0.00600012,-0.00458008,0.03109282,0.00177296,0.00114343,
 -0.00857739,0.06281172,-0.00002077,-0.00000256,-0.00000729,0.00004292,
 -0.00001065,-0.00000175,-0.00004500,-0.00000553,-0.00002745,0.00006014
 ,-0.00000537,0.00006832,-0.00031541,-0.00002027,-0.00012160,-0.0013078
 2,-0.00236444,0.00023474,0.00354067,-0.00045329,-0.02378185,-0.0070343
 0,-0.04225559,0.02677301,0.00163483,0.00157216,-0.00018155,0.00000450,
 -0.00000136,-0.00000110,0.00000350,0.00000103,0.00000049,0.00000430,0.
 ,0.00000316,0.00001437,-0.00000366,0.00000702,0.00001125,0.00000082,0.
 00000047,-0.00001728,0.00000429,0.00001082,0.00001061,0.00000514,-0.00
 002710,0.00015256,0.00000832,0.00001869,-0.00001513,-0.00001129,0.0000
 6967,-0.00001861,-0.00007304,-0.00018342,0.00008629,-0.00048354,-0.000
 59455,0.00112397,-0.00049381,-0.00510300,-0.00826219,-0.00319633,0.030
 24441,0.01012456,0.04864017,-0.00005129,0.00000420,-0.00000612,0.00007
 881,-0.00003795,-0.00001706,-0.00006145,0.00002326,-0.00001476,0.00005
 583,0.00004256,0.00005228,-0.00032318,0.00007905,-0.00009887,-0.001287
 48,-0.00058437,-0.00015743,0.00278389,-0.00030927,-0.01722496,0.062771
 17,0.02868894,-0.29390091,0.00142469,0.00064962,0.00154085,0.00000753,
 -0.00000516,-0.00000427,0.00000608,0.00000243,0.00000063,0.00000800,-0
 .00000054,0.00000658,0.00001499,-0.00000791,0.00000754,0.00000479,-0.0
 0000528,0.00000133,-0.00000394,-0.00000118,0.00001332,-0.00000031,-0.0
 0000131,-0.00001745,0.00011415,-0.00001753,0.00003304,-0.00003194,0.00
 001454,0.00008613,0.00002161,-0.00017120,-0.00026774,-0.00001558,-0.00
 024393,-0.00027238,0.00022883,0.00049247,-0.00149508,0.00257167,0.0009
 5587,-0.00852714,-0.06820634,-0.02874244,0.31885297,-0.00020859,-0.000
 00450,-0.00000374,0.00035845,-0.00015541,-0.00013147,-0.00025338,-0.00
 001068,-0.00000867,0.00040572,0.00019588,0.00016536,-0.00004166,-0.000
 28716,-0.00024217,0.00273771,-0.00089074,-0.00075118,-0.03350872,-0.03
 642409,-0.03072972,-0.00559577,0.00255936,0.00215889,-0.09686448,-0.08
 101111,-0.06834721,0.00003446,-0.00002255,-0.00001896,0.00002892,0.000
 01833,-0.00000098,0.00002900,0.00000205,0.00001823,0.00002423,-0.00001
 698,0.00000278,0.00002425,-0.00000003,-0.00001729,-0.00002608,0.000023
 79,0.00001861,-0.00002612,0.00002241,0.00002030,0.00029587,-0.00010093
 ,0.00010924,0.00029590,0.00009076,-0.00011790,-0.00052877,0.00018864,0
 .00092892,-0.00052870,0.00094752,0.00002949,-0.00064275,-0.00140549,-0
 .00118573,0.00014722,-0.00007136,0.00023755,0.00014723,0.00022206,-0.0
 0011052,0.13369606,0.00006087,0.00000129,-0.00000612,-0.00010125,0.000
 05991,0.00006219,0.00007961,-0.00000727,-0.00007119,-0.00003398,-0.000
 00503,-0.00009826,0.00010499,-0.00033095,0.00031488,0.00267371,-0.0027
 1247,0.00544347,0.00983442,-0.00314341,-0.00418669,-0.00237243,0.00778
 238,-0.00518680,-0.12653884,-0.20935308,-0.14664528,-0.00000907,0.0000
 0858,0.00000657,-0.00001056,-0.00000912,0.,-0.00000735,-0.00000242,-0.
 00000367,-0.00001163,-0.00000124,0.00000439,-0.00001219,0.00000064,0.0
 0000542,0.00000743,-0.00000988,-0.00000973,0.00001303,0.00002066,0.000
 00802,0.00006170,-0.00005475,0.00003864,-0.00007508,0.00005581,-0.0000
 5260,-0.00023334,0.00145157,0.00140573,-0.00022866,-0.00071594,0.00007
 012,-0.00042060,-0.00002916,-0.00092992,0.00111756,0.00143146,0.000952
 36,-0.00002855,-0.00085119,-0.00082486,0.11613021,0.20641362,0.0000513
 4,-0.00000625,0.00000352,-0.00008544,0.00006267,0.00003803,0.00006711,
 -0.00007169,0.00001755,-0.00002862,-0.00009841,0.00002875,0.00008859,0
 .00031473,-0.00043837,0.00225579,0.00544355,-0.00457196,0.00829636,-0.
 00418810,-0.00171353,-0.00200159,-0.00518645,0.00955471,-0.10675704,-0
 .14664441,-0.15925513,-0.00000767,0.00000652,0.00000643,-0.00000576,-0
 .00000249,-0.00000173,-0.00000928,-0.00000126,-0.00000849,-0.00001038,
 0.00000584,-0.00000109,-0.00000968,0.00000423,-0.00000304,0.00001198,0
 .00001324,0.00002083,0.00000527,-0.00001483,-0.00000963,-0.00008677,-0
 .00003372,0.00005802,0.00007548,0.00001987,-0.00005238,-0.00019216,-0.
 00030016,-0.00096830,-0.00019760,0.00177618,0.00119948,-0.00035485,-0.
 00092996,0.00028855,-0.00021990,-0.00121469,-0.00087294,0.00113867,0.0
 0134229,0.00140950,0.09797615,0.14970331,0.15527120\\-0.00007426,-0.00
 003580,-0.00003021,0.00008621,0.00005721,0.00004828,-0.00003952,-0.000
 05444,-0.00004593,-0.00000028,0.00008424,0.00007108,-0.00002281,-0.000
 05213,-0.00004385,-0.00002188,0.00007985,0.00006855,0.00007250,-0.0000
 5096,-0.00004839,-0.00009165,-0.00001531,-0.00001127,-0.00000943,0.000
 04287,0.00003732,0.00004880,-0.00001848,-0.00001559,0.00000271,0.00000
 616,-0.00000349,0.00000271,-0.00000241,0.00000666,0.00000442,0.0000010
 5,0.00001434,0.00000443,0.00001433,-0.00000138,-0.00000690,-0.00001888
 ,-0.00001902,-0.00000690,-0.00002191,-0.00001540,0.00000216,0.00000638
 ,0.00001262,0.00000214,0.00001340,0.00000412,-0.00000959,-0.00000290,-
 0.00001331,-0.00000946,-0.00001394,-0.00000080,0.00001853,-0.00001772,
 -0.00001467,-0.00000496,-0.00000028,-0.00000369,-0.00000463,-0.0000033
 4,0.00000083,0.00005767,0.00000297,0.00000319\\\@


    UPON JULIA'S CLOTHES

 WHENAS IN SILKS MY JULIA GOES,
 THEN, THEN, METHINKS, HOW SWEETLY FLOWS
 THAT LIQUEFACTION OF HER CLOTHES.

 NEXT, WHEN I CAST MINE EYES, AND SEE
 THAT BRAVE VIBRATION, EACH WAY FREE,
 O, HOW THAT GLITTERING TAKETH ME!
     -- ROBERT HERRICK, 1648
 Job cpu time:       0 days  1 hours 45 minutes 44.4 seconds.
 Elapsed time:       0 days  0 hours 26 minutes 26.4 seconds.
 File lengths (MBytes):  RWF=    192 Int=      0 D2E=      0 Chk=     10 Scr=      1
 Normal termination of Gaussian 16 at Sun Jul  3 22:20:37 2022.
### All Done ###
