### Starting Gaussian ###
 Entering Gaussian System, Link 0=g16
 Initial command:
 /cluster/software/gaussian/gaussian-16-A.03/avx2/g16/l1.exe "/local/scratch/ks29c/Gau-819.inp" -scrdir="/local/scratch/ks29c/"
 Entering Link 1 = /cluster/software/gaussian/gaussian-16-A.03/avx2/g16/l1.exe PID=       820.
  
 Copyright (c) 1988,1990,1992,1993,1995,1998,2003,2009,2016,
            Gaussian, Inc.  All Rights Reserved.
  
 This is part of the Gaussian(R) 16 program.  It is based on
 the Gaussian(R) 09 system (copyright 2009, Gaussian, Inc.),
 the Gaussian(R) 03 system (copyright 2003, Gaussian, Inc.),
 the Gaussian(R) 98 system (copyright 1998, Gaussian, Inc.),
 the Gaussian(R) 94 system (copyright 1995, Gaussian, Inc.),
 the Gaussian 92(TM) system (copyright 1992, Gaussian, Inc.),
 the Gaussian 90(TM) system (copyright 1990, Gaussian, Inc.),
 the Gaussian 88(TM) system (copyright 1988, Gaussian, Inc.),
 the Gaussian 86(TM) system (copyright 1986, Carnegie Mellon
 University), and the Gaussian 82(TM) system (copyright 1983,
 Carnegie Mellon University). Gaussian is a federally registered
 trademark of Gaussian, Inc.
  
 This software contains proprietary and confidential information,
 including trade secrets, belonging to Gaussian, Inc.
  
 This software is provided under written license and may be
 used, copied, transmitted, or stored only in accord with that
 written license.
  
 The following legend is applicable only to US Government
 contracts under FAR:
  
                    RESTRICTED RIGHTS LEGEND
  
 Use, reproduction and disclosure by the US Government is
 subject to restrictions as set forth in subparagraphs (a)
 and (c) of the Commercial Computer Software - Restricted
 Rights clause in FAR 52.227-19.
  
 Gaussian, Inc.
 340 Quinnipiac St., Bldg. 40, Wallingford CT 06492
  
  
 ---------------------------------------------------------------
 Warning -- This program may not be used in any manner that
 competes with the business of Gaussian, Inc. or will provide
 assistance to any competitor of Gaussian, Inc.  The licensee
 of this program is prohibited from giving any competitor of
 Gaussian, Inc. access to this program.  By using this program,
 the user acknowledges that Gaussian, Inc. is engaged in the
 business of creating and licensing software in the field of
 computational chemistry and represents and warrants to the
 licensee that it is not a competitor of Gaussian, Inc. and that
 it will not use this program in any manner prohibited above.
 ---------------------------------------------------------------
  

 Cite this work as:
 Gaussian 16, Revision A.03,
 M. J. Frisch, G. W. Trucks, H. B. Schlegel, G. E. Scuseria, 
 M. A. Robb, J. R. Cheeseman, G. Scalmani, V. Barone, 
 G. A. Petersson, H. Nakatsuji, X. Li, M. Caricato, A. V. Marenich, 
 J. Bloino, B. G. Janesko, R. Gomperts, B. Mennucci, H. P. Hratchian, 
 J. V. Ortiz, A. F. Izmaylov, J. L. Sonnenberg, D. Williams-Young, 
 F. Ding, F. Lipparini, F. Egidi, J. Goings, B. Peng, A. Petrone, 
 T. Henderson, D. Ranasinghe, V. G. Zakrzewski, J. Gao, N. Rega, 
 G. Zheng, W. Liang, M. Hada, M. Ehara, K. Toyota, R. Fukuda, 
 J. Hasegawa, M. Ishida, T. Nakajima, Y. Honda, O. Kitao, H. Nakai, 
 T. Vreven, K. Throssell, J. A. Montgomery, Jr., J. E. Peralta, 
 F. Ogliaro, M. J. Bearpark, J. J. Heyd, E. N. Brothers, K. N. Kudin, 
 V. N. Staroverov, T. A. Keith, R. Kobayashi, J. Normand, 
 K. Raghavachari, A. P. Rendell, J. C. Burant, S. S. Iyengar, 
 J. Tomasi, M. Cossi, J. M. Millam, M. Klene, C. Adamo, R. Cammi, 
 J. W. Ochterski, R. L. Martin, K. Morokuma, O. Farkas, 
 J. B. Foresman, and D. J. Fox, Gaussian, Inc., Wallingford CT, 2016.
 
 ******************************************
 Gaussian 16:  ES64L-G16RevA.03 25-Dec-2016
                 4-Aug-2022 
 ******************************************
 %chk=CtCCNCCCOC.chk
 %NProcShared=20
 Will use up to   20 processors via shared memory.
 -----------------------------
 # opt freq b3lyp/6-31g(2df,p)
 -----------------------------
 1/18=20,19=15,26=3,38=1/1,3;
 2/9=110,12=2,17=6,18=5,40=1/2;
 3/5=1,6=6,7=104,11=2,25=1,30=1,71=1,74=-5/1,2,3;
 4//1;
 5/5=2,38=5/2;
 6/7=2,8=2,9=2,10=2,28=1/1;
 7//1,2,3,16;
 1/18=20,19=15,26=3/3(2);
 2/9=110/2;
 99//99;
 2/9=110/2;
 3/5=1,6=6,7=104,11=2,25=1,30=1,71=1,74=-5/1,2,3;
 4/5=5,16=3,69=1/1;
 5/5=2,38=5/2;
 7//1,2,3,16;
 1/18=20,19=15,26=3/3(-5);
 2/9=110/2;
 6/7=2,8=2,9=2,10=2,19=2,28=1/1;
 99/9=1/99;
 -------------------
 Title Card Required
 -------------------
 Symbolic Z-matrix:
 Charge =  0 Multiplicity = 1
 C                     1.0664   -0.02622   0.07002 
 C                     2.37026  -0.02622   0.07002 
 C                     3.89026  -0.02622   0.07002 
 N                     4.37598  -1.06159   0.97033 
 C                     5.83526  -1.0784    0.97235 
 C                     6.35935  -2.16365   1.90606 
 C                     7.88228  -2.15411   1.90053 
 O                     8.36469  -3.17464   2.76959 
 C                     9.78667  -3.19249   2.79173 
 H                     0.00108  -0.02776   0.07698 
 H                     4.23187   0.96382   0.39316 
 H                     4.23649  -0.19645  -0.95604 
 H                     4.01481  -1.96365   0.66446 
 H                     6.21547  -0.10468   1.30435 
 H                     6.21237  -1.25804  -0.04212 
 H                     5.99531  -3.15242   1.59953 
 H                     5.99333  -2.00756   2.92887 
 H                     8.25205  -1.18014   2.24202 
 H                     8.25319  -2.33836   0.8854 
 H                     10.11428  -3.98259   3.47156 
 H                     10.17448  -2.2346    3.15238 
 H                     10.17933  -3.40306   1.79203 
 

 GradGradGradGradGradGradGradGradGradGradGradGradGradGradGradGradGradGrad
 Berny optimization.
 Initialization pass.
                           ----------------------------
                           !    Initial Parameters    !
                           ! (Angstroms and Degrees)  !
 --------------------------                            --------------------------
 ! Name  Definition              Value          Derivative Info.                !
 --------------------------------------------------------------------------------
 ! R1    R(1,2)                  1.3039         estimate D2E/DX2                !
 ! R2    R(1,10)                 1.0653         estimate D2E/DX2                !
 ! R3    R(2,3)                  1.52           estimate D2E/DX2                !
 ! R4    R(3,4)                  1.4555         estimate D2E/DX2                !
 ! R5    R(3,11)                 1.096          estimate D2E/DX2                !
 ! R6    R(3,12)                 1.0962         estimate D2E/DX2                !
 ! R7    R(4,5)                  1.4594         estimate D2E/DX2                !
 ! R8    R(4,13)                 1.0187         estimate D2E/DX2                !
 ! R9    R(5,6)                  1.5245         estimate D2E/DX2                !
 ! R10   R(5,14)                 1.0968         estimate D2E/DX2                !
 ! R11   R(5,15)                 1.0971         estimate D2E/DX2                !
 ! R12   R(6,7)                  1.523          estimate D2E/DX2                !
 ! R13   R(6,16)                 1.0973         estimate D2E/DX2                !
 ! R14   R(6,17)                 1.0975         estimate D2E/DX2                !
 ! R15   R(7,8)                  1.4246         estimate D2E/DX2                !
 ! R16   R(7,18)                 1.0963         estimate D2E/DX2                !
 ! R17   R(7,19)                 1.0964         estimate D2E/DX2                !
 ! R18   R(8,9)                  1.4223         estimate D2E/DX2                !
 ! R19   R(9,20)                 1.0926         estimate D2E/DX2                !
 ! R20   R(9,21)                 1.0945         estimate D2E/DX2                !
 ! R21   R(9,22)                 1.0945         estimate D2E/DX2                !
 ! A1    A(2,3,4)              109.4944         estimate D2E/DX2                !
 ! A2    A(2,3,11)             108.1604         estimate D2E/DX2                !
 ! A3    A(2,3,12)             108.4119         estimate D2E/DX2                !
 ! A4    A(4,3,11)             110.8657         estimate D2E/DX2                !
 ! A5    A(4,3,12)             111.2914         estimate D2E/DX2                !
 ! A6    A(11,3,12)            108.5295         estimate D2E/DX2                !
 ! A7    A(3,4,5)              110.044          estimate D2E/DX2                !
 ! A8    A(3,4,13)             109.0182         estimate D2E/DX2                !
 ! A9    A(5,4,13)             110.1658         estimate D2E/DX2                !
 ! A10   A(4,5,6)              110.6581         estimate D2E/DX2                !
 ! A11   A(4,5,14)             109.6839         estimate D2E/DX2                !
 ! A12   A(4,5,15)             110.14           estimate D2E/DX2                !
 ! A13   A(6,5,14)             109.1122         estimate D2E/DX2                !
 ! A14   A(6,5,15)             109.3658         estimate D2E/DX2                !
 ! A15   A(14,5,15)            107.8254         estimate D2E/DX2                !
 ! A16   A(5,6,7)              109.6988         estimate D2E/DX2                !
 ! A17   A(5,6,16)             110.8728         estimate D2E/DX2                !
 ! A18   A(5,6,17)             110.7864         estimate D2E/DX2                !
 ! A19   A(7,6,16)             109.6558         estimate D2E/DX2                !
 ! A20   A(7,6,17)             109.6329         estimate D2E/DX2                !
 ! A21   A(16,6,17)            106.1317         estimate D2E/DX2                !
 ! A22   A(6,7,8)              109.3853         estimate D2E/DX2                !
 ! A23   A(6,7,18)             109.9806         estimate D2E/DX2                !
 ! A24   A(6,7,19)             109.914          estimate D2E/DX2                !
 ! A25   A(8,7,18)             109.4011         estimate D2E/DX2                !
 ! A26   A(8,7,19)             109.2621         estimate D2E/DX2                !
 ! A27   A(18,7,19)            108.8806         estimate D2E/DX2                !
 ! A28   A(7,8,9)              110.9191         estimate D2E/DX2                !
 ! A29   A(8,9,20)             108.5752         estimate D2E/DX2                !
 ! A30   A(8,9,21)             110.3888         estimate D2E/DX2                !
 ! A31   A(8,9,22)             110.2968         estimate D2E/DX2                !
 ! A32   A(20,9,21)            108.7598         estimate D2E/DX2                !
 ! A33   A(20,9,22)            108.7614         estimate D2E/DX2                !
 ! A34   A(21,9,22)            110.0121         estimate D2E/DX2                !
 ! A35   L(2,1,10,16,-1)       179.76           estimate D2E/DX2                !
 ! A36   L(1,2,3,13,-1)        180.0            estimate D2E/DX2                !
 ! A37   L(2,1,10,16,-2)       179.4832         estimate D2E/DX2                !
 ! A38   L(1,2,3,13,-2)        180.0            estimate D2E/DX2                !
 ! D1    D(2,3,4,5)            179.6027         estimate D2E/DX2                !
 ! D2    D(2,3,4,13)            58.6783         estimate D2E/DX2                !
 ! D3    D(11,3,4,5)           -61.1371         estimate D2E/DX2                !
 ! D4    D(11,3,4,13)          177.9385         estimate D2E/DX2                !
 ! D5    D(12,3,4,5)            59.7642         estimate D2E/DX2                !
 ! D6    D(12,3,4,13)          -61.1602         estimate D2E/DX2                !
 ! D7    D(3,4,5,6)           -179.7023         estimate D2E/DX2                !
 ! D8    D(3,4,5,14)            59.8659         estimate D2E/DX2                !
 ! D9    D(3,4,5,15)           -58.6554         estimate D2E/DX2                !
 ! D10   D(13,4,5,6)           -59.4692         estimate D2E/DX2                !
 ! D11   D(13,4,5,14)         -179.901          estimate D2E/DX2                !
 ! D12   D(13,4,5,15)           61.5777         estimate D2E/DX2                !
 ! D13   D(4,5,6,7)           -179.5231         estimate D2E/DX2                !
 ! D14   D(4,5,6,16)            59.2187         estimate D2E/DX2                !
 ! D15   D(4,5,6,17)           -58.3498         estimate D2E/DX2                !
 ! D16   D(14,5,6,7)           -58.7509         estimate D2E/DX2                !
 ! D17   D(14,5,6,16)          179.991          estimate D2E/DX2                !
 ! D18   D(14,5,6,17)           62.4224         estimate D2E/DX2                !
 ! D19   D(15,5,6,7)            58.9723         estimate D2E/DX2                !
 ! D20   D(15,5,6,16)          -62.2858         estimate D2E/DX2                !
 ! D21   D(15,5,6,17)         -179.8544         estimate D2E/DX2                !
 ! D22   D(5,6,7,8)           -179.7106         estimate D2E/DX2                !
 ! D23   D(5,6,7,18)            60.1152         estimate D2E/DX2                !
 ! D24   D(5,6,7,19)           -59.7484         estimate D2E/DX2                !
 ! D25   D(16,6,7,8)           -57.7228         estimate D2E/DX2                !
 ! D26   D(16,6,7,18)         -177.8969         estimate D2E/DX2                !
 ! D27   D(16,6,7,19)           62.2394         estimate D2E/DX2                !
 ! D28   D(17,6,7,8)            58.4236         estimate D2E/DX2                !
 ! D29   D(17,6,7,18)          -61.7505         estimate D2E/DX2                !
 ! D30   D(17,6,7,19)          178.3858         estimate D2E/DX2                !
 ! D31   D(6,7,8,9)           -179.8509         estimate D2E/DX2                !
 ! D32   D(18,7,8,9)           -59.3226         estimate D2E/DX2                !
 ! D33   D(19,7,8,9)            59.7876         estimate D2E/DX2                !
 ! D34   D(7,8,9,20)           179.6954         estimate D2E/DX2                !
 ! D35   D(7,8,9,21)            60.5614         estimate D2E/DX2                !
 ! D36   D(7,8,9,22)           -61.2229         estimate D2E/DX2                !
 --------------------------------------------------------------------------------
 Trust Radius=3.00D-01 FncErr=1.00D-07 GrdErr=1.00D-06 EigMax=2.50D+02 EigMin=1.00D-04
 Number of steps in this run=    105 maximum allowed number of steps=    132.
 GradGradGradGradGradGradGradGradGradGradGradGradGradGradGradGradGradGrad

                          Input orientation:                          
 ---------------------------------------------------------------------
 Center     Atomic      Atomic             Coordinates (Angstroms)
 Number     Number       Type             X           Y           Z
 ---------------------------------------------------------------------
      1          6           0        1.066400   -0.026220    0.070020
      2          6           0        2.370260   -0.026220    0.070020
      3          6           0        3.890260   -0.026220    0.070020
      4          7           0        4.375980   -1.061590    0.970330
      5          6           0        5.835260   -1.078400    0.972350
      6          6           0        6.359350   -2.163650    1.906060
      7          6           0        7.882280   -2.154110    1.900530
      8          8           0        8.364690   -3.174640    2.769590
      9          6           0        9.786670   -3.192490    2.791730
     10          1           0        0.001080   -0.027760    0.076980
     11          1           0        4.231870    0.963820    0.393160
     12          1           0        4.236490   -0.196450   -0.956040
     13          1           0        4.014810   -1.963650    0.664460
     14          1           0        6.215470   -0.104680    1.304350
     15          1           0        6.212370   -1.258040   -0.042120
     16          1           0        5.995310   -3.152420    1.599530
     17          1           0        5.993330   -2.007560    2.928870
     18          1           0        8.252050   -1.180140    2.242020
     19          1           0        8.253190   -2.338360    0.885400
     20          1           0       10.114280   -3.982590    3.471560
     21          1           0       10.174480   -2.234600    3.152380
     22          1           0       10.179330   -3.403060    1.792030
 ---------------------------------------------------------------------
                    Distance matrix (angstroms):
                    1          2          3          4          5
     1  C    0.000000
     2  C    1.303860   0.000000
     3  C    2.823860   1.520000   0.000000
     4  N    3.582718   2.430116   1.455498   0.000000
     5  C    4.966217   3.731958   2.388369   1.459378   0.000000
     6  C    5.996246   4.883901   3.746472   2.454360   1.524550
     7  C    7.371221   6.185551   4.880052   3.788537   2.491779
     8  O    8.394359   7.289267   6.100881   4.859231   3.744637
     9  C    9.668303   8.510941   7.225000   6.093751   4.836648
    10  H    1.065344   2.369191   3.889187   4.583299   5.995264
    11  H    3.332386   2.133118   1.096037   2.110966   2.660260
    12  H    3.336352   2.136491   1.096199   2.116324   2.655671
    13  H    3.577725   2.609892   2.030396   1.018682   2.047560
    14  H    5.295531   4.039228   2.633691   2.100231   1.096774
    15  H    5.292538   4.036306   2.630998   2.106176   1.097102
    16  H    6.033795   5.025288   4.067402   2.718399   2.172678
    17  H    6.031034   5.022486   4.064681   2.710454   2.171703
    18  H    7.594912   6.375309   5.007427   4.081074   2.731902
    19  H    7.593470   6.373359   5.004597   4.082905   2.727901
    20  H   10.444495   9.337729   8.121685   6.907712   5.743725
    21  H    9.865851   8.676620   7.339571   6.305545   4.991809
    22  H    9.869846   8.680434   7.343076   6.311620   4.994684
                    6          7          8          9         10
     6  C    0.000000
     7  C    1.522970   0.000000
     8  O    2.406070   1.424593   0.000000
     9  C    3.686387   2.345031   1.422264   0.000000
    10  H    6.952349   8.364210   9.332897  10.636877   0.000000
    11  H    4.073832   5.031813   6.313040   7.340562   4.356924
    12  H    4.070384   5.028341   6.308088   7.336657   4.362830
    13  H    2.660533   4.064661   4.981920   6.272933   4.494756
    14  H    2.149910   2.708108   4.023771   4.949782   6.334903
    15  H    2.153401   2.713933   4.026357   4.954637   6.333080
    16  H    1.097339   2.155894   2.642630   3.974589   6.929102
    17  H    1.097486   2.155712   2.647790   3.976468   6.925312
    18  H    2.159276   1.096341   2.066167   2.589748   8.607780
    19  H    2.158449   1.096363   2.064454   2.591369   8.607539
    20  H    4.456325   3.285316   2.051002   1.092591  11.377199
    21  H    4.014170   2.613004   2.074980   1.094540  10.854782
    22  H    4.017635   2.616885   2.073817   1.094496  10.859596
                   11         12         13         14         15
    11  H    0.000000
    12  H    1.779491   0.000000
    13  H    2.948016   2.407936   0.000000
    14  H    2.430356   3.005686   2.950955   0.000000
    15  H    3.008074   2.422050   2.413796   1.772916   0.000000
    16  H    4.637724   4.285107   2.491969   3.069906   2.516109
    17  H    4.285051   4.632400   3.007328   2.511845   3.071895
    18  H    4.916980   5.226850   4.588767   2.486664   3.063276
    19  H    5.226634   4.910454   4.260644   3.052400   2.488439
    20  H    8.279267   8.275682   7.011381   5.910643   5.915574
    21  H    7.290940   7.502859   6.648661   4.860610   5.182356
    22  H    7.509911   7.290513   6.429978   5.179704   4.868469
                   16         17         18         19         20
    16  H    0.000000
    17  H    1.754381   0.000000
    18  H    3.065217   2.501640   0.000000
    19  H    2.504136   3.064664   1.783786   0.000000
    20  H    4.599956   4.601900   3.582373   3.585439   0.000000
    21  H    4.551835   4.193271   2.374106   2.973436   1.777911
    22  H    4.195939   4.556580   2.976285   2.380248   1.777894
                   21         22
    21  H    0.000000
    22  H    1.793286   0.000000
 Stoichiometry    C7H13NO
 Framework group  C1[X(C7H13NO)]
 Deg. of freedom    60
 Full point group                 C1      NOp   1
 Largest Abelian subgroup         C1      NOp   1
 Largest concise Abelian subgroup C1      NOp   1
                         Standard orientation:                         
 ---------------------------------------------------------------------
 Center     Atomic      Atomic             Coordinates (Angstroms)
 Number     Number       Type             X           Y           Z
 ---------------------------------------------------------------------
      1          6           0        5.059187   -0.638690   -0.041823
      2          6           0        3.926100    0.005955   -0.017345
      3          6           0        2.605183    0.757462    0.011190
      4          7           0        1.504230   -0.193751   -0.028408
      5          6           0        0.229136    0.515189    0.007988
      6          6           0       -0.934638   -0.469069   -0.025484
      7          6           0       -2.252741    0.293373    0.001405
      8          8           0       -3.335150   -0.632504   -0.023297
      9          6           0       -4.584731    0.046431   -0.002586
     10          1           0        5.982147   -1.170203   -0.066264
     11          1           0        2.574165    1.426817   -0.856161
     12          1           0        2.572747    1.366140    0.922294
     13          1           0        1.579576   -0.822129    0.769825
     14          1           0        0.155599    1.187725   -0.855263
     15          1           0        0.162592    1.126468    0.916581
     16          1           0       -0.889029   -1.157608    0.827736
     17          1           0       -0.889243   -1.095415   -0.925542
     18          1           0       -2.320184    0.955799   -0.869575
     19          1           0       -2.315409    0.898801    0.913293
     20          1           0       -5.385137   -0.696844   -0.028012
     21          1           0       -4.680070    0.696480   -0.878009
     22          1           0       -4.681143    0.636350    0.914268
 ---------------------------------------------------------------------
 Rotational constants (GHZ):          10.4290604           0.4032358           0.3934242
 Standard basis: 6-31G(2df,p) (6D, 7F)
 There are   344 symmetry adapted cartesian basis functions of A   symmetry.
 There are   317 symmetry adapted basis functions of A   symmetry.
   317 basis functions,   487 primitive gaussians,   344 cartesian basis functions
    35 alpha electrons       35 beta electrons
       nuclear repulsion energy       412.9488724538 Hartrees.
 NAtoms=   22 NActive=   22 NUniq=   22 SFac= 1.00D+00 NAtFMM=   60 NAOKFM=F Big=F
 Integral buffers will be    131072 words long.
 Raffenetti 2 integral format.
 Two-electron integral symmetry is turned on.
 One-electron integrals computed using PRISM.
 PrsmSu:  requested number of processors reduced to:  13 ShMem   1 Linda.
 NBasis=   317 RedAO= T EigKep=  2.28D-04  NBF=   317
 NBsUse=   317 1.00D-06 EigRej= -1.00D+00 NBFU=   317
 ExpMin= 1.61D-01 ExpMax= 5.48D+03 ExpMxC= 8.25D+02 IAcc=3 IRadAn=         5 AccDes= 0.00D+00
 Harris functional with IExCor=  402 and IRadAn=       5 diagonalized for initial guess.
 HarFok:  IExCor=  402 AccDes= 0.00D+00 IRadAn=         5 IDoV= 1 UseB2=F ITyADJ=14
 ICtDFT=  3500011 ScaDFX=  1.000000  1.000000  1.000000  1.000000
 FoFCou: FMM=F IPFlag=           0 FMFlag=      100000 FMFlg1=           0
         NFxFlg=           0 DoJE=T BraDBF=F KetDBF=T FulRan=T
         wScrn=  0.000000 ICntrl=       500 IOpCl=  0 I1Cent=   200000004 NGrid=           0
         NMat0=    1 NMatS0=      1 NMatT0=    0 NMatD0=    1 NMtDS0=    0 NMtDT0=    0
 Petite list used in FoFCou.
 Requested convergence on RMS density matrix=1.00D-08 within 128 cycles.
 Requested convergence on MAX density matrix=1.00D-06.
 Requested convergence on             energy=1.00D-06.
 No special actions if energy rises.
 Integral accuracy reduced to 1.0D-05 until final iterations.
 Initial convergence to 1.0D-05 achieved.  Increase integral accuracy.
 SCF Done:  E(RB3LYP) =  -404.455783931     A.U. after   13 cycles
            NFock= 13  Conv=0.93D-08     -V/T= 2.0089

 **********************************************************************

            Population analysis using the SCF density.

 **********************************************************************

 Orbital symmetries:
       Occupied  (A) (A) (A) (A) (A) (A) (A) (A) (A) (A) (A) (A)
                 (A) (A) (A) (A) (A) (A) (A) (A) (A) (A) (A) (A)
                 (A) (A) (A) (A) (A) (A) (A) (A) (A) (A) (A)
       Virtual   (A) (A) (A) (A) (A) (A) (A) (A) (A) (A) (A) (A)
                 (A) (A) (A) (A) (A) (A) (A) (A) (A) (A) (A) (A)
                 (A) (A) (A) (A) (A) (A) (A) (A) (A) (A) (A) (A)
                 (A) (A) (A) (A) (A) (A) (A) (A) (A) (A) (A) (A)
                 (A) (A) (A) (A) (A) (A) (A) (A) (A) (A) (A) (A)
                 (A) (A) (A) (A) (A) (A) (A) (A) (A) (A) (A) (A)
                 (A) (A) (A) (A) (A) (A) (A) (A) (A) (A) (A) (A)
                 (A) (A) (A) (A) (A) (A) (A) (A) (A) (A) (A) (A)
                 (A) (A) (A) (A) (A) (A) (A) (A) (A) (A) (A) (A)
                 (A) (A) (A) (A) (A) (A) (A) (A) (A) (A) (A) (A)
                 (A) (A) (A) (A) (A) (A) (A) (A) (A) (A) (A) (A)
                 (A) (A) (A) (A) (A) (A) (A) (A) (A) (A) (A) (A)
                 (A) (A) (A) (A) (A) (A) (A) (A) (A) (A) (A) (A)
                 (A) (A) (A) (A) (A) (A) (A) (A) (A) (A) (A) (A)
                 (A) (A) (A) (A) (A) (A) (A) (A) (A) (A) (A) (A)
                 (A) (A) (A) (A) (A) (A) (A) (A) (A) (A) (A) (A)
                 (A) (A) (A) (A) (A) (A) (A) (A) (A) (A) (A) (A)
                 (A) (A) (A) (A) (A) (A) (A) (A) (A) (A) (A) (A)
                 (A) (A) (A) (A) (A) (A) (A) (A) (A) (A) (A) (A)
                 (A) (A) (A) (A) (A) (A) (A) (A) (A) (A) (A) (A)
                 (A) (A) (A) (A) (A) (A) (A) (A) (A) (A) (A) (A)
                 (A) (A) (A) (A) (A) (A) (A) (A) (A) (A) (A) (A)
                 (A) (A) (A) (A) (A) (A) (A) (A) (A) (A) (A) (A)
                 (A) (A) (A) (A) (A) (A)
 The electronic state is 1-A.
 Alpha  occ. eigenvalues --  -19.13580 -14.32018 -10.23978 -10.22606 -10.22195
 Alpha  occ. eigenvalues --  -10.21052 -10.20516 -10.19417 -10.18118  -1.02323
 Alpha  occ. eigenvalues --   -0.91590  -0.78623  -0.73742  -0.69405  -0.66454
 Alpha  occ. eigenvalues --   -0.62760  -0.59705  -0.53317  -0.50206  -0.48534
 Alpha  occ. eigenvalues --   -0.47384  -0.46424  -0.45449  -0.43590  -0.43219
 Alpha  occ. eigenvalues --   -0.40174  -0.38990  -0.36290  -0.34743  -0.34093
 Alpha  occ. eigenvalues --   -0.31529  -0.25447  -0.25357  -0.25073  -0.22989
 Alpha virt. eigenvalues --    0.02622   0.03678   0.08173   0.08820   0.10878
 Alpha virt. eigenvalues --    0.10920   0.12089   0.13753   0.13944   0.15672
 Alpha virt. eigenvalues --    0.16514   0.16846   0.18143   0.19114   0.20009
 Alpha virt. eigenvalues --    0.20399   0.20939   0.21032   0.24074   0.24969
 Alpha virt. eigenvalues --    0.28913   0.30090   0.38525   0.39488   0.42545
 Alpha virt. eigenvalues --    0.44728   0.47078   0.49837   0.50391   0.51306
 Alpha virt. eigenvalues --    0.52696   0.52938   0.53741   0.56818   0.57489
 Alpha virt. eigenvalues --    0.58717   0.60261   0.61145   0.62165   0.66157
 Alpha virt. eigenvalues --    0.67700   0.69359   0.69835   0.69908   0.71253
 Alpha virt. eigenvalues --    0.71477   0.71908   0.72959   0.74155   0.75011
 Alpha virt. eigenvalues --    0.75969   0.76115   0.76734   0.77644   0.78778
 Alpha virt. eigenvalues --    0.79440   0.80150   0.81499   0.83039   0.83583
 Alpha virt. eigenvalues --    0.84646   0.84860   0.87067   0.88650   0.89074
 Alpha virt. eigenvalues --    0.89950   0.95636   0.97917   1.01045   1.01450
 Alpha virt. eigenvalues --    1.04358   1.05502   1.07510   1.09049   1.14147
 Alpha virt. eigenvalues --    1.16047   1.17111   1.19522   1.22521   1.23456
 Alpha virt. eigenvalues --    1.24675   1.24978   1.29359   1.31804   1.32849
 Alpha virt. eigenvalues --    1.34558   1.35178   1.37050   1.38443   1.44076
 Alpha virt. eigenvalues --    1.44383   1.46055   1.46970   1.51689   1.55469
 Alpha virt. eigenvalues --    1.56356   1.58985   1.62044   1.63745   1.66495
 Alpha virt. eigenvalues --    1.70532   1.70998   1.72877   1.74060   1.75419
 Alpha virt. eigenvalues --    1.77607   1.80150   1.82909   1.84351   1.86628
 Alpha virt. eigenvalues --    1.88613   1.92683   1.95109   1.98554   2.02979
 Alpha virt. eigenvalues --    2.04852   2.14754   2.16417   2.18116   2.21902
 Alpha virt. eigenvalues --    2.24154   2.28723   2.29263   2.30077   2.34136
 Alpha virt. eigenvalues --    2.35874   2.36712   2.40815   2.43623   2.44366
 Alpha virt. eigenvalues --    2.48356   2.50612   2.55122   2.56434   2.60530
 Alpha virt. eigenvalues --    2.64550   2.65597   2.69046   2.69969   2.70313
 Alpha virt. eigenvalues --    2.70765   2.72254   2.73049   2.73875   2.76643
 Alpha virt. eigenvalues --    2.78637   2.80355   2.82049   2.84414   2.84723
 Alpha virt. eigenvalues --    2.85544   2.88090   2.88676   2.91076   2.92467
 Alpha virt. eigenvalues --    2.93744   2.95075   2.95612   2.96699   2.99673
 Alpha virt. eigenvalues --    3.01330   3.03383   3.05327   3.07636   3.09618
 Alpha virt. eigenvalues --    3.15559   3.16933   3.24337   3.26099   3.27701
 Alpha virt. eigenvalues --    3.28734   3.30457   3.32789   3.34124   3.37166
 Alpha virt. eigenvalues --    3.39681   3.41406   3.43675   3.44937   3.46800
 Alpha virt. eigenvalues --    3.48350   3.48855   3.49619   3.53503   3.54839
 Alpha virt. eigenvalues --    3.58729   3.61967   3.63898   3.65621   3.66821
 Alpha virt. eigenvalues --    3.68583   3.69023   3.73110   3.73700   3.79030
 Alpha virt. eigenvalues --    3.79470   3.80743   3.86239   3.87140   3.91157
 Alpha virt. eigenvalues --    3.94163   3.96908   3.98915   4.07906   4.13898
 Alpha virt. eigenvalues --    4.21802   4.22444   4.22687   4.26426   4.28557
 Alpha virt. eigenvalues --    4.31582   4.34060   4.34752   4.36828   4.37949
 Alpha virt. eigenvalues --    4.38326   4.40363   4.44239   4.45722   4.46723
 Alpha virt. eigenvalues --    4.47579   4.50799   4.51464   4.53397   4.55882
 Alpha virt. eigenvalues --    4.56934   4.58303   4.59919   4.60789   4.62799
 Alpha virt. eigenvalues --    4.63953   4.67138   4.67459   4.68329   4.71767
 Alpha virt. eigenvalues --    4.72953   4.74312   4.74553   4.76557   4.78792
 Alpha virt. eigenvalues --    4.80643   4.83704   4.85772   4.87960   4.90526
 Alpha virt. eigenvalues --    4.93028   4.94343   4.99277   5.00211   5.03246
 Alpha virt. eigenvalues --    5.04743   5.07873   5.09687   5.14232   5.17410
 Alpha virt. eigenvalues --    5.25397   5.31778   5.37308   5.40902   5.46924
 Alpha virt. eigenvalues --    5.49770   5.55264   5.57352   5.68603   5.74553
 Alpha virt. eigenvalues --    5.84555   5.96051   6.00954   6.14530   6.21868
 Alpha virt. eigenvalues --    6.24068   7.01641   9.56521  10.66193  11.04761
 Alpha virt. eigenvalues --   11.21217  11.38133  11.65398  11.93905  12.17357
 Alpha virt. eigenvalues --   13.34515  14.66030
          Condensed to atoms (all electrons):
               1          2          3          4          5          6
     1  C    5.078048   0.927645  -0.028359  -0.003644  -0.000012  -0.000006
     2  C    0.927645   4.586297   0.416711  -0.043661   0.003171  -0.000300
     3  C   -0.028359   0.416711   4.927414   0.365629  -0.062905   0.002109
     4  N   -0.003644  -0.043661   0.365629   6.411088   0.381468  -0.032311
     5  C   -0.000012   0.003171  -0.062905   0.381468   4.848813   0.385560
     6  C   -0.000006  -0.000300   0.002109  -0.032311   0.385560   4.903347
     7  C   -0.000000   0.000000  -0.000238   0.001953  -0.043282   0.407302
     8  O   -0.000000  -0.000000   0.000000  -0.000004   0.001514  -0.026911
     9  C   -0.000000  -0.000000  -0.000000   0.000000  -0.000306   0.004369
    10  H    0.371501  -0.005989   0.000620  -0.000020   0.000000  -0.000000
    11  H    0.000962  -0.008016   0.347625  -0.024069  -0.006017   0.000183
    12  H   -0.001989  -0.029715   0.352701  -0.043014  -0.003008  -0.000076
    13  H    0.002843   0.009225  -0.052457   0.340810  -0.049890  -0.000697
    14  H    0.000025   0.000848  -0.002929  -0.020470   0.354798  -0.022325
    15  H   -0.000001   0.000147  -0.004699  -0.044953   0.355328  -0.044222
    16  H    0.000001   0.000024   0.000095  -0.002113  -0.029799   0.361336
    17  H    0.000000   0.000015   0.000116   0.003373  -0.024231   0.358626
    18  H    0.000000   0.000000   0.000018   0.000024   0.000015  -0.035153
    19  H    0.000000   0.000000   0.000018  -0.000016   0.000519  -0.034309
    20  H   -0.000000  -0.000000  -0.000000  -0.000000  -0.000000  -0.000301
    21  H    0.000000   0.000000   0.000000   0.000000   0.000037   0.000137
    22  H    0.000000   0.000000   0.000000   0.000000   0.000039   0.000168
               7          8          9         10         11         12
     1  C   -0.000000  -0.000000  -0.000000   0.371501   0.000962  -0.001989
     2  C    0.000000  -0.000000  -0.000000  -0.005989  -0.008016  -0.029715
     3  C   -0.000238   0.000000  -0.000000   0.000620   0.347625   0.352701
     4  N    0.001953  -0.000004   0.000000  -0.000020  -0.024069  -0.043014
     5  C   -0.043282   0.001514  -0.000306   0.000000  -0.006017  -0.003008
     6  C    0.407302  -0.026911   0.004369  -0.000000   0.000183  -0.000076
     7  C    4.754655   0.363793  -0.081520   0.000000  -0.000014   0.000057
     8  O    0.363793   7.688467   0.366560  -0.000000  -0.000000   0.000000
     9  C   -0.081520   0.366560   4.823430   0.000000  -0.000000   0.000000
    10  H    0.000000  -0.000000   0.000000   0.428552  -0.000023  -0.000062
    11  H   -0.000014  -0.000000  -0.000000  -0.000023   0.586970  -0.051278
    12  H    0.000057   0.000000   0.000000  -0.000062  -0.051278   0.656049
    13  H   -0.000248  -0.000000  -0.000000   0.000016   0.006547  -0.006826
    14  H   -0.006758  -0.000023  -0.000004   0.000000   0.006400  -0.001970
    15  H    0.002481  -0.000001   0.000020  -0.000000  -0.002057   0.014523
    16  H   -0.027387   0.002442   0.000110   0.000000   0.000006  -0.000020
    17  H   -0.024954   0.002372   0.000164   0.000000  -0.000018   0.000030
    18  H    0.350803  -0.032497  -0.004958   0.000000  -0.000004   0.000001
    19  H    0.348432  -0.032694  -0.004920   0.000000   0.000001  -0.000001
    20  H    0.005180  -0.018830   0.384488  -0.000000  -0.000000   0.000000
    21  H   -0.006763  -0.033027   0.369531   0.000000  -0.000000   0.000000
    22  H   -0.006415  -0.033224   0.369099   0.000000   0.000000  -0.000000
              13         14         15         16         17         18
     1  C    0.002843   0.000025  -0.000001   0.000001   0.000000   0.000000
     2  C    0.009225   0.000848   0.000147   0.000024   0.000015   0.000000
     3  C   -0.052457  -0.002929  -0.004699   0.000095   0.000116   0.000018
     4  N    0.340810  -0.020470  -0.044953  -0.002113   0.003373   0.000024
     5  C   -0.049890   0.354798   0.355328  -0.029799  -0.024231   0.000015
     6  C   -0.000697  -0.022325  -0.044222   0.361336   0.358626  -0.035153
     7  C   -0.000248  -0.006758   0.002481  -0.027387  -0.024954   0.350803
     8  O   -0.000000  -0.000023  -0.000001   0.002442   0.002372  -0.032497
     9  C   -0.000000  -0.000004   0.000020   0.000110   0.000164  -0.004958
    10  H    0.000016   0.000000  -0.000000   0.000000   0.000000   0.000000
    11  H    0.006547   0.006400  -0.002057   0.000006  -0.000018  -0.000004
    12  H   -0.006826  -0.001970   0.014523  -0.000020   0.000030   0.000001
    13  H    0.521595   0.006635  -0.006386   0.004909  -0.000461   0.000009
    14  H    0.006635   0.629669  -0.054812   0.005885  -0.006275   0.005186
    15  H   -0.006386  -0.054812   0.701238  -0.006526   0.006588  -0.000562
    16  H    0.004909   0.005885  -0.006526   0.629341  -0.041600   0.006624
    17  H   -0.000461  -0.006275   0.006588  -0.041600   0.605398  -0.007095
    18  H    0.000009   0.005186  -0.000562   0.006624  -0.007095   0.681284
    19  H    0.000006  -0.000680   0.005647  -0.007221   0.006508  -0.061252
    20  H    0.000000   0.000000   0.000000   0.000007   0.000007  -0.000075
    21  H   -0.000000  -0.000000   0.000000   0.000041  -0.000048   0.014362
    22  H    0.000000   0.000001  -0.000002  -0.000048   0.000038  -0.002782
              19         20         21         22
     1  C    0.000000  -0.000000   0.000000   0.000000
     2  C    0.000000  -0.000000   0.000000   0.000000
     3  C    0.000018  -0.000000   0.000000   0.000000
     4  N   -0.000016  -0.000000   0.000000   0.000000
     5  C    0.000519  -0.000000   0.000037   0.000039
     6  C   -0.034309  -0.000301   0.000137   0.000168
     7  C    0.348432   0.005180  -0.006763  -0.006415
     8  O   -0.032694  -0.018830  -0.033027  -0.033224
     9  C   -0.004920   0.384488   0.369531   0.369099
    10  H    0.000000  -0.000000   0.000000   0.000000
    11  H    0.000001  -0.000000  -0.000000   0.000000
    12  H   -0.000001   0.000000   0.000000  -0.000000
    13  H    0.000006   0.000000  -0.000000   0.000000
    14  H   -0.000680   0.000000  -0.000000   0.000001
    15  H    0.005647   0.000000   0.000000  -0.000002
    16  H   -0.007221   0.000007   0.000041  -0.000048
    17  H    0.006508   0.000007  -0.000048   0.000038
    18  H   -0.061252  -0.000075   0.014362  -0.002782
    19  H    0.684017  -0.000085  -0.002777   0.014251
    20  H   -0.000085   0.574507  -0.035765  -0.035988
    21  H   -0.002777  -0.035765   0.638395  -0.049145
    22  H    0.014251  -0.035988  -0.049145   0.639684
 Mulliken charges:
               1
     1  C   -0.347014
     2  C    0.143599
     3  C   -0.261470
     4  N   -0.290072
     5  C   -0.111810
     6  C   -0.226528
     7  C   -0.037078
     8  O   -0.247936
     9  C   -0.226064
    10  H    0.205405
    11  H    0.142803
    12  H    0.114597
    13  H    0.224369
    14  H    0.106799
    15  H    0.078250
    16  H    0.103893
    17  H    0.121445
    18  H    0.086051
    19  H    0.084557
    20  H    0.126856
    21  H    0.105023
    22  H    0.104326
 Sum of Mulliken charges =  -0.00000
 Mulliken charges with hydrogens summed into heavy atoms:
               1
     1  C   -0.141609
     2  C    0.143599
     3  C   -0.004070
     4  N   -0.065703
     5  C    0.073239
     6  C   -0.001190
     7  C    0.133530
     8  O   -0.247936
     9  C    0.110140
 Electronic spatial extent (au):  <R**2>=           2714.8681
 Charge=              0.0000 electrons
 Dipole moment (field-independent basis, Debye):
    X=             -0.9039    Y=              1.6164    Z=              0.8373  Tot=              2.0325
 Quadrupole moment (field-independent basis, Debye-Ang):
   XX=            -52.5983   YY=            -55.8804   ZZ=            -55.8621
   XY=             -4.6139   XZ=              1.2667   YZ=             -1.6063
 Traceless Quadrupole moment (field-independent basis, Debye-Ang):
   XX=              2.1820   YY=             -1.1001   ZZ=             -1.0818
   XY=             -4.6139   XZ=              1.2667   YZ=             -1.6063
 Octapole moment (field-independent basis, Debye-Ang**2):
  XXX=            -22.6237  YYY=             -2.8147  ZZZ=              0.6754  XYY=              1.2556
  XXY=            -12.5534  XXZ=              0.2905  XZZ=            -11.3168  YZZ=              0.6517
  YYZ=              0.0785  XYZ=             -2.0273
 Hexadecapole moment (field-independent basis, Debye-Ang**3):
 XXXX=          -2876.1336 YYYY=           -183.4421 ZZZZ=            -92.4736 XXXY=           -176.6552
 XXXZ=             -8.7018 YYYX=              7.2128 YYYZ=             -2.9242 ZZZX=              2.3112
 ZZZY=             -1.9258 XXYY=           -577.8067 XXZZ=           -606.6486 YYZZ=            -43.0922
 XXYZ=             -2.5785 YYXZ=              0.4658 ZZXY=              4.9979
 N-N= 4.129488724538D+02 E-N=-1.765973035535D+03  KE= 4.008706076720D+02
 PrsmSu:  requested number of processors reduced to:  13 ShMem   1 Linda.
 Calling FoFJK, ICntrl=      2127 FMM=F ISym2X=0 I1Cent= 0 IOpClX= 0 NMat=1 NMatS=1 NMatT=0.
 ***** Axes restored to original set *****
 -------------------------------------------------------------------
 Center     Atomic                   Forces (Hartrees/Bohr)
 Number     Number              X              Y              Z
 -------------------------------------------------------------------
      1        6           0.160418814   -0.000260195   -0.000335251
      2        6          -0.133034274    0.002925061   -0.001977376
      3        6          -0.040726114   -0.007752141    0.001539743
      4        7           0.003896967    0.008260142    0.005949339
      5        6          -0.006784492   -0.011143151    0.004415204
      6        6           0.004330931   -0.000132898    0.003201097
      7        6          -0.002203142   -0.014045298    0.009932105
      8        8           0.005120658    0.003674170   -0.002632792
      9        6          -0.012611632   -0.002548208    0.001943451
     10        1           0.001216031   -0.000135020    0.000007884
     11        1           0.002058689   -0.001586270    0.001106891
     12        1           0.000855892    0.004669285   -0.006565521
     13        1           0.001412475    0.002975282    0.001102233
     14        1          -0.002781094    0.001471657   -0.001155705
     15        1           0.006710937    0.001713347   -0.004751504
     16        1           0.001122539    0.000377432   -0.001562355
     17        1           0.000281171    0.001793980   -0.002156829
     18        1           0.002103884    0.004238956   -0.001226184
     19        1           0.002590831    0.002169247   -0.003992084
     20        1          -0.002126038   -0.000525235    0.000442517
     21        1           0.003979442    0.002889985   -0.000473265
     22        1           0.004167524    0.000969873   -0.002811596
 -------------------------------------------------------------------
 Cartesian Forces:  Max     0.160418814 RMS     0.026488403

 GradGradGradGradGradGradGradGradGradGradGradGradGradGradGradGradGradGrad
 Berny optimization.
 FormGI is forming the generalized inverse of G from B-inverse, IUseBI=4.
 Internal  Forces:  Max     0.161635038 RMS     0.017137569
 Search for a local minimum.
 Step number   1 out of a maximum of  105
 All quantities printed in internal units (Hartrees-Bohrs-Radians)
 Mixed Optimization -- RFO/linear search
 Second derivative matrix not updated -- first step.
 ITU=  0
     Eigenvalues ---    0.00441   0.00462   0.00501   0.00501   0.00561
     Eigenvalues ---    0.00561   0.00906   0.00958   0.01366   0.01397
     Eigenvalues ---    0.03101   0.03843   0.04449   0.04934   0.05247
     Eigenvalues ---    0.05597   0.05895   0.07529   0.07658   0.07932
     Eigenvalues ---    0.09118   0.10201   0.10456   0.10689   0.11309
     Eigenvalues ---    0.11884   0.12654   0.13727   0.16000   0.16000
     Eigenvalues ---    0.16000   0.16000   0.16000   0.21816   0.21947
     Eigenvalues ---    0.22041   0.22387   0.23420   0.25000   0.29933
     Eigenvalues ---    0.30082   0.30367   0.33962   0.33978   0.34005
     Eigenvalues ---    0.34041   0.34088   0.34090   0.34106   0.34124
     Eigenvalues ---    0.34293   0.34298   0.34515   0.37042   0.37534
     Eigenvalues ---    0.37825   0.41776   0.42121   0.44549   0.66132
 RFO step:  Lambda=-4.33415280D-02 EMin= 4.41200034D-03
 Linear search not attempted -- first point.
 Iteration  1 RMS(Cart)=  0.06368616 RMS(Int)=  0.00333738
 Iteration  2 RMS(Cart)=  0.00480424 RMS(Int)=  0.00016970
 Iteration  3 RMS(Cart)=  0.00000816 RMS(Int)=  0.00016965
 Iteration  4 RMS(Cart)=  0.00000000 RMS(Int)=  0.00016965
 Variable       Old X    -DE/DX   Delta X   Delta X   Delta X     New X
                                 (Linear)    (Quad)   (Total)
    R1        2.46394  -0.16164   0.00000  -0.22938  -0.22938   2.23456
    R2        2.01321  -0.00122   0.00000  -0.00288  -0.00288   2.01032
    R3        2.87238  -0.02860   0.00000  -0.08242  -0.08242   2.78996
    R4        2.75049   0.00540   0.00000   0.01290   0.01290   2.76340
    R5        2.07121  -0.00046   0.00000  -0.00121  -0.00121   2.07000
    R6        2.07152   0.00569   0.00000   0.01480   0.01480   2.08632
    R7        2.75783   0.00400   0.00000   0.00968   0.00968   2.76750
    R8        1.92503  -0.00347   0.00000  -0.00709  -0.00709   1.91794
    R9        2.88098   0.00354   0.00000   0.01033   0.01033   2.89131
   R10        2.07260  -0.00001   0.00000  -0.00002  -0.00002   2.07258
   R11        2.07322   0.00642   0.00000   0.01674   0.01674   2.08997
   R12        2.87800   0.00100   0.00000   0.00290   0.00290   2.88089
   R13        2.07367  -0.00028   0.00000  -0.00072  -0.00072   2.07295
   R14        2.07395  -0.00185   0.00000  -0.00483  -0.00483   2.06912
   R15        2.69209  -0.00585   0.00000  -0.01268  -0.01268   2.67941
   R16        2.07178   0.00409   0.00000   0.01065   0.01065   2.08244
   R17        2.07183   0.00421   0.00000   0.01095   0.01095   2.08278
   R18        2.68769  -0.00661   0.00000  -0.01424  -0.01424   2.67345
   R19        2.06470   0.00002   0.00000   0.00005   0.00005   2.06474
   R20        2.06838   0.00378   0.00000   0.00979   0.00979   2.07817
   R21        2.06830   0.00388   0.00000   0.01003   0.01003   2.07833
    A1        1.91104   0.00680   0.00000   0.02747   0.02706   1.93810
    A2        1.88775  -0.00048   0.00000  -0.00101  -0.00079   1.88697
    A3        1.89214  -0.00450   0.00000  -0.01160  -0.01250   1.87964
    A4        1.93497  -0.00686   0.00000  -0.03607  -0.03578   1.89919
    A5        1.94240   0.00747   0.00000   0.03908   0.03874   1.98115
    A6        1.89420  -0.00269   0.00000  -0.01882  -0.01849   1.87570
    A7        1.92063   0.01092   0.00000   0.03934   0.03939   1.96002
    A8        1.90273  -0.00323   0.00000  -0.01069  -0.01060   1.89213
    A9        1.92276  -0.00369   0.00000  -0.01423  -0.01419   1.90857
   A10        1.93135   0.00219   0.00000   0.01108   0.01092   1.94227
   A11        1.91435  -0.00435   0.00000  -0.03029  -0.03018   1.88417
   A12        1.92231   0.00324   0.00000   0.02819   0.02812   1.95042
   A13        1.90437   0.00190   0.00000   0.00744   0.00748   1.91185
   A14        1.90879  -0.00196   0.00000  -0.00368  -0.00404   1.90476
   A15        1.88191  -0.00111   0.00000  -0.01349  -0.01331   1.86860
   A16        1.91460   0.00913   0.00000   0.03509   0.03518   1.94978
   A17        1.93510  -0.00268   0.00000  -0.01093  -0.01089   1.92421
   A18        1.93359  -0.00383   0.00000  -0.01687  -0.01697   1.91662
   A19        1.91386  -0.00349   0.00000  -0.01405  -0.01398   1.89987
   A20        1.91345  -0.00197   0.00000  -0.00362  -0.00352   1.90993
   A21        1.85235   0.00246   0.00000   0.00901   0.00887   1.86121
   A22        1.90913  -0.00301   0.00000  -0.00910  -0.00909   1.90005
   A23        1.91952   0.00086   0.00000   0.00237   0.00238   1.92191
   A24        1.91836   0.00155   0.00000   0.00713   0.00715   1.92551
   A25        1.90941   0.00148   0.00000   0.00760   0.00760   1.91701
   A26        1.90698   0.00142   0.00000   0.00863   0.00864   1.91562
   A27        1.90032  -0.00228   0.00000  -0.01653  -0.01653   1.88380
   A28        1.93590   0.00562   0.00000   0.01916   0.01916   1.95506
   A29        1.89499  -0.00446   0.00000  -0.02220  -0.02212   1.87287
   A30        1.92665   0.00380   0.00000   0.01879   0.01875   1.94540
   A31        1.92504   0.00412   0.00000   0.02043   0.02039   1.94543
   A32        1.89822   0.00016   0.00000   0.00043   0.00050   1.89872
   A33        1.89825   0.00014   0.00000   0.00054   0.00062   1.89887
   A34        1.92007  -0.00387   0.00000  -0.01855  -0.01869   1.90139
   A35        3.13740  -0.00026   0.00000  -0.00531  -0.00531   3.13209
   A36        3.14159  -0.00096   0.00000  -0.01995  -0.01995   3.12164
   A37        3.13257   0.00005   0.00000   0.00112   0.00112   3.13369
   A38        3.14159  -0.00086   0.00000  -0.01783  -0.01783   3.12377
    D1        3.13466   0.00094   0.00000   0.00185   0.00229   3.13695
    D2        1.02413   0.00075   0.00000   0.00172   0.00215   1.02629
    D3       -1.06704   0.00042   0.00000  -0.00429  -0.00425  -1.07130
    D4        3.10561   0.00023   0.00000  -0.00442  -0.00438   3.10123
    D5        1.04308  -0.00261   0.00000  -0.02631  -0.02678   1.01630
    D6       -1.06745  -0.00280   0.00000  -0.02643  -0.02691  -1.09436
    D7       -3.13640  -0.00007   0.00000  -0.00381  -0.00394  -3.14034
    D8        1.04486  -0.00100   0.00000  -0.00050  -0.00054   1.04432
    D9       -1.02373   0.00105   0.00000   0.01747   0.01772  -1.00601
   D10       -1.03793   0.00055   0.00000  -0.00104  -0.00123  -1.03916
   D11       -3.13987  -0.00039   0.00000   0.00226   0.00218  -3.13769
   D12        1.07473   0.00167   0.00000   0.02024   0.02043   1.09516
   D13       -3.13327   0.00192   0.00000   0.01827   0.01830  -3.11497
   D14        1.03356   0.00197   0.00000   0.01969   0.01972   1.05328
   D15       -1.01840   0.00300   0.00000   0.02598   0.02588  -0.99251
   D16       -1.02540  -0.00088   0.00000  -0.00751  -0.00748  -1.03287
   D17        3.14143  -0.00083   0.00000  -0.00609  -0.00605   3.13538
   D18        1.08948   0.00020   0.00000   0.00019   0.00011   1.08958
   D19        1.02926  -0.00225   0.00000  -0.02160  -0.02155   1.00771
   D20       -1.08709  -0.00220   0.00000  -0.02018  -0.02012  -1.10722
   D21       -3.13905  -0.00116   0.00000  -0.01390  -0.01396   3.13017
   D22       -3.13654  -0.00025   0.00000  -0.00124  -0.00118  -3.13772
   D23        1.04921  -0.00073   0.00000  -0.00636  -0.00631   1.04290
   D24       -1.04281   0.00058   0.00000   0.00809   0.00814  -1.03466
   D25       -1.00745   0.00006   0.00000  -0.00126  -0.00128  -1.00873
   D26       -3.10489  -0.00042   0.00000  -0.00638  -0.00641  -3.11129
   D27        1.08628   0.00089   0.00000   0.00807   0.00804   1.09433
   D28        1.01968  -0.00010   0.00000  -0.00051  -0.00054   1.01915
   D29       -1.07775  -0.00058   0.00000  -0.00564  -0.00567  -1.08342
   D30        3.11342   0.00073   0.00000   0.00882   0.00879   3.12221
   D31       -3.13899   0.00027   0.00000   0.00208   0.00208  -3.13691
   D32       -1.03537   0.00038   0.00000   0.00405   0.00404  -1.03133
   D33        1.04349  -0.00066   0.00000  -0.00637  -0.00636   1.03713
   D34        3.13628  -0.00002   0.00000   0.00029   0.00030   3.13657
   D35        1.05700   0.00027   0.00000   0.00225   0.00242   1.05941
   D36       -1.06854  -0.00014   0.00000  -0.00054  -0.00071  -1.06925
         Item               Value     Threshold  Converged?
 Maximum Force            0.161635     0.000450     NO 
 RMS     Force            0.017138     0.000300     NO 
 Maximum Displacement     0.208329     0.001800     NO 
 RMS     Displacement     0.065292     0.001200     NO 
 Predicted change in Energy=-2.339873D-02
 GradGradGradGradGradGradGradGradGradGradGradGradGradGradGradGradGradGrad

                          Input orientation:                          
 ---------------------------------------------------------------------
 Center     Atomic      Atomic             Coordinates (Angstroms)
 Number     Number       Type             X           Y           Z
 ---------------------------------------------------------------------
      1          6           0        1.158649   -0.061339    0.119547
      2          6           0        2.340493   -0.028686    0.098727
      3          6           0        3.816399   -0.022099    0.061748
      4          7           0        4.368557   -1.041986    0.952450
      5          6           0        5.832757   -1.063670    0.932325
      6          6           0        6.385204   -2.139119    1.869963
      7          6           0        7.909619   -2.145409    1.884958
      8          8           0        8.355233   -3.163621    2.765335
      9          6           0        9.766957   -3.224367    2.834668
     10          1           0        0.095810   -0.097626    0.147210
     11          1           0        4.161070    0.962609    0.395585
     12          1           0        4.126247   -0.142317   -0.991072
     13          1           0        4.014742   -1.947546    0.661147
     14          1           0        6.189945   -0.077848    1.253982
     15          1           0        6.226140   -1.234615   -0.087077
     16          1           0        6.029617   -3.130178    1.562266
     17          1           0        6.011622   -1.973420    2.885765
     18          1           0        8.289377   -1.167290    2.221744
     19          1           0        8.301643   -2.331089    0.871749
     20          1           0       10.023987   -4.024820    3.532535
     21          1           0       10.192583   -2.280691    3.205758
     22          1           0       10.208560   -3.453904    1.853916
 ---------------------------------------------------------------------
                    Distance matrix (angstroms):
                    1          2          3          4          5
     1  C    0.000000
     2  C    1.182478   0.000000
     3  C    2.658668   1.476384   0.000000
     4  N    3.458165   2.422533   1.462326   0.000000
     5  C    4.848976   3.736575   2.430735   1.464499   0.000000
     6  C    5.890501   4.893965   3.788162   2.472326   1.530017
     7  C    7.282556   6.219832   4.958527   3.824426   2.528047
     8  O    8.271347   7.288054   6.146508   4.866362   3.759336
     9  C    9.564497   8.535229   7.304297   6.119498   4.874982
    10  H    1.063818   2.246264   3.722337   4.449336   5.870452
    11  H    3.184211   2.094109   1.095397   2.090825   2.681126
    12  H    3.169649   2.095111   1.104033   2.155318   2.731396
    13  H    3.465310   2.607959   2.026318   1.014929   2.039596
    14  H    5.157631   4.019368   2.656737   2.082772   1.096764
    15  H    5.205644   4.072719   2.701702   2.137367   1.105963
    16  H    5.935111   5.036948   4.100005   2.737069   2.169340
    17  H    5.904182   5.002676   4.074522   2.702765   2.162306
    18  H    7.515959   6.418165   5.097507   4.123062   2.776386
    19  H    7.532592   6.436920   5.109300   4.139742   2.775863
    20  H   10.293294   9.316449   8.161023   6.894783   5.752905
    21  H    9.801132   8.739594   7.459340   6.366402   5.065345
    22  H    9.819288   8.758954   7.473210   6.382446   5.070522
                    6          7          8          9         10
     6  C    0.000000
     7  C    1.524502   0.000000
     8  O    2.394225   1.417883   0.000000
     9  C    3.680309   2.348575   1.414731   0.000000
    10  H    6.833158   8.262493   9.190918  10.513327   0.000000
    11  H    4.091611   5.092114   6.342909   7.409849   4.208578
    12  H    4.156396   5.157309   6.412738   7.480169   4.188330
    13  H    2.667775   4.087411   4.974566   6.280322   4.363985
    14  H    2.160185   2.762285   4.061362   5.019379   6.193853
    15  H    2.161813   2.748194   4.048501   5.003309   6.239277
    16  H    1.096958   2.146697   2.618584   3.949125   6.812402
    17  H    1.094931   2.152577   2.631273   3.958538   6.783445
    18  H    2.166582   1.101978   2.070064   2.605856   8.519531
    19  H    2.169337   1.102159   2.069215   2.607325   8.535163
    20  H    4.422755   3.273721   2.028546   1.092615  11.200535
    21  H    4.037392   2.640973   2.085520   1.099723  10.773362
    22  H    4.043138   2.645421   2.085610   1.099806  10.790975
                   11         12         13         14         15
    11  H    0.000000
    12  H    1.773384   0.000000
    13  H    2.925908   2.449717   0.000000
    14  H    2.436335   3.050127   2.928947   0.000000
    15  H    3.053731   2.533747   2.440981   1.771401   0.000000
    16  H    4.647959   4.366883   2.504068   3.072045   2.520340
    17  H    4.271511   4.683743   2.989503   2.507530   3.070773
    18  H    4.991417   5.357650   4.617008   2.555594   3.097117
    19  H    5.312205   5.069000   4.309174   3.111666   2.535610
    20  H    8.311962   8.385714   6.976458   5.955693   5.942263
    21  H    7.402380   7.680265   6.689675   4.968205   5.260201
    22  H    7.629184   7.486995   6.484997   5.282702   4.955034
                   16         17         18         19         20
    16  H    0.000000
    17  H    1.757858   0.000000
    18  H    3.065020   2.505780   0.000000
    19  H    2.505485   3.070568   1.782432   0.000000
    20  H    4.542833   4.552541   3.590616   3.593742   0.000000
    21  H    4.555544   4.204432   2.414568   3.004296   1.782468
    22  H    4.201597   4.568460   3.007850   2.421094   1.782631
                   21         22
    21  H    0.000000
    22  H    1.790017   0.000000
 Stoichiometry    C7H13NO
 Framework group  C1[X(C7H13NO)]
 Deg. of freedom    60
 Full point group                 C1      NOp   1
 Largest Abelian subgroup         C1      NOp   1
 Largest concise Abelian subgroup C1      NOp   1
                         Standard orientation:                         
 ---------------------------------------------------------------------
 Center     Atomic      Atomic             Coordinates (Angstroms)
 Number     Number       Type             X           Y           Z
 ---------------------------------------------------------------------
      1          6           0        4.947926   -0.653734   -0.044905
      2          6           0        3.940847   -0.034093   -0.035227
      3          6           0        2.673904    0.722725    0.007096
      4          7           0        1.522648   -0.178434   -0.023252
      5          6           0        0.249784    0.544302    0.023942
      6          6           0       -0.937809   -0.419858   -0.007198
      7          6           0       -2.268553    0.323853    0.003853
      8          8           0       -3.323330   -0.623366   -0.020902
      9          6           0       -4.594305   -0.002012   -0.018432
     10          1           0        5.848100   -1.220541   -0.056091
     11          1           0        2.636396    1.373580   -0.873174
     12          1           0        2.700973    1.372803    0.899034
     13          1           0        1.584044   -0.803863    0.773711
     14          1           0        0.205775    1.208795   -0.847495
     15          1           0        0.174438    1.183341    0.923446
     16          1           0       -0.901683   -1.094737    0.856833
     17          1           0       -0.880458   -1.050632   -0.900344
     18          1           0       -2.339955    0.986060   -0.874065
     19          1           0       -2.350263    0.948902    0.907950
     20          1           0       -5.344383   -0.796092   -0.043481
     21          1           0       -4.729589    0.640947   -0.900300
     22          1           0       -4.746056    0.600305    0.889180
 ---------------------------------------------------------------------
 Rotational constants (GHZ):          10.5374428           0.4050592           0.3953133
 Standard basis: 6-31G(2df,p) (6D, 7F)
 There are   344 symmetry adapted cartesian basis functions of A   symmetry.
 There are   317 symmetry adapted basis functions of A   symmetry.
   317 basis functions,   487 primitive gaussians,   344 cartesian basis functions
    35 alpha electrons       35 beta electrons
       nuclear repulsion energy       414.9717579820 Hartrees.
 NAtoms=   22 NActive=   22 NUniq=   22 SFac= 1.00D+00 NAtFMM=   60 NAOKFM=F Big=F
 Integral buffers will be    131072 words long.
 Raffenetti 2 integral format.
 Two-electron integral symmetry is turned on.
 One-electron integrals computed using PRISM.
 PrsmSu:  requested number of processors reduced to:  13 ShMem   1 Linda.
 NBasis=   317 RedAO= T EigKep=  1.36D-04  NBF=   317
 NBsUse=   317 1.00D-06 EigRej= -1.00D+00 NBFU=   317
 Initial guess from the checkpoint file:  "CtCCNCCCOC.chk"
 B after Tr=     0.000000   -0.000000   -0.000000
         Rot=    0.999989    0.004541   -0.000031    0.001450 Ang=   0.55 deg.
 ExpMin= 1.61D-01 ExpMax= 5.48D+03 ExpMxC= 8.25D+02 IAcc=2 IRadAn=         4 AccDes= 0.00D+00
 Harris functional with IExCor=  402 and IRadAn=       4 diagonalized for initial guess.
 HarFok:  IExCor=  402 AccDes= 0.00D+00 IRadAn=         4 IDoV= 1 UseB2=F ITyADJ=14
 ICtDFT=  3500011 ScaDFX=  1.000000  1.000000  1.000000  1.000000
 FoFCou: FMM=F IPFlag=           0 FMFlag=      100000 FMFlg1=           0
         NFxFlg=           0 DoJE=T BraDBF=F KetDBF=T FulRan=T
         wScrn=  0.000000 ICntrl=       500 IOpCl=  0 I1Cent=   200000004 NGrid=           0
         NMat0=    1 NMatS0=      1 NMatT0=    0 NMatD0=    1 NMtDS0=    0 NMtDT0=    0
 Petite list used in FoFCou.
 Requested convergence on RMS density matrix=1.00D-08 within 128 cycles.
 Requested convergence on MAX density matrix=1.00D-06.
 Requested convergence on             energy=1.00D-06.
 No special actions if energy rises.
 Integral accuracy reduced to 1.0D-05 until final iterations.
 Initial convergence to 1.0D-05 achieved.  Increase integral accuracy.
 SCF Done:  E(RB3LYP) =  -404.476160557     A.U. after   12 cycles
            NFock= 12  Conv=0.41D-08     -V/T= 2.0078
 PrsmSu:  requested number of processors reduced to:  13 ShMem   1 Linda.
 Calling FoFJK, ICntrl=      2127 FMM=F ISym2X=0 I1Cent= 0 IOpClX= 0 NMat=1 NMatS=1 NMatT=0.
 ***** Axes restored to original set *****
 -------------------------------------------------------------------
 Center     Atomic                   Forces (Hartrees/Bohr)
 Number     Number              X              Y              Z
 -------------------------------------------------------------------
      1        6          -0.043900504   -0.001680492    0.000742571
      2        6           0.050010415    0.000044435   -0.000723716
      3        6          -0.015247896   -0.001917908    0.001294280
      4        7           0.004171897    0.002671712    0.000701685
      5        6          -0.003439551   -0.004449251   -0.000304195
      6        6           0.000334624    0.000970479    0.000608075
      7        6          -0.001581716   -0.005467994    0.004049513
      8        8           0.002992242    0.002778581   -0.002264653
      9        6          -0.006373916   -0.001705404    0.001359340
     10        1           0.001876984    0.000591230   -0.000184085
     11        1           0.002887189    0.000394798   -0.000270284
     12        1           0.002871610    0.001476515   -0.000753505
     13        1          -0.000608754   -0.000711649    0.000919245
     14        1          -0.000163458    0.000886517   -0.000459613
     15        1           0.001756644    0.001680961   -0.000641247
     16        1           0.000267102   -0.000082272   -0.000590685
     17        1           0.000012699    0.000558937   -0.000273426
     18        1           0.000912151    0.001226405   -0.001117050
     19        1           0.000907323    0.001438635   -0.000991116
     20        1           0.000035290   -0.000125925    0.000085526
     21        1           0.001130497    0.000746378   -0.000530028
     22        1           0.001149127    0.000675312   -0.000656631
 -------------------------------------------------------------------
 Cartesian Forces:  Max     0.050010415 RMS     0.008607050

 GradGradGradGradGradGradGradGradGradGradGradGradGradGradGradGradGradGrad
 Berny optimization.
 Using GEDIIS/GDIIS optimizer.
 FormGI is forming the generalized inverse of G from B-inverse, IUseBI=4.
 Internal  Forces:  Max     0.042040700 RMS     0.004519088
 Search for a local minimum.
 Step number   2 out of a maximum of  105
 All quantities printed in internal units (Hartrees-Bohrs-Radians)
 Mixed Optimization -- RFO/linear search
 Update second derivatives using D2CorX and points    1    2
 DE= -2.04D-02 DEPred=-2.34D-02 R= 8.71D-01
 TightC=F SS=  1.41D+00  RLast= 2.82D-01 DXNew= 5.0454D-01 8.4580D-01
 Trust test= 8.71D-01 RLast= 2.82D-01 DXMaxT set to 5.05D-01
 ITU=  1  0
 Use linear search instead of GDIIS.
     Eigenvalues ---    0.00441   0.00462   0.00501   0.00502   0.00561
     Eigenvalues ---    0.00561   0.00906   0.00958   0.01366   0.01397
     Eigenvalues ---    0.02982   0.03685   0.04344   0.04914   0.05256
     Eigenvalues ---    0.05570   0.05882   0.07191   0.07735   0.08229
     Eigenvalues ---    0.09239   0.10025   0.10496   0.10981   0.11262
     Eigenvalues ---    0.12112   0.12735   0.13704   0.15950   0.16000
     Eigenvalues ---    0.16000   0.16000   0.16034   0.21757   0.21951
     Eigenvalues ---    0.21975   0.22332   0.23444   0.24952   0.29584
     Eigenvalues ---    0.29942   0.30086   0.33954   0.33972   0.33978
     Eigenvalues ---    0.34041   0.34058   0.34089   0.34099   0.34127
     Eigenvalues ---    0.34280   0.34296   0.34515   0.37061   0.37534
     Eigenvalues ---    0.37816   0.41685   0.42043   0.44553   0.89132
 RFO step:  Lambda=-2.50280417D-03 EMin= 4.41200557D-03
 Quartic linear search produced a step of -0.12268.
 Iteration  1 RMS(Cart)=  0.06144477 RMS(Int)=  0.00375972
 Iteration  2 RMS(Cart)=  0.00463213 RMS(Int)=  0.00007312
 Iteration  3 RMS(Cart)=  0.00002834 RMS(Int)=  0.00006524
 Iteration  4 RMS(Cart)=  0.00000000 RMS(Int)=  0.00006524
 Variable       Old X    -DE/DX   Delta X   Delta X   Delta X     New X
                                 (Linear)    (Quad)   (Total)
    R1        2.23456   0.04204   0.02814   0.01042   0.03856   2.27312
    R2        2.01032  -0.00190   0.00035  -0.00503  -0.00468   2.00564
    R3        2.78996  -0.00798   0.01011  -0.04324  -0.03313   2.75684
    R4        2.76340  -0.00026  -0.00158   0.00236   0.00077   2.76417
    R5        2.07000   0.00118   0.00015   0.00273   0.00287   2.07287
    R6        2.08632   0.00136  -0.00182   0.00699   0.00517   2.09149
    R7        2.76750  -0.00202  -0.00119  -0.00253  -0.00372   2.76379
    R8        1.91794   0.00059   0.00087  -0.00039   0.00048   1.91842
    R9        2.89131  -0.00099  -0.00127  -0.00029  -0.00156   2.88975
   R10        2.07258   0.00061   0.00000   0.00155   0.00155   2.07414
   R11        2.08997   0.00096  -0.00205   0.00642   0.00436   2.09433
   R12        2.88089  -0.00083  -0.00036  -0.00167  -0.00203   2.87886
   R13        2.07295   0.00015   0.00009   0.00022   0.00031   2.07326
   R14        2.06912  -0.00017   0.00059  -0.00159  -0.00100   2.06812
   R15        2.67941  -0.00328   0.00156  -0.00966  -0.00810   2.67131
   R16        2.08244   0.00106  -0.00131   0.00523   0.00393   2.08636
   R17        2.08278   0.00099  -0.00134   0.00513   0.00378   2.08656
   R18        2.67345  -0.00402   0.00175  -0.01147  -0.00972   2.66373
   R19        2.06474   0.00016  -0.00001   0.00040   0.00040   2.06514
   R20        2.07817   0.00090  -0.00120   0.00460   0.00340   2.08157
   R21        2.07833   0.00091  -0.00123   0.00467   0.00344   2.08177
    A1        1.93810   0.00060  -0.00332   0.01519   0.01184   1.94994
    A2        1.88697   0.00193   0.00010   0.01580   0.01593   1.90290
    A3        1.87964   0.00108   0.00153   0.01266   0.01410   1.89374
    A4        1.89919  -0.00194   0.00439  -0.02719  -0.02292   1.87627
    A5        1.98115  -0.00034  -0.00475   0.00993   0.00499   1.98614
    A6        1.87570  -0.00123   0.00227  -0.02686  -0.02486   1.85084
    A7        1.96002   0.00056  -0.00483   0.01371   0.00886   1.96888
    A8        1.89213   0.00014   0.00130   0.00093   0.00221   1.89434
    A9        1.90857  -0.00029   0.00174  -0.00406  -0.00235   1.90621
   A10        1.94227  -0.00203  -0.00134  -0.00145  -0.00300   1.93926
   A11        1.88417  -0.00023   0.00370  -0.02430  -0.02059   1.86358
   A12        1.95042   0.00162  -0.00345   0.03213   0.02856   1.97898
   A13        1.91185   0.00108  -0.00092   0.00019  -0.00085   1.91100
   A14        1.90476   0.00070   0.00050   0.01165   0.01192   1.91668
   A15        1.86860  -0.00110   0.00163  -0.01975  -0.01795   1.85065
   A16        1.94978   0.00213  -0.00432   0.01824   0.01393   1.96371
   A17        1.92421  -0.00070   0.00134  -0.00805  -0.00670   1.91750
   A18        1.91662  -0.00088   0.00208  -0.00862  -0.00657   1.91005
   A19        1.89987  -0.00085   0.00172  -0.00888  -0.00715   1.89273
   A20        1.90993  -0.00042   0.00043   0.00111   0.00154   1.91147
   A21        1.86121   0.00064  -0.00109   0.00563   0.00454   1.86576
   A22        1.90005  -0.00186   0.00111  -0.00644  -0.00532   1.89472
   A23        1.92191   0.00071  -0.00029   0.00261   0.00232   1.92423
   A24        1.92551   0.00074  -0.00088   0.00527   0.00439   1.92990
   A25        1.91701   0.00087  -0.00093   0.00923   0.00830   1.92531
   A26        1.91562   0.00089  -0.00106   0.01087   0.00981   1.92543
   A27        1.88380  -0.00131   0.00203  -0.02135  -0.01933   1.86447
   A28        1.95506   0.00249  -0.00235   0.01376   0.01141   1.96647
   A29        1.87287  -0.00002   0.00271  -0.00665  -0.00394   1.86893
   A30        1.94540   0.00079  -0.00230   0.01005   0.00775   1.95315
   A31        1.94543   0.00082  -0.00250   0.01077   0.00827   1.95370
   A32        1.89872  -0.00001  -0.00006   0.00080   0.00074   1.89945
   A33        1.89887  -0.00002  -0.00008   0.00089   0.00081   1.89968
   A34        1.90139  -0.00155   0.00229  -0.01593  -0.01363   1.88775
   A35        3.13209   0.00107   0.00065   0.09610   0.09676   3.22885
   A36        3.12164   0.00136   0.00245   0.07952   0.08197   3.20361
   A37        3.13369  -0.00013  -0.00014  -0.01009  -0.01022   3.12347
   A38        3.12377  -0.00023   0.00219  -0.09770  -0.09551   3.02825
    D1        3.13695  -0.00034  -0.00028  -0.04475  -0.04497   3.09198
    D2        1.02629  -0.00043  -0.00026  -0.04897  -0.04920   0.97709
    D3       -1.07130   0.00117   0.00052  -0.03326  -0.03286  -1.10415
    D4        3.10123   0.00108   0.00054  -0.03748  -0.03708   3.06415
    D5        1.01630  -0.00195   0.00329  -0.07974  -0.07637   0.93993
    D6       -1.09436  -0.00203   0.00330  -0.08397  -0.08060  -1.17496
    D7       -3.14034  -0.00019   0.00048   0.00891   0.00938  -3.13096
    D8        1.04432  -0.00014   0.00007   0.02510   0.02505   1.06937
    D9       -1.00601   0.00042  -0.00217   0.04581   0.04377  -0.96224
   D10       -1.03916   0.00015   0.00015   0.01619   0.01632  -1.02284
   D11       -3.13769   0.00020  -0.00027   0.03238   0.03200  -3.10569
   D12        1.09516   0.00076  -0.00251   0.05309   0.05072   1.14588
   D13       -3.11497   0.00053  -0.00225   0.01747   0.01525  -3.09972
   D14        1.05328   0.00065  -0.00242   0.02203   0.01964   1.07292
   D15       -0.99251   0.00081  -0.00318   0.02512   0.02196  -0.97056
   D16       -1.03287  -0.00034   0.00092  -0.01350  -0.01258  -1.04545
   D17        3.13538  -0.00021   0.00074  -0.00895  -0.00819   3.12719
   D18        1.08958  -0.00005  -0.00001  -0.00586  -0.00587   1.08371
   D19        1.00771  -0.00065   0.00264  -0.03049  -0.02788   0.97984
   D20       -1.10722  -0.00053   0.00247  -0.02593  -0.02348  -1.13070
   D21        3.13017  -0.00037   0.00171  -0.02285  -0.02117   3.10900
   D22       -3.13772   0.00005   0.00015   0.00665   0.00681  -3.13092
   D23        1.04290  -0.00029   0.00077  -0.00225  -0.00147   1.04143
   D24       -1.03466   0.00043  -0.00100   0.01921   0.01822  -1.01644
   D25       -1.00873  -0.00002   0.00016   0.00234   0.00249  -1.00624
   D26       -3.11129  -0.00036   0.00079  -0.00657  -0.00578  -3.11707
   D27        1.09433   0.00036  -0.00099   0.01490   0.01391   1.10824
   D28        1.01915   0.00004   0.00007   0.00471   0.00476   1.02391
   D29       -1.08342  -0.00030   0.00070  -0.00420  -0.00351  -1.08693
   D30        3.12221   0.00041  -0.00108   0.01727   0.01618   3.13839
   D31       -3.13691   0.00001  -0.00026   0.00092   0.00067  -3.13624
   D32       -1.03133   0.00026  -0.00050   0.00576   0.00526  -1.02607
   D33        1.03713  -0.00028   0.00078  -0.00819  -0.00741   1.02972
   D34        3.13657   0.00003  -0.00004   0.00293   0.00289   3.13946
   D35        1.05941  -0.00039  -0.00030   0.00031   0.00000   1.05942
   D36       -1.06925   0.00046   0.00009   0.00606   0.00616  -1.06309
         Item               Value     Threshold  Converged?
 Maximum Force            0.042041     0.000450     NO 
 RMS     Force            0.004519     0.000300     NO 
 Maximum Displacement     0.369372     0.001800     NO 
 RMS     Displacement     0.060866     0.001200     NO 
 Predicted change in Energy=-1.506145D-03
 GradGradGradGradGradGradGradGradGradGradGradGradGradGradGradGradGradGrad

                          Input orientation:                          
 ---------------------------------------------------------------------
 Center     Atomic      Atomic             Coordinates (Angstroms)
 Number     Number       Type             X           Y           Z
 ---------------------------------------------------------------------
      1          6           0        1.120524   -0.079627    0.055536
      2          6           0        2.320011   -0.088027    0.145485
      3          6           0        3.777837   -0.047886    0.108219
      4          7           0        4.369861   -1.040527    1.004750
      5          6           0        5.830590   -1.066155    0.936794
      6          6           0        6.407186   -2.125822    1.876511
      7          6           0        7.930543   -2.140365    1.874588
      8          8           0        8.371935   -3.154046    2.755428
      9          6           0        9.777221   -3.239001    2.825360
     10          1           0        0.068733    0.017357   -0.048253
     11          1           0        4.116997    0.940859    0.440760
     12          1           0        4.105107   -0.145452   -0.944546
     13          1           0        4.007699   -1.955959    0.756925
     14          1           0        6.179615   -0.072796    1.246819
     15          1           0        6.220615   -1.221314   -0.088912
     16          1           0        6.050174   -3.120222    1.580899
     17          1           0        6.044498   -1.946911    2.893451
     18          1           0        8.322470   -1.158559    2.193007
     19          1           0        8.315569   -2.323132    0.856000
     20          1           0       10.015731   -4.042398    3.526741
     21          1           0       10.227886   -2.302638    3.190697
     22          1           0       10.224406   -3.476408    1.846971
 ---------------------------------------------------------------------
                    Distance matrix (angstroms):
                    1          2          3          4          5
     1  C    0.000000
     2  C    1.202884   0.000000
     3  C    2.658025   1.458854   0.000000
     4  N    3.518881   2.418156   1.462736   0.000000
     5  C    4.892297   3.729217   2.436637   1.462533   0.000000
     6  C    5.954129   4.884061   3.789215   2.467494   1.529191
     7  C    7.343838   6.219321   4.974283   3.826842   2.538344
     8  O    8.326129   7.268979   6.145053   4.852673   3.758345
     9  C    9.622472   8.527622   7.318379   6.114528   4.885063
    10  H    1.061341   2.262056   3.712977   4.552762   5.945024
    11  H    3.188830   2.091639   1.096918   2.075552   2.685247
    12  H    3.148370   2.092375   1.106770   2.161252   2.713747
    13  H    3.514021   2.590621   2.028398   1.015182   2.036426
    14  H    5.197461   4.013690   2.658113   2.066473   1.097587
    15  H    5.228311   4.068659   2.717160   2.157330   1.108272
    16  H    5.989440   5.016845   4.095308   2.735056   2.163858
    17  H    5.982142   4.987842   4.062211   2.682001   2.156384
    18  H    7.589526   6.431788   5.121877   4.129044   2.792146
    19  H    7.579098   6.437953   5.130978   4.151604   2.785973
    20  H   10.338158   9.289458   8.158047   6.873683   5.751631
    21  H    9.885092   8.758555   7.495912   6.378694   5.093641
    22  H    9.880689   8.766734   7.505749   6.396760   5.093463
                    6          7          8          9         10
     6  C    0.000000
     7  C    1.523428   0.000000
     8  O    2.385368   1.413597   0.000000
     9  C    3.673775   2.349721   1.409587   0.000000
    10  H    6.962322   8.376225   9.319957  10.635613   0.000000
    11  H    4.087894   5.108125   6.342747   7.429380   4.180961
    12  H    4.144852   5.153752   6.399005   7.480315   4.137894
    13  H    2.653274   4.083122   4.947321   6.261949   4.478587
    14  H    2.159448   2.781131   4.071397   5.045733   6.247258
    15  H    2.171597   2.761131   4.056341   5.021304   6.275477
    16  H    1.097121   2.140598   2.602160   3.931116   6.948106
    17  H    1.094403   2.152364   2.625488   3.950614   6.944188
    18  H    2.168889   1.104057   2.073821   2.616183   8.633088
    19  H    2.173086   1.104161   2.073988   2.617943   8.620086
    20  H    4.406599   3.270374   2.021424   1.092825  11.322763
    21  H    4.044267   2.652594   2.087800   1.101520  10.912450
    22  H    4.049212   2.654727   2.088267   1.101627  10.905776
                   11         12         13         14         15
    11  H    0.000000
    12  H    1.760478   0.000000
    13  H    2.916069   2.486448   0.000000
    14  H    2.435492   3.018434   2.916079   0.000000
    15  H    3.062802   2.522888   2.480350   1.762088   0.000000
    16  H    4.639986   4.360093   2.491214   3.068415   2.534397
    17  H    4.250902   4.662264   2.951842   2.498392   3.074410
    18  H    5.016366   5.353202   4.616863   2.581856   3.103045
    19  H    5.334236   5.070725   4.324624   3.127148   2.548665
    20  H    8.315719   8.373414   6.936970   5.972568   5.952677
    21  H    7.444823   7.696889   6.688359   5.013916   5.289926
    22  H    7.667471   7.505574   6.492103   5.320253   4.986324
                   16         17         18         19         20
    16  H    0.000000
    17  H    1.760534   0.000000
    18  H    3.063678   2.510234   0.000000
    19  H    2.508555   3.074169   1.773095   0.000000
    20  H    4.512466   4.534624   3.600348   3.602677   0.000000
    21  H    4.551172   4.208994   2.436167   3.017977   1.784573
    22  H    4.197841   4.572320   3.018199   2.440435   1.784802
                   21         22
    21  H    0.000000
    22  H    1.784194   0.000000
 Stoichiometry    C7H13NO
 Framework group  C1[X(C7H13NO)]
 Deg. of freedom    60
 Full point group                 C1      NOp   1
 Largest Abelian subgroup         C1      NOp   1
 Largest concise Abelian subgroup C1      NOp   1
                         Standard orientation:                         
 ---------------------------------------------------------------------
 Center     Atomic      Atomic             Coordinates (Angstroms)
 Number     Number       Type             X           Y           Z
 ---------------------------------------------------------------------
      1          6           0        5.000841   -0.616087    0.001136
      2          6           0        3.924266   -0.080932   -0.037932
      3          6           0        2.681708    0.682644   -0.002489
      4          7           0        1.508713   -0.188710   -0.068995
      5          6           0        0.249054    0.547598    0.031563
      6          6           0       -0.949317   -0.400501   -0.027090
[...]
 00003348,0.00526921,-0.00048861,0.00246899,0.07239145,-0.03105904,-0.2
 3397217,-0.00202520,0.01193425,-0.02903809,0.00422396,-0.00022195,0.00
 173466,-0.00044349,0.00004882,0.00054384,0.00014954,0.00005924,0.00004
 391,-0.00027541,0.00009918,-0.00004953,0.00018005,0.00000161,-0.000031
 33,0.00007550,0.00006630,-0.00013404,0.00474463,-0.00415367,-0.0112935
 2,-0.07872797,0.02440722,0.26828267,-0.00083952,-0.00066743,0.00020360
 ,0.00242439,0.00128715,0.00023049,0.00561661,0.01632554,0.00364368,-0.
 09989458,-0.11229519,-0.03607680,-0.01948999,-0.03697514,-0.00996186,0
 .00152848,-0.00176755,-0.00005813,-0.00023131,0.00023293,0.00030083,0.
 00022564,0.00012190,0.00007204,-0.00012022,-0.00002101,0.00000528,-0.0
 0006174,-0.00003386,-0.00002650,-0.00101705,0.00371488,-0.00255825,-0.
 00015219,-0.00036050,-0.00062502,0.11737974,0.00041428,0.00032497,-0.0
 0005981,-0.00073617,0.00082079,-0.00050559,-0.00773572,-0.02547591,-0.
 00885508,-0.12621099,-0.35351608,-0.05526123,0.00307662,0.00083705,-0.
 00272621,0.00056995,0.00218051,0.00007523,0.00014802,0.00011971,0.0000
 8425,-0.00000423,-0.00007675,0.00003409,-0.00000431,-0.00000324,-0.000
 00019,0.00004808,-0.00000642,0.00000892,0.00246698,-0.00233700,0.00411
 710,-0.00070814,0.00135329,-0.00023059,0.12771844,0.37415279,-0.000003
 82,-0.00012446,-0.00033430,0.00071015,-0.00046185,0.00101690,0.0069014
 3,0.02923848,-0.00285680,-0.05631432,-0.09579963,-0.03957036,0.0083395
 9,0.00138235,-0.00321893,-0.00050599,-0.00108064,0.00028823,-0.0001613
 2,0.00024130,-0.00006324,-0.00002116,0.00012255,-0.00012312,-0.0000574
 8,0.00001475,0.00000884,-0.00003926,-0.00000859,0.00000741,-0.00137962
 ,0.00152111,-0.00136506,0.00034847,0.00077824,0.00084968,0.04398039,0.
 06276427,0.04397283,0.00012840,0.00014227,-0.00003291,0.00015030,0.000
 21498,0.00030528,0.00114076,-0.00254609,0.00031472,-0.02271544,-0.0351
 3813,-0.00736022,-0.07131578,-0.06515357,-0.02070113,0.00410480,0.0112
 8834,0.00406769,0.00098092,0.00089971,0.00041568,-0.00017346,-0.000205
 47,-0.00003330,0.00002500,-0.00002979,0.00001793,0.00002279,-0.0000262
 0,-0.00001797,0.00012030,0.00111564,-0.00005989,-0.00019657,0.00041165
 ,-0.00026959,-0.00687439,0.00038030,-0.00177677,0.09079006,-0.00001431
 ,-0.00002517,-0.00000536,0.00008577,0.00053849,-0.00000068,0.00065514,
 0.00087409,0.00071819,-0.00306442,0.00112657,0.00178183,-0.07183248,-0
 .24816798,-0.06468210,-0.00627605,-0.02229532,-0.00635068,-0.00166113,
 -0.00064601,-0.00073403,0.00028550,0.00079254,0.00012683,0.00003048,-0
 .00000487,-0.00000166,0.00000780,-0.00004785,0.00000438,-0.00073314,0.
 00034981,-0.00057538,0.00005688,-0.00021259,-0.00034041,0.00085488,0.0
 0151843,-0.00026320,0.08001952,0.27169651,0.00006619,0.00002991,-0.000
 02344,0.00007188,0.00018492,-0.00003477,-0.00005244,-0.00096249,0.0002
 7191,-0.00025020,0.00376103,0.00217063,-0.02279516,-0.06680351,-0.0718
 9763,0.00677134,0.01984368,0.00576352,0.00066778,0.00007697,0.00042963
 ,0.00016141,-0.00018558,-0.00002561,-0.00002783,-0.00013580,-0.0000156
 8,-0.00000177,-0.00002294,0.00000890,-0.00018950,0.00023027,0.00017867
 ,0.00009979,-0.00029459,-0.00023105,0.00060017,0.00078379,0.00071714,0
 .02485891,0.06883046,0.07346403,-0.00005570,0.00005579,-0.00013444,0.0
 0026858,-0.00026190,-0.00034866,0.00281794,-0.00433124,0.00551784,-0.0
 3167705,0.00881678,0.03258899,-0.06640915,0.00949038,0.05829927,0.0039
 5634,-0.00241151,-0.01068113,0.00098657,-0.00036942,-0.00068147,-0.000
 26600,0.00015897,0.00001145,0.00016233,-0.00003618,0.00005486,0.000051
 28,0.00000814,0.00005261,-0.00012876,0.00033276,-0.00039309,0.00087300
 ,0.00048867,-0.00269328,0.00118420,0.00094710,0.00003745,0.00451409,-0
 .00134720,-0.00861994,0.08450630,-0.00006556,-0.00005281,0.00002845,-0
 .00002606,0.00003287,0.00021325,0.00024446,0.00062925,-0.00220391,0.00
 211704,0.00326398,0.00211746,0.00971060,-0.06057289,-0.03716351,-0.005
 84559,0.00361682,0.02350644,-0.00104845,0.00037107,0.00040395,0.000040
 68,-0.00006055,-0.00023115,-0.00002380,-0.00001239,-0.00013397,-0.0000
 0476,0.00000454,-0.00002619,-0.00013813,-0.00010417,-0.00021324,-0.000
 40048,0.00000902,0.00037497,-0.00002096,0.00040965,0.00118832,0.007650
 61,-0.00547875,-0.02815353,-0.01391263,0.05915907,0.00011565,0.0000111
 9,0.00001187,-0.00019466,-0.00008173,0.00039805,-0.00142668,0.00089890
 ,0.00316051,0.00909099,0.00173606,0.00054702,0.05598212,-0.03587963,-0
 .24278792,0.00501165,-0.00399274,-0.02077364,0.00185125,-0.00053007,-0
 .00125233,-0.00049125,-0.00000205,0.00090700,-0.00002040,0.00002120,-0
 .00006892,-0.00002197,0.00000620,-0.00004622,-0.00009006,-0.00024286,-
 0.00033811,0.00203908,-0.00172534,0.00051486,0.00038738,0.00028211,0.0
 0092414,0.00231982,-0.00253847,-0.01034105,-0.07208849,0.03782151,0.26
 818102,-0.00000239,-0.00000494,0.00000684,-0.00001994,-0.00008587,0.00
 000029,0.00014113,0.00018783,0.00005665,0.00171324,0.00051056,0.000494
 52,0.00303554,0.01196955,0.00352817,-0.07556924,-0.07530508,-0.0225106
 7,-0.01583197,-0.03377648,-0.01054657,0.00322915,0.00047328,0.00110587
 ,-0.00013771,0.00000023,0.00002721,-0.00000311,0.00000720,-0.00000270,
 -0.00013364,-0.00009920,-0.00006399,0.00000935,-0.00002455,0.00004337,
 -0.00014897,-0.00029963,-0.00027032,-0.00072690,0.00189617,-0.00164400
 ,0.00017348,-0.00072144,0.00034877,0.08530018,0.00007124,0.00003604,-0
 .00000287,0.00005724,0.00003213,0.00005256,0.00021250,0.00025324,0.000
 20986,-0.00117156,0.00148493,-0.00062567,-0.00800617,-0.02332685,-0.00
 635911,-0.07744629,-0.24999636,-0.06466811,0.00015518,-0.00093770,0.00
 015259,0.00002385,0.00127065,-0.00029953,0.00024423,0.00037118,0.00000
 079,-0.00000105,-0.00001616,-0.00000121,-0.00010750,0.00029741,-0.0001
 0279,-0.00004207,-0.00001460,-0.00006807,0.00157984,-0.00012897,0.0005
 5745,0.00187596,-0.00190762,0.00350662,0.00001034,0.00118562,0.0001643
 6,0.08465322,0.27550439,0.00000325,0.00000621,-0.00000148,-0.00003213,
 -0.00011035,0.00000406,0.00025131,0.00016515,-0.00000721,0.00149800,-0
 .00064374,0.00063577,0.00699783,0.02095349,0.00509726,-0.02300974,-0.0
 6510442,-0.07007023,0.00040390,0.00052769,-0.00031744,-0.00004166,-0.0
 0013892,0.00008329,-0.00006366,0.00012935,-0.00008336,0.00000027,0.000
 00673,0.00000143,-0.00004585,-0.00012626,-0.00007917,0.00001916,0.0000
 2778,-0.00000390,-0.00028963,-0.00055883,0.00031492,-0.00190059,0.0034
 3285,-0.00171284,0.00063138,-0.00062171,0.00125222,0.02652449,0.067864
 01,0.07146845,0.00000184,-0.00000845,0.00001163,-0.00001946,0.00000679
 ,0.00007357,0.00001570,0.00020601,-0.00024563,0.00117698,-0.00048633,0
 .00018232,0.00321543,-0.00219979,-0.01233508,-0.07255705,0.01330797,0.
 07565747,-0.01379555,0.00659832,0.03440158,0.00301089,-0.00110163,-0.0
 0071633,-0.00017963,-0.00002460,-0.00001097,-0.00000529,0.00000253,-0.
 00001020,-0.00001191,-0.00003604,0.00000448,-0.00015863,-0.00001626,0.
 00023140,0.00003476,-0.00009016,-0.00026750,0.00017241,-0.00029624,0.0
 0066993,-0.00081176,0.00187455,-0.00141491,0.00343000,-0.00205284,-0.0
 1080375,0.08071013,0.00000368,0.00000158,0.00000358,0.00004189,0.00000
 035,-0.00011540,-0.00017397,-0.00015700,0.00012335,-0.00103735,0.00088
 493,-0.00126755,-0.00761245,0.00318327,0.02475588,0.01373972,-0.058322
 07,-0.04742971,0.00000849,-0.00072142,0.00006191,-0.00007930,0.0002635
 4,-0.00024245,0.00014303,-0.00007033,0.00008055,0.00000074,0.00000108,
 0.00000848,-0.00001855,-0.00001234,0.00002788,0.00001788,0.00002456,-0
 .00025069,0.00017570,-0.00004285,-0.00016305,-0.00070885,0.00123498,-0
 .00043024,0.00214887,-0.00256958,0.00348772,0.00904866,-0.00532010,-0.
 02717605,-0.01580184,0.06041816,-0.00004962,-0.00001046,0.00001908,-0.
 00007549,0.00005144,0.00004489,-0.00020227,0.00025213,0.00028521,0.000
 53386,-0.00114137,0.00200975,0.00665930,-0.00303016,-0.02136036,0.0763
 7365,-0.04586937,-0.27304408,-0.00022184,0.00036757,-0.00066617,0.0000
 4613,-0.00047033,0.00107946,-0.00013057,-0.00007162,0.00036201,0.00000
 235,-0.00000019,-0.00001436,0.00000620,-0.00001911,-0.00003486,0.00014
 627,-0.00019764,0.00034543,0.00005365,0.00000902,-0.00043791,0.0001479
 2,0.00007835,0.00110665,-0.00161242,0.00340960,-0.00119844,0.00259902,
 -0.00153874,-0.00816336,-0.08423468,0.04707051,0.29810313,-0.00002774,
 0.00001207,-0.00000211,0.00001321,0.00001895,-0.00000815,0.00003626,0.
 00001590,0.00008046,0.00003613,0.00049213,0.00002158,0.00077336,-0.002
 03791,0.00049299,-0.01383057,-0.02879102,-0.01218325,-0.08616790,-0.07
 573110,-0.02893096,0.00334607,0.01176140,0.00058896,0.00376379,0.00301
 342,0.00142757,0.00000585,-0.00000831,0.00000182,-0.00003945,0.0000623
 5,-0.00003920,-0.00000040,0.00000714,-0.00003466,0.00039840,0.00006378
 ,0.00023325,-0.00005287,0.00113672,-0.00018859,-0.00005856,0.00020160,
 -0.00009361,-0.00658818,0.00036433,0.00005798,0.00177444,0.00021589,0.
 00044180,0.09099345,0.00000888,0.00000646,0.00000290,-0.00001282,0.000
 02587,-0.00001546,-0.00009102,-0.00002529,-0.00004076,0.00014045,0.000
 60199,-0.00003961,-0.00028335,0.00002692,-0.00009706,-0.00012636,0.001
 37199,-0.00053820,-0.07482844,-0.21419057,-0.06844669,-0.00033955,-0.0
 3760653,0.00812982,-0.00659753,0.00105929,-0.00084231,-0.00000286,-0.0
 0000661,0.00000022,-0.00001726,0.00001455,0.00000305,-0.00000082,0.000
 00293,-0.00000283,0.00017063,-0.00014026,0.00009719,-0.00018985,0.0005
 9696,-0.00021013,0.00000702,0.00003128,0.00011280,0.00092516,0.0008348
 5,0.00050402,-0.00021965,0.00032471,0.00031182,0.08221566,0.25101839,-
 0.00001105,0.00000658,-0.00000063,0.00000368,0.00001537,-0.00000844,-0
 .00000834,-0.00010492,-0.00000132,-0.00014439,0.00029189,-0.00005658,0
 .00009613,-0.00067247,0.00003982,0.00147242,0.00029317,0.00067692,-0.0
 3064377,-0.07145649,-0.08079287,0.00421659,0.03033794,0.00546207,0.003
 92821,0.00096926,0.00110166,0.00000240,-0.00000403,0.00000067,-0.00000
 898,0.00002376,0.00000885,-0.00000204,0.00000701,-0.00001946,0.0000924
 9,0.00001504,-0.00000744,-0.00028150,0.00036284,0.00014834,-0.00002648
 ,-0.00004189,0.00008891,-0.00009585,0.00075783,0.00112075,-0.00031776,
 0.00078684,0.00067498,0.03305849,0.06609144,0.08182888,-0.00002214,-0.
 00000037,-0.00001329,0.00001865,0.00000318,-0.00000806,0.00002252,-0.0
 0007449,-0.00010815,0.00019949,0.00010603,-0.00083802,0.00069002,-0.00
 070328,0.00219451,-0.01232451,0.00806043,0.03106039,-0.07999783,0.0154
 7848,0.07242479,0.00292675,0.00153918,-0.01175054,0.00368067,-0.001029
 33,-0.00327335,0.00000404,-0.00000099,0.00000777,0.00000644,0.00000254
 ,0.00000517,-0.00004790,0.00006340,-0.00009214,-0.00002301,-0.00004055
 ,0.00022401,-0.00007071,0.00012023,-0.00018944,-0.00002429,0.00031792,
 -0.00119781,0.00172512,-0.00043502,-0.00029675,-0.00637090,-0.00000823
 ,-0.00043001,0.00501499,-0.00413449,-0.01078871,0.08399936,0.00001159,
 -0.00000057,0.00000579,0.00000073,-0.00000894,0.00001251,0.00001899,0.
 00001171,-0.00009324,-0.00006317,-0.00015671,0.00031146,0.00014417,0.0
 0016556,-0.00084479,-0.00099384,0.00049950,-0.00070887,0.01715604,-0.0
 6340171,-0.05007913,-0.00306413,-0.00154259,0.03664487,-0.00496036,0.0
 0122673,0.00121564,-0.00000229,0.00000088,-0.00000351,-0.00000032,-0.0
 0000352,-0.00000071,0.00000886,0.00000108,0.00003333,-0.00003710,0.000
 00752,-0.00000300,0.00001147,0.00005225,-0.00005560,0.00020729,0.00013
 628,0.00039892,0.00031578,0.00052740,0.00078819,0.00045935,0.00095207,
 0.00075144,0.00879256,-0.00501862,-0.02601840,-0.01898911,0.06673563,-
 0.00001282,0.00000219,0.00000641,0.00001411,-0.00001756,0.00002515,0.0
 0014278,-0.00006630,-0.00000609,-0.00039572,-0.00002362,0.00053153,0.0
 0017636,0.00002628,-0.00034695,0.00051706,-0.00098700,0.00020839,0.071
 87871,-0.04720156,-0.23742460,-0.00109929,0.01396404,-0.03017703,0.005
 79927,-0.00097718,0.00098026,0.00000441,0.00000119,-0.00000695,-0.0000
 0102,0.00000926,-0.00000331,0.00001464,0.00000884,0.00000959,0.0000160
 7,0.00002576,-0.00011115,-0.00000549,0.00011703,0.00001467,0.00007720,
 -0.00028434,0.00079297,0.00023775,0.00036055,0.00051604,-0.00052499,0.
 00058447,0.00101270,0.00510165,-0.00542376,-0.00986448,-0.07869478,0.0
 3958759,0.27295760,-0.00005826,-0.00000452,-0.00000190,0.00000157,0.00
 003862,-0.00003049,-0.00003722,-0.00011186,0.00006193,-0.00018872,0.00
 030724,-0.00020289,-0.00058051,-0.00033441,0.00034353,0.00004895,0.001
 72655,-0.00148080,-0.00576935,-0.00157463,0.00149852,-0.01867724,0.032
 47167,-0.02709416,-0.05348574,0.02642615,-0.02235649,0.00001098,-0.000
 00144,0.00000241,0.00000212,0.00000676,-0.00000256,-0.00000087,0.00001
 416,-0.00002775,0.00002363,0.00000384,-0.00000567,0.00001076,0.0000004
 8,0.00002502,-0.00000269,-0.00001051,-0.00001807,0.00005078,-0.0000903
 7,-0.00004953,0.00004282,0.00002982,0.00007831,0.00005511,0.00047842,0
 .00012895,0.00004112,-0.00005810,-0.00047127,0.07101204,0.00003696,0.0
 0000142,0.00000170,-0.00000461,-0.00001504,0.00001052,-0.00001753,0.00
 006009,-0.00003745,0.00009556,-0.00010120,0.00005939,0.00002294,0.0001
 0382,-0.00010477,-0.00023819,0.00008714,0.00043900,0.00046015,0.001642
 44,-0.00128251,0.00464395,-0.00113241,0.00123275,0.03611678,-0.2009072
 5,0.12707784,-0.00000810,0.00000057,-0.00000078,-0.00000065,-0.0000034
 9,0.00000456,0.00000190,-0.00000980,0.00001501,-0.00001738,-0.00000030
 ,-0.00000061,-0.00000593,-0.00000011,0.00000108,0.00001227,-0.00000504
 ,0.00000550,0.00013489,0.00000658,0.00001480,-0.00000251,-0.00001261,-
 0.00002644,-0.00014378,0.00050928,-0.00005438,-0.00005136,-0.00004989,
 0.00026148,-0.04255214,0.21233925,-0.00002975,-0.00000190,-0.00000223,
 0.00000442,0.00001113,-0.00000809,0.00001642,-0.00005367,0.00002276,-0
 .00008133,0.00008089,-0.00004671,0.00000645,-0.00007716,0.00007938,0.0
 0022258,0.00038483,0.00025771,-0.00024785,-0.00122717,0.00120967,-0.00
 345527,0.00050971,0.00009892,-0.03059404,0.12733902,-0.15746348,0.0000
 0642,0.00000017,0.00000119,0.00000041,0.00000221,-0.00000246,-0.000001
 84,0.00000941,-0.00001262,0.00000983,0.00000097,0.00000067,-0.00000081
 ,0.00000377,0.00000175,-0.00000867,0.00000827,0.00000212,0.00001391,-0
 .00002885,-0.00001804,-0.00013231,0.00000586,-0.00000572,0.00003671,0.
 00033455,-0.00002492,0.00015338,-0.00014562,0.00054990,0.03551482,-0.1
 3965539,0.16423416,-0.00004671,0.00000047,-0.00000221,0.00000329,0.000
 02383,-0.00001790,0.00001674,-0.00009495,0.00005081,-0.00009181,0.0001
 4141,-0.00006907,-0.00004022,0.00000408,0.00018827,0.00000706,0.000499
 02,-0.00013968,0.00255479,-0.00741017,0.00392299,-0.03773560,-0.026625
 32,-0.01580220,-0.08160862,-0.07247473,-0.03051237,0.00001004,-0.00000
 254,0.00000185,0.00000106,0.00000717,-0.00000423,-0.00000052,0.0000125
 1,-0.00002218,0.00002473,-0.00000773,0.00001281,-0.00003278,0.00007228
 ,-0.00003828,-0.00001776,0.00000429,-0.00000847,0.00032879,0.00013371,
 0.00008982,0.00002024,-0.00005578,0.00001123,0.00074623,0.00217867,-0.
 00000937,-0.00017960,0.00075923,-0.00061898,0.00385949,0.00361923,0.00
 262044,0.10520750,-0.00002870,0.00000414,-0.00000071,0.00000165,0.0000
 1723,-0.00001024,0.00001102,-0.00006992,0.00002928,-0.00009235,0.00008
 813,-0.00005034,-0.00004595,-0.00009177,0.00003096,0.00024619,0.000532
 29,-0.00006749,0.00159050,0.00295493,0.00160958,-0.00436989,0.00816666
 ,0.00290436,-0.07668376,-0.22733752,-0.07015871,0.00000629,-0.00000397
 ,0.00000065,0.00000172,0.00000881,-0.00000122,-0.00000117,0.00000750,-
 0.00001388,0.00001174,0.00000114,0.00000293,-0.00000976,0.00000053,0.0
 0000687,-0.00001657,0.00000785,-0.00000157,0.00023342,-0.00014630,0.00
 006435,-0.00000037,-0.00002577,0.00000774,-0.00157299,0.00075054,-0.00
 141973,0.00007618,-0.00033057,-0.00039276,-0.00802213,-0.01889797,-0.0
 0964881,0.09080269,0.24023666,0.00000447,0.00000250,0.00000044,-0.0000
 0195,0.00000185,-0.00000081,-0.00000757,-0.00000605,-0.00000336,0.0000
 1304,0.00002567,-0.00000266,-0.00006942,-0.00003043,-0.00002541,-0.000
 04915,0.00034243,0.00000028,0.00011520,-0.00249965,0.00056885,-0.00478
 544,0.00223946,0.00353997,-0.03098422,-0.07035835,-0.08098079,-0.00000
 119,-0.00000144,-0.00000006,-0.00000109,0.00000296,0.00000264,-0.00000
 019,-0.00000185,0.00000034,0.00000738,-0.00000266,0.00000184,-0.000013
 28,0.00003656,0.00000579,-0.00000304,0.00000136,0.00000496,0.00015484,
 0.00005174,-0.00001529,0.00003235,-0.00000474,-0.00000886,0.00004460,0
 .00045879,0.00002749,0.00010452,-0.00022785,-0.00026314,0.00826583,0.0
 1768073,0.00809561,0.03716656,0.07879453,0.07939780,-0.00004614,-0.000
 00232,-0.00000478,0.00000372,0.00002305,-0.00001794,0.00001283,-0.0000
 8369,0.00006222,-0.00008727,0.00010866,-0.00010011,-0.00004123,-0.0001
 6249,0.00001786,0.00000319,0.00020689,-0.00048707,0.00260034,-0.005045
 49,0.00660436,-0.03627337,0.01230974,0.03021442,-0.07622005,0.01741321
 ,0.07022126,0.00000995,-0.00000107,0.00000325,0.00000157,0.00000402,-0
 .00000416,0.00000116,0.00001210,-0.00002516,0.00001239,0.00000022,0.00
 001569,-0.00000168,0.00000314,0.00000470,-0.00004239,0.00005661,-0.000
 08030,0.00002528,-0.00002874,0.00005591,0.00030456,-0.00007805,-0.0001
 4280,-0.00019164,0.00071910,-0.00066111,0.00073173,0.00028236,-0.00215
 563,0.00364122,-0.00210246,-0.00405392,0.00697364,-0.00213774,-0.00999
 226,0.09858220,-0.00000796,-0.00000067,0.00000069,0.00000242,0.0000012
 5,0.00000076,0.00001208,-0.00001231,-0.00000337,-0.00004113,0.00001303
 ,0.00002624,0.00007182,-0.00002019,-0.00003413,0.00009112,-0.00004398,
 0.00026559,-0.00000169,0.00089293,-0.00300784,0.00507641,0.00244175,0.
 00047125,0.01716171,-0.06323957,-0.04554631,0.00000189,0.00000023,-0.0
 0000061,0.00000040,0.00000115,-0.00000186,-0.00000028,0.00000383,0.000
 00057,0.00000247,0.00000193,-0.00000387,0.00000320,0.00000510,-0.00000
 120,0.00000227,-0.00000113,0.00004800,-0.00003877,-0.00000977,-0.00000
 435,-0.00011881,-0.00003516,0.00006582,-0.00008879,-0.00018811,-0.0001
 8665,-0.00030032,0.00019651,0.00042541,-0.00874360,0.00638452,0.022147
 80,0.00841263,-0.00587263,-0.02650558,-0.02149707,0.05948128,0.0000293
 7,0.00000150,0.00000753,-0.00000232,-0.00001403,0.00001446,-0.00000768
 ,0.00005863,-0.00005927,0.00007349,-0.00009327,0.00008439,0.00007810,0
 .00003403,-0.00011864,-0.00021061,-0.00014729,0.00058545,-0.00155095,0
 .00145978,0.00260534,0.00651606,0.00151887,0.00781712,0.07439674,-0.04
 546447,-0.25025832,-0.00000616,0.00000052,-0.00000490,-0.00000054,-0.0
 0000156,0.00000135,-0.00000296,-0.00000757,0.00002524,-0.00000709,-0.0
 0000036,-0.00001429,0.00000550,-0.00000111,0.00000043,0.00002007,-0.00
 000015,0.00002099,-0.00000761,0.00001660,-0.00002185,-0.00025062,0.000
 08286,-0.00010916,-0.00010732,-0.00038980,-0.00040321,0.00150651,-0.00
 156901,0.00059849,0.00582229,-0.00564202,-0.01696956,0.00318018,-0.001
 68580,-0.01034562,-0.08947444,0.05184364,0.26654404\\0.00002884,0.0000
 0051,-0.00000481,-0.00004891,-0.00000548,0.00000904,0.00001924,0.00000
 992,-0.00000881,0.00000627,0.00001003,-0.00001119,-0.00000529,-0.00000
 941,0.00000368,-0.00000364,0.00001595,-0.00001466,-0.00000568,-0.00002
 034,0.00001485,0.00002853,0.00001926,-0.00001380,-0.00003573,-0.000003
 47,0.00000263,-0.00000105,0.00000104,0.00000138,0.00000379,-0.00000286
 ,0.00000031,0.00000098,-0.00000530,0.00000581,0.00000640,-0.00000172,0
 .00000210,-0.00000761,-0.00000177,0.00000282,-0.00000092,0.00000341,-0
 .00000512,-0.00000182,-0.00000239,0.00000570,0.00000053,-0.00000655,0.
 00000862,0.00000068,0.00000081,-0.00000057,0.00000040,0.00000109,-0.00
 000110,0.00000861,-0.00000236,0.00000196,0.00000368,0.00000065,0.00000
 190,0.00000271,-0.00000103,-0.00000073\\\@


 THIS CURIOUS WORLD WHICH WE INHABIT IS MORE WONDERFUL THAN IT IS CONVENIENT;
 MORE BEAUTIFUL THAN IT IS USEFUL;
 IT IS MORE TO BE ADMIRED THAN IT IS TO BE USED.

                                                                 -- THOREAU
 Job cpu time:       0 days  1 hours 57 minutes 30.1 seconds.
 Elapsed time:       0 days  0 hours 30 minutes  1.9 seconds.
 File lengths (MBytes):  RWF=    168 Int=      0 D2E=      0 Chk=      9 Scr=      1
 Normal termination of Gaussian 16 at Thu Aug  4 13:28:47 2022.
### All Done ###
