### Starting Gaussian ###
 Entering Gaussian System, Link 0=g16
 Initial command:
 /cluster/software/gaussian/gaussian-16-A.03/avx2/g16/l1.exe "/local/scratch/ks29c/Gau-31165.inp" -scrdir="/local/scratch/ks29c/"
 Entering Link 1 = /cluster/software/gaussian/gaussian-16-A.03/avx2/g16/l1.exe PID=     31166.
  
 Copyright (c) 1988,1990,1992,1993,1995,1998,2003,2009,2016,
            Gaussian, Inc.  All Rights Reserved.
  
 This is part of the Gaussian(R) 16 program.  It is based on
 the Gaussian(R) 09 system (copyright 2009, Gaussian, Inc.),
 the Gaussian(R) 03 system (copyright 2003, Gaussian, Inc.),
 the Gaussian(R) 98 system (copyright 1998, Gaussian, Inc.),
 the Gaussian(R) 94 system (copyright 1995, Gaussian, Inc.),
 the Gaussian 92(TM) system (copyright 1992, Gaussian, Inc.),
 the Gaussian 90(TM) system (copyright 1990, Gaussian, Inc.),
 the Gaussian 88(TM) system (copyright 1988, Gaussian, Inc.),
 the Gaussian 86(TM) system (copyright 1986, Carnegie Mellon
 University), and the Gaussian 82(TM) system (copyright 1983,
 Carnegie Mellon University). Gaussian is a federally registered
 trademark of Gaussian, Inc.
  
 This software contains proprietary and confidential information,
 including trade secrets, belonging to Gaussian, Inc.
  
 This software is provided under written license and may be
 used, copied, transmitted, or stored only in accord with that
 written license.
  
 The following legend is applicable only to US Government
 contracts under FAR:
  
                    RESTRICTED RIGHTS LEGEND
  
 Use, reproduction and disclosure by the US Government is
 subject to restrictions as set forth in subparagraphs (a)
 and (c) of the Commercial Computer Software - Restricted
 Rights clause in FAR 52.227-19.
  
 Gaussian, Inc.
 340 Quinnipiac St., Bldg. 40, Wallingford CT 06492
  
  
 ---------------------------------------------------------------
 Warning -- This program may not be used in any manner that
 competes with the business of Gaussian, Inc. or will provide
 assistance to any competitor of Gaussian, Inc.  The licensee
 of this program is prohibited from giving any competitor of
 Gaussian, Inc. access to this program.  By using this program,
 the user acknowledges that Gaussian, Inc. is engaged in the
 business of creating and licensing software in the field of
 computational chemistry and represents and warrants to the
 licensee that it is not a competitor of Gaussian, Inc. and that
 it will not use this program in any manner prohibited above.
 ---------------------------------------------------------------
  

 Cite this work as:
 Gaussian 16, Revision A.03,
 M. J. Frisch, G. W. Trucks, H. B. Schlegel, G. E. Scuseria, 
 M. A. Robb, J. R. Cheeseman, G. Scalmani, V. Barone, 
 G. A. Petersson, H. Nakatsuji, X. Li, M. Caricato, A. V. Marenich, 
 J. Bloino, B. G. Janesko, R. Gomperts, B. Mennucci, H. P. Hratchian, 
 J. V. Ortiz, A. F. Izmaylov, J. L. Sonnenberg, D. Williams-Young, 
 F. Ding, F. Lipparini, F. Egidi, J. Goings, B. Peng, A. Petrone, 
 T. Henderson, D. Ranasinghe, V. G. Zakrzewski, J. Gao, N. Rega, 
 G. Zheng, W. Liang, M. Hada, M. Ehara, K. Toyota, R. Fukuda, 
 J. Hasegawa, M. Ishida, T. Nakajima, Y. Honda, O. Kitao, H. Nakai, 
 T. Vreven, K. Throssell, J. A. Montgomery, Jr., J. E. Peralta, 
 F. Ogliaro, M. J. Bearpark, J. J. Heyd, E. N. Brothers, K. N. Kudin, 
 V. N. Staroverov, T. A. Keith, R. Kobayashi, J. Normand, 
 K. Raghavachari, A. P. Rendell, J. C. Burant, S. S. Iyengar, 
 J. Tomasi, M. Cossi, J. M. Millam, M. Klene, C. Adamo, R. Cammi, 
 J. W. Ochterski, R. L. Martin, K. Morokuma, O. Farkas, 
 J. B. Foresman, and D. J. Fox, Gaussian, Inc., Wallingford CT, 2016.
 
 ******************************************
 Gaussian 16:  ES64L-G16RevA.03 25-Dec-2016
                 4-Aug-2022 
 ******************************************
 %chk=CtCC1OCC1CO.chk
 %NProcShared=20
 Will use up to   20 processors via shared memory.
 -----------------------------
 # opt freq b3lyp/6-31g(2df,p)
 -----------------------------
 1/18=20,19=15,26=3,38=1/1,3;
 2/9=110,12=2,17=6,18=5,40=1/2;
 3/5=1,6=6,7=104,11=2,25=1,30=1,71=1,74=-5/1,2,3;
 4//1;
 5/5=2,38=5/2;
 6/7=2,8=2,9=2,10=2,28=1/1;
 7//1,2,3,16;
 1/18=20,19=15,26=3/3(2);
 2/9=110/2;
 99//99;
 2/9=110/2;
 3/5=1,6=6,7=104,11=2,25=1,30=1,71=1,74=-5/1,2,3;
 4/5=5,16=3,69=1/1;
 5/5=2,38=5/2;
 7//1,2,3,16;
 1/18=20,19=15,26=3/3(-5);
 2/9=110/2;
 6/7=2,8=2,9=2,10=2,19=2,28=1/1;
 99/9=1/99;
 -------------------
 Title Card Required
 -------------------
 Symbolic Z-matrix:
 Charge =  0 Multiplicity = 1
 C                     1.08183  -0.01974   0.1333 
 C                     2.28529  -0.01811   0.16264 
 C                     3.72646  -0.0977    0.0912 
 O                     4.38974   0.92937   0.89706 
 C                     5.37135  -0.0639    1.31973 
 C                     4.39379  -1.18551   0.95434 
 C                     4.96829  -2.36833   0.21994 
 O                     3.92042  -3.28321  -0.07411 
 H                     0.01879  -0.04651   0.06677 
 H                     4.08729  -0.03672  -0.9436 
 H                     5.61585   0.00843   2.3835 
 H                     6.29378   0.00035   0.73078 
 H                     3.80212  -1.49496   1.82666 
 H                     5.71257  -2.88576   0.83237 
 H                     5.44419  -2.07788  -0.72231 
 H                     3.49972  -3.53308   0.76826 
 

 GradGradGradGradGradGradGradGradGradGradGradGradGradGradGradGradGradGrad
 Berny optimization.
 Initialization pass.
                           ----------------------------
                           !    Initial Parameters    !
                           ! (Angstroms and Degrees)  !
 --------------------------                            --------------------------
 ! Name  Definition              Value          Derivative Info.                !
 --------------------------------------------------------------------------------
 ! R1    R(1,2)                  1.2038         estimate D2E/DX2                !
 ! R2    R(1,9)                  1.0655         estimate D2E/DX2                !
 ! R3    R(2,3)                  1.4451         estimate D2E/DX2                !
 ! R4    R(3,4)                  1.4643         estimate D2E/DX2                !
 ! R5    R(3,6)                  1.5407         estimate D2E/DX2                !
 ! R6    R(3,10)                 1.0976         estimate D2E/DX2                !
 ! R7    R(4,5)                  1.459          estimate D2E/DX2                !
 ! R8    R(5,6)                  1.532          estimate D2E/DX2                !
 ! R9    R(5,11)                 1.0939         estimate D2E/DX2                !
 ! R10   R(5,12)                 1.0963         estimate D2E/DX2                !
 ! R11   R(6,7)                  1.5061         estimate D2E/DX2                !
 ! R12   R(6,13)                 1.0985         estimate D2E/DX2                !
 ! R13   R(7,8)                  1.4218         estimate D2E/DX2                !
 ! R14   R(7,14)                 1.094          estimate D2E/DX2                !
 ! R15   R(7,15)                 1.0948         estimate D2E/DX2                !
 ! R16   R(8,16)                 0.9742         estimate D2E/DX2                !
 ! A1    A(2,3,4)              112.6987         estimate D2E/DX2                !
 ! A2    A(2,3,6)              116.3047         estimate D2E/DX2                !
 ! A3    A(2,3,10)             111.8013         estimate D2E/DX2                !
 ! A4    A(4,3,6)               89.4682         estimate D2E/DX2                !
 ! A5    A(4,3,10)             109.3275         estimate D2E/DX2                !
 ! A6    A(6,3,10)             115.1516         estimate D2E/DX2                !
 ! A7    A(3,4,5)               89.2367         estimate D2E/DX2                !
 ! A8    A(4,5,6)               90.001          estimate D2E/DX2                !
 ! A9    A(4,5,11)             112.7725         estimate D2E/DX2                !
 ! A10   A(4,5,12)             111.7498         estimate D2E/DX2                !
 ! A11   A(6,5,11)             115.0213         estimate D2E/DX2                !
 ! A12   A(6,5,12)             116.8504         estimate D2E/DX2                !
 ! A13   A(11,5,12)            109.298          estimate D2E/DX2                !
 ! A14   A(3,6,5)               83.8624         estimate D2E/DX2                !
 ! A15   A(3,6,7)              116.5217         estimate D2E/DX2                !
 ! A16   A(3,6,13)             114.2346         estimate D2E/DX2                !
 ! A17   A(5,6,7)              116.6058         estimate D2E/DX2                !
 ! A18   A(5,6,13)             111.1316         estimate D2E/DX2                !
 ! A19   A(7,6,13)             111.8029         estimate D2E/DX2                !
 ! A20   A(6,7,8)              108.9691         estimate D2E/DX2                !
 ! A21   A(6,7,14)             110.9768         estimate D2E/DX2                !
 ! A22   A(6,7,15)             112.1546         estimate D2E/DX2                !
 ! A23   A(8,7,14)             108.2312         estimate D2E/DX2                !
 ! A24   A(8,7,15)             108.2444         estimate D2E/DX2                !
 ! A25   A(14,7,15)            108.1526         estimate D2E/DX2                !
 ! A26   A(7,8,16)             107.7275         estimate D2E/DX2                !
 ! A27   L(2,1,9,16,-1)        178.9754         estimate D2E/DX2                !
 ! A28   L(1,2,3,16,-1)        177.5587         estimate D2E/DX2                !
 ! A29   L(2,1,9,16,-2)        182.8406         estimate D2E/DX2                !
 ! A30   L(1,2,3,16,-2)        174.9551         estimate D2E/DX2                !
 ! D1    D(2,3,4,5)            139.2899         estimate D2E/DX2                !
 ! D2    D(6,3,4,5)             20.8337         estimate D2E/DX2                !
 ! D3    D(10,3,4,5)           -95.7281         estimate D2E/DX2                !
 ! D4    D(2,3,6,5)           -135.1224         estimate D2E/DX2                !
 ! D5    D(2,3,6,7)            108.1504         estimate D2E/DX2                !
 ! D6    D(2,3,6,13)           -24.6823         estimate D2E/DX2                !
 ! D7    D(4,3,6,5)            -19.9154         estimate D2E/DX2                !
 ! D8    D(4,3,6,7)           -136.6426         estimate D2E/DX2                !
 ! D9    D(4,3,6,13)            90.5246         estimate D2E/DX2                !
 ! D10   D(10,3,6,5)            91.2642         estimate D2E/DX2                !
 ! D11   D(10,3,6,7)           -25.463          estimate D2E/DX2                !
 ! D12   D(10,3,6,13)         -158.2958         estimate D2E/DX2                !
 ! D13   D(3,4,5,6)            -20.9556         estimate D2E/DX2                !
 ! D14   D(3,4,5,11)          -138.2602         estimate D2E/DX2                !
 ! D15   D(3,4,5,12)            98.1412         estimate D2E/DX2                !
 ! D16   D(4,5,6,3)             19.9896         estimate D2E/DX2                !
 ! D17   D(4,5,6,7)            136.6332         estimate D2E/DX2                !
 ! D18   D(4,5,6,13)           -93.6537         estimate D2E/DX2                !
 ! D19   D(11,5,6,3)           135.2777         estimate D2E/DX2                !
 ! D20   D(11,5,6,7)          -108.0788         estimate D2E/DX2                !
 ! D21   D(11,5,6,13)           21.6344         estimate D2E/DX2                !
 ! D22   D(12,5,6,3)           -94.5512         estimate D2E/DX2                !
 ! D23   D(12,5,6,7)            22.0923         estimate D2E/DX2                !
 ! D24   D(12,5,6,13)          151.8055         estimate D2E/DX2                !
 ! D25   D(3,6,7,8)            -81.4423         estimate D2E/DX2                !
 ! D26   D(3,6,7,14)           159.4744         estimate D2E/DX2                !
 ! D27   D(3,6,7,15)            38.3854         estimate D2E/DX2                !
 ! D28   D(5,6,7,8)           -178.1226         estimate D2E/DX2                !
 ! D29   D(5,6,7,14)            62.794          estimate D2E/DX2                !
 ! D30   D(5,6,7,15)           -58.2949         estimate D2E/DX2                !
 ! D31   D(13,6,7,8)            52.4839         estimate D2E/DX2                !
 ! D32   D(13,6,7,14)          -66.5995         estimate D2E/DX2                !
 ! D33   D(13,6,7,15)          172.3116         estimate D2E/DX2                !
 ! D34   D(6,7,8,16)           -57.5068         estimate D2E/DX2                !
 ! D35   D(14,7,8,16)           63.2751         estimate D2E/DX2                !
 ! D36   D(15,7,8,16)         -179.7271         estimate D2E/DX2                !
 --------------------------------------------------------------------------------
 Trust Radius=3.00D-01 FncErr=1.00D-07 GrdErr=1.00D-06 EigMax=2.50D+02 EigMin=1.00D-04
 Number of steps in this run=     92 maximum allowed number of steps=    100.
 GradGradGradGradGradGradGradGradGradGradGradGradGradGradGradGradGradGrad

                          Input orientation:                          
 ---------------------------------------------------------------------
 Center     Atomic      Atomic             Coordinates (Angstroms)
 Number     Number       Type             X           Y           Z
 ---------------------------------------------------------------------
      1          6           0        1.081830   -0.019740    0.133300
      2          6           0        2.285290   -0.018110    0.162640
      3          6           0        3.726460   -0.097700    0.091200
      4          8           0        4.389740    0.929370    0.897060
      5          6           0        5.371350   -0.063900    1.319730
      6          6           0        4.393790   -1.185510    0.954340
      7          6           0        4.968290   -2.368330    0.219940
      8          8           0        3.920420   -3.283210   -0.074110
      9          1           0        0.018790   -0.046510    0.066770
     10          1           0        4.087290   -0.036720   -0.943600
     11          1           0        5.615850    0.008430    2.383500
     12          1           0        6.293780    0.000350    0.730780
     13          1           0        3.802120   -1.494960    1.826660
     14          1           0        5.712570   -2.885760    0.832370
     15          1           0        5.444190   -2.077880   -0.722310
     16          1           0        3.499720   -3.533080    0.768260
 ---------------------------------------------------------------------
                    Distance matrix (angstroms):
                    1          2          3          4          5
     1  C    0.000000
     2  C    1.203819   0.000000
     3  C    2.646114   1.445133   0.000000
     4  O    3.525111   2.421942   1.464317   0.000000
     5  C    4.450792   3.296168   2.053312   1.459039   0.000000
     6  C    3.605857   2.536806   1.540672   2.115659   1.532039
     7  C    4.541801   3.567255   2.591231   3.415851   2.585033
     8  O    4.330225   3.659314   3.195688   4.348478   3.796307
     9  H    1.065456   2.268704   3.708104   4.554879   5.497282
    10  H    3.192615   2.114549   1.097601   2.100675   2.602347
    11  H    5.061772   4.003193   2.972490   2.135645   1.093901
    12  H    5.246123   4.048594   2.647604   2.125111   1.096297
    13  H    3.527566   2.692735   2.229323   2.662110   2.183436
    14  H    5.490585   4.518651   3.502463   4.038475   2.883894
    15  H    4.898795   3.873556   2.744724   3.574602   2.869033
    16  H    4.311951   3.767842   3.508797   4.552163   3.980242
                    6          7          8          9         10
     6  C    0.000000
     7  C    1.506140   0.000000
     8  O    2.383723   1.421795   0.000000
     9  H    4.607139   5.469174   5.071370   0.000000
    10  H    2.239606   2.750707   3.365049   4.192092   0.000000
    11  H    2.227425   3.278615   4.444010   6.057833   3.661711
    12  H    2.250823   2.761979   4.130672   6.310198   2.770112
    13  H    1.098533   2.168934   2.612424   4.416877   3.143585
    14  H    2.155205   1.093964   2.047309   6.408324   3.729964
    15  H    2.170442   1.094841   2.048135   5.846715   2.460992
    16  H    2.518943   1.952945   0.974172   4.976458   3.937034
                   11         12         13         14         15
    11  H    0.000000
    12  H    1.786376   0.000000
    13  H    2.420717   3.105684   0.000000
    14  H    3.285072   2.945803   2.563739   0.000000
    15  H    3.745426   2.674381   3.087627   1.772492   0.000000
    16  H    4.430497   4.504809   2.316374   2.306477   2.849626
                   16
    16  H    0.000000
 Stoichiometry    C6H8O2
 Framework group  C1[X(C6H8O2)]
 Deg. of freedom    42
 Full point group                 C1      NOp   1
 Largest Abelian subgroup         C1      NOp   1
 Largest concise Abelian subgroup C1      NOp   1
                         Standard orientation:                         
 ---------------------------------------------------------------------
 Center     Atomic      Atomic             Coordinates (Angstroms)
 Number     Number       Type             X           Y           Z
 ---------------------------------------------------------------------
      1          6           0        2.557591   -1.411972   -0.184379
      2          6           0        1.714445   -0.595516    0.083357
      3          6           0        0.649746    0.293687    0.488504
      4          8           0        0.893422    1.682989    0.095203
      5          6           0       -0.514762    1.807276   -0.265858
      6          6           0       -0.618375    0.283505   -0.386389
      7          6           0       -1.842642   -0.358707    0.211266
      8          8           0       -1.751716   -1.768134    0.047717
      9          1           0        3.285488   -2.163041   -0.387502
     10          1           0        0.470441    0.248534    1.570419
     11          1           0       -0.665539    2.356581   -1.199747
     12          1           0       -1.098317    2.281704    0.531794
     13          1           0       -0.449640   -0.044296   -1.421208
     14          1           0       -2.750881   -0.013701   -0.291557
     15          1           0       -1.941744   -0.143359    1.280135
     16          1           0       -1.659472   -1.950894   -0.904701
 ---------------------------------------------------------------------
 Rotational constants (GHZ):           2.5192724           1.8539072           1.1437183
 Standard basis: 6-31G(2df,p) (6D, 7F)
 There are   288 symmetry adapted cartesian basis functions of A   symmetry.
 There are   264 symmetry adapted basis functions of A   symmetry.
   264 basis functions,   408 primitive gaussians,   288 cartesian basis functions
    30 alpha electrons       30 beta electrons
       nuclear repulsion energy       359.4761700065 Hartrees.
 NAtoms=   16 NActive=   16 NUniq=   16 SFac= 1.00D+00 NAtFMM=   60 NAOKFM=F Big=F
 Integral buffers will be    131072 words long.
 Raffenetti 2 integral format.
 Two-electron integral symmetry is turned on.
 One-electron integrals computed using PRISM.
 PrsmSu:  requested number of processors reduced to:  13 ShMem   1 Linda.
 NBasis=   264 RedAO= T EigKep=  1.39D-04  NBF=   264
 NBsUse=   264 1.00D-06 EigRej= -1.00D+00 NBFU=   264
 ExpMin= 1.61D-01 ExpMax= 5.48D+03 ExpMxC= 8.25D+02 IAcc=3 IRadAn=         5 AccDes= 0.00D+00
 Harris functional with IExCor=  402 and IRadAn=       5 diagonalized for initial guess.
 HarFok:  IExCor=  402 AccDes= 0.00D+00 IRadAn=         5 IDoV= 1 UseB2=F ITyADJ=14
 ICtDFT=  3500011 ScaDFX=  1.000000  1.000000  1.000000  1.000000
 FoFCou: FMM=F IPFlag=           0 FMFlag=      100000 FMFlg1=           0
         NFxFlg=           0 DoJE=T BraDBF=F KetDBF=T FulRan=T
         wScrn=  0.000000 ICntrl=       500 IOpCl=  0 I1Cent=   200000004 NGrid=           0
         NMat0=    1 NMatS0=      1 NMatT0=    0 NMatD0=    1 NMtDS0=    0 NMtDT0=    0
 Petite list used in FoFCou.
 Requested convergence on RMS density matrix=1.00D-08 within 128 cycles.
 Requested convergence on MAX density matrix=1.00D-06.
 Requested convergence on             energy=1.00D-06.
 No special actions if energy rises.
 Integral accuracy reduced to 1.0D-05 until final iterations.
 Initial convergence to 1.0D-05 achieved.  Increase integral accuracy.
 SCF Done:  E(RB3LYP) =  -383.791476153     A.U. after   14 cycles
            NFock= 14  Conv=0.26D-08     -V/T= 2.0071

 **********************************************************************

            Population analysis using the SCF density.

 **********************************************************************

 Orbital symmetries:
       Occupied  (A) (A) (A) (A) (A) (A) (A) (A) (A) (A) (A) (A)
                 (A) (A) (A) (A) (A) (A) (A) (A) (A) (A) (A) (A)
                 (A) (A) (A) (A) (A) (A)
       Virtual   (A) (A) (A) (A) (A) (A) (A) (A) (A) (A) (A) (A)
                 (A) (A) (A) (A) (A) (A) (A) (A) (A) (A) (A) (A)
                 (A) (A) (A) (A) (A) (A) (A) (A) (A) (A) (A) (A)
                 (A) (A) (A) (A) (A) (A) (A) (A) (A) (A) (A) (A)
                 (A) (A) (A) (A) (A) (A) (A) (A) (A) (A) (A) (A)
                 (A) (A) (A) (A) (A) (A) (A) (A) (A) (A) (A) (A)
                 (A) (A) (A) (A) (A) (A) (A) (A) (A) (A) (A) (A)
                 (A) (A) (A) (A) (A) (A) (A) (A) (A) (A) (A) (A)
                 (A) (A) (A) (A) (A) (A) (A) (A) (A) (A) (A) (A)
                 (A) (A) (A) (A) (A) (A) (A) (A) (A) (A) (A) (A)
                 (A) (A) (A) (A) (A) (A) (A) (A) (A) (A) (A) (A)
                 (A) (A) (A) (A) (A) (A) (A) (A) (A) (A) (A) (A)
                 (A) (A) (A) (A) (A) (A) (A) (A) (A) (A) (A) (A)
                 (A) (A) (A) (A) (A) (A) (A) (A) (A) (A) (A) (A)
                 (A) (A) (A) (A) (A) (A) (A) (A) (A) (A) (A) (A)
                 (A) (A) (A) (A) (A) (A) (A) (A) (A) (A) (A) (A)
                 (A) (A) (A) (A) (A) (A) (A) (A) (A) (A) (A) (A)
                 (A) (A) (A) (A) (A) (A) (A) (A) (A) (A) (A) (A)
                 (A) (A) (A) (A) (A) (A) (A) (A) (A) (A) (A) (A)
                 (A) (A) (A) (A) (A) (A)
 The electronic state is 1-A.
 Alpha  occ. eigenvalues --  -19.13887 -19.13757 -10.25894 -10.23611 -10.23461
 Alpha  occ. eigenvalues --  -10.20377 -10.18372 -10.18056  -1.04178  -1.01796
 Alpha  occ. eigenvalues --   -0.78748  -0.76267  -0.69454  -0.66399  -0.58952
 Alpha  occ. eigenvalues --   -0.54789  -0.51251  -0.50465  -0.48028  -0.44701
 Alpha  occ. eigenvalues --   -0.43822  -0.42790  -0.39048  -0.36572  -0.34031
 Alpha  occ. eigenvalues --   -0.31553  -0.28162  -0.27099  -0.26841  -0.25104
 Alpha virt. eigenvalues --    0.01805   0.04513   0.06457   0.09957   0.10475
 Alpha virt. eigenvalues --    0.12195   0.12478   0.14673   0.15364   0.16690
 Alpha virt. eigenvalues --    0.18134   0.18865   0.20077   0.23959   0.26579
 Alpha virt. eigenvalues --    0.29029   0.31437   0.38465   0.40933   0.42611
 Alpha virt. eigenvalues --    0.43741   0.46831   0.47962   0.49587   0.50025
 Alpha virt. eigenvalues --    0.52230   0.54710   0.57619   0.58877   0.61186
 Alpha virt. eigenvalues --    0.63684   0.64394   0.67426   0.69137   0.69930
 Alpha virt. eigenvalues --    0.70901   0.71740   0.73725   0.74532   0.75812
 Alpha virt. eigenvalues --    0.76662   0.77704   0.78989   0.80552   0.81170
 Alpha virt. eigenvalues --    0.83530   0.85501   0.86690   0.89098   0.90046
 Alpha virt. eigenvalues --    0.91672   0.93592   0.96034   0.98305   0.99667
 Alpha virt. eigenvalues --    1.02796   1.04265   1.06441   1.09327   1.11900
 Alpha virt. eigenvalues --    1.13943   1.15137   1.17521   1.21051   1.21926
 Alpha virt. eigenvalues --    1.23423   1.28219   1.31403   1.34107   1.36740
 Alpha virt. eigenvalues --    1.38077   1.40572   1.42791   1.45102   1.46773
 Alpha virt. eigenvalues --    1.48490   1.50542   1.51968   1.54861   1.57298
 Alpha virt. eigenvalues --    1.58414   1.61244   1.65055   1.65851   1.68749
 Alpha virt. eigenvalues --    1.73218   1.76045   1.81651   1.84303   1.85132
 Alpha virt. eigenvalues --    1.89528   1.94533   1.97736   2.00492   2.05153
 Alpha virt. eigenvalues --    2.14181   2.16474   2.24437   2.25195   2.33948
 Alpha virt. eigenvalues --    2.36394   2.36883   2.41006   2.44148   2.49205
 Alpha virt. eigenvalues --    2.50693   2.52418   2.54597   2.58523   2.61922
 Alpha virt. eigenvalues --    2.66511   2.66548   2.67339   2.69550   2.70989
 Alpha virt. eigenvalues --    2.72412   2.75341   2.77720   2.79201   2.84023
 Alpha virt. eigenvalues --    2.86803   2.88198   2.90102   2.92177   2.94821
 Alpha virt. eigenvalues --    2.95814   2.97831   3.02294   3.05490   3.08547
 Alpha virt. eigenvalues --    3.08835   3.09776   3.16959   3.19177   3.21376
 Alpha virt. eigenvalues --    3.23782   3.28192   3.29684   3.31902   3.33417
 Alpha virt. eigenvalues --    3.36856   3.39584   3.42426   3.44536   3.47976
 Alpha virt. eigenvalues --    3.49479   3.50513   3.53896   3.56512   3.57909
 Alpha virt. eigenvalues --    3.64042   3.66804   3.71065   3.75276   3.79314
 Alpha virt. eigenvalues --    3.83552   3.88016   3.90508   3.92931   3.99061
 Alpha virt. eigenvalues --    4.11313   4.12182   4.15586   4.21515   4.22042
 Alpha virt. eigenvalues --    4.22934   4.27289   4.28677   4.32750   4.35504
 Alpha virt. eigenvalues --    4.36732   4.39547   4.41555   4.43538   4.44730
 Alpha virt. eigenvalues --    4.45055   4.47150   4.50047   4.52239   4.55590
 Alpha virt. eigenvalues --    4.57552   4.60665   4.61884   4.64338   4.66839
 Alpha virt. eigenvalues --    4.69565   4.70324   4.76910   4.77602   4.81137
 Alpha virt. eigenvalues --    4.83178   4.85044   4.86446   4.88074   4.90558
 Alpha virt. eigenvalues --    4.95107   4.97341   5.01858   5.05371   5.12008
 Alpha virt. eigenvalues --    5.15436   5.20176   5.25508   5.28481   5.29872
 Alpha virt. eigenvalues --    5.31610   5.36293   5.45874   5.49559   5.52078
 Alpha virt. eigenvalues --    5.54469   5.66892   5.67702   5.70963   5.82214
 Alpha virt. eigenvalues --    5.93117   5.96513   5.97639   6.05228   6.06932
 Alpha virt. eigenvalues --    6.14885   6.26598   6.36031   6.86903   7.04868
 Alpha virt. eigenvalues --    7.43376   9.65077  10.80918  11.35633  11.68976
 Alpha virt. eigenvalues --   12.30154  12.48088  13.19726  13.54227
          Condensed to atoms (all electrons):
               1          2          3          4          5          6
     1  C    5.224046   0.876217  -0.040104  -0.002794  -0.000354  -0.001358
     2  C    0.876217   4.433053   0.439576  -0.021476  -0.000426  -0.009661
     3  C   -0.040104   0.439576   4.849878   0.261919  -0.138721   0.360327
     4  O   -0.002794  -0.021476   0.261919   7.893814   0.305126  -0.063130
     5  C   -0.000354  -0.000426  -0.138721   0.305126   4.976760   0.285873
     6  C   -0.001358  -0.009661   0.360327  -0.063130   0.285873   4.949308
     7  C    0.000007   0.000713  -0.022312   0.003998  -0.022431   0.369628
     8  O   -0.000627   0.000086   0.006168  -0.000024   0.004097  -0.047613
     9  H    0.372919   0.002202  -0.000101  -0.000010  -0.000000   0.000053
    10  H   -0.003465  -0.042837   0.361059  -0.033921   0.006354  -0.051093
    11  H    0.000012   0.000221   0.008942  -0.017441   0.353858  -0.006699
    12  H    0.000018   0.000072  -0.005224  -0.027173   0.360017  -0.030412
    13  H    0.001783  -0.004163  -0.024747   0.003414  -0.020310   0.345910
    14  H   -0.000017  -0.000252   0.004647  -0.000161   0.001806  -0.037880
    15  H    0.000087   0.001042  -0.011661   0.000075  -0.002439  -0.019985
    16  H    0.000173   0.000287  -0.000681   0.000006  -0.000153  -0.000938
               7          8          9         10         11         12
     1  C    0.000007  -0.000627   0.372919  -0.003465   0.000012   0.000018
     2  C    0.000713   0.000086   0.002202  -0.042837   0.000221   0.000072
     3  C   -0.022312   0.006168  -0.000101   0.361059   0.008942  -0.005224
     4  O    0.003998  -0.000024  -0.000010  -0.033921  -0.017441  -0.027173
     5  C   -0.022431   0.004097  -0.000000   0.006354   0.353858   0.360017
     6  C    0.369628  -0.047613   0.000053  -0.051093  -0.006699  -0.030412
     7  C    4.808235   0.349738  -0.000002  -0.003333   0.000321  -0.004439
     8  O    0.349738   7.852513  -0.000003   0.000260  -0.000060   0.000061
     9  H   -0.000002  -0.000003   0.424200  -0.000104  -0.000000  -0.000000
    10  H   -0.003333   0.000260  -0.000104   0.643842  -0.000929   0.005612
    11  H    0.000321  -0.000060  -0.000000  -0.000929   0.613941  -0.055196
    12  H   -0.004439   0.000061  -0.000000   0.005612  -0.055196   0.643951
    13  H   -0.046349  -0.002454  -0.000003   0.005131  -0.009226   0.005216
    14  H    0.351431  -0.029073  -0.000000  -0.000041   0.000395   0.000578
    15  H    0.354910  -0.015427   0.000000   0.005912  -0.000277   0.004205
    16  H   -0.065127   0.308148   0.000001   0.000037   0.000004   0.000025
              13         14         15         16
     1  C    0.001783  -0.000017   0.000087   0.000173
     2  C   -0.004163  -0.000252   0.001042   0.000287
     3  C   -0.024747   0.004647  -0.011661  -0.000681
     4  O    0.003414  -0.000161   0.000075   0.000006
     5  C   -0.020310   0.001806  -0.002439  -0.000153
     6  C    0.345910  -0.037880  -0.019985  -0.000938
     7  C   -0.046349   0.351431   0.354910  -0.065127
     8  O   -0.002454  -0.029073  -0.015427   0.308148
     9  H   -0.000003  -0.000000   0.000000   0.000001
    10  H    0.005131  -0.000041   0.005912   0.000037
    11  H   -0.009226   0.000395  -0.000277   0.000004
    12  H    0.005216   0.000578   0.004205   0.000025
    13  H    0.644637  -0.003705   0.005822   0.006800
    14  H   -0.003705   0.676288  -0.047349  -0.005026
    15  H    0.005822  -0.047349   0.602917   0.006626
    16  H    0.006800  -0.005026   0.006626   0.464603
 Mulliken charges:
               1
     1  C   -0.426542
     2  C    0.325346
     3  C   -0.048966
     4  O   -0.302224
     5  C   -0.109058
     6  C   -0.042330
     7  C   -0.074986
     8  O   -0.425787
     9  H    0.200849
    10  H    0.107516
    11  H    0.112134
    12  H    0.102689
    13  H    0.092244
    14  H    0.088358
    15  H    0.115542
    16  H    0.285215
 Sum of Mulliken charges =  -0.00000
 Mulliken charges with hydrogens summed into heavy atoms:
               1
     1  C   -0.225693
     2  C    0.325346
     3  C    0.058550
     4  O   -0.302224
     5  C    0.105765
     6  C    0.049914
     7  C    0.128915
     8  O   -0.140573
 Electronic spatial extent (au):  <R**2>=           1018.5416
 Charge=             -0.0000 electrons
 Dipole moment (field-independent basis, Debye):
    X=             -1.5343    Y=             -0.1547    Z=             -1.2089  Tot=              1.9595
 Quadrupole moment (field-independent basis, Debye-Ang):
   XX=            -46.4551   YY=            -48.9996   ZZ=            -43.5552
   XY=             -8.0440   XZ=              1.6054   YZ=              3.1528
 Traceless Quadrupole moment (field-independent basis, Debye-Ang):
   XX=             -0.1185   YY=             -2.6629   ZZ=              2.7814
   XY=             -8.0440   XZ=              1.6054   YZ=              3.1528
 Octapole moment (field-independent basis, Debye-Ang**2):
  XXX=              4.1279  YYY=             -4.0616  ZZZ=             -0.0712  XYY=              4.1600
  XXY=            -11.5204  XXZ=             -6.3354  XZZ=             -7.6892  YZZ=             -1.1713
  YYZ=            -10.1810  XYZ=             -2.6192
 Hexadecapole moment (field-independent basis, Debye-Ang**3):
 XXXX=           -669.9236 YYYY=           -487.7327 ZZZZ=            -91.4978 XXXY=            -45.4678
 XXXZ=             -5.2116 YYYX=            -24.4052 YYYZ=             14.8894 ZZZX=              3.8595
 ZZZY=              3.3413 XXYY=           -179.5198 XXZZ=           -132.6664 YYZZ=            -91.8546
 XXYZ=             18.4716 YYXZ=              4.2626 ZZXY=             12.6033
 N-N= 3.594761700065D+02 E-N=-1.615026307115D+03  KE= 3.811008421324D+02
 PrsmSu:  requested number of processors reduced to:  13 ShMem   1 Linda.
 Calling FoFJK, ICntrl=      2127 FMM=F ISym2X=0 I1Cent= 0 IOpClX= 0 NMat=1 NMatS=1 NMatT=0.
 ***** Axes restored to original set *****
 -------------------------------------------------------------------
 Center     Atomic                   Forces (Hartrees/Bohr)
 Number     Number              X              Y              Z
 -------------------------------------------------------------------
      1        6           0.001304558   -0.000901988   -0.000566527
      2        6          -0.008725783    0.000487406   -0.009797905
      3        6          -0.014453348    0.011138328    0.021602610
      4        8           0.009828733   -0.001473972   -0.004614841
      5        6          -0.010336088    0.008709479    0.015026903
      6        6           0.027850553   -0.001414061   -0.015317356
      7        6          -0.013361176   -0.015260565    0.011276561
      8        8          -0.005960235   -0.007416463   -0.002743696
      9        1           0.002417201    0.001241594    0.002211411
     10        1          -0.000359900   -0.005375543   -0.000258310
     11        1           0.001452552    0.004636450   -0.000150250
     12        1          -0.000102020   -0.002821266   -0.002640910
     13        1          -0.001061010    0.003192353   -0.005992305
     14        1           0.008090138    0.002411834    0.002425771
     15        1          -0.002387774   -0.000463043   -0.000178809
     16        1           0.005803599    0.003309458   -0.010282347
 -------------------------------------------------------------------
 Cartesian Forces:  Max     0.027850553 RMS     0.008554897

 GradGradGradGradGradGradGradGradGradGradGradGradGradGradGradGradGradGrad
 Berny optimization.
 FormGI is forming the generalized inverse of G from B-inverse, IUseBI=4.
 Internal  Forces:  Max     0.016390316 RMS     0.004694059
 Search for a local minimum.
 Step number   1 out of a maximum of   92
 All quantities printed in internal units (Hartrees-Bohrs-Radians)
 Mixed Optimization -- RFO/linear search
 Second derivative matrix not updated -- first step.
 ITU=  0
     Eigenvalues ---    0.00559   0.00559   0.00580   0.00685   0.01403
     Eigenvalues ---    0.01492   0.01492   0.02492   0.03429   0.04725
     Eigenvalues ---    0.05034   0.05346   0.05673   0.05793   0.06562
     Eigenvalues ---    0.07608   0.08268   0.10197   0.10349   0.10501
     Eigenvalues ---    0.11482   0.13673   0.13735   0.16000   0.20667
     Eigenvalues ---    0.21979   0.27075   0.27654   0.31742   0.33845
     Eigenvalues ---    0.33861   0.33949   0.34095   0.34259   0.34359
     Eigenvalues ---    0.34366   0.34878   0.37810   0.38890   0.42191
     Eigenvalues ---    0.52534   1.02927
 RFO step:  Lambda=-1.53601897D-02 EMin= 5.59497536D-03
 Linear search not attempted -- first point.
 Maximum step size (   0.300) exceeded in Quadratic search.
    -- Step size scaled by   0.770
 Iteration  1 RMS(Cart)=  0.11681589 RMS(Int)=  0.00947708
 Iteration  2 RMS(Cart)=  0.01324817 RMS(Int)=  0.00058173
 Iteration  3 RMS(Cart)=  0.00015287 RMS(Int)=  0.00057564
 Iteration  4 RMS(Cart)=  0.00000005 RMS(Int)=  0.00057564
 Variable       Old X    -DE/DX   Delta X   Delta X   Delta X     New X
                                 (Linear)    (Quad)   (Total)
    R1        2.27489  -0.00375   0.00000  -0.00276  -0.00276   2.27212
    R2        2.01342  -0.00258   0.00000  -0.00505  -0.00505   2.00837
    R3        2.73091   0.00468   0.00000   0.00890   0.00890   2.73981
    R4        2.76716   0.00048   0.00000   0.00113   0.00103   2.76819
    R5        2.91145   0.00634   0.00000   0.01367   0.01387   2.92532
    R6        2.07417  -0.00017   0.00000  -0.00038  -0.00038   2.07379
    R7        2.75718  -0.00443   0.00000  -0.00759  -0.00782   2.74937
    R8        2.89513   0.00628   0.00000   0.01661   0.01671   2.91185
    R9        2.06717   0.00049   0.00000   0.00104   0.00104   2.06821
   R10        2.07170   0.00117   0.00000   0.00252   0.00252   2.07422
   R11        2.84619   0.01044   0.00000   0.02416   0.02416   2.87035
   R12        2.07593  -0.00509   0.00000  -0.01107  -0.01107   2.06486
   R13        2.68680   0.00540   0.00000   0.00950   0.00950   2.69631
   R14        2.06729   0.00572   0.00000   0.01227   0.01227   2.07956
   R15        2.06895  -0.00101   0.00000  -0.00217  -0.00217   2.06678
   R16        1.84092  -0.01225   0.00000  -0.01744  -0.01744   1.82347
    A1        1.96696   0.00182   0.00000   0.02042   0.01958   1.98654
    A2        2.02990   0.00799   0.00000   0.03767   0.03766   2.06756
    A3        1.95130  -0.00232   0.00000  -0.01775  -0.01772   1.93358
    A4        1.56151   0.00190   0.00000   0.01729   0.01576   1.57727
    A5        1.90812  -0.00089   0.00000   0.00236   0.00308   1.91120
    A6        2.00978  -0.00777   0.00000  -0.05098  -0.05101   1.95877
    A7        1.55747   0.00227   0.00000   0.01682   0.01517   1.57265
    A8        1.57081   0.00363   0.00000   0.01938   0.01793   1.58874
    A9        1.96825  -0.00187   0.00000  -0.00588  -0.00642   1.96183
   A10        1.95040  -0.00147   0.00000  -0.01240  -0.01193   1.93848
   A11        2.00750   0.00652   0.00000   0.04267   0.04326   2.05076
   A12        2.03942  -0.00712   0.00000  -0.04209  -0.04202   1.99740
   A13        1.90761   0.00040   0.00000  -0.00069  -0.00054   1.90707
   A14        1.46368  -0.00312   0.00000   0.00385   0.00207   1.46575
   A15        2.03369   0.00653   0.00000   0.03646   0.03601   2.06970
   A16        1.99377  -0.00515   0.00000  -0.05314  -0.05283   1.94094
   A17        2.03516   0.00583   0.00000   0.03768   0.03708   2.07224
   A18        1.93961  -0.00211   0.00000  -0.01041  -0.01024   1.92937
   A19        1.95133  -0.00210   0.00000  -0.01126  -0.01110   1.94023
   A20        1.90187   0.01639   0.00000   0.05939   0.05872   1.96059
   A21        1.93691  -0.00517   0.00000  -0.00859  -0.01067   1.92624
   A22        1.95747  -0.00460   0.00000  -0.03178  -0.03149   1.92598
   A23        1.88899   0.00104   0.00000   0.04299   0.04186   1.93085
   A24        1.88922  -0.00914   0.00000  -0.04816  -0.04724   1.84198
   A25        1.88762   0.00138   0.00000  -0.01278  -0.01297   1.87465
   A26        1.88020  -0.00117   0.00000  -0.00513  -0.00513   1.87507
   A27        3.12371   0.00180   0.00000   0.06599   0.06599   3.18970
   A28        3.09898   0.00196   0.00000   0.04984   0.04984   3.14882
   A29        3.19117  -0.00370   0.00000  -0.13579  -0.13579   3.05538
   A30        3.05354   0.00764   0.00000   0.19430   0.19430   3.24784
    D1        2.43107   0.00416   0.00000  -0.02319  -0.02336   2.40771
    D2        0.36362  -0.00596   0.00000  -0.07737  -0.07805   0.28557
    D3       -1.67077   0.00178   0.00000  -0.02979  -0.02995  -1.70072
    D4       -2.35833   0.00203   0.00000   0.03584   0.03549  -2.32284
    D5        1.88758  -0.00380   0.00000  -0.01328  -0.01356   1.87402
    D6       -0.43079  -0.00193   0.00000   0.02329   0.02313  -0.40766
    D7       -0.34759   0.00691   0.00000   0.07681   0.07683  -0.27076
    D8       -2.38486   0.00107   0.00000   0.02769   0.02778  -2.35709
    D9        1.57995   0.00295   0.00000   0.06426   0.06447   1.64442
   D10        1.59286   0.00553   0.00000   0.07932   0.07902   1.67188
   D11       -0.44441  -0.00030   0.00000   0.03020   0.02996  -0.41445
   D12       -2.76278   0.00157   0.00000   0.06677   0.06665  -2.69613
   D13       -0.36575   0.00599   0.00000   0.07821   0.07877  -0.28697
   D14       -2.41310  -0.00254   0.00000   0.02313   0.02371  -2.38938
   D15        1.71289  -0.00051   0.00000   0.03803   0.03816   1.75105
   D16        0.34888  -0.00628   0.00000  -0.07591  -0.07619   0.27270
   D17        2.38470   0.00025   0.00000  -0.02797  -0.02813   2.35657
   D18       -1.63457   0.00052   0.00000  -0.01978  -0.01998  -1.65455
   D19        2.36104  -0.00507   0.00000  -0.06311  -0.06294   2.29810
   D20       -1.88633   0.00146   0.00000  -0.01517  -0.01488  -1.90121
   D21        0.37759   0.00173   0.00000  -0.00697  -0.00673   0.37086
   D22       -1.65023  -0.00497   0.00000  -0.06278  -0.06273  -1.71296
   D23        0.38558   0.00157   0.00000  -0.01484  -0.01467   0.37091
   D24        2.64951   0.00183   0.00000  -0.00665  -0.00652   2.64298
   D25       -1.42144   0.00680   0.00000   0.10084   0.10119  -1.32025
   D26        2.78335  -0.00166   0.00000   0.01572   0.01586   2.79921
   D27        0.66995   0.00340   0.00000   0.06022   0.06000   0.72995
   D28       -3.10883   0.00376   0.00000   0.05436   0.05454  -3.05428
   D29        1.09596  -0.00470   0.00000  -0.03076  -0.03079   1.06518
   D30       -1.01744   0.00036   0.00000   0.01374   0.01335  -1.00409
   D31        0.91602   0.00346   0.00000   0.04548   0.04573   0.96175
   D32       -1.16238  -0.00500   0.00000  -0.03964  -0.03960  -1.20198
   D33        3.00740   0.00006   0.00000   0.00486   0.00454   3.01195
   D34       -1.00368  -0.00190   0.00000  -0.03120  -0.03262  -1.03631
   D35        1.10436   0.00210   0.00000   0.01898   0.02050   1.12486
   D36       -3.13683  -0.00062   0.00000   0.00110   0.00099  -3.13584
         Item               Value     Threshold  Converged?
 Maximum Force            0.016390     0.000450     NO 
 RMS     Force            0.004694     0.000300     NO 
 Maximum Displacement     0.540500     0.001800     NO 
 RMS     Displacement     0.121039     0.001200     NO 
 Predicted change in Energy=-8.607437D-03
 GradGradGradGradGradGradGradGradGradGradGradGradGradGradGradGradGradGrad

                          Input orientation:                          
 ---------------------------------------------------------------------
 Center     Atomic      Atomic             Coordinates (Angstroms)
 Number     Number       Type             X           Y           Z
 ---------------------------------------------------------------------
      1          6           0        1.066459    0.044484    0.183196
      2          6           0        2.258061   -0.053008    0.055757
      3          6           0        3.705496   -0.134966    0.039453
      4          8           0        4.367077    0.933635    0.791928
      5          6           0        5.309701   -0.030757    1.337956
      6          6           0        4.394168   -1.200037    0.926975
      7          6           0        5.015566   -2.413132    0.256607
      8          8           0        4.035674   -3.359575   -0.167525
      9          1           0        0.028257    0.195755    0.352790
     10          1           0        4.083379   -0.145714   -0.990780
     11          1           0        5.488083    0.119699    2.407239
     12          1           0        6.267032    0.006462    0.802299
     13          1           0        3.751993   -1.495428    1.760220
     14          1           0        5.748343   -2.887565    0.926651
     15          1           0        5.547380   -2.115147   -0.651439
     16          1           0        3.544812   -3.637966    0.615203
 ---------------------------------------------------------------------
                    Distance matrix (angstroms):
                    1          2          3          4          5
     1  C    0.000000
     2  C    1.202356   0.000000
     3  C    2.649034   1.449845   0.000000
     4  O    3.472063   2.441999   1.464861   0.000000
     5  C    4.398208   3.310142   2.066506   1.454902   0.000000
     6  C    3.629833   2.576363   1.548012   2.138113   1.540884
     7  C    4.651958   3.635156   2.636946   3.450791   2.632782
     8  O    4.530658   3.760738   3.248071   4.411580   3.869192
     9  H    1.062783   2.263214   3.705353   4.422971   5.377315
    10  H    3.242869   2.106091   1.097402   2.103218   2.634406
    11  H    4.950029   3.999042   2.974707   2.127999   1.094451
    12  H    5.237432   4.078322   2.676454   2.114140   1.097632
    13  H    3.474252   2.686559   2.194096   2.686311   2.179455
    14  H    5.574018   4.579873   3.540783   4.065417   2.919406
    15  H    5.043737   3.946158   2.791234   3.573723   2.891171
    16  H    4.459743   3.849757   3.553634   4.648321   4.080339
                    6          7          8          9         10
     6  C    0.000000
     7  C    1.518924   0.000000
     8  O    2.447459   1.426825   0.000000
     9  H    4.619427   5.629280   5.382425   0.000000
    10  H    2.210423   2.750660   3.317971   4.285533   0.000000
    11  H    2.264848   3.356147   4.565551   5.834059   3.686485
    12  H    2.231323   2.778198   4.153279   6.257812   2.829599
    13  H    1.092676   2.167868   2.696613   4.325178   3.082133
    14  H    2.163687   1.100458   2.086444   6.523462   3.737164
    15  H    2.158406   1.093695   2.016935   6.067081   2.477321
    16  H    2.600405   1.947287   0.964941   5.208880   3.881374
                   11         12         13         14         15
    11  H    0.000000
    12  H    1.787573   0.000000
    13  H    2.457901   3.081997   0.000000
    14  H    3.362070   2.942770   2.572605   0.000000
    15  H    3.788610   2.670670   3.069783   1.768441   0.000000
    16  H    4.594317   4.552730   2.438126   2.348542   2.816672
                   16
    16  H    0.000000
 Stoichiometry    C6H8O2
 Framework group  C1[X(C6H8O2)]
 Deg. of freedom    42
 Full point group                 C1      NOp   1
 Largest Abelian subgroup         C1      NOp   1
 Largest concise Abelian subgroup C1      NOp   1
                         Standard orientation:                         
 ---------------------------------------------------------------------
 Center     Atomic      Atomic             Coordinates (Angstroms)
 Number     Number       Type             X           Y           Z
 ---------------------------------------------------------------------
      1          6           0        2.539788   -1.502305   -0.233811
      2          6           0        1.678010   -0.759852    0.155756
      3          6           0        0.658469    0.209731    0.505752
      4          8           0        1.021110    1.591970    0.183690
      5          6           0       -0.326012    1.833203   -0.310080
      6          6           0       -0.596200    0.318539   -0.394419
      7          6           0       -1.916449   -0.217987    0.131139
      8          8           0       -1.977000   -1.642970    0.091307
      9          1           0        3.340312   -2.088654   -0.614422
     10          1           0        0.400832    0.137004    1.570000
     11          1           0       -0.331892    2.400471   -1.246026
     12          1           0       -0.931522    2.361631    0.437528
     13          1           0       -0.392978   -0.051705   -1.402170
     14          1           0       -2.757480    0.221545   -0.426074
     15          1           0       -2.044633    0.051395    1.183361
     16          1           0       -1.861169   -1.911661   -0.828204
 ---------------------------------------------------------------------
 Rotational constants (GHZ):           2.5758231           1.7412085           1.1159113
 Standard basis: 6-31G(2df,p) (6D, 7F)
 There are   288 symmetry adapted cartesian basis functions of A   symmetry.
 There are   264 symmetry adapted basis functions of A   symmetry.
   264 basis functions,   408 primitive gaussians,   288 cartesian basis functions
    30 alpha electrons       30 beta electrons
       nuclear repulsion energy       356.9596928641 Hartrees.
 NAtoms=   16 NActive=   16 NUniq=   16 SFac= 1.00D+00 NAtFMM=   60 NAOKFM=F Big=F
 Integral buffers will be    131072 words long.
 Raffenetti 2 integral format.
 Two-electron integral symmetry is turned on.
 One-electron integrals computed using PRISM.
 PrsmSu:  requested number of processors reduced to:  13 ShMem   1 Linda.
 NBasis=   264 RedAO= T EigKep=  1.62D-04  NBF=   264
 NBsUse=   264 1.00D-06 EigRej= -1.00D+00 NBFU=   264
 Initial guess from the checkpoint file:  "CtCC1OCC1CO.chk"
 B after Tr=    -0.000000    0.000000    0.000000
         Rot=    0.999351   -0.003196    0.005760    0.035420 Ang=  -4.13 deg.
 ExpMin= 1.61D-01 ExpMax= 5.48D+03 ExpMxC= 8.25D+02 IAcc=2 IRadAn=         4 AccDes= 0.00D+00
 Harris functional with IExCor=  402 and IRadAn=       4 diagonalized for initial guess.
 HarFok:  IExCor=  402 AccDes= 0.00D+00 IRadAn=         4 IDoV= 1 UseB2=F ITyADJ=14
 ICtDFT=  3500011 ScaDFX=  1.000000  1.000000  1.000000  1.000000
 FoFCou: FMM=F IPFlag=           0 FMFlag=      100000 FMFlg1=           0
         NFxFlg=           0 DoJE=T BraDBF=F KetDBF=T FulRan=T
         wScrn=  0.000000 ICntrl=       500 IOpCl=  0 I1Cent=   200000004 NGrid=           0
         NMat0=    1 NMatS0=      1 NMatT0=    0 NMatD0=    1 NMtDS0=    0 NMtDT0=    0
 Petite list used in FoFCou.
 Requested convergence on RMS density matrix=1.00D-08 within 128 cycles.
 Requested convergence on MAX density matrix=1.00D-06.
 Requested convergence on             energy=1.00D-06.
 No special actions if energy rises.
 Integral accuracy reduced to 1.0D-05 until final iterations.
 Initial convergence to 1.0D-05 achieved.  Increase integral accuracy.
 SCF Done:  E(RB3LYP) =  -383.797109455     A.U. after   13 cycles
            NFock= 13  Conv=0.28D-08     -V/T= 2.0073
 PrsmSu:  requested number of processors reduced to:  13 ShMem   1 Linda.
 Calling FoFJK, ICntrl=      2127 FMM=F ISym2X=0 I1Cent= 0 IOpClX= 0 NMat=1 NMatS=1 NMatT=0.
 ***** Axes restored to original set *****
 -------------------------------------------------------------------
 Center     Atomic                   Forces (Hartrees/Bohr)
 Number     Number              X              Y              Z
 -------------------------------------------------------------------
      1        6           0.000599674    0.002096407    0.001374813
      2        6          -0.000087167    0.002713060    0.004512959
      3        6          -0.004414935    0.003652756    0.003117237
      4        8           0.002049410   -0.006347108   -0.002304213
      5        6          -0.005631308    0.004492254    0.002241262
      6        6           0.010665782   -0.001306488   -0.004178350
      7        6          -0.006852629   -0.005698902    0.000674925
      8        8           0.001486649    0.002732523    0.001543109
      9        1          -0.000287991   -0.002062362   -0.002707120
     10        1           0.000399939   -0.001762816   -0.001209051
     11        1          -0.000410860    0.000942249   -0.000486311
     12        1           0.000949452   -0.001252342   -0.000588804
     13        1          -0.001522215   -0.000222743   -0.000574137
     14        1           0.001195937    0.001125473    0.001169499
     15        1           0.001002855    0.000631338   -0.000426889
     16        1           0.000857407    0.000266702   -0.002158930
 -------------------------------------------------------------------
 Cartesian Forces:  Max     0.010665782 RMS     0.003037386

 GradGradGradGradGradGradGradGradGradGradGradGradGradGradGradGradGradGrad
 Berny optimization.
 Using GEDIIS/GDIIS optimizer.
 FormGI is forming the generalized inverse of G from B-inverse, IUseBI=4.
 Internal  Forces:  Max     0.008213927 RMS     0.001673697
 Search for a local minimum.
 Step number   2 out of a maximum of   92
 All quantities printed in internal units (Hartrees-Bohrs-Radians)
 Mixed Optimization -- RFO/linear search
 Update second derivatives using D2CorX and points    1    2
 DE= -5.63D-03 DEPred=-8.61D-03 R= 6.54D-01
 TightC=F SS=  1.41D+00  RLast= 4.09D-01 DXNew= 5.0454D-01 1.2283D+00
 Trust test= 6.54D-01 RLast= 4.09D-01 DXMaxT set to 5.05D-01
 ITU=  1  0
 Use linear search instead of GDIIS.
     Eigenvalues ---    0.00501   0.00559   0.00654   0.00705   0.01403
     Eigenvalues ---    0.01492   0.02115   0.02586   0.03463   0.04549
     Eigenvalues ---    0.05035   0.05322   0.05902   0.06247   0.06536
     Eigenvalues ---    0.07666   0.08317   0.09899   0.10308   0.10560
     Eigenvalues ---    0.11732   0.13542   0.13982   0.16033   0.20745
     Eigenvalues ---    0.21886   0.27044   0.27658   0.31786   0.33808
     Eigenvalues ---    0.33968   0.34085   0.34257   0.34259   0.34362
     Eigenvalues ---    0.34459   0.35275   0.37799   0.38900   0.42713
     Eigenvalues ---    0.52120   1.02897
 RFO step:  Lambda=-6.96832758D-03 EMin= 5.01276379D-03
 Quartic linear search produced a step of -0.02623.
 Iteration  1 RMS(Cart)=  0.09217410 RMS(Int)=  0.02415361
 Iteration  2 RMS(Cart)=  0.05107023 RMS(Int)=  0.00503654
 Iteration  3 RMS(Cart)=  0.00543796 RMS(Int)=  0.00068973
 Iteration  4 RMS(Cart)=  0.00005934 RMS(Int)=  0.00068856
 Iteration  5 RMS(Cart)=  0.00000001 RMS(Int)=  0.00068856
 Variable       Old X    -DE/DX   Delta X   Delta X   Delta X     New X
                                 (Linear)    (Quad)   (Total)
    R1        2.27212  -0.00042   0.00007  -0.00254  -0.00247   2.26965
    R2        2.00837  -0.00044   0.00013  -0.00501  -0.00488   2.00349
    R3        2.73981   0.00005  -0.00023   0.00700   0.00677   2.74658
    R4        2.76819  -0.00420  -0.00003  -0.01008  -0.01013   2.75805
    R5        2.92532   0.00143  -0.00036   0.01580   0.01552   2.94084
    R6        2.07379   0.00129   0.00001   0.00328   0.00329   2.07708
    R7        2.74937  -0.00374   0.00021  -0.01628  -0.01616   2.73321
    R8        2.91185  -0.00010  -0.00044   0.01300   0.01258   2.92443
    R9        2.06821  -0.00041  -0.00003  -0.00033  -0.00035   2.06786
   R10        2.07422   0.00107  -0.00007   0.00491   0.00484   2.07907
   R11        2.87035  -0.00053  -0.00063   0.01705   0.01641   2.88676
   R12        2.06486   0.00052   0.00029  -0.00711  -0.00682   2.05804
   R13        2.69631  -0.00349  -0.00025  -0.00045  -0.00070   2.69561
   R14        2.07956   0.00102  -0.00032   0.01228   0.01196   2.09152
   R15        2.06678   0.00101   0.00006   0.00111   0.00117   2.06795
   R16        1.82347  -0.00233   0.00046  -0.01775  -0.01730   1.80618
    A1        1.98654  -0.00033  -0.00051   0.01026   0.00931   1.99585
    A2        2.06756   0.00210  -0.00099   0.04116   0.04075   2.10831
    A3        1.93358   0.00004   0.00046  -0.01191  -0.01135   1.92223
    A4        1.57727  -0.00005  -0.00041   0.01433   0.01160   1.58887
    A5        1.91120   0.00011  -0.00008   0.00558   0.00636   1.91757
    A6        1.95877  -0.00200   0.00134  -0.05542  -0.05399   1.90478
    A7        1.57265   0.00192  -0.00040   0.02193   0.01905   1.59170
    A8        1.58874   0.00036  -0.00047   0.01768   0.01496   1.60370
    A9        1.96183  -0.00034   0.00017  -0.00657  -0.00665   1.95518
   A10        1.93848   0.00012   0.00031  -0.00817  -0.00705   1.93143
   A11        2.05076   0.00127  -0.00113   0.04354   0.04333   2.09408
   A12        1.99740  -0.00173   0.00110  -0.04729  -0.04614   1.95127
   A13        1.90707   0.00028   0.00001   0.00080   0.00093   1.90801
   A14        1.46575  -0.00128  -0.00005   0.00222  -0.00029   1.46546
   A15        2.06970   0.00195  -0.00094   0.03893   0.03772   2.10741
   A16        1.94094  -0.00158   0.00139  -0.06243  -0.06048   1.88046
   A17        2.07224   0.00161  -0.00097   0.03840   0.03702   2.10925
   A18        1.92937  -0.00040   0.00027  -0.00613  -0.00566   1.92371
   A19        1.94023  -0.00054   0.00029  -0.01189  -0.01169   1.92854
   A20        1.96059   0.00154  -0.00154   0.05257   0.05046   2.01105
   A21        1.92624  -0.00173   0.00028  -0.01800  -0.01957   1.90667
   A22        1.92598  -0.00064   0.00083  -0.03116  -0.03021   1.89577
   A23        1.93085   0.00138  -0.00110   0.04651   0.04467   1.97552
   A24        1.84198  -0.00078   0.00124  -0.04080  -0.03871   1.80327
   A25        1.87465   0.00022   0.00034  -0.01309  -0.01314   1.86151
   A26        1.87507   0.00095   0.00013   0.00160   0.00174   1.87681
   A27        3.18970  -0.00261  -0.00173  -0.17298  -0.17471   3.01500
   A28        3.14882  -0.00194  -0.00131  -0.05669  -0.05800   3.09083
   A29        3.05538   0.00480   0.00356   0.31187   0.31544   3.37081
   A30        3.24784  -0.00821  -0.00510  -0.25023  -0.25533   2.99252
    D1        2.40771   0.00068   0.00061  -0.04250  -0.04251   2.36520
    D2        0.28557  -0.00157   0.00205  -0.09928  -0.09802   0.18755
    D3       -1.70072   0.00058   0.00079  -0.04629  -0.04560  -1.74632
    D4       -2.32284   0.00162  -0.00093   0.06402   0.06279  -2.26004
    D5        1.87402   0.00012   0.00036   0.01115   0.01131   1.88533
    D6       -0.40766   0.00067  -0.00061   0.05658   0.05587  -0.35179
    D7       -0.27076   0.00182  -0.00202   0.09682   0.09465  -0.17610
    D8       -2.35709   0.00031  -0.00073   0.04395   0.04317  -2.31391
    D9        1.64442   0.00087  -0.00169   0.08938   0.08774   1.73216
   D10        1.67188   0.00158  -0.00207   0.10003   0.09760   1.76948
   D11       -0.41445   0.00008  -0.00079   0.04715   0.04612  -0.36833
   D12       -2.69613   0.00064  -0.00175   0.09258   0.09068  -2.60545
   D13       -0.28697   0.00142  -0.00207   0.09946   0.09828  -0.18869
   D14       -2.38938  -0.00008  -0.00062   0.04407   0.04433  -2.34505
   D15        1.75105  -0.00028  -0.00100   0.05381   0.05299   1.80403
   D16        0.27270  -0.00187   0.00200  -0.09685  -0.09491   0.17779
   D17        2.35657  -0.00004   0.00074  -0.04338  -0.04269   2.31387
   D18       -1.65455   0.00029   0.00052  -0.03079  -0.03020  -1.68475
   D19        2.29810  -0.00171   0.00165  -0.08213  -0.08035   2.21775
   D20       -1.90121   0.00012   0.00039  -0.02866  -0.02813  -1.92935
   D21        0.37086   0.00045   0.00018  -0.01607  -0.01564   0.35522
   D22       -1.71296  -0.00181   0.00165  -0.08623  -0.08439  -1.79735
   D23        0.37091   0.00002   0.00038  -0.03276  -0.03218   0.33873
   D24        2.64298   0.00035   0.00017  -0.02017  -0.01969   2.62330
   D25       -1.32025   0.00173  -0.00265   0.12693   0.12426  -1.19599
   D26        2.79921   0.00010  -0.00042   0.04174   0.04143   2.84064
   D27        0.72995   0.00131  -0.00157   0.08862   0.08654   0.81649
   D28       -3.05428   0.00110  -0.00143   0.07423   0.07304  -2.98124
   D29        1.06518  -0.00052   0.00081  -0.01096  -0.00979   1.05539
   D30       -1.00409   0.00069  -0.00035   0.03592   0.03532  -0.96877
   D31        0.96175   0.00070  -0.00120   0.05875   0.05770   1.01945
   D32       -1.20198  -0.00092   0.00104  -0.02643  -0.02513  -1.22711
   D33        3.01195   0.00028  -0.00012   0.02044   0.01998   3.03192
   D34       -1.03631  -0.00014   0.00086  -0.03194  -0.03233  -1.06863
   D35        1.12486  -0.00024  -0.00054   0.01762   0.01851   1.14337
   D36       -3.13584   0.00026  -0.00003   0.00252   0.00232  -3.13352
         Item               Value     Threshold  Converged?
 Maximum Force            0.008214     0.000450     NO 
 RMS     Force            0.001674     0.000300     NO 
 Maximum Displacement     0.653521     0.001800     NO 
 RMS     Displacement     0.118591     0.001200     NO 
 Predicted change in Energy=-4.762384D-03
 GradGradGradGradGradGradGradGradGradGradGradGradGradGradGradGradGradGrad

                          Input orientation:                          
 ---------------------------------------------------------------------
 Center     Atomic      Atomic             Coordinates (Angstroms)
 Number     Number       Type             X           Y           Z
 ---------------------------------------------------------------------
      1          6           0        1.031837    0.103355    0.245842
      2          6           0        2.230957    0.048810    0.286512
      3          6           0        3.668958   -0.106906    0.143857
      4          8           0        4.453953    0.954335    0.766500
      5          6           0        5.368002   -0.012737    1.333261
      6          6           0        4.437484   -1.190019    0.955075
      7          6           0        4.990973   -2.435767    0.265619
      8          8           0        4.008742   -3.353425   -0.211766
      9          1           0        0.002377    0.018659    0.006962
     10          1           0        3.936441   -0.195157   -0.918586
     11          1           0        5.585904    0.195961    2.385106
     12          1           0        6.309386   -0.036996    0.764371
     13          1           0        3.818096   -1.468741    1.806394
     14          1           0        5.747913   -2.908920    0.919942
     15          1           0        5.512583   -2.128024   -0.645831
     16          1           0        3.507872   -3.657687    0.543273
 ---------------------------------------------------------------------
                    Distance matrix (angstroms):
                    1          2          3          4          5
     1  C    0.000000
     2  C    1.201049   0.000000
     3  C    2.647456   1.453426   0.000000
     4  O    3.564566   2.447872   1.459498   0.000000
     5  C    4.471945   3.307647   2.076126   1.446351   0.000000
     6  C    3.711370   2.617334   1.556227   2.152693   1.547540
     7  C    4.703434   3.713657   2.680698   3.468727   2.674525
     8  O    4.584833   3.870917   3.283565   4.439821   3.923632
     9  H    1.060200   2.246247   3.671284   4.611824   5.527205
    10  H    3.143522   2.102488   1.099145   2.104440   2.674595
    11  H    5.032351   3.959978   2.964727   2.115734   1.094265
    12  H    5.304818   4.107225   2.713260   2.103657   1.100194
    13  H    3.559501   2.670583   2.154267   2.712377   2.178534
    14  H    5.636452   4.638791   3.574303   4.077085   2.950091
    15  H    5.084410   4.046844   2.847363   3.551946   2.900370
    16  H    4.512722   3.928685   3.576804   4.713348   4.167712
                    6          7          8          9         10
     6  C    0.000000
     7  C    1.527609   0.000000
     8  O    2.495128   1.426453   0.000000
     9  H    4.693613   5.565717   5.241159   0.000000
    10  H    2.179771   2.744943   3.237202   4.047125   0.000000
    11  H    2.298869   3.431059   4.672187   6.071473   3.713231
    12  H    2.206773   2.782278   4.152650   6.352569   2.913455
    13  H    1.089069   2.164433   2.767915   4.473257   3.010239
    14  H    2.161730   1.106785   2.122043   6.512714   3.745147
    15  H    2.144433   1.094314   1.987852   5.949518   2.508903
    16  H    2.668922   1.941589   0.955787   5.107999   3.782832
                   11         12         13         14         15
    11  H    0.000000
    12  H    1.790106   0.000000
    13  H    2.496255   3.056507   0.000000
    14  H    3.437040   2.930427   2.565952   0.000000
    15  H    3.820061   2.644988   3.052762   1.765453   0.000000
    16  H    4.749861   4.583314   2.546213   2.391718   2.787957
                   16
    16  H    0.000000
 Stoichiometry    C6H8O2
 Framework group  C1[X(C6H8O2)]
 Deg. of freedom    42
 Full point group                 C1      NOp   1
 Largest Abelian subgroup         C1      NOp   1
 Largest concise Abelian subgroup C1      NOp   1
                         Standard orientation:                         
 ---------------------------------------------------------------------
 Center     Atomic      Atomic             Coordinates (Angstroms)
 Number     Number       Type             X           Y           Z
 ---------------------------------------------------------------------
      1          6           0        2.594637   -1.505219   -0.213550
      2          6           0        1.759052   -0.671280    0.007497
      3          6           0        0.686425    0.211794    0.434224
      4          8           0        0.969509    1.632419    0.255831
      5          6           0       -0.351390    1.858354   -0.288329
      6          6           0       -0.620904    0.338592   -0.400435
      7          6           0       -1.930944   -0.263980    0.103834
      8          8           0       -1.973480   -1.689532    0.131460
      9          1           0        3.210378   -2.367916   -0.238889
     10          1           0        0.426205    0.011591    1.483187
     11          1           0       -0.323196    2.476747   -1.190665
     12          1           0       -1.002968    2.334789    0.459256
     13          1           0       -0.405136   -0.008511   -1.409909
     14          1           0       -2.776718    0.186611   -0.449888
     15          1           0       -2.061088    0.012542    1.154606
     16          1           0       -1.856959   -1.998513   -0.765470
 ---------------------------------------------------------------------
 Rotational constants (GHZ):           2.5133362           1.7144837           1.0859385
 Standard basis: 6-31G(2df,p) (6D, 7F)
 There are   288 symmetry adapted cartesian basis functions of A   symmetry.
 There are   264 symmetry adapted basis functions of A   symmetry.
   264 basis functions,   408 primitive gaussians,   288 cartesian basis functions
    30 alpha electrons       30 beta electrons
       nuclear repulsion energy       354.9944558362 Hartrees.
 NAtoms=   16 NActive=   16 NUniq=   16 SFac= 1.00D+00 NAtFMM=   60 NAOKFM=F Big=F
 Integral buffers will be    131072 words long.
 Raffenetti 2 integral format.
 Two-electron integral symmetry is turned on.
 One-electron integrals computed using PRISM.
 PrsmSu:  requested number of processors reduced to:  13 ShMem   1 Linda.
 NBasis=   264 RedAO= T EigKep=  1.96D-04  NBF=   264
 NBsUse=   264 1.00D-06 EigRej= -1.00D+00 NBFU=   264
 Initial guess from the checkpoint file:  "CtCC1OCC1CO.chk"
 B after Tr=    -0.000000   -0.000000   -0.000000
         Rot=    0.999975   -0.002131   -0.000651   -0.006699 Ang=  -0.81 deg.
 ExpMin= 1.61D-01 ExpMax= 5.48D+03 ExpMxC= 8.25D+02 IAcc=2 IRadAn=         4 AccDes= 0.00D+00
 Harris functional with IExCor=  402 and IRadAn=       4 diagonalized for initial guess.
 HarFok:  IExCor=  402 AccDes= 0.00D+00 IRadAn=         4 IDoV= 1 UseB2=F ITyADJ=14
 ICtDFT=  3500011 ScaDFX=  1.000000  1.000000  1.000000  1.000000
 FoFCou: FMM=F IPFlag=           0 FMFlag=      100000 FMFlg1=           0
         NFxFlg=           0 DoJE=T BraDBF=F KetDBF=T FulRan=T
         wScrn=  0.000000 ICntrl=       500 IOpCl=  0 I1Cent=   200000004 NGrid=           0
         NMat0=    1 NMatS0=      1 NMatT0=    0 NMatD0=    1 NMtDS0=    0 NMtDT0=    0
 Petite list used in FoFCou.
 Requested convergence on RMS density matrix=1.00D-08 within 128 cycles.
 Requested convergence on MAX density matrix=1.00D-06.
 Requested convergence on             energy=1.00D-06.
 No special actions if energy rises.
 Integral accuracy reduced to 1.0D-05 until final iterations.
 Initial convergence to 1.0D-05 achieved.  Increase integral accuracy.
 SCF Done:  E(RB3LYP) =  -383.794146360     A.U. after   12 cycles
            NFock= 12  Conv=0.95D-08     -V/T= 2.0073
 PrsmSu:  requested number of processors reduced to:  13 ShMem   1 Linda.
 Calling FoFJK, ICntrl=      2127 FMM=F ISym2X=0 I1Cent= 0 IOpClX= 0 NMat=1 NMatS=1 NMatT=0.
 ***** Axes restored to original set *****
 -------------------------------------------------------------------
 Center     Atomic                   Forces (Hartrees/Bohr)
 Number     Number              X              Y              Z
 -------------------------------------------------------------------
      1        6          -0.000285143   -0.005451987   -0.005520975
      2        6           0.007327650   -0.003455001   -0.006423702
      3        6           0.006264546    0.003533599    0.001040773
      4        8          -0.001849055   -0.006864647    0.000279284
      5        6           0.002839271   -0.000473257   -0.008921146
      6        6          -0.009503422    0.000149973    0.009196038
      7        6           0.002585470    0.005328257   -0.008407721
      8        8           0.006544910    0.008700809    0.003415575
      9        1          -0.004012100    0.004386724    0.006057810
     10        1          -0.003881883    0.002805430   -0.002219110
     11        1          -0.001532710   -0.002732473    0.000273898
     12        1           0.001725840    0.001020443    0.001914185
     13        1          -0.000415963   -0.003782679    0.004699285
     14        1          -0.004549724   -0.000974369   -0.000828759
     15        1           0.003653469    0.001060735   -0.000040734
     16        1          -0.004911155   -0.003251555    0.005485300
 -------------------------------------------------------------------
 Cartesian Forces:  Max     0.009503422 RMS     0.004621049

 GradGradGradGradGradGradGradGradGradGradGradGradGradGradGradGradGradGrad
 Berny optimization.
 Using GEDIIS/GDIIS optimizer.
 FormGI is forming the generalized inverse of G from B-inverse, IUseBI=4.
 Internal  Forces:  Max     0.014382010 RMS     0.003736215
 Search for a local minimum.
 Step number   3 out of a maximum of   92
 All quantities printed in internal units (Hartrees-Bohrs-Radians)
 Mixed Optimization -- RFO/linear search
 Update second derivatives using D2CorX and points    1    3    2
 DE=  2.96D-03 DEPred=-4.76D-03 R=-6.22D-01
 Trust test=-6.22D-01 RLast= 6.02D-01 DXMaxT set to 2.52D-01
 ITU= -1  1  0
 Use linear search instead of GDIIS.
     Eigenvalues ---    0.00503   0.00565   0.00676   0.00849   0.01403
     Eigenvalues ---    0.01481   0.02428   0.03457   0.04222   0.04977
     Eigenvalues ---    0.05073   0.05733   0.06074   0.06382   0.07266
     Eigenvalues ---    0.08011   0.08437   0.10259   0.10537   0.10679
     Eigenvalues ---    0.11898   0.13782   0.14239   0.16022   0.21496
     Eigenvalues ---    0.22298   0.27048   0.27817   0.31957   0.33799
     Eigenvalues ---    0.33977   0.34044   0.34188   0.34288   0.34368
     Eigenvalues ---    0.34796   0.34907   0.37828   0.38964   0.42547
     Eigenvalues ---    0.52509   1.03008
 RFO step:  Lambda=-1.67788974D-03 EMin= 5.02633968D-03
 Quartic linear search produced a step of -0.64225.
 Iteration  1 RMS(Cart)=  0.08573857 RMS(Int)=  0.02026204
 Iteration  2 RMS(Cart)=  0.03541739 RMS(Int)=  0.00300126
 Iteration  3 RMS(Cart)=  0.00306021 RMS(Int)=  0.00042474
 Iteration  4 RMS(Cart)=  0.00001503 RMS(Int)=  0.00042463
 Iteration  5 RMS(Cart)=  0.00000000 RMS(Int)=  0.00042463
 Variable       Old X    -DE/DX   Delta X   Delta X   Delta X     New X
                                 (Linear)    (Quad)   (Total)
    R1        2.26965   0.00438   0.00159   0.00113   0.00272   2.27237
    R2        2.00349   0.00218   0.00314   0.00100   0.00414   2.00763
    R3        2.74658  -0.00379  -0.00435  -0.00325  -0.00759   2.73898
    R4        2.75805  -0.00330   0.00651  -0.01316  -0.00679   2.75126
    R5        2.94084  -0.00027  -0.00997   0.00486  -0.00500   2.93584
    R6        2.07708   0.00097  -0.00212   0.00414   0.00203   2.07911
    R7        2.73321  -0.00130   0.01038  -0.01063  -0.00037   2.73284
    R8        2.92443  -0.00415  -0.00808  -0.00435  -0.01230   2.91213
    R9        2.06786  -0.00056   0.00023  -0.00156  -0.00133   2.06653
   R10        2.07907   0.00046  -0.00311   0.00309  -0.00002   2.07905
   R11        2.88676  -0.00748  -0.01054  -0.00946  -0.02000   2.86677
   R12        2.05804   0.00488   0.00438   0.00622   0.01059   2.06864
   R13        2.69561  -0.00788   0.00045  -0.01331  -0.01286   2.68275
   R14        2.09152  -0.00319  -0.00768  -0.00069  -0.00837   2.08315
   R15        2.06795   0.00207  -0.00075   0.00455   0.00379   2.07175
   R16        1.80618   0.00771   0.01111   0.00133   0.01244   1.81861
    A1        1.99585   0.00166  -0.00598  -0.00493  -0.01104   1.98481
    A2        2.10831  -0.00218  -0.02617   0.00535  -0.02141   2.08690
    A3        1.92223  -0.00260   0.00729  -0.00650   0.00085   1.92308
    A4        1.58887  -0.00333  -0.00745   0.00036  -0.00549   1.58338
    A5        1.91757   0.00100  -0.00409   0.00735   0.00260   1.92016
    A6        1.90478   0.00594   0.03467   0.00045   0.03507   1.93985
    A7        1.59170   0.00272  -0.01223   0.01513   0.00450   1.59620
    A8        1.60370  -0.00261  -0.00961   0.00296  -0.00507   1.59863
    A9        1.95518   0.00198   0.00427   0.00035   0.00441   1.95959
   A10        1.93143   0.00116   0.00453   0.00599   0.00987   1.94130
   A11        2.09408  -0.00387  -0.02783  -0.00225  -0.03070   2.06338
   A12        1.95127   0.00400   0.02963  -0.00523   0.02436   1.97562
   A13        1.90801  -0.00049  -0.00060  -0.00034  -0.00090   1.90711
   A14        1.46546   0.00224   0.00018   0.00537   0.00693   1.47239
   A15        2.10741  -0.00299  -0.02423   0.00028  -0.02416   2.08326
   A16        1.88046   0.00228   0.03884  -0.00948   0.02895   1.90940
   A17        2.10925  -0.00312  -0.02377  -0.00217  -0.02605   2.08321
   A18        1.92371   0.00157   0.00364   0.00978   0.01311   1.93683
   A19        1.92854   0.00071   0.00751  -0.00239   0.00552   1.93407
   A20        2.01105  -0.00901  -0.03241  -0.00803  -0.04050   1.97055
   A21        1.90667   0.00280   0.01257  -0.00881   0.00399   1.91066
   A22        1.89577   0.00219   0.01940   0.00203   0.02163   1.91740
   A23        1.97552   0.00051  -0.02869   0.00577  -0.02321   1.95231
   A24        1.80327   0.00513   0.02486   0.01184   0.03662   1.83989
   A25        1.86151  -0.00088   0.00844  -0.00112   0.00757   1.86907
   A26        1.87681   0.00197  -0.00112   0.00914   0.00803   1.88484
   A27        3.01500   0.01008   0.11221   0.19668   0.30889   3.32388
   A28        3.09083   0.00687   0.03725   0.04940   0.08665   3.17748
   A29        3.37081  -0.01138  -0.20259  -0.01812  -0.22071   3.15010
   A30        2.99252   0.01438   0.16398  -0.10152   0.06247   3.05499
    D1        2.36520  -0.00118   0.02730  -0.06156  -0.03369   2.33150
    D2        0.18755   0.00264   0.06296  -0.06625  -0.00276   0.18479
    D3       -1.74632  -0.00259   0.02929  -0.06803  -0.03873  -1.78505
    D4       -2.26004  -0.00153  -0.04033   0.06655   0.02620  -2.23384
    D5        1.88533   0.00152  -0.00726   0.06564   0.05834   1.94367
    D6       -0.35179   0.00080  -0.03589   0.07844   0.04261  -0.30917
    D7       -0.17610  -0.00259  -0.06079   0.06271   0.00201  -0.17409
    D8       -2.31391   0.00046  -0.02773   0.06179   0.03415  -2.27977
    D9        1.73216  -0.00026  -0.05635   0.07459   0.01842   1.75058
   D10        1.76948  -0.00186  -0.06268   0.07078   0.00829   1.77777
   D11       -0.36833   0.00119  -0.02962   0.06987   0.04043  -0.32790
   D12       -2.60545   0.00046  -0.05824   0.08267   0.02471  -2.58074
   D13       -0.18869  -0.00290  -0.06312   0.06605   0.00231  -0.18637
   D14       -2.34505   0.00216  -0.02847   0.06696   0.03792  -2.30713
   D15        1.80403   0.00057  -0.03403   0.06286   0.02877   1.83281
   D16        0.17779   0.00248   0.06096  -0.06346  -0.00246   0.17533
   D17        2.31387  -0.00044   0.02742  -0.06024  -0.03282   2.28106
   D18       -1.68475  -0.00074   0.01940  -0.05526  -0.03606  -1.72080
   D19        2.21775   0.00184   0.05160  -0.06182  -0.01009   2.20766
   D20       -1.92935  -0.00108   0.01807  -0.05859  -0.04045  -1.96980
   D21        0.35522  -0.00138   0.01004  -0.05361  -0.04369   0.31153
   D22       -1.79735   0.00156   0.05420  -0.07028  -0.01619  -1.81354
   D23        0.33873  -0.00136   0.02067  -0.06706  -0.04655   0.29218
   D24        2.62330  -0.00166   0.01264  -0.06207  -0.04979   2.57351
   D25       -1.19599  -0.00299  -0.07981   0.05648  -0.02290  -1.21888
   D26        2.84064   0.00127  -0.02661   0.06294   0.03647   2.87711
   D27        0.81649  -0.00042  -0.05558   0.06795   0.01282   0.82931
   D28       -2.98124  -0.00155  -0.04691   0.05046   0.00332  -2.97793
   D29        1.05539   0.00271   0.00629   0.05692   0.06268   1.11807
   D30       -0.96877   0.00101  -0.02268   0.06193   0.03903  -0.92974
   D31        1.01945  -0.00162  -0.03706   0.04024   0.00327   1.02271
   D32       -1.22711   0.00264   0.01614   0.04671   0.06263  -1.16448
   D33        3.03192   0.00095  -0.01283   0.05171   0.03898   3.07090
   D34       -1.06863   0.00162   0.02076   0.00439   0.02534  -1.04329
   D35        1.14337  -0.00193  -0.01189  -0.00998  -0.02218   1.12118
   D36       -3.13352   0.00026  -0.00149  -0.00174  -0.00309  -3.13661
         Item               Value     Threshold  Converged?
 Maximum Force            0.014382     0.000450     NO 
 RMS     Force            0.003736     0.000300     NO 
 Maximum Displacement     0.662989     0.001800     NO 
 RMS     Displacement     0.109380     0.001200     NO 
 Predicted change in Energy=-2.311717D-03
 GradGradGradGradGradGradGradGradGradGradGradGradGradGradGradGradGradGrad

                          Input orientation:                          
 ---------------------------------------------------------------------
 Center     Atomic      Atomic             Coordinates (Angstroms)
 Number     Number       Type             X           Y           Z
 ---------------------------------------------------------------------
      1          6           0        1.021216    0.066972    0.232465
      2          6           0        2.216614   -0.062503    0.217067
      3          6           0        3.654782   -0.179737    0.080274
      4          8           0        4.393053    0.910028    0.702384
      5          6           0        5.311109   -0.018062    1.324629
      6          6           0        4.424634   -1.218860    0.941185
      7          6           0        5.054469   -2.423008    0.266868
      8          8           0        4.094552   -3.351229   -0.215179
      9          1           0        0.002871    0.369498    0.221195
     10          1           0        3.929587   -0.262726   -0.981834
     11          1           0        5.460791    0.196030    2.386531
     12          1           0        6.285296   -0.017895    0.813387
     13          1           0        3.798270   -1.528364    1.783913
     14          1           0        5.772886   -2.896208    0.956177
     15          1           0        5.618974   -2.102245   -0.616516
     16          1           0        3.572377   -3.654950    0.533982
 ---------------------------------------------------------------------
                    Distance matrix (angstroms):
                    1          2          3          4          5
     1  C    0.000000
     2  C    1.202488   0.000000
     3  C    2.649471   1.449408   0.000000
     4  O    3.507258   2.432743   1.455903   0.000000
     5  C    4.427555   3.287031   2.077975   1.446156   0.000000
     6  C    3.706603   2.595546   1.553581   2.142472   1.541033
     7  C    4.740076   3.691597   2.650699   3.425825   2.639790
     8  O    4.618428   3.811720   3.215440   4.369135   3.867949
     9  H    1.062391   2.255504   3.695669   4.449429   5.435546
    10  H    3.168887   2.100412   1.100218   2.103983   2.699674
    11  H    4.936242   3.911278   2.953250   2.118066   1.093561
    12  H    5.296717   4.112391   2.735553   2.110437   1.100185
    13  H    3.558668   2.665594   2.177560   2.732988   2.186467
    14  H    5.646465   4.606869   3.554263   4.056572   2.938148
    15  H    5.154188   4.053574   2.835420   3.509440   2.864724
    16  H    4.522393   3.852817   3.505673   4.641216   4.107952
                    6          7          8          9         10
     6  C    0.000000
     7  C    1.517027   0.000000
     8  O    2.448088   1.419649   0.000000
     9  H    4.753236   5.772245   5.547620   0.000000
    10  H    2.203920   2.737048   3.186507   4.155248   0.000000
    11  H    2.272566   3.393734   4.606360   5.874321   3.728394
[...]

 Dipole orientation:
     6          2.10421042          0.87585106          0.28060405
     6          4.27879297          0.23042159          0.15501327
     6          6.90630988         -0.56130489          0.03870558
     8          8.61447903          1.44453923         -0.73637007
     6          9.91402928          1.40585895          1.65957746
     6          8.32771914         -0.85328639          2.59681411
     6          9.72518744         -3.34414872          2.92273348
     8          8.06937241         -5.44696387          3.02248458
     1          0.18160005          1.44543075          0.36681472
     1          7.09095550         -2.21380755         -1.19939047
     1          9.65567388          3.17352933          2.70878142
     1         11.94394548          1.04646591          1.43282583
     1          7.14981657         -0.45256808          4.24593176
     1         10.95483095         -3.24784200          4.60072165
     1         10.95127977         -3.67663456          1.28680792
     1          6.99312967         -5.25241947          4.47664196

 Electric dipole moment (dipole orientation):
 (Debye = 10**-18 statcoulomb cm , SI units = C m)
                  (au)            (Debye)         (10**-30 SI)
   Tot        0.100969D+01      0.256636D+01      0.856047D+01
   x          0.000000D+00      0.000000D+00      0.000000D+00
   y          0.000000D+00      0.000000D+00      0.000000D+00
   z          0.100969D+01      0.256636D+01      0.856047D+01

 Dipole polarizability, Alpha (dipole orientation).
 (esu units = cm**3 , SI units = C**2 m**2 J**-1)
 Alpha(0;0):
               (au)            (10**-24 esu)      (10**-40 SI)
   iso        0.667503D+02      0.989137D+01      0.110056D+02
   aniso      0.335584D+02      0.497284D+01      0.553303D+01
   xx         0.871753D+02      0.129180D+02      0.143733D+02
   yx        -0.537443D+01     -0.796409D+00     -0.886124D+00
   yy         0.598874D+02      0.887439D+01      0.987409D+01
   zx         0.419183D+01      0.621165D+00      0.691140D+00
   zy        -0.219704D+01     -0.325568D+00     -0.362244D+00
   zz         0.531882D+02      0.788168D+01      0.876955D+01

 ----------------------------------------------------------------------
 1\1\GINC-LEWIS4-R630-HPC4-NODE301\Freq\RB3LYP\6-31G(2df,p)\C6H8O2\KS29
 C\04-Aug-2022\0\\#N Geom=AllCheck Guess=TCheck SCRF=Check GenChk RB3LY
 P/6-31G(2df,p) Freq\\Title Card Required\\0,1\C,1.1034107323,0.2634154
 862,0.4357096472\C,2.2592051977,0.0221036831,0.2094792481\C,3.65522185
 59,-0.2859243394,-0.0529104356\O,4.560105328,0.7945444136,0.3016975091
 \C,5.208460607,-0.0059430898,1.3115077678\C,4.3667942814,-1.2455937806
 ,0.9444999282\C,5.1145288782,-2.4005828462,0.2957171852\O,4.2489235655
 ,-3.3028734528,-0.3716546503\H,0.0819519509,0.4843736517,0.6250079046\
 H,3.7823852937,-0.5763613367,-1.1031322375\H,5.0447568028,0.3943199656
 ,2.3189494665\H,6.2877942175,-0.0940413049,1.1334084078\H,3.7145913814
 ,-1.6062802941,1.7442446081\H,5.7368972909,-2.9113957293,1.0481767112\
 H,5.7916211512,-2.0159157181,-0.4755986261\H,3.6548314658,-3.687105308
 1,0.2814275656\\Version=ES64L-G16RevA.03\State=1-A\HF=-383.8000871\RMS
 D=2.918e-09\RMSF=4.162e-06\ZeroPoint=0.1288288\Thermal=0.137221\Dipole
 =-0.0312066,-0.6187979,0.7972329\DipoleDeriv=-0.4190384,0.0753504,-0.0
 2282,0.0317361,-0.221242,0.0134911,0.0544703,-0.0103682,-0.2308937,-0.
 0763475,-0.048259,-0.0206268,0.03842,-0.1365287,-0.0109156,-0.0110334,
 0.0138976,-0.1092969,0.8188693,0.0467598,0.1161457,0.25301,0.3713993,0
 .1903189,0.0155841,0.0876337,0.3685831,-0.7716079,-0.0273956,-0.239955
 6,-0.1013393,-0.5377792,0.0437436,-0.317312,0.040535,-0.5362482,0.4981
 133,-0.0157811,0.1341179,-0.1991654,0.2505275,-0.1133167,0.2757922,-0.
 015449,0.5272977,-0.0092933,0.0461584,-0.0363686,-0.0404447,-0.0083674
 ,-0.0582172,-0.0057019,-0.0999359,0.0494623,0.4459901,0.091093,0.14175
 47,0.0910628,0.6689117,0.1359446,0.0855444,0.2045718,0.3809744,-0.5173
 458,-0.1199117,-0.1972493,-0.0551684,-0.8327143,-0.2071657,-0.1555078,
 -0.2352114,-0.3505755,0.2297926,-0.0128114,0.0039356,-0.0042464,0.1979
 089,-0.0026966,-0.0085425,0.0003132,0.2071008,-0.0666273,0.0175923,0.0
 273548,-0.0178854,0.0436917,-0.053136,-0.0039311,-0.0512562,-0.0993114
 ,0.0031804,0.0121217,0.0261857,-0.0031106,-0.0296626,-0.0707851,-0.049
 0711,-0.072814,-0.1730918,-0.2111211,0.0076486,-0.019671,0.0491163,0.0
 244402,-0.0000696,0.0193359,0.0079398,0.0046035,-0.0316368,-0.0436753,
 0.0779886,-0.0292097,-0.0354355,0.0306476,0.0615519,0.0479586,-0.04356
 37,-0.0855928,0.0536796,-0.0909546,0.0880795,-0.0951613,0.048034,-0.11
 91022,0.023983,-0.0829038,-0.0275497,-0.042803,0.0411214,-0.0589509,-0
 .0154428,0.0365731,0.0809801,0.0152861,-0.0497715,0.2202148,-0.0397666
 ,0.0590414,-0.0419038,0.3554545,0.0175496,0.076943,0.042916,0.1376347\
 Polar=86.9930878,-7.1872159,59.646254,1.0801768,2.4765649,53.6115328\Q
 uadrupole=4.1543912,-3.6595102,-0.494881,-0.3375586,0.1777654,-2.17072
 14\PG=C01 [X(C6H8O2)]\NImag=0\\1.42709049,-0.29212797,0.10678915,-0.26
 577433,0.05782444,0.08950430,-1.02929928,0.21064231,0.19457491,1.33263
 566,0.20874920,-0.07218345,-0.04091532,-0.26229297,0.14556532,0.193119
 67,-0.04111190,-0.06346317,-0.23760826,0.05214650,0.13921595,-0.001129
 90,0.00114246,0.00114867,-0.23786929,0.04965662,0.03917274,0.50088042,
 0.00371645,0.00291687,-0.00134853,0.05224765,-0.07680259,-0.00962464,-
 0.05021415,0.36392977,0.00086878,-0.00075905,0.00466888,0.04728386,-0.
 00873895,-0.08091891,-0.00606983,0.04483473,0.56893186,0.00029778,-0.0
 0005156,-0.00018943,-0.03928903,-0.02761429,-0.00645714,-0.08439267,-0
 .07482017,-0.00635687,0.22233439,0.00063712,0.00001753,-0.00052961,-0.
 01625732,0.00701935,0.00390513,-0.02500973,-0.13135811,-0.00567952,0.0
 5007490,0.33200790,-0.00076462,0.00032074,0.00062940,-0.00599972,0.001
 78876,0.00647674,-0.01495335,-0.04050992,-0.06591967,0.11441939,-0.069
 72399,0.22174956,0.00068872,-0.00000030,0.00027299,-0.00226264,-0.0007
 1437,-0.00170946,-0.05148974,-0.00823829,-0.05398412,-0.08565062,0.015
 28938,-0.02866264,0.58736251,-0.00068220,0.00019693,0.00016384,-0.0014
 7198,-0.00262363,-0.00038821,-0.01346219,-0.00157246,-0.00903311,0.052
 86976,-0.10612490,0.07276818,0.00417811,0.40131356,0.00178354,-0.00063
 190,-0.00037600,0.00110001,0.00282059,-0.00170656,-0.05152788,-0.00159
 366,-0.03652567,-0.04484726,0.03681533,-0.12656256,-0.01328196,0.08633
 245,0.54653991,0.00207525,-0.00063405,-0.00005673,-0.02098384,0.021829
 22,-0.01424319,-0.06837318,0.04502199,-0.01668050,-0.00805036,-0.01441
 796,-0.01694400,-0.10386373,-0.06308832,0.00985347,0.47428217,-0.00239
 200,0.00051568,0.00141515,0.01157864,-0.00494216,0.00358891,0.02830637
 ,-0.07571187,0.03058265,-0.01563969,-0.09109967,0.03086859,-0.04197390
 ,-0.12159148,-0.02880474,0.02763514,0.53163930,0.00535622,-0.00005337,
 -0.00193808,-0.00660868,-0.00637368,0.00776318,-0.00464499,0.04548036,
 -0.11280332,-0.01580565,0.03158286,-0.01198650,0.00105115,-0.04423451,
 -0.06579559,-0.10708754,-0.04638481,0.50035694,-0.00075468,-0.00016584
 ,0.00004923,-0.00051859,0.00249286,-0.00198837,-0.01469134,0.01633511,
 0.00750376,-0.00006299,-0.00247565,0.00234521,0.01549029,-0.01381956,-
 0.01269847,-0.11893019,0.04491115,0.02814565,0.54142734,-0.00082522,0.
 00010536,-0.00007328,-0.00016316,-0.00065339,-0.00027636,0.01141327,-0
 .01588037,-0.00178371,-0.00187380,-0.00184820,0.00073177,0.00486697,-0
 .01833048,-0.00642970,0.05247916,-0.12782711,-0.02835263,0.00887191,0.
 48534515,-0.00195022,-0.00007350,0.00059031,0.00014601,0.00335634,-0.0
 0327514,-0.01344549,0.01482751,0.01463580,0.00193086,0.00352391,-0.002
 98639,0.00120252,-0.01031663,-0.00740668,0.03433059,-0.02524279,-0.099
 19879,-0.02755966,-0.07684739,0.56796056,0.00066285,0.00018675,-0.0000
 5246,-0.00018026,-0.00049406,0.00059353,0.00061199,-0.00228242,-0.0015
 0459,0.00133098,0.00052571,0.00131850,-0.00054116,0.00319633,-0.000166
 95,0.00735267,-0.00086042,0.00243708,-0.13221171,-0.07268202,-0.054358
 75,0.35458433,0.00070311,-0.00008809,-0.00011775,-0.00016237,0.0001355
 7,0.00011014,-0.00378300,0.00281417,0.00036713,0.00078837,-0.00085842,
 0.00112599,0.00599170,-0.00121941,-0.00624176,-0.02771231,-0.03105675,
 -0.02048265,-0.06410472,-0.12712459,-0.05665038,0.23829311,0.25236635,
 0.00041964,0.00001710,-0.00003585,-0.00004372,-0.00024331,0.00050619,-
 0.00067749,0.00018792,-0.00095612,0.00144176,-0.00074820,0.00242915,0.
 00401593,0.00091204,-0.00212277,-0.01772113,-0.02213886,-0.01069381,-0
 .01834736,-0.02600243,-0.12589345,-0.13836522,-0.04623265,0.40354777,-
 0.39602405,0.08045253,0.07004322,0.00659346,-0.00084263,-0.00135208,0.
 00056165,0.00098322,0.00116558,0.00072555,-0.00016250,0.00004218,-0.00
 008695,0.00013642,-0.00023568,-0.00001382,0.00006835,-0.00012777,0.000
 00667,0.00016651,0.00013036,-0.00000185,-0.00017062,-0.00005985,0.3883
 3666,0.08123960,-0.03863377,-0.01609185,-0.00149241,0.00157831,0.00076
 986,0.00044598,0.00578416,-0.00021953,0.00150052,-0.00018732,0.0000515
 4,0.00007661,0.00026674,-0.00023204,-0.00063805,0.00007284,0.00042046,
 -0.00008640,0.00005445,-0.00019740,-0.00003325,-0.00003785,-0.00000180
 ,-0.08072667,0.03134738,0.06954950,-0.01577799,-0.03077362,-0.00061574
 ,0.00038179,-0.00097997,0.00076978,0.00000981,0.00665327,0.00043229,-0
 .00009182,-0.00035333,0.00013271,-0.00002129,0.00014139,0.00059389,-0.
 00026789,-0.00019072,0.00012831,0.00003522,0.00019648,-0.00006570,0.00
 001553,-0.00006153,-0.06965565,0.01539601,0.02543575,-0.00243776,0.000
 49319,-0.00055527,-0.01079207,0.00995858,0.03254830,-0.05159584,0.0109
 4570,0.03897859,-0.00127828,-0.01134820,-0.02258592,-0.00023886,-0.002
 18370,-0.00024676,0.00170774,-0.00010101,-0.01022484,0.00183358,0.0003
 9386,-0.00112210,-0.00027701,0.00046312,0.00021768,-0.00018664,-0.0003
 2093,-0.00130860,0.06554651,-0.00001026,0.00028753,0.00015269,0.007016
 00,0.00140840,-0.00974592,0.01070927,-0.06177060,-0.05441630,-0.008534
 04,-0.01016096,-0.02646838,0.00210678,-0.00476015,0.00029104,-0.003431
 75,0.00554887,0.01999509,-0.00050608,0.00126454,0.00034676,-0.00008848
 ,0.00015949,-0.00050281,0.00009058,-0.00010962,0.00032908,-0.00846510,
 0.06745353,-0.00129426,0.00013692,0.00032764,0.00692969,-0.00182171,-0
 .00495251,0.03465299,-0.05776861,-0.27920120,-0.00733328,-0.00651435,-
 0.00138211,0.00032161,-0.00072790,-0.00023323,0.00177215,-0.00080121,-
 0.01581812,0.00107358,-0.00228338,-0.00037306,0.00086893,0.00026856,0.
 00134808,0.00003038,-0.00005338,0.00006899,-0.03371637,0.06936831,0.30
 150320,-0.00024485,0.00010945,0.00016454,0.00000689,-0.00011758,-0.000
 21405,-0.00052022,0.00103493,-0.00093925,0.00320636,-0.00387095,-0.019
 45895,-0.06134705,0.01874346,0.04520747,0.00346930,-0.00782428,-0.0128
 7139,-0.00265792,0.00025714,-0.00018517,0.00035555,-0.00097791,-0.0007
 5223,0.00000381,-0.00000532,-0.00002164,-0.00060312,-0.00041102,-0.000
 42659,0.06146940,-0.00014358,0.00000837,0.00006745,0.00036928,-0.00014
 706,-0.00010957,-0.00263611,-0.00254850,0.00132433,0.00121040,0.009620
 41,0.02425037,0.01674989,-0.08998686,-0.09282784,0.00812932,-0.0090012
 5,-0.02171228,-0.00432977,0.00003515,-0.00075492,-0.00004229,-0.002423
 35,-0.00108293,0.00000417,0.00000087,-0.00000648,0.00042392,0.00145124
 ,-0.00020004,-0.01997256,0.08902229,-0.00037403,0.00015113,0.00022075,
 0.00009996,-0.00022943,-0.00011467,0.00314846,0.00266189,-0.00190914,-
 0.00883394,0.00213618,-0.02521854,0.04390228,-0.08986786,-0.25302187,0
 .00095521,-0.00125679,0.00031022,-0.00087766,0.00037660,0.00020602,0.0
 0018121,-0.00006860,0.00003167,0.00003925,0.00000217,-0.00002788,-0.00
 088904,-0.00117368,-0.00041154,-0.03939836,0.09267682,0.28277524,-0.00
 043541,0.00011037,0.00016111,-0.00035649,-0.00037323,-0.00051054,-0.00
 033705,0.00211593,0.00049164,-0.01208447,0.00552400,-0.00962757,-0.286
 75448,0.01614601,0.05163062,-0.01000422,-0.00086641,0.00346601,-0.0001
 5548,0.00147933,0.00168673,0.00060411,0.00002522,-0.00029603,0.0000727
 9,0.00001293,0.00002148,-0.00031141,-0.00013397,-0.00023947,-0.0051537
 2,-0.00089589,0.00230258,0.31523769,0.00009220,-0.00003691,0.00002080,
 0.00077177,0.00160943,-0.00042640,-0.00064654,-0.00477592,-0.00162549,
 0.02233926,-0.00033648,0.00429683,0.01241633,-0.05338778,-0.00601706,-
 0.02420344,0.00383211,0.00680141,-0.00075261,0.00155753,0.00092664,0.0
 0067746,0.00039140,0.00014752,-0.00003264,-0.00011352,0.00001888,-0.00
 006477,0.00024787,-0.00000315,0.01278415,0.00235973,-0.00510880,-0.021
 48728,0.05087270,-0.00039565,0.00012240,0.00025625,-0.00057403,-0.0010
 2680,-0.00055396,-0.00138175,0.00248216,-0.00116139,-0.02915592,0.0044
 2770,0.00108417,0.05512898,-0.00470134,-0.06201813,-0.00475739,-0.0008
 7146,0.00051781,-0.00049969,-0.00080020,0.00145485,0.00012713,0.000252
 37,0.00005091,0.00004427,0.00007109,0.00002743,-0.00028374,-0.00011951
 ,-0.00026470,0.02875117,-0.00261497,-0.00406488,-0.04670970,0.00271221
 ,0.06511378,-0.00010330,-0.00011337,0.00015246,0.00195355,-0.00047813,
 -0.00040239,0.00860204,0.00366780,-0.01454468,0.00195654,0.00017010,0.
 00152657,-0.01077454,-0.00081977,0.01341075,-0.14181526,-0.05278176,0.
 11503327,-0.01200332,-0.00663370,0.01350927,0.00180155,0.00044339,-0.0
 0142080,-0.00003039,0.00000814,-0.00001347,-0.00091218,0.00189013,-0.0
 0183040,0.00157559,0.00087206,-0.00028071,-0.00102450,-0.00249747,-0.0
 0035559,0.15062947,0.00063075,-0.00001814,-0.00049492,-0.00082932,0.00
 113803,0.00047970,-0.00945100,-0.00410509,0.00904449,0.00093915,-0.007
 26837,0.00079682,-0.01136655,-0.00422704,0.01655507,-0.05081840,-0.074
 83814,0.06201071,0.01710145,0.00752121,-0.02160398,0.00059176,0.002750
 77,0.00197012,0.00000856,-0.00006178,0.00000898,0.00033092,-0.00139407
 ,0.00045877,0.00021444,0.00146056,-0.00041295,-0.00083887,-0.00242769,
 0.00002342,0.05299131,0.08426362,-0.00072560,-0.00015159,0.00047090,0.
 00177000,-0.00106237,0.00122544,0.01243102,0.00235594,-0.01452708,0.00
 132575,0.00148359,0.00156351,-0.00931593,-0.00230620,0.00878323,0.1134
 6359,0.06389016,-0.19043448,0.00959867,0.00511463,-0.01020793,-0.00142
 077,0.00046917,0.00130290,-0.00003640,0.00005420,-0.00009418,-0.001088
 35,0.00231470,-0.00140299,0.00052537,0.00089924,0.00107681,-0.00147247
 ,-0.00172279,-0.00008342,-0.12592167,-0.06728407,0.20187750,-0.0002477
 6,0.00003383,0.00009851,0.00014122,0.00037608,-0.00056197,-0.00084798,
 0.00018247,0.00274117,0.00123975,0.00086535,0.00003524,-0.00058412,0.0
 0070473,-0.00000387,-0.00908622,0.01287252,-0.01186878,-0.11760883,0.0
 6318457,-0.08026064,-0.01849528,-0.00218588,-0.02225770,0.00003687,-0.
 00002790,0.00001094,-0.00011079,-0.00025746,-0.00008319,0.00007584,0.0
 0020469,0.00008127,0.00030618,0.00026398,0.00014367,0.00047577,-0.0010
 2055,-0.00031391,0.13266312,0.00059787,0.00000350,-0.00017088,-0.00000
 819,-0.00125638,0.00071724,0.00335753,-0.00123558,-0.00370263,-0.00113
 984,-0.00021816,-0.00044696,0.00040127,0.00069374,0.00078729,0.0138653
 2,-0.01277659,0.01863434,0.06463660,-0.11186651,0.08531987,-0.02071151
 ,0.00893920,-0.02346259,-0.00005417,0.00007054,-0.00002168,-0.00021615
 ,0.00027298,-0.00035891,-0.00008867,-0.00013967,-0.00008627,-0.0007431
 1,-0.00011946,-0.00007860,-0.00024908,0.00130079,-0.00054711,-0.067305
 94,0.11880149,0.00029837,0.00003752,-0.00008671,-0.00026162,-0.0002656
 6,0.00060058,0.00178955,-0.00269430,-0.00139555,-0.00005531,-0.0001505
 5,0.00042719,-0.00057315,0.00104916,0.00037280,0.00935272,-0.00792246,
 0.00965277,-0.08241698,0.08249291,-0.15936817,-0.01761718,-0.00324769,
 -0.01240398,-0.00001653,0.00001518,-0.00004213,0.00007467,-0.00009729,
 0.00029987,0.00006811,0.00012661,0.00004424,-0.00015995,0.00033223,-0.
 00009946,-0.00048135,0.00073908,0.00096896,0.10055328,-0.08313925,0.17
 541984,0.00015413,0.00002101,-0.00009727,0.00008110,-0.00015896,-0.000
 31727,0.00025394,-0.00094133,0.00119692,-0.00001448,0.00021856,-0.0004
 6463,0.00034355,-0.00065400,-0.00028838,-0.01100289,-0.00379679,0.0146
 6233,-0.13768384,-0.04822492,0.10527254,-0.01984636,-0.01639576,0.0123
 2459,0.00000731,0.00000159,0.00003405,-0.00032180,0.00016627,-0.000756
 86,0.00028696,-0.00007175,-0.00006400,0.00043657,0.00034382,-0.0001648
 7,-0.00076540,0.00237226,0.00121329,0.01135816,0.00638990,-0.01186876,
 0.15898692,-0.00007857,-0.00001154,0.00010407,0.00003540,0.00016652,0.
 00003229,0.00002298,0.00121792,-0.00064934,-0.00019508,0.00021858,0.00
 035388,0.00060353,0.00155999,-0.00038840,0.01639377,0.00663189,-0.0195
 6711,-0.04806994,-0.07724198,0.06294073,-0.02254438,-0.01460449,0.0126
 9597,-0.00000797,-0.00001647,-0.00000540,-0.00015472,0.00003650,0.0004
 1479,-0.00003682,0.00019844,0.00012852,-0.00043306,0.00007014,0.000143
 38,0.00288218,-0.00368019,-0.00233335,-0.00872445,-0.00424307,0.013323
 07,0.06330966,0.09188922,0.00000038,-0.00002174,0.00004114,-0.00023543
 ,0.00021882,0.00018310,-0.00071087,0.00057505,0.00066627,-0.00041428,-
 0.00063560,0.00015988,0.00142821,0.00082906,0.00035086,0.00895551,0.00
 403639,-0.01165946,0.11434046,0.06855945,-0.18668612,-0.01343083,-0.00
 896583,0.01439521,-0.00001799,0.00000471,-0.00002272,0.00015391,-0.000
 39640,0.00053972,-0.00046408,0.00007921,0.00012767,-0.00088477,-0.0004
 2888,-0.00020112,0.00106837,-0.00273847,0.00015498,0.01259721,0.007006
 22,-0.01489409,-0.11850654,-0.06471112,0.19665074,-0.00029223,-0.00009
 882,0.00005985,0.00013961,0.00002365,-0.00006954,0.00033716,0.00024511
 ,-0.00015045,-0.00026844,0.00023719,-0.00022569,-0.00029119,0.00020689
 ,0.00031135,0.00323658,0.00086411,-0.00091209,-0.02147899,-0.01270990,
 0.02067314,-0.19575039,-0.13121547,0.18152191,-0.00000107,0.00004558,0
 .00000784,-0.00002206,-0.00014084,0.00003109,0.00007719,0.00012821,0.0
 0000751,-0.00004011,-0.00000422,0.00008309,0.00043438,-0.00085590,-0.0
 0003259,0.00068409,0.00126817,0.00131414,-0.00227387,-0.00300254,-0.00
 387925,0.21550934,-0.00010652,0.00013098,-0.00000630,0.00001667,-0.000
 01228,-0.00006678,0.00014825,-0.00090178,0.00045430,0.00014612,0.00057
 682,-0.00020422,-0.00038716,-0.00020678,-0.00043467,-0.00040963,0.0006
 0432,0.00223580,-0.02003849,-0.01511076,0.02044522,-0.12373229,-0.0901
 4398,0.10448492,0.00008687,-0.00001498,-0.00000275,-0.00015471,0.00006
 444,-0.00011471,0.00016155,0.00008964,0.00007110,0.00035801,0.00025684
 ,-0.00002186,0.00064813,-0.00041446,-0.00117415,0.00083397,0.00177319,
 -0.00059857,-0.00257955,-0.00219146,-0.00341089,0.14500879,0.10550026,
 -0.00011739,-0.00002921,-0.00003613,0.00004277,-0.00003557,-0.00000630
 ,0.00029842,0.00012430,-0.00023804,-0.00010098,0.00019893,-0.00011048,
 0.00007087,-0.00045768,-0.00041913,-0.00178667,-0.00069086,0.00191797,
 -0.01879668,-0.01446151,0.01035171,0.22145607,0.13939841,-0.27144436,0
 .00000671,0.00001077,0.00002278,0.00004782,0.00012263,-0.00004803,0.00
 001505,-0.00011499,-0.00002411,0.00014034,0.00007605,-0.00005812,0.000
 55035,0.00044722,-0.00067417,-0.00091122,-0.00045009,0.00050384,-0.002
 17515,-0.00248197,0.00019393,-0.19874032,-0.12165645,0.26006865\\0.000
 00070,0.00000081,-0.00000039,0.00000538,-0.00000185,-0.00000194,-0.000
 01368,-0.00000114,-0.00000317,0.00000917,0.00000437,0.00000420,-0.0000
 0438,0.00000242,-0.00000636,0.00000329,-0.00000342,0.00000402,-0.00001
 300,0.00000113,-0.00000394,0.00000802,-0.00000240,0.00000479,-0.000000
 37,-0.00000127,-0.00000230,-0.00000053,-0.00000011,0.00000171,0.000001
 61,0.00000141,0.00000148,-0.00000194,0.00000059,0.00000368,0.00000157,
 -0.00000220,-0.00000219,0.00000443,-0.00000062,0.00000153,0.00000285,0
 .00000077,0.00000018,-0.00000312,0.00000152,-0.00000131\\\@


 Age does not diminish the extreme disappointment of
 having a scoop of ice cream fall from the cone.
 -- Jim Fiebig
 Job cpu time:       0 days  1 hours 11 minutes 42.2 seconds.
 Elapsed time:       0 days  0 hours 17 minutes 55.9 seconds.
 File lengths (MBytes):  RWF=     93 Int=      0 D2E=      0 Chk=      7 Scr=      1
 Normal termination of Gaussian 16 at Thu Aug  4 01:56:14 2022.
### All Done ###
