### Starting Gaussian ###
 Entering Gaussian System, Link 0=g16
 Initial command:
 /cluster/software/gaussian/gaussian-16-A.03/avx2/g16/l1.exe "/local/scratch/ks29c/Gau-23823.inp" -scrdir="/local/scratch/ks29c/"
 Entering Link 1 = /cluster/software/gaussian/gaussian-16-A.03/avx2/g16/l1.exe PID=     23824.
  
 Copyright (c) 1988,1990,1992,1993,1995,1998,2003,2009,2016,
            Gaussian, Inc.  All Rights Reserved.
  
 This is part of the Gaussian(R) 16 program.  It is based on
 the Gaussian(R) 09 system (copyright 2009, Gaussian, Inc.),
 the Gaussian(R) 03 system (copyright 2003, Gaussian, Inc.),
 the Gaussian(R) 98 system (copyright 1998, Gaussian, Inc.),
 the Gaussian(R) 94 system (copyright 1995, Gaussian, Inc.),
 the Gaussian 92(TM) system (copyright 1992, Gaussian, Inc.),
 the Gaussian 90(TM) system (copyright 1990, Gaussian, Inc.),
 the Gaussian 88(TM) system (copyright 1988, Gaussian, Inc.),
 the Gaussian 86(TM) system (copyright 1986, Carnegie Mellon
 University), and the Gaussian 82(TM) system (copyright 1983,
 Carnegie Mellon University). Gaussian is a federally registered
 trademark of Gaussian, Inc.
  
 This software contains proprietary and confidential information,
 including trade secrets, belonging to Gaussian, Inc.
  
 This software is provided under written license and may be
 used, copied, transmitted, or stored only in accord with that
 written license.
  
 The following legend is applicable only to US Government
 contracts under FAR:
  
                    RESTRICTED RIGHTS LEGEND
  
 Use, reproduction and disclosure by the US Government is
 subject to restrictions as set forth in subparagraphs (a)
 and (c) of the Commercial Computer Software - Restricted
 Rights clause in FAR 52.227-19.
  
 Gaussian, Inc.
 340 Quinnipiac St., Bldg. 40, Wallingford CT 06492
  
  
 ---------------------------------------------------------------
 Warning -- This program may not be used in any manner that
 competes with the business of Gaussian, Inc. or will provide
 assistance to any competitor of Gaussian, Inc.  The licensee
 of this program is prohibited from giving any competitor of
 Gaussian, Inc. access to this program.  By using this program,
 the user acknowledges that Gaussian, Inc. is engaged in the
 business of creating and licensing software in the field of
 computational chemistry and represents and warrants to the
 licensee that it is not a competitor of Gaussian, Inc. and that
 it will not use this program in any manner prohibited above.
 ---------------------------------------------------------------
  

 Cite this work as:
 Gaussian 16, Revision A.03,
 M. J. Frisch, G. W. Trucks, H. B. Schlegel, G. E. Scuseria, 
 M. A. Robb, J. R. Cheeseman, G. Scalmani, V. Barone, 
 G. A. Petersson, H. Nakatsuji, X. Li, M. Caricato, A. V. Marenich, 
 J. Bloino, B. G. Janesko, R. Gomperts, B. Mennucci, H. P. Hratchian, 
 J. V. Ortiz, A. F. Izmaylov, J. L. Sonnenberg, D. Williams-Young, 
 F. Ding, F. Lipparini, F. Egidi, J. Goings, B. Peng, A. Petrone, 
 T. Henderson, D. Ranasinghe, V. G. Zakrzewski, J. Gao, N. Rega, 
 G. Zheng, W. Liang, M. Hada, M. Ehara, K. Toyota, R. Fukuda, 
 J. Hasegawa, M. Ishida, T. Nakajima, Y. Honda, O. Kitao, H. Nakai, 
 T. Vreven, K. Throssell, J. A. Montgomery, Jr., J. E. Peralta, 
 F. Ogliaro, M. J. Bearpark, J. J. Heyd, E. N. Brothers, K. N. Kudin, 
 V. N. Staroverov, T. A. Keith, R. Kobayashi, J. Normand, 
 K. Raghavachari, A. P. Rendell, J. C. Burant, S. S. Iyengar, 
 J. Tomasi, M. Cossi, J. M. Millam, M. Klene, C. Adamo, R. Cammi, 
 J. W. Ochterski, R. L. Martin, K. Morokuma, O. Farkas, 
 J. B. Foresman, and D. J. Fox, Gaussian, Inc., Wallingford CT, 2016.
 
 ******************************************
 Gaussian 16:  ES64L-G16RevA.03 25-Dec-2016
                 3-Jul-2022 
 ******************************************
 %chk=CtCC1CCCpdNpC1.chk
 %NProcShared=20
 Will use up to   20 processors via shared memory.
 -----------------------------
 # opt freq b3lyp/6-31g(2df,p)
 -----------------------------
 1/18=20,19=15,26=3,38=1/1,3;
 2/9=110,12=2,17=6,18=5,40=1/2;
 3/5=1,6=6,7=104,11=2,25=1,30=1,71=1,74=-5/1,2,3;
 4//1;
 5/5=2,38=5/2;
 6/7=2,8=2,9=2,10=2,28=1/1;
 7//1,2,3,16;
 1/18=20,19=15,26=3/3(2);
 2/9=110/2;
 99//99;
 2/9=110/2;
 3/5=1,6=6,7=104,11=2,25=1,30=1,71=1,74=-5/1,2,3;
 4/5=5,16=3,69=1/1;
 5/5=2,38=5/2;
 7//1,2,3,16;
 1/18=20,19=15,26=3/3(-5);
 2/9=110/2;
 6/7=2,8=2,9=2,10=2,19=2,28=1/1;
 99/9=1/99;
 -------------------
 Title Card Required
 -------------------
 Symbolic Z-matrix:
 Charge =  0 Multiplicity = 1
 C                     0.95265   0.06389   0.06063 
 C                     2.25651   0.06389   0.06063 
 C                     3.77651   0.06389   0.06063 
 C                     4.3421    1.19155   0.93369 
 C                     5.74126   0.72764   1.3251 
 C                     5.51472  -0.74692   1.45156 
 N                     6.26673  -1.55267   2.12437 
 C                     4.29903  -1.22442   0.71359 
 H                    -0.11319   0.06252   0.06089 
 H                     4.1515    0.14941  -0.96616 
 H                     3.73467   1.32627   1.8388 
 H                     4.36164   2.15129   0.40762 
 H                     6.09303   1.17645   2.2567 
 H                     6.46519   0.90723   0.52427 
 H                     7.04132  -1.05611   2.57675 
 H                     3.59894  -1.65963   1.43481 
 H                     4.57381  -1.97921  -0.02831 
 

 GradGradGradGradGradGradGradGradGradGradGradGradGradGradGradGradGradGrad
 Berny optimization.
 Initialization pass.
                           ----------------------------
                           !    Initial Parameters    !
                           ! (Angstroms and Degrees)  !
 --------------------------                            --------------------------
 ! Name  Definition              Value          Derivative Info.                !
 --------------------------------------------------------------------------------
 ! R1    R(1,2)                  1.3039         estimate D2E/DX2                !
 ! R2    R(1,9)                  1.0658         estimate D2E/DX2                !
 ! R3    R(2,3)                  1.52           estimate D2E/DX2                !
 ! R4    R(3,4)                  1.5342         estimate D2E/DX2                !
 ! R5    R(3,8)                  1.5359         estimate D2E/DX2                !
 ! R6    R(3,10)                 1.0965         estimate D2E/DX2                !
 ! R7    R(4,5)                  1.5251         estimate D2E/DX2                !
 ! R8    R(4,11)                 1.0983         estimate D2E/DX2                !
 ! R9    R(4,12)                 1.0946         estimate D2E/DX2                !
 ! R10   R(5,6)                  1.4972         estimate D2E/DX2                !
 ! R11   R(5,13)                 1.0923         estimate D2E/DX2                !
 ! R12   R(5,14)                 1.0944         estimate D2E/DX2                !
 ! R13   R(6,7)                  1.2913         estimate D2E/DX2                !
 ! R14   R(6,8)                  1.5002         estimate D2E/DX2                !
 ! R15   R(7,15)                 1.0253         estimate D2E/DX2                !
 ! R16   R(8,16)                 1.0953         estimate D2E/DX2                !
 ! R17   R(8,17)                 1.0934         estimate D2E/DX2                !
 ! A1    A(2,3,4)              111.6328         estimate D2E/DX2                !
 ! A2    A(2,3,8)              109.8887         estimate D2E/DX2                !
 ! A3    A(2,3,10)             109.9988         estimate D2E/DX2                !
 ! A4    A(4,3,8)              104.4289         estimate D2E/DX2                !
 ! A5    A(4,3,10)             110.4567         estimate D2E/DX2                !
 ! A6    A(8,3,10)             110.315          estimate D2E/DX2                !
 ! A7    A(3,4,5)              105.1101         estimate D2E/DX2                !
 ! A8    A(3,4,11)             110.8073         estimate D2E/DX2                !
 ! A9    A(3,4,12)             112.1809         estimate D2E/DX2                !
 ! A10   A(5,4,11)             109.462          estimate D2E/DX2                !
 ! A11   A(5,4,12)             111.9409         estimate D2E/DX2                !
 ! A12   A(11,4,12)            107.3597         estimate D2E/DX2                !
 ! A13   A(4,5,6)              100.5119         estimate D2E/DX2                !
 ! A14   A(4,5,13)             112.9143         estimate D2E/DX2                !
 ! A15   A(4,5,14)             111.6627         estimate D2E/DX2                !
 ! A16   A(6,5,13)             112.4186         estimate D2E/DX2                !
 ! A17   A(6,5,14)             108.8759         estimate D2E/DX2                !
 ! A18   A(13,5,14)            110.1            estimate D2E/DX2                !
 ! A19   A(5,6,7)              124.7809         estimate D2E/DX2                !
 ! A20   A(5,6,8)              113.2378         estimate D2E/DX2                !
 ! A21   A(7,6,8)              121.9807         estimate D2E/DX2                !
 ! A22   A(6,7,15)             111.5715         estimate D2E/DX2                !
 ! A23   A(3,8,6)              102.5816         estimate D2E/DX2                !
 ! A24   A(3,8,16)             113.3135         estimate D2E/DX2                !
 ! A25   A(3,8,17)             112.0886         estimate D2E/DX2                !
 ! A26   A(6,8,16)             108.6946         estimate D2E/DX2                !
 ! A27   A(6,8,17)             110.4776         estimate D2E/DX2                !
 ! A28   A(16,8,17)            109.4576         estimate D2E/DX2                !
 ! A29   L(2,1,9,16,-1)        179.9337         estimate D2E/DX2                !
 ! A30   L(1,2,3,16,-1)        180.0            estimate D2E/DX2                !
 ! A31   L(2,1,9,16,-2)        180.0546         estimate D2E/DX2                !
 ! A32   L(1,2,3,16,-2)        180.0            estimate D2E/DX2                !
 ! D1    D(2,3,4,5)            156.2295         estimate D2E/DX2                !
 ! D2    D(2,3,4,11)            38.0783         estimate D2E/DX2                !
 ! D3    D(2,3,4,12)           -81.897          estimate D2E/DX2                !
 ! D4    D(8,3,4,5)             37.5486         estimate D2E/DX2                !
 ! D5    D(8,3,4,11)           -80.6025         estimate D2E/DX2                !
 ! D6    D(8,3,4,12)           159.4221         estimate D2E/DX2                !
 ! D7    D(10,3,4,5)           -81.045          estimate D2E/DX2                !
 ! D8    D(10,3,4,11)          160.8038         estimate D2E/DX2                !
 ! D9    D(10,3,4,12)           40.8285         estimate D2E/DX2                !
 ! D10   D(2,3,8,6)           -143.3434         estimate D2E/DX2                !
 ! D11   D(2,3,8,16)           -26.3562         estimate D2E/DX2                !
 ! D12   D(2,3,8,17)            98.1397         estimate D2E/DX2                !
 ! D13   D(4,3,8,6)            -23.4829         estimate D2E/DX2                !
 ! D14   D(4,3,8,16)            93.5043         estimate D2E/DX2                !
 ! D15   D(4,3,8,17)          -141.9998         estimate D2E/DX2                !
 ! D16   D(10,3,8,6)            95.2071         estimate D2E/DX2                !
 ! D17   D(10,3,8,16)         -147.8057         estimate D2E/DX2                !
 ! D18   D(10,3,8,17)          -23.3098         estimate D2E/DX2                !
 ! D19   D(3,4,5,6)            -34.8299         estimate D2E/DX2                !
 ! D20   D(3,4,5,13)          -154.7999         estimate D2E/DX2                !
 ! D21   D(3,4,5,14)            80.4948         estimate D2E/DX2                !
 ! D22   D(11,4,5,6)            84.2258         estimate D2E/DX2                !
 ! D23   D(11,4,5,13)          -35.7443         estimate D2E/DX2                !
 ! D24   D(11,4,5,14)         -160.4495         estimate D2E/DX2                !
 ! D25   D(12,4,5,6)          -156.8593         estimate D2E/DX2                !
 ! D26   D(12,4,5,13)           83.1706         estimate D2E/DX2                !
 ! D27   D(12,4,5,14)          -41.5346         estimate D2E/DX2                !
 ! D28   D(4,5,6,7)           -158.9599         estimate D2E/DX2                !
 ! D29   D(4,5,6,8)             20.7524         estimate D2E/DX2                !
 ! D30   D(13,5,6,7)           -38.6334         estimate D2E/DX2                !
 ! D31   D(13,5,6,8)           141.0789         estimate D2E/DX2                !
 ! D32   D(14,5,6,7)            83.6386         estimate D2E/DX2                !
 ! D33   D(14,5,6,8)           -96.6492         estimate D2E/DX2                !
 ! D34   D(5,6,7,15)             0.6652         estimate D2E/DX2                !
 ! D35   D(8,6,7,15)          -179.0231         estimate D2E/DX2                !
 ! D36   D(5,6,8,3)              1.5981         estimate D2E/DX2                !
 ! D37   D(5,6,8,16)          -118.6409         estimate D2E/DX2                !
 ! D38   D(5,6,8,17)           121.2434         estimate D2E/DX2                !
 ! D39   D(7,6,8,3)           -178.6806         estimate D2E/DX2                !
 ! D40   D(7,6,8,16)            61.0804         estimate D2E/DX2                !
 ! D41   D(7,6,8,17)           -59.0352         estimate D2E/DX2                !
 --------------------------------------------------------------------------------
 Trust Radius=3.00D-01 FncErr=1.00D-07 GrdErr=1.00D-06 EigMax=2.50D+02 EigMin=1.00D-04
 Number of steps in this run=    100 maximum allowed number of steps=    102.
 GradGradGradGradGradGradGradGradGradGradGradGradGradGradGradGradGradGrad

                          Input orientation:                          
 ---------------------------------------------------------------------
 Center     Atomic      Atomic             Coordinates (Angstroms)
 Number     Number       Type             X           Y           Z
 ---------------------------------------------------------------------
      1          6           0        0.952650    0.063890    0.060630
      2          6           0        2.256510    0.063890    0.060630
      3          6           0        3.776510    0.063890    0.060630
      4          6           0        4.342100    1.191550    0.933690
      5          6           0        5.741260    0.727640    1.325100
      6          6           0        5.514720   -0.746920    1.451560
      7          7           0        6.266730   -1.552670    2.124370
      8          6           0        4.299030   -1.224420    0.713590
      9          1           0       -0.113190    0.062520    0.060890
     10          1           0        4.151500    0.149410   -0.966160
     11          1           0        3.734670    1.326270    1.838800
     12          1           0        4.361640    2.151290    0.407620
     13          1           0        6.093030    1.176450    2.256700
     14          1           0        6.465190    0.907230    0.524270
     15          1           0        7.041320   -1.056110    2.576750
     16          1           0        3.598940   -1.659630    1.434810
     17          1           0        4.573810   -1.979210   -0.028310
 ---------------------------------------------------------------------
                    Distance matrix (angstroms):
                    1          2          3          4          5
     1  C    0.000000
     2  C    1.303860   0.000000
     3  C    2.823860   1.520000   0.000000
     4  C    3.677257   2.526566   1.534191   0.000000
     5  C    4.997023   3.766023   2.428928   1.525144   0.000000
     6  C    4.837828   3.634286   2.369277   2.323982   1.497211
     7  N    5.925516   4.791049   3.615727   3.557058   2.472805
     8  C    3.644771   2.501597   1.535945   2.426357   2.502900
     9  H    1.065841   2.369700   3.889700   4.678258   6.026209
    10  H    3.360692   2.156988   1.096462   2.175273   2.848080
    11  H    3.534845   2.634473   2.181110   1.098337   2.156073
    12  H    4.012338   2.984831   2.195454   1.094638   2.184468
    13  H    5.699475   4.558443   3.380352   2.194616   1.092269
    14  H    5.595917   4.317311   2.855728   2.180820   1.094375
    15  H    6.682601   5.520839   4.271328   3.877810   2.537429
    16  H    3.444088   2.580893   2.211430   2.988751   3.209459
    17  H    4.158722   3.090639   2.194961   3.321574   3.243716
                    6          7          8          9         10
     6  C    0.000000
     7  N    1.291288   0.000000
     8  C    1.500169   2.443336   0.000000
     9  H    5.853420   6.897113   4.642189   0.000000
    10  H    2.916701   4.113715   2.175025   4.387478   0.000000
    11  H    2.759828   3.844629   2.844401   4.423127   3.070268
    12  H    3.289229   4.505099   3.390126   4.950483   2.436997
    13  H    2.163803   2.737842   3.371024   6.676795   3.900151
    14  H    2.121196   2.941227   3.045000   6.648559   2.854616
    15  H    1.921499   1.025285   3.319616   7.666022   4.728271
    16  H    2.122153   2.757542   1.095305   4.316638   3.056568
    17  H    2.143330   2.771632   1.093448   5.113178   2.364092
                   11         12         13         14         15
    11  H    0.000000
    12  H    1.766925   0.000000
    13  H    2.399781   2.714244   0.000000
    14  H    3.059301   2.446674   1.792288   0.000000
    15  H    4.141768   4.708845   2.446632   2.898155   0.000000
    16  H    3.016161   4.019943   3.865144   3.953890   3.676716
    17  H    3.887988   4.158856   4.181805   3.494882   3.705004
                   16         17
    16  H    0.000000
    17  H    1.786959   0.000000
 Stoichiometry    C7H9N
 Framework group  C1[X(C7H9N)]
 Deg. of freedom    45
 Full point group                 C1      NOp   1
 Largest Abelian subgroup         C1      NOp   1
 Largest concise Abelian subgroup C1      NOp   1
                         Standard orientation:                         
 ---------------------------------------------------------------------
 Center     Atomic      Atomic             Coordinates (Angstroms)
 Number     Number       Type             X           Y           Z
 ---------------------------------------------------------------------
      1          6           0        3.333909   -0.390153   -0.387783
      2          6           0        2.135742   -0.135677    0.059083
      3          6           0        0.738956    0.160982    0.580025
      4          6           0        0.096287    1.338952   -0.163687
      5          6           0       -1.406907    1.140731    0.001182
      6          6           0       -1.490809   -0.353719   -0.033739
      7          7           0       -2.557038   -1.025227   -0.315977
      8          6           0       -0.190105   -1.027296    0.290253
      9          1           0        4.313029   -0.599527   -0.753166
     10          1           0        0.775337    0.361879    1.657311
     11          1           0        0.353834    1.313692   -1.231103
     12          1           0        0.426896    2.305653    0.229274
     13          1           0       -1.987669    1.609303   -0.796444
     14          1           0       -1.756115    1.492240    0.976964
     15          1           0       -3.347226   -0.406850   -0.526740
     16          1           0        0.122819   -1.621213   -0.575214
     17          1           0       -0.304081   -1.681508    1.158955
 ---------------------------------------------------------------------
 Rotational constants (GHZ):           4.8858685           1.2875014           1.0944850
 Standard basis: 6-31G(2df,p) (6D, 7F)
 There are   293 symmetry adapted cartesian basis functions of A   symmetry.
 There are   269 symmetry adapted basis functions of A   symmetry.
   269 basis functions,   415 primitive gaussians,   293 cartesian basis functions
    29 alpha electrons       29 beta electrons
       nuclear repulsion energy       335.8310741430 Hartrees.
 NAtoms=   17 NActive=   17 NUniq=   17 SFac= 1.00D+00 NAtFMM=   60 NAOKFM=F Big=F
 Integral buffers will be    131072 words long.
 Raffenetti 2 integral format.
 Two-electron integral symmetry is turned on.
 One-electron integrals computed using PRISM.
 PrsmSu:  requested number of processors reduced to:  13 ShMem   1 Linda.
 NBasis=   269 RedAO= T EigKep=  2.22D-04  NBF=   269
 NBsUse=   269 1.00D-06 EigRej= -1.00D+00 NBFU=   269
 ExpMin= 1.61D-01 ExpMax= 4.17D+03 ExpMxC= 6.27D+02 IAcc=3 IRadAn=         5 AccDes= 0.00D+00
 Harris functional with IExCor=  402 and IRadAn=       5 diagonalized for initial guess.
 HarFok:  IExCor=  402 AccDes= 0.00D+00 IRadAn=         5 IDoV= 1 UseB2=F ITyADJ=14
 ICtDFT=  3500011 ScaDFX=  1.000000  1.000000  1.000000  1.000000
 FoFCou: FMM=F IPFlag=           0 FMFlag=      100000 FMFlg1=           0
         NFxFlg=           0 DoJE=T BraDBF=F KetDBF=T FulRan=T
         wScrn=  0.000000 ICntrl=       500 IOpCl=  0 I1Cent=   200000004 NGrid=           0
         NMat0=    1 NMatS0=      1 NMatT0=    0 NMatD0=    1 NMtDS0=    0 NMtDT0=    0
 Petite list used in FoFCou.
 Requested convergence on RMS density matrix=1.00D-08 within 128 cycles.
 Requested convergence on MAX density matrix=1.00D-06.
 Requested convergence on             energy=1.00D-06.
 No special actions if energy rises.
 Integral accuracy reduced to 1.0D-05 until final iterations.
 Initial convergence to 1.0D-05 achieved.  Increase integral accuracy.
 SCF Done:  E(RB3LYP) =  -326.828546728     A.U. after   14 cycles
            NFock= 14  Conv=0.38D-08     -V/T= 2.0095

 **********************************************************************

            Population analysis using the SCF density.

 **********************************************************************

 Orbital symmetries:
       Occupied  (A) (A) (A) (A) (A) (A) (A) (A) (A) (A) (A) (A)
                 (A) (A) (A) (A) (A) (A) (A) (A) (A) (A) (A) (A)
                 (A) (A) (A) (A) (A)
       Virtual   (A) (A) (A) (A) (A) (A) (A) (A) (A) (A) (A) (A)
                 (A) (A) (A) (A) (A) (A) (A) (A) (A) (A) (A) (A)
                 (A) (A) (A) (A) (A) (A) (A) (A) (A) (A) (A) (A)
                 (A) (A) (A) (A) (A) (A) (A) (A) (A) (A) (A) (A)
                 (A) (A) (A) (A) (A) (A) (A) (A) (A) (A) (A) (A)
                 (A) (A) (A) (A) (A) (A) (A) (A) (A) (A) (A) (A)
                 (A) (A) (A) (A) (A) (A) (A) (A) (A) (A) (A) (A)
                 (A) (A) (A) (A) (A) (A) (A) (A) (A) (A) (A) (A)
                 (A) (A) (A) (A) (A) (A) (A) (A) (A) (A) (A) (A)
                 (A) (A) (A) (A) (A) (A) (A) (A) (A) (A) (A) (A)
                 (A) (A) (A) (A) (A) (A) (A) (A) (A) (A) (A) (A)
                 (A) (A) (A) (A) (A) (A) (A) (A) (A) (A) (A) (A)
                 (A) (A) (A) (A) (A) (A) (A) (A) (A) (A) (A) (A)
                 (A) (A) (A) (A) (A) (A) (A) (A) (A) (A) (A) (A)
                 (A) (A) (A) (A) (A) (A) (A) (A) (A) (A) (A) (A)
                 (A) (A) (A) (A) (A) (A) (A) (A) (A) (A) (A) (A)
                 (A) (A) (A) (A) (A) (A) (A) (A) (A) (A) (A) (A)
                 (A) (A) (A) (A) (A) (A) (A) (A) (A) (A) (A) (A)
                 (A) (A) (A) (A) (A) (A) (A) (A) (A) (A) (A) (A)
                 (A) (A) (A) (A) (A) (A) (A) (A) (A) (A) (A) (A)
 The electronic state is 1-A.
 Alpha  occ. eigenvalues --  -14.30299 -10.22866 -10.22756 -10.20683 -10.19614
 Alpha  occ. eigenvalues --  -10.19506 -10.19494 -10.19287  -0.90334  -0.83836
 Alpha  occ. eigenvalues --   -0.74997  -0.71648  -0.67773  -0.60310  -0.54275
 Alpha  occ. eigenvalues --   -0.53632  -0.50522  -0.48710  -0.44539  -0.41979
 Alpha  occ. eigenvalues --   -0.40153  -0.37994  -0.37851  -0.36551  -0.35205
 Alpha  occ. eigenvalues --   -0.28564  -0.25479  -0.25203  -0.24469
 Alpha virt. eigenvalues --   -0.00791   0.02910   0.03171   0.08263   0.10844
 Alpha virt. eigenvalues --    0.10948   0.12204   0.14076   0.14876   0.16156
 Alpha virt. eigenvalues --    0.17141   0.18473   0.19930   0.22675   0.24131
 Alpha virt. eigenvalues --    0.25049   0.27660   0.31564   0.35256   0.38912
 Alpha virt. eigenvalues --    0.40675   0.46764   0.47961   0.48803   0.50315
 Alpha virt. eigenvalues --    0.51761   0.53723   0.54030   0.55084   0.56242
 Alpha virt. eigenvalues --    0.58974   0.59444   0.60196   0.60489   0.62222
 Alpha virt. eigenvalues --    0.65131   0.67960   0.69163   0.70152   0.72044
 Alpha virt. eigenvalues --    0.72504   0.73115   0.74605   0.75496   0.76602
 Alpha virt. eigenvalues --    0.77403   0.77856   0.78495   0.79411   0.79842
 Alpha virt. eigenvalues --    0.81372   0.82656   0.84617   0.85187   0.86676
 Alpha virt. eigenvalues --    0.90154   0.94028   0.96372   1.01698   1.01946
 Alpha virt. eigenvalues --    1.06168   1.06613   1.10357   1.10694   1.16002
 Alpha virt. eigenvalues --    1.18527   1.19596   1.21887   1.25371   1.26406
 Alpha virt. eigenvalues --    1.28444   1.30567   1.33305   1.36139   1.37769
 Alpha virt. eigenvalues --    1.40090   1.43722   1.46369   1.48342   1.52876
 Alpha virt. eigenvalues --    1.53658   1.54882   1.56929   1.61268   1.63916
 Alpha virt. eigenvalues --    1.66285   1.67031   1.71655   1.74192   1.76453
 Alpha virt. eigenvalues --    1.78399   1.79739   1.82823   1.92083   1.92236
 Alpha virt. eigenvalues --    1.93567   1.98529   2.02095   2.08557   2.11018
 Alpha virt. eigenvalues --    2.17925   2.21054   2.26701   2.28591   2.31144
 Alpha virt. eigenvalues --    2.32274   2.37636   2.39064   2.40423   2.43166
 Alpha virt. eigenvalues --    2.47962   2.48779   2.53003   2.54952   2.58201
 Alpha virt. eigenvalues --    2.59530   2.63431   2.64346   2.65786   2.67377
 Alpha virt. eigenvalues --    2.70717   2.71538   2.76172   2.78364   2.82671
 Alpha virt. eigenvalues --    2.84712   2.85526   2.86636   2.90606   2.91575
 Alpha virt. eigenvalues --    2.91800   2.93676   2.95568   3.01186   3.01329
 Alpha virt. eigenvalues --    3.03545   3.04469   3.10452   3.11347   3.12451
 Alpha virt. eigenvalues --    3.15106   3.17282   3.21191   3.23425   3.24146
 Alpha virt. eigenvalues --    3.29756   3.34438   3.34600   3.38987   3.41371
 Alpha virt. eigenvalues --    3.44341   3.47489   3.50626   3.51856   3.52918
 Alpha virt. eigenvalues --    3.55524   3.55594   3.58019   3.59066   3.65634
 Alpha virt. eigenvalues --    3.68131   3.70087   3.74413   3.76208   3.77529
 Alpha virt. eigenvalues --    3.81297   3.84652   3.85182   3.90180   3.92782
 Alpha virt. eigenvalues --    3.95185   3.98398   4.03669   4.05986   4.08492
 Alpha virt. eigenvalues --    4.11861   4.15855   4.19493   4.22139   4.23208
 Alpha virt. eigenvalues --    4.25520   4.26964   4.33626   4.36307   4.36992
 Alpha virt. eigenvalues --    4.39618   4.42845   4.45971   4.48188   4.49358
 Alpha virt. eigenvalues --    4.51274   4.52039   4.56473   4.57249   4.62362
 Alpha virt. eigenvalues --    4.63561   4.65051   4.66079   4.68565   4.70274
 Alpha virt. eigenvalues --    4.71514   4.75089   4.78853   4.79852   4.81010
 Alpha virt. eigenvalues --    4.81615   4.83954   4.84744   4.87463   4.89998
 Alpha virt. eigenvalues --    4.90630   4.92884   4.99251   5.00848   5.03467
 Alpha virt. eigenvalues --    5.06241   5.11275   5.19882   5.26195   5.29462
 Alpha virt. eigenvalues --    5.31056   5.37938   5.40728   5.50487   5.55036
 Alpha virt. eigenvalues --    5.60562   5.74109   5.79806   5.96700   6.15571
 Alpha virt. eigenvalues --    7.16726   9.63124  10.52860  11.05746  11.29255
 Alpha virt. eigenvalues --   11.71719  11.93271  12.46268  12.61670  12.88174
          Condensed to atoms (all electrons):
               1          2          3          4          5          6
     1  C    5.121466   0.910854  -0.025381  -0.001871   0.000028  -0.000020
     2  C    0.910854   4.588425   0.425008  -0.032409   0.002131   0.001013
     3  C   -0.025381   0.425008   4.799907   0.401135  -0.029714  -0.047659
     4  C   -0.001871  -0.032409   0.401135   4.957355   0.322770  -0.041073
     5  C    0.000028   0.002131  -0.029714   0.322770   5.106762   0.451877
     6  C   -0.000020   0.001013  -0.047659  -0.041073   0.451877   4.441742
     7  N   -0.000002  -0.000068  -0.000873   0.007391  -0.093475   0.673262
     8  C   -0.002504  -0.033117   0.363096  -0.050033  -0.108733   0.344526
     9  H    0.371689  -0.003531   0.000322   0.000011   0.000000  -0.000000
    10  H   -0.000402  -0.028621   0.364380  -0.045508   0.002519   0.001801
    11  H    0.002202  -0.001143  -0.030360   0.368168  -0.030210   0.000420
    12  H    0.000078   0.001489  -0.024139   0.357438  -0.021127   0.002265
    13  H   -0.000004  -0.000150   0.002997  -0.019490   0.363663  -0.020813
    14  H    0.000006   0.000239  -0.001299  -0.024515   0.351178  -0.023362
    15  H   -0.000000   0.000002  -0.000584   0.000759  -0.019107  -0.101916
    16  H    0.002493  -0.002613  -0.027149  -0.000256   0.004491  -0.014569
    17  H   -0.000007   0.001712  -0.021973   0.004489   0.005214  -0.017720
               7          8          9         10         11         12
     1  C   -0.000002  -0.002504   0.371689  -0.000402   0.002202   0.000078
     2  C   -0.000068  -0.033117  -0.003531  -0.028621  -0.001143   0.001489
     3  C   -0.000873   0.363096   0.000322   0.364380  -0.030360  -0.024139
     4  C    0.007391  -0.050033   0.000011  -0.045508   0.368168   0.357438
     5  C   -0.093475  -0.108733   0.000000   0.002519  -0.030210  -0.021127
     6  C    0.673262   0.344526  -0.000000   0.001801   0.000420   0.002265
     7  N    6.602447  -0.016840  -0.000000  -0.000006   0.000355  -0.000211
     8  C   -0.016840   5.065885   0.000008  -0.038245  -0.001642   0.004877
     9  H   -0.000000   0.000008   0.425536  -0.000046  -0.000005   0.000001
    10  H   -0.000006  -0.038245  -0.000046   0.634414   0.005783  -0.006769
    11  H    0.000355  -0.001642  -0.000005   0.005783   0.601676  -0.037002
    12  H   -0.000211   0.004877   0.000001  -0.006769  -0.037002   0.621254
    13  H   -0.004582   0.005223  -0.000000  -0.000167  -0.007177   0.002203
    14  H    0.000940   0.002214   0.000000   0.001988   0.005310  -0.007283
    15  H    0.344050   0.010231   0.000000   0.000011   0.000040  -0.000018
    16  H   -0.003885   0.357510  -0.000014   0.005054   0.001357  -0.000097
    17  H   -0.003516   0.356733   0.000002  -0.007946  -0.000095  -0.000175
              13         14         15         16         17
     1  C   -0.000004   0.000006  -0.000000   0.002493  -0.000007
     2  C   -0.000150   0.000239   0.000002  -0.002613   0.001712
     3  C    0.002997  -0.001299  -0.000584  -0.027149  -0.021973
     4  C   -0.019490  -0.024515   0.000759  -0.000256   0.004489
     5  C    0.363663   0.351178  -0.019107   0.004491   0.005214
     6  C   -0.020813  -0.023362  -0.101916  -0.014569  -0.017720
     7  N   -0.004582   0.000940   0.344050  -0.003885  -0.003516
     8  C    0.005223   0.002214   0.010231   0.357510   0.356733
     9  H   -0.000000   0.000000   0.000000  -0.000014   0.000002
    10  H   -0.000167   0.001988   0.000011   0.005054  -0.007946
    11  H   -0.007177   0.005310   0.000040   0.001357  -0.000095
    12  H    0.002203  -0.007283  -0.000018  -0.000097  -0.000175
    13  H    0.589502  -0.033956   0.004217  -0.000257  -0.000068
    14  H   -0.033956   0.605367   0.001391  -0.000042  -0.000237
    15  H    0.004217   0.001391   0.549558  -0.000219  -0.000221
    16  H   -0.000257  -0.000042  -0.000219   0.558658  -0.027532
    17  H   -0.000068  -0.000237  -0.000221  -0.027532   0.576318
 Mulliken charges:
               1
     1  C   -0.378627
     2  C    0.170780
     3  C   -0.147716
     4  C   -0.204361
     5  C   -0.308267
     6  C    0.350226
     7  N   -0.504987
     8  C   -0.259187
     9  H    0.206028
    10  H    0.111759
    11  H    0.122323
    12  H    0.107217
    13  H    0.118857
    14  H    0.122063
    15  H    0.211804
    16  H    0.147068
    17  H    0.135020
 Sum of Mulliken charges =  -0.00000
 Mulliken charges with hydrogens summed into heavy atoms:
               1
     1  C   -0.172599
     2  C    0.170780
     3  C   -0.035957
     4  C    0.025179
     5  C   -0.067347
     6  C    0.350226
     7  N   -0.293183
     8  C    0.022900
 Electronic spatial extent (au):  <R**2>=           1076.6301
 Charge=              0.0000 electrons
 Dipole moment (field-independent basis, Debye):
    X=              0.2545    Y=              2.1611    Z=              0.4253  Tot=              2.2172
 Quadrupole moment (field-independent basis, Debye-Ang):
   XX=            -47.9899   YY=            -50.4378   ZZ=            -46.4007
   XY=             -7.0791   XZ=             -1.7173   YZ=             -0.4372
 Traceless Quadrupole moment (field-independent basis, Debye-Ang):
   XX=              0.2862   YY=             -2.1617   ZZ=              1.8754
   XY=             -7.0791   XZ=             -1.7173   YZ=             -0.4372
 Octapole moment (field-independent basis, Debye-Ang**2):
  XXX=             15.0849  YYY=              6.7154  ZZZ=              2.3533  XYY=              4.3213
  XXY=              9.6917  XXZ=            -12.4298  XZZ=             -3.6696  YZZ=              1.0284
  YYZ=              1.8641  XYZ=              4.2117
 Hexadecapole moment (field-independent basis, Debye-Ang**3):
 XXXX=           -864.6305 YYYY=           -307.6447 ZZZZ=           -101.6316 XXXY=            -73.7732
 XXXZ=            -42.8432 YYYX=            -12.5767 YYYZ=             -1.7007 ZZZX=              1.8093
 ZZZY=             -1.1506 XXYY=           -259.3248 XXZZ=           -192.8088 YYZZ=            -65.0346
 XXYZ=              4.2049 YYXZ=             -3.2652 ZZXY=             -2.6284
 N-N= 3.358310741430D+02 E-N=-1.428897685999D+03  KE= 3.237676119941D+02
 PrsmSu:  requested number of processors reduced to:  13 ShMem   1 Linda.
 Calling FoFJK, ICntrl=      2127 FMM=F ISym2X=0 I1Cent= 0 IOpClX= 0 NMat=1 NMatS=1 NMatT=0.
 ***** Axes restored to original set *****
 -------------------------------------------------------------------
 Center     Atomic                   Forces (Hartrees/Bohr)
 Number     Number              X              Y              Z
 -------------------------------------------------------------------
      1        6           0.158399049    0.000205022   -0.000119813
      2        6          -0.129839021    0.003813757   -0.008784716
      3        6          -0.048423749   -0.002865848    0.003690615
      4        6           0.000841951    0.024137749   -0.001945388
      5        6          -0.012803841    0.001073210   -0.003481078
      6        6           0.047491743   -0.033384615    0.032760432
      7        7          -0.017149741    0.006444303   -0.012166372
      8        6           0.007764619    0.000156588   -0.002439985
      9        1           0.001653269   -0.000257746    0.000590453
     10        1          -0.001929049    0.000536317    0.000809148
     11        1          -0.000473927   -0.002106428   -0.003408857
     12        1          -0.003935049   -0.000089628    0.000412296
     13        1           0.003187161   -0.000339273   -0.001836201
     14        1           0.001854934    0.002935586   -0.000309798
     15        1          -0.002538841    0.001459782   -0.002189084
     16        1          -0.001190939    0.000603909   -0.004234805
     17        1          -0.002908568   -0.002322685    0.002653155
 -------------------------------------------------------------------
 Cartesian Forces:  Max     0.158399049 RMS     0.031399993

 GradGradGradGradGradGradGradGradGradGradGradGradGradGradGradGradGradGrad
 Berny optimization.
 FormGI is forming the generalized inverse of G from B-inverse, IUseBI=4.
 Internal  Forces:  Max     0.160052236 RMS     0.018046813
 Search for a local minimum.
 Step number   1 out of a maximum of  100
 All quantities printed in internal units (Hartrees-Bohrs-Radians)
 Mixed Optimization -- RFO/linear search
 Second derivative matrix not updated -- first step.
 ITU=  0
     Eigenvalues ---    0.00482   0.00501   0.00501   0.00554   0.00554
     Eigenvalues ---    0.00689   0.01048   0.02697   0.03130   0.03275
     Eigenvalues ---    0.04829   0.05122   0.05418   0.05568   0.05946
     Eigenvalues ---    0.06095   0.06414   0.07143   0.07949   0.08057
     Eigenvalues ---    0.08315   0.09468   0.10210   0.13494   0.16000
     Eigenvalues ---    0.21274   0.21971   0.24999   0.27664   0.27863
     Eigenvalues ---    0.28802   0.30367   0.31436   0.32046   0.33867
     Eigenvalues ---    0.34076   0.34207   0.34282   0.34312   0.34417
     Eigenvalues ---    0.34552   0.37761   0.43505   0.66132   0.69672
 RFO step:  Lambda=-4.82843782D-02 EMin= 4.81915878D-03
 Linear search not attempted -- first point.
 Iteration  1 RMS(Cart)=  0.04325620 RMS(Int)=  0.00280506
 Iteration  2 RMS(Cart)=  0.00386940 RMS(Int)=  0.00019446
 Iteration  3 RMS(Cart)=  0.00000286 RMS(Int)=  0.00019445
 Iteration  4 RMS(Cart)=  0.00000000 RMS(Int)=  0.00019445
 Variable       Old X    -DE/DX   Delta X   Delta X   Delta X     New X
                                 (Linear)    (Quad)   (Total)
    R1        2.46394  -0.16005   0.00000  -0.22555  -0.22555   2.23839
    R2        2.01415  -0.00165   0.00000  -0.00388  -0.00388   2.01027
    R3        2.87238  -0.03021   0.00000  -0.08585  -0.08585   2.78654
    R4        2.89920   0.00649   0.00000   0.01973   0.01953   2.91873
    R5        2.90252   0.01452   0.00000   0.04325   0.04321   2.94573
    R6        2.07201  -0.00138   0.00000  -0.00354  -0.00354   2.06848
    R7        2.88210   0.01217   0.00000   0.03641   0.03637   2.91848
    R8        2.07556  -0.00281   0.00000  -0.00725  -0.00725   2.06831
    R9        2.06857  -0.00035   0.00000  -0.00089  -0.00089   2.06768
   R10        2.82932   0.01685   0.00000   0.04412   0.04425   2.87356
   R11        2.06409  -0.00068   0.00000  -0.00172  -0.00172   2.06236
   R12        2.06807   0.00194   0.00000   0.00495   0.00495   2.07301
   R13        2.44018  -0.02388   0.00000  -0.03205  -0.03205   2.40813
   R14        2.83491   0.01222   0.00000   0.03170   0.03185   2.86676
   R15        1.93751  -0.00218   0.00000  -0.00450  -0.00450   1.93300
   R16        2.06983  -0.00227   0.00000  -0.00581  -0.00581   2.06402
   R17        2.06632  -0.00093   0.00000  -0.00236  -0.00236   2.06395
    A1        1.94836  -0.00000   0.00000   0.01129   0.01073   1.95909
    A2        1.91792   0.00645   0.00000   0.04096   0.04076   1.95868
    A3        1.91984  -0.00343   0.00000  -0.02930  -0.02913   1.89071
    A4        1.82263  -0.00021   0.00000   0.00259   0.00210   1.82472
    A5        1.92783  -0.00036   0.00000  -0.01189  -0.01191   1.91593
    A6        1.92536  -0.00222   0.00000  -0.01146  -0.01134   1.91402
    A7        1.83452  -0.00486   0.00000  -0.02083  -0.02096   1.81356
    A8        1.93395  -0.00031   0.00000  -0.01635  -0.01636   1.91759
    A9        1.95793   0.00031   0.00000   0.00327   0.00350   1.96143
   A10        1.91047   0.00134   0.00000   0.00807   0.00771   1.91818
   A11        1.95374   0.00477   0.00000   0.02920   0.02917   1.98290
   A12        1.87378  -0.00116   0.00000  -0.00331  -0.00357   1.87021
   A13        1.75426   0.01333   0.00000   0.05700   0.05700   1.81127
   A14        1.97073  -0.00177   0.00000   0.00141   0.00115   1.97187
   A15        1.94888  -0.00377   0.00000  -0.01729  -0.01750   1.93139
   A16        1.96207  -0.00536   0.00000  -0.01511  -0.01565   1.94642
   A17        1.90024  -0.00194   0.00000  -0.00355  -0.00356   1.89668
   A18        1.92161   0.00018   0.00000  -0.01753  -0.01776   1.90385
   A19        2.17784   0.01705   0.00000   0.05975   0.05955   2.23739
   A20        1.97637  -0.01721   0.00000  -0.06287  -0.06251   1.91386
   A21        2.12896   0.00016   0.00000   0.00309   0.00290   2.13186
   A22        1.94729  -0.00569   0.00000  -0.02730  -0.02730   1.91999
   A23        1.79039   0.01072   0.00000   0.04154   0.04165   1.83203
   A24        1.97769  -0.00466   0.00000  -0.02620  -0.02655   1.95115
   A25        1.95632  -0.00123   0.00000   0.00300   0.00256   1.95888
   A26        1.89708  -0.00066   0.00000   0.00819   0.00845   1.90553
   A27        1.92820  -0.00364   0.00000  -0.00529  -0.00564   1.92256
   A28        1.91040  -0.00011   0.00000  -0.01738  -0.01757   1.89283
   A29        3.14044  -0.00115   0.00000  -0.02137  -0.02137   3.11906
   A30        3.14159  -0.00197   0.00000  -0.03705  -0.03705   3.10454
   A31        3.14255  -0.00039   0.00000  -0.00721  -0.00721   3.13534
   A32        3.14159   0.00122   0.00000   0.02295   0.02295   3.16455
    D1        2.72672   0.00221   0.00000   0.02049   0.02059   2.74731
    D2        0.66459   0.00357   0.00000   0.03125   0.03119   0.69578
    D3       -1.42937   0.00506   0.00000   0.04454   0.04454  -1.38483
    D4        0.65535  -0.00536   0.00000  -0.03558  -0.03550   0.61985
    D5       -1.40678  -0.00399   0.00000  -0.02482  -0.02490  -1.43168
    D6        2.78244  -0.00250   0.00000  -0.01153  -0.01154   2.77090
    D7       -1.41450  -0.00245   0.00000  -0.01766  -0.01756  -1.43206
    D8        2.80656  -0.00108   0.00000  -0.00689  -0.00696   2.79960
    D9        0.71259   0.00041   0.00000   0.00639   0.00640   0.71899
   D10       -2.50181  -0.00278   0.00000  -0.02601  -0.02598  -2.52779
   D11       -0.46000   0.00065   0.00000  -0.00380  -0.00417  -0.46417
   D12        1.71286  -0.00416   0.00000  -0.04542  -0.04564   1.66722
   D13       -0.40985   0.00035   0.00000   0.00941   0.00979  -0.40007
   D14        1.63196   0.00378   0.00000   0.03161   0.03160   1.66355
   D15       -2.47836  -0.00103   0.00000  -0.01001  -0.00987  -2.48824
   D16        1.66168  -0.00128   0.00000  -0.00880  -0.00853   1.65315
   D17       -2.57970   0.00215   0.00000   0.01341   0.01328  -2.56641
   D18       -0.40683  -0.00266   0.00000  -0.02821  -0.02819  -0.43502
   D19       -0.60790  -0.00043   0.00000   0.01155   0.01177  -0.59612
   D20       -2.70177  -0.00123   0.00000  -0.00520  -0.00530  -2.70707
   D21        1.40490   0.00288   0.00000   0.03074   0.03067   1.43557
   D22        1.47002  -0.00281   0.00000  -0.01513  -0.01502   1.45500
   D23       -0.62385  -0.00361   0.00000  -0.03188  -0.03210  -0.65595
   D24       -2.80037   0.00050   0.00000   0.00406   0.00388  -2.79650
   D25       -2.73771  -0.00040   0.00000   0.00432   0.00466  -2.73305
   D26        1.45160  -0.00119   0.00000  -0.01243  -0.01242   1.43918
   D27       -0.72492   0.00292   0.00000   0.02351   0.02356  -0.70136
   D28       -2.77437   0.00010   0.00000  -0.00047  -0.00018  -2.77456
   D29        0.36220  -0.00054   0.00000  -0.00815  -0.00795   0.35425
   D30       -0.67428   0.00339   0.00000   0.02772   0.02771  -0.64657
   D31        2.46229   0.00275   0.00000   0.02003   0.01994   2.48223
   D32        1.45977  -0.00131   0.00000  -0.00708  -0.00707   1.45270
   D33       -1.68685  -0.00196   0.00000  -0.01476  -0.01484  -1.70168
   D34        0.01161  -0.00047   0.00000  -0.00558  -0.00573   0.00588
   D35       -3.12454   0.00026   0.00000   0.00290   0.00305  -3.12149
   D36        0.02789   0.00008   0.00000  -0.00036  -0.00028   0.02761
   D37       -2.07067   0.00015   0.00000   0.00437   0.00406  -2.06662
   D38        2.11610   0.00291   0.00000   0.02379   0.02376   2.13986
   D39       -3.11856  -0.00048   0.00000  -0.00761  -0.00729  -3.12585
   D40        1.06605  -0.00041   0.00000  -0.00289  -0.00295   1.06311
   D41       -1.03036   0.00234   0.00000   0.01654   0.01675  -1.01361
         Item               Value     Threshold  Converged?
 Maximum Force            0.160052     0.000450     NO 
 RMS     Force            0.018047     0.000300     NO 
 Maximum Displacement     0.239990     0.001800     NO 
 RMS     Displacement     0.046242     0.001200     NO 
 Predicted change in Energy=-2.666997D-02
 GradGradGradGradGradGradGradGradGradGradGradGradGradGradGradGradGradGrad

                          Input orientation:                          
 ---------------------------------------------------------------------
 Center     Atomic      Atomic             Coordinates (Angstroms)
 Number     Number       Type             X           Y           Z
 ---------------------------------------------------------------------
      1          6           0        1.076777    0.072719    0.051435
      2          6           0        2.261122    0.083040    0.035012
      3          6           0        3.735200    0.071369    0.071366
      4          6           0        4.308133    1.221282    0.928696
      5          6           0        5.716574    0.724758    1.322268
      6          6           0        5.541309   -0.778023    1.474676
      7          7           0        6.273440   -1.594923    2.123190
      8          6           0        4.298519   -1.225118    0.728395
      9          1           0        0.013807    0.047725    0.084821
     10          1           0        4.105528    0.154882   -0.955284
     11          1           0        3.696458    1.356580    1.826181
     12          1           0        4.313454    2.176316    0.394761
     13          1           0        6.087155    1.179971    2.242327
     14          1           0        6.433708    0.914528    0.514124
     15          1           0        7.046739   -1.094572    2.568145
     16          1           0        3.591219   -1.660500    1.437717
     17          1           0        4.557277   -1.984966   -0.012260
 ---------------------------------------------------------------------
                    Distance matrix (angstroms):
                    1          2          3          4          5
     1  C    0.000000
     2  C    1.184504   0.000000
     3  C    2.658499   1.474573   0.000000
     4  C    3.539837   2.506894   1.544527   0.000000
     5  C    4.854678   3.742857   2.432594   1.544391   0.000000
     6  C    4.762502   3.684249   2.439831   2.411647   1.520624
     7  N    5.837680   4.824391   3.664584   3.635968   2.516445
     8  C    3.538684   2.518541   1.558812   2.454605   2.483059
     9  H    1.063787   2.248144   3.721493   4.531070   5.874624
    10  H    3.192737   2.094680   1.094591   2.174313   2.847362
    11  H    3.414785   2.624954   2.175464   1.094501   2.175775
    12  H    3.875445   2.953522   2.206754   1.094169   2.221719
    13  H    5.579418   4.551267   3.387294   2.211844   1.091356
    14  H    5.442375   4.281518   2.861625   2.187245   1.096992
    15  H    6.583073   5.541270   4.308087   3.943468   2.575172
    16  H    3.353840   2.603204   2.210659   3.012928   3.196861
    17  H    4.043762   3.090503   2.216149   3.350745   3.235358
                    6          7          8          9         10
     6  C    0.000000
     7  N    1.274328   0.000000
     8  C    1.517022   2.445919   0.000000
     9  H    5.759066   6.785002   4.515870   0.000000
    10  H    2.972623   4.151947   2.185503   4.223208   0.000000
    11  H    2.843161   3.929430   2.869282   4.278710   3.057445
    12  H    3.376679   4.588165   3.417790   4.807694   2.439682
    13  H    2.172781   2.783690   3.357925   6.543880   3.899022
    14  H    2.140974   2.985319   3.030352   6.492363   2.855984
    15  H    1.887378   1.022901   3.309749   7.545454   4.756723
    16  H    2.140791   2.769203   1.092231   4.188823   3.047389
    17  H    2.153139   2.767218   1.092197   4.978391   2.381664
                   11         12         13         14         15
    11  H    0.000000
    12  H    1.761140   0.000000
    13  H    2.433064   2.748130   0.000000
    14  H    3.067482   2.470189   1.782483   0.000000
    15  H    4.216995   4.784679   2.490082   2.937907   0.000000
    16  H    3.043806   4.041106   3.865924   3.945066   3.679506
    17  H    3.909834   4.188243   4.176184   3.493585   3.694417
                   16         17
    16  H    0.000000
    17  H    1.772281   0.000000
 Stoichiometry    C7H9N
 Framework group  C1[X(C7H9N)]
 Deg. of freedom    45
 Full point group                 C1      NOp   1
 Largest Abelian subgroup         C1      NOp   1
 Largest concise Abelian subgroup C1      NOp   1
                         Standard orientation:                         
 ---------------------------------------------------------------------
 Center     Atomic      Atomic             Coordinates (Angstroms)
 Number     Number       Type             X           Y           Z
 ---------------------------------------------------------------------
      1          6           0        3.218016   -0.426682   -0.370648
      2          6           0        2.146764   -0.163341    0.060767
      3          6           0        0.788024    0.138886    0.547440
      4          6           0        0.168951    1.360036   -0.167476
      5          6           0       -1.352240    1.164733    0.014125
      6          6           0       -1.531823   -0.344500   -0.033445
      7          7           0       -2.590522   -1.004191   -0.293975
      8          6           0       -0.210436   -1.025418    0.269285
      9          1           0        4.169689   -0.678921   -0.773561
     10          1           0        0.842240    0.328335    1.624147
     11          1           0        0.423229    1.336381   -1.231766
     12          1           0        0.539763    2.308813    0.231931
     13          1           0       -1.940941    1.662520   -0.758337
     14          1           0       -1.674008    1.525834    0.998738
     15          1           0       -3.363715   -0.363013   -0.487346
     16          1           0        0.092225   -1.621495   -0.594461
     17          1           0       -0.318365   -1.691403    1.128185
 ---------------------------------------------------------------------
 Rotational constants (GHZ):           4.8694929           1.3129696           1.1066986
 Standard basis: 6-31G(2df,p) (6D, 7F)
 There are   293 symmetry adapted cartesian basis functions of A   symmetry.
 There are   269 symmetry adapted basis functions of A   symmetry.
   269 basis functions,   415 primitive gaussians,   293 cartesian basis functions
    29 alpha electrons       29 beta electrons
       nuclear repulsion energy       337.3073936782 Hartrees.
 NAtoms=   17 NActive=   17 NUniq=   17 SFac= 1.00D+00 NAtFMM=   60 NAOKFM=F Big=F
 Integral buffers will be    131072 words long.
 Raffenetti 2 integral format.
 Two-electron integral symmetry is turned on.
 One-electron integrals computed using PRISM.
 PrsmSu:  requested number of processors reduced to:  13 ShMem   1 Linda.
 NBasis=   269 RedAO= T EigKep=  1.33D-04  NBF=   269
 NBsUse=   269 1.00D-06 EigRej= -1.00D+00 NBFU=   269
 Initial guess from the checkpoint file:  "CtCC1CCCpdNpC1.chk"
 B after Tr=    -0.000000   -0.000000    0.000000
         Rot=    0.999947   -0.001969   -0.002878    0.009653 Ang=  -1.18 deg.
 ExpMin= 1.61D-01 ExpMax= 4.17D+03 ExpMxC= 6.27D+02 IAcc=2 IRadAn=         4 AccDes= 0.00D+00
 Harris functional with IExCor=  402 and IRadAn=       4 diagonalized for initial guess.
 HarFok:  IExCor=  402 AccDes= 0.00D+00 IRadAn=         4 IDoV= 1 UseB2=F ITyADJ=14
 ICtDFT=  3500011 ScaDFX=  1.000000  1.000000  1.000000  1.000000
 FoFCou: FMM=F IPFlag=           0 FMFlag=      100000 FMFlg1=           0
         NFxFlg=           0 DoJE=T BraDBF=F KetDBF=T FulRan=T
         wScrn=  0.000000 ICntrl=       500 IOpCl=  0 I1Cent=   200000004 NGrid=           0
         NMat0=    1 NMatS0=      1 NMatT0=    0 NMatD0=    1 NMtDS0=    0 NMtDT0=    0
 Petite list used in FoFCou.
 Requested convergence on RMS density matrix=1.00D-08 within 128 cycles.
 Requested convergence on MAX density matrix=1.00D-06.
 Requested convergence on             energy=1.00D-06.
 No special actions if energy rises.
 Integral accuracy reduced to 1.0D-05 until final iterations.
 Initial convergence to 1.0D-05 achieved.  Increase integral accuracy.
 SCF Done:  E(RB3LYP) =  -326.852004074     A.U. after   13 cycles
            NFock= 13  Conv=0.26D-08     -V/T= 2.0081
 PrsmSu:  requested number of processors reduced to:  13 ShMem   1 Linda.
 Calling FoFJK, ICntrl=      2127 FMM=F ISym2X=0 I1Cent= 0 IOpClX= 0 NMat=1 NMatS=1 NMatT=0.
 ***** Axes restored to original set *****
 -------------------------------------------------------------------
 Center     Atomic                   Forces (Hartrees/Bohr)
 Number     Number              X              Y              Z
 -------------------------------------------------------------------
      1        6          -0.041127803   -0.000584616    0.001225510
      2        6           0.048406516   -0.000304106   -0.002311279
      3        6          -0.019512665   -0.004636960    0.003329959
      4        6           0.007526583    0.003953342    0.000517251
      5        6          -0.008442952    0.000918027   -0.000499147
      6        6           0.009631587   -0.007066386    0.006315864
      7        7          -0.004993279    0.004488828   -0.004261671
      8        6           0.003899279    0.004762627   -0.003633927
      9        1           0.001790471    0.000585673   -0.000880449
     10        1           0.002448601    0.000223107   -0.000116861
     11        1          -0.000533223   -0.001299818   -0.000256698
     12        1          -0.000041289   -0.001051782    0.000174750
     13        1           0.002866709    0.001126009   -0.000584884
     14        1           0.000970465    0.001312937    0.000579745
     15        1           0.001032683   -0.000316251    0.000728983
     16        1          -0.001508237   -0.000340417   -0.001079079
     17        1          -0.002413447   -0.001770216    0.000751933
 -------------------------------------------------------------------
 Cartesian Forces:  Max     0.048406516 RMS     0.009840210

 GradGradGradGradGradGradGradGradGradGradGradGradGradGradGradGradGradGrad
 Berny optimization.
 Using GEDIIS/GDIIS optimizer.
 FormGI is forming the generalized inverse of G from B-inverse, IUseBI=4.
 Internal  Forces:  Max     0.039337173 RMS     0.004482052
 Search for a local minimum.
 Step number   2 out of a maximum of  100
 All quantities printed in internal units (Hartrees-Bohrs-Radians)
 Mixed Optimization -- RFO/linear search
 Update second derivatives using D2CorX and points    1    2
 DE= -2.35D-02 DEPred=-2.67D-02 R= 8.80D-01
 TightC=F SS=  1.41D+00  RLast= 3.23D-01 DXNew= 5.0454D-01 9.6980D-01
 Trust test= 8.80D-01 RLast= 3.23D-01 DXMaxT set to 5.05D-01
 ITU=  1  0
 Use linear search instead of GDIIS.
     Eigenvalues ---    0.00473   0.00501   0.00505   0.00554   0.00556
     Eigenvalues ---    0.00682   0.01070   0.02592   0.03130   0.03281
     Eigenvalues ---    0.04691   0.05086   0.05233   0.05585   0.05942
     Eigenvalues ---    0.06144   0.06419   0.06980   0.08035   0.08365
     Eigenvalues ---    0.08510   0.09640   0.10425   0.13763   0.16034
     Eigenvalues ---    0.21468   0.21866   0.24949   0.27659   0.27946
     Eigenvalues ---    0.28983   0.29459   0.31318   0.32025   0.33866
     Eigenvalues ---    0.34080   0.34209   0.34282   0.34310   0.34418
     Eigenvalues ---    0.34554   0.37752   0.43510   0.68959   0.87425
 RFO step:  Lambda=-3.82856562D-03 EMin= 4.72843473D-03
 Quartic linear search produced a step of -0.09546.
 Iteration  1 RMS(Cart)=  0.11107264 RMS(Int)=  0.01062677
 Iteration  2 RMS(Cart)=  0.01932122 RMS(Int)=  0.00029847
 Iteration  3 RMS(Cart)=  0.00044597 RMS(Int)=  0.00015058
 Iteration  4 RMS(Cart)=  0.00000038 RMS(Int)=  0.00015058
 Variable       Old X    -DE/DX   Delta X   Delta X   Delta X     New X
                                 (Linear)    (Quad)   (Total)
    R1        2.23839   0.03934   0.02153   0.01363   0.03516   2.27355
    R2        2.01027  -0.00183   0.00037  -0.00510  -0.00472   2.00554
    R3        2.78654  -0.00902   0.00820  -0.04429  -0.03610   2.75044
    R4        2.91873   0.00353  -0.00186   0.01497   0.01315   2.93189
    R5        2.94573  -0.00140  -0.00413   0.00326  -0.00081   2.94492
    R6        2.06848   0.00096   0.00034   0.00179   0.00213   2.07061
    R7        2.91848  -0.00243  -0.00347   0.00107  -0.00244   2.91603
    R8        2.06831  -0.00007   0.00069  -0.00165  -0.00096   2.06735
    R9        2.06768  -0.00100   0.00008  -0.00279  -0.00271   2.06497
   R10        2.87356   0.00240  -0.00422   0.01660   0.01232   2.88588
   R11        2.06236   0.00095   0.00016   0.00211   0.00227   2.06464
   R12        2.07301   0.00043  -0.00047   0.00212   0.00165   2.07467
   R13        2.40813  -0.00675   0.00306  -0.01431  -0.01125   2.39688
   R14        2.86676   0.00397  -0.00304   0.01703   0.01399   2.88074
   R15        1.93300   0.00094   0.00043   0.00108   0.00151   1.93452
   R16        2.06402   0.00041   0.00055  -0.00009   0.00046   2.06448
   R17        2.06395   0.00015   0.00023  -0.00009   0.00014   2.06409
    A1        1.95909   0.00156  -0.00102   0.02701   0.02547   1.98456
    A2        1.95868   0.00184  -0.00389   0.03733   0.03309   1.99177
    A3        1.89071  -0.00063   0.00278  -0.01460  -0.01133   1.87938
    A4        1.82472  -0.00122  -0.00020  -0.00373  -0.00425   1.82047
    A5        1.91593  -0.00093   0.00114  -0.02605  -0.02515   1.89078
    A6        1.91402  -0.00070   0.00108  -0.02148  -0.02078   1.89324
    A7        1.81356   0.00140   0.00200  -0.00429  -0.00205   1.81151
    A8        1.91759  -0.00130   0.00156  -0.01833  -0.01684   1.90076
    A9        1.96143  -0.00034  -0.00033   0.00029  -0.00015   1.96128
   A10        1.91818   0.00019  -0.00074   0.00524   0.00435   1.92254
   A11        1.98290  -0.00064  -0.00278   0.01103   0.00821   1.99111
   A12        1.87021   0.00062   0.00034   0.00487   0.00521   1.87542
   A13        1.81127   0.00101  -0.00544   0.02355   0.01788   1.82915
   A14        1.97187   0.00075  -0.00011   0.01418   0.01377   1.98565
   A15        1.93139  -0.00038   0.00167  -0.01195  -0.01018   1.92120
   A16        1.94642  -0.00005   0.00149   0.00554   0.00674   1.95316
   A17        1.89668   0.00003   0.00034   0.00149   0.00191   1.89859
   A18        1.90385  -0.00128   0.00170  -0.03055  -0.02878   1.87507
   A19        2.23739   0.00224  -0.00568   0.02236   0.01659   2.25398
   A20        1.91386  -0.00230   0.00597  -0.02471  -0.01877   1.89510
   A21        2.13186   0.00006  -0.00028   0.00210   0.00175   2.13362
   A22        1.91999   0.00174   0.00261   0.00253   0.00513   1.92512
   A23        1.83203   0.00190  -0.00398   0.01710   0.01316   1.84519
   A24        1.95115  -0.00141   0.00253  -0.02198  -0.01954   1.93161
   A25        1.95888  -0.00022  -0.00024   0.00570   0.00510   1.96398
   A26        1.90553   0.00046  -0.00081   0.01316   0.01248   1.91800
   A27        1.92256   0.00013   0.00054   0.01535   0.01564   1.93819
   A28        1.89283  -0.00074   0.00168  -0.02674  -0.02518   1.86765
   A29        3.11906   0.00189   0.00204   0.13859   0.14063   3.25969
   A30        3.10454   0.00277   0.00354   0.20294   0.20647   3.31102
   A31        3.13534   0.00041   0.00069   0.02455   0.02523   3.16057
   A32        3.16455  -0.00041  -0.00219   0.00815   0.00596   3.17050
    D1        2.74731   0.00129  -0.00197   0.04995   0.04808   2.79538
    D2        0.69578   0.00092  -0.00298   0.05474   0.05187   0.74765
    D3       -1.38483   0.00123  -0.00425   0.06077   0.05667  -1.32816
    D4        0.61985  -0.00104   0.00339  -0.00822  -0.00489   0.61496
    D5       -1.43168  -0.00141   0.00238  -0.00343  -0.00109  -1.43277
    D6        2.77090  -0.00109   0.00110   0.00261   0.00371   2.77460
    D7       -1.43206   0.00088   0.00168   0.03136   0.03282  -1.39924
    D8        2.79960   0.00051   0.00066   0.03615   0.03662   2.83621
    D9        0.71899   0.00083  -0.00061   0.04219   0.04142   0.76041
   D10       -2.52779  -0.00089   0.00248  -0.06332  -0.06105  -2.58885
   D11       -0.46417   0.00006   0.00040  -0.04877  -0.04861  -0.51278
   D12        1.66722  -0.00211   0.00436  -0.09558  -0.09139   1.57583
   D13       -0.40007   0.00126  -0.00093  -0.01194  -0.01296  -0.41302
   D14        1.66355   0.00221  -0.00302   0.00260  -0.00051   1.66305
   D15       -2.48824   0.00004   0.00094  -0.04421  -0.04329  -2.53153
   D16        1.65315  -0.00081   0.00081  -0.05463  -0.05371   1.59944
   D17       -2.56641   0.00013  -0.00127  -0.04008  -0.04126  -2.60767
   D18       -0.43502  -0.00204   0.00269  -0.08689  -0.08404  -0.51906
   D19       -0.59612   0.00048  -0.00112   0.01433   0.01330  -0.58283
   D20       -2.70707  -0.00051   0.00051  -0.01516  -0.01470  -2.72177
   D21        1.43557   0.00089  -0.00293   0.02334   0.02043   1.45601
   D22        1.45500  -0.00019   0.00143  -0.00683  -0.00533   1.44967
   D23       -0.65595  -0.00118   0.00306  -0.03631  -0.03332  -0.68927
   D24       -2.79650   0.00022  -0.00037   0.00218   0.00181  -2.79468
   D25       -2.73305   0.00031  -0.00044   0.01057   0.01016  -2.72289
   D26        1.43918  -0.00068   0.00119  -0.01892  -0.01783   1.42135
   D27       -0.70136   0.00073  -0.00225   0.01958   0.01730  -0.68406
   D28       -2.77456  -0.00018   0.00002  -0.00238  -0.00229  -2.77685
   D29        0.35425  -0.00032   0.00076  -0.02407  -0.02325   0.33099
   D30       -0.64657   0.00132  -0.00264   0.03214   0.02961  -0.61696
   D31        2.48223   0.00118  -0.00190   0.01046   0.00865   2.49088
   D32        1.45270  -0.00028   0.00068  -0.00137  -0.00068   1.45202
   D33       -1.70168  -0.00042   0.00142  -0.02305  -0.02164  -1.72332
   D34        0.00588  -0.00011   0.00055  -0.01375  -0.01329  -0.00742
   D35       -3.12149   0.00006  -0.00029   0.01051   0.01031  -3.11119
   D36        0.02761   0.00007   0.00003   0.02501   0.02493   0.05254
   D37       -2.06662   0.00044  -0.00039   0.03462   0.03409  -2.03252
   D38        2.13986   0.00099  -0.00227   0.05005   0.04778   2.18763
   D39       -3.12585  -0.00004   0.00070   0.00507   0.00586  -3.12000
   D40        1.06311   0.00033   0.00028   0.01469   0.01502   1.07812
   D41       -1.01361   0.00088  -0.00160   0.03011   0.02870  -0.98491
         Item               Value     Threshold  Converged?
 Maximum Force            0.039337     0.000450     NO 
 RMS     Force            0.004482     0.000300     NO 
 Maximum Displacement     0.607459     0.001800     NO 
 RMS     Displacement     0.122620     0.001200     NO 
 Predicted change in Energy=-2.232793D-03
 GradGradGradGradGradGradGradGradGradGradGradGradGradGradGradGradGradGrad

                          Input orientation:                          
 ---------------------------------------------------------------------
 Center     Atomic      Atomic             Coordinates (Angstroms)
 Number     Number       Type             X           Y           Z
 ---------------------------------------------------------------------
      1          6           0        1.043236    0.129202   -0.027114
      2          6           0        2.228429   -0.021622    0.114451
      3          6           0        3.683027    0.006856    0.156019
      4          6           0        4.260461    1.185045    0.984002
      5          6           0        5.699432    0.734134    1.311415
      6          6           0        5.607723   -0.782541    1.464555
      7          7           0        6.394780   -1.575742    2.064679
      8          6           0        4.326927   -1.262185    0.791225
      9          1           0        0.026642    0.350493   -0.236633
     10          1           0        4.043616    0.100425   -0.874425
     11          1           0        3.679388    1.289335    1.905032
     12          1           0        4.201990    2.136653    0.450060
     13          1           0        6.117918    1.209198    2.201848
     14          1           0        6.367090    0.964807    0.470980
     15          1           0        7.178163   -1.057957    2.472328
     16          1           0        3.658614   -1.702763    1.534697
     17          1           0        4.538985   -2.038267    0.052452
 ---------------------------------------------------------------------
                    Distance matrix (angstroms):
                    1          2          3          4          5
     1  C    0.000000
     2  C    1.203109   0.000000
     3  C    2.648963   1.455470   0.000000
     4  C    3.533794   2.518197   1.551488   0.000000
     5  C    4.882393   3.748566   2.435110   1.543099   0.000000
     6  C    4.887831   3.717715   2.457614   2.432579   1.527143
     7  N    5.993451   4.855631   3.674399   3.653098   2.527142
     8  C    3.658998   2.529963   1.558384   2.455711   2.477834
     9  H    1.061287   2.260442   3.693428   4.484602   5.892722
    10  H    3.117860   2.070670   1.095717   2.162677   2.814464
    11  H    3.468198   2.651428   2.168827   1.093992   2.177431
    12  H    3.772967   2.943760   2.211745   1.092736   2.225157
    13  H    5.646863   4.582604   3.399961   2.221233   1.092560
    14  H    5.412001   4.269504   2.867240   2.179353   1.097866
    15  H    6.730073   5.579734   4.326094   3.969780   2.597298
    16  H    3.554652   2.624645   2.196394   3.000820   3.186419
    17  H    4.113941   3.067469   2.219441   3.366764   3.258501
                    6          7          8          9         10
     6  C    0.000000
     7  N    1.268376   0.000000
     8  C    1.524424   2.448677   0.000000
     9  H    5.943590   7.039858   4.706344   0.000000
    10  H    2.949048   4.120175   2.170568   4.074972   0.000000
    11  H    2.864466   3.950634   2.858344   4.337131   3.044922
    12  H    3.395140   4.604042   3.418202   4.592977   2.434248
    13  H    2.184245   2.802028   3.362327   6.617190   3.872410
    14  H    2.148733   2.999172   3.037156   6.409319   2.820603
    15  H    1.886198   1.023703   3.316227   7.776017   4.729481
    16  H    2.156561   2.789914   1.092476   4.532625   3.033742
    17  H    2.170963   2.776142   1.092271   5.113803   2.382959
                   11         12         13         14         15
    11  H    0.000000
    12  H    1.762953   0.000000
    13  H    2.457834   2.756758   0.000000
    14  H    3.063587   2.461975   1.765707   0.000000
    15  H    4.251239   4.811726   2.517394   2.958852   0.000000
    16  H    3.015002   4.026514   3.869469   3.947565   3.698939
    17  H    3.904343   4.207328   4.202257   3.540562   3.712420
                   16         17
    16  H    0.000000
    17  H    1.756322   0.000000
 Stoichiometry    C7H9N
 Framework group  C1[X(C7H9N)]
 Deg. of freedom    45
 Full point group                 C1      NOp   1
 Largest Abelian subgroup         C1      NOp   1
 Largest concise Abelian subgroup C1      NOp   1
                         Standard orientation:                         
 ---------------------------------------------------------------------
 Center     Atomic      Atomic             Coordinates (Angstroms)
 Number     Number       Type             X           Y           Z
 ---------------------------------------------------------------------
      1          6           0        3.299892   -0.363815   -0.295592
      2          6           0        2.137248   -0.271097   -0.000407
      3          6           0        0.798912    0.049661    0.473265
      4          6           0        0.203368    1.333665   -0.162169
      5          6           0       -1.315653    1.186574    0.066074
      6          6           0       -1.580136   -0.314800   -0.023894
      7          7           0       -2.667274   -0.923478   -0.261419
      8          6           0       -0.262063   -1.053251    0.179193
      9          1           0        4.346426   -0.354799   -0.471706
     10          1           0        0.855939    0.196290    1.557628
     11          1           0        0.425192    1.334697   -1.233435
     12          1           0        0.631835    2.244957    0.262134
     13          1           0       -1.924377    1.751016   -0.644240
     14          1           0       -1.580570    1.532384    1.073816
     15          1           0       -3.428528   -0.252074   -0.394369
     16          1           0       -0.002508   -1.606431   -0.726415
     17          1           0       -0.341905   -1.783318    0.987700
 ---------------------------------------------------------------------
 Rotational constants (GHZ):           5.1363850           1.2749015           1.0778980
 Standard basis: 6-31G(2df,p) (6D, 7F)
 There are   293 symmetry adapted cartesian basis functions of A   symmetry.
 There are   269 symmetry adapted basis functions of A   symmetry.
   269 basis functions,   415 primitive gaussians,   293 cartesian basis functions
    29 alpha electrons       29 beta electrons
       nuclear repulsion energy       336.2445395312 Hartrees.
 NAtoms=   17 NActive=   17 NUniq=   17 SFac= 1.00D+00 NAtFMM=   60 NAOKFM=F Big=F
 Integral buffers will be    131072 words long.
 Raffenetti 2 integral format.
 Two-electron integral symmetry is turned on.
 One-electron integrals computed using PRISM.
 PrsmSu:  requested number of processors reduced to:  13 ShMem   1 Linda.
 NBasis=   269 RedAO= T EigKep=  1.64D-04  NBF=   269
 NBsUse=   269 1.00D-06 EigRej= -1.00D+00 NBFU=   269
 Initial guess from the checkpoint file:  "CtCC1CCCpdNpC1.chk"
 B after Tr=     0.000000   -0.000000   -0.000000
         Rot=    0.999789   -0.019333   -0.000069    0.006979 Ang=  -2.36 deg.
 ExpMin= 1.61D-01 ExpMax= 4.17D+03 ExpMxC= 6.27D+02 IAcc=2 IRadAn=         4 AccDes= 0.00D+00
 Harris functional with IExCor=  402 and IRadAn=       4 diagonalized for initial guess.
 HarFok:  IExCor=  402 AccDes= 0.00D+00 IRadAn=         4 IDoV= 1 UseB2=F ITyADJ=14
 ICtDFT=  3500011 ScaDFX=  1.000000  1.000000  1.000000  1.000000
 FoFCou: FMM=F IPFlag=           0 FMFlag=      100000 FMFlg1=           0
         NFxFlg=           0 DoJE=T BraDBF=F KetDBF=T FulRan=T
         wScrn=  0.000000 ICntrl=       500 IOpCl=  0 I1Cent=   200000004 NGrid=           0
         NMat0=    1 NMatS0=      1 NMatT0=    0 NMatD0=    1 NMtDS0=    0 NMtDT0=    0
 Petite list used in FoFCou.
 Requested convergence on RMS density matrix=1.00D-08 within 128 cycles.
 Requested convergence on MAX density matrix=1.00D-06.
 Requested convergence on             energy=1.00D-06.
 No special actions if energy rises.
 Integral accuracy reduced to 1.0D-05 until final iterations.
 Initial convergence to 1.0D-05 achieved.  Increase integral accuracy.
 SCF Done:  E(RB3LYP) =  -326.851541038     A.U. after   13 cycles
            NFock= 13  Conv=0.97D-08     -V/T= 2.0083
 PrsmSu:  requested number of processors reduced to:  13 ShMem   1 Linda.
 Calling FoFJK, ICntrl=      2127 FMM=F ISym2X=0 I1Cent= 0 IOpClX= 0 NMat=1 NMatS=1 NMatT=0.
 ***** Axes restored to original set *****
 -------------------------------------------------------------------
 Center     Atomic                   Forces (Hartrees/Bohr)
 Number     Number              X              Y              Z
 -------------------------------------------------------------------
      1        6           0.001679103    0.001219346   -0.001375888
      2        6          -0.000696205    0.009302999   -0.006924678
      3        6          -0.000211541   -0.009096457    0.004871811
      4        6           0.002798167   -0.001651291    0.002716931
      5        6          -0.003051454    0.000924548   -0.001157502
      6        6          -0.002566625    0.000105940    0.000796454
      7        7           0.000163454    0.001660839   -0.001364839
      8        6           0.001784813    0.002886915   -0.002340805
      9        1          -0.002103642   -0.003859657    0.003129286
     10        1           0.000870518    0.000066365   -0.000985778
     11        1          -0.000092762    0.000111956    0.000703068
     12        1           0.000421660   -0.000691329   -0.000138746
     13        1           0.000518993    0.000428279    0.000151989
     14        1           0.000636537   -0.000086406   -0.000146103
     15        1           0.000577010   -0.000500861    0.000427536
     16        1          -0.000141032   -0.000155677    0.001484967
     17        1          -0.000586995   -0.000665508    0.000152294
 -------------------------------------------------------------------
 Cartesian Forces:  Max     0.009302999 RMS     0.002592620

 GradGradGradGradGradGradGradGradGradGradGradGradGradGradGradGradGradGrad
 Berny optimization.
 Using GEDIIS/GDIIS optimizer.
 FormGI is forming the generalized inverse of G from B-inverse, IUseBI=4.
 Internal  Forces:  Max     0.017981824 RMS     0.002324438
 Search for a local minimum.
 Step number   3 out of a maximum of  100
 All quantities printed in internal units (Hartrees-Bohrs-Radians)
 Mixed Optimization -- RFO/linear search
 Update second derivatives using D2CorX and points    1    3    2
 DE=  4.63D-04 DEPred=-2.23D-03 R=-2.07D-01
 Trust test=-2.07D-01 RLast= 3.52D-01 DXMaxT set to 2.52D-01
 ITU= -1  1  0
 Use linear search instead of GDIIS.
     Eigenvalues ---    0.00373   0.00502   0.00538   0.00554   0.00665
     Eigenvalues ---    0.01054   0.01794   0.02534   0.03130   0.03290
     Eigenvalues ---    0.04649   0.05237   0.05266   0.05943   0.06160
     Eigenvalues ---    0.06329   0.06389   0.07014   0.08010   0.08471
     Eigenvalues ---    0.08573   0.09600   0.10608   0.14014   0.15988
     Eigenvalues ---    0.20687   0.21704   0.24821   0.27160   0.27658
     Eigenvalues ---    0.28284   0.29465   0.31377   0.32027   0.33871
     Eigenvalues ---    0.34081   0.34222   0.34272   0.34309   0.34418
     Eigenvalues ---    0.34547   0.37753   0.43502   0.67562   0.73530
 RFO step:  Lambda=-7.99177355D-03 EMin= 3.72839697D-03
 Quartic linear search produced a step of -0.55239.
 Maximum step size (   0.252) exceeded in Quadratic search.
    -- Step size scaled by   0.565
 Iteration  1 RMS(Cart)=  0.08367054 RMS(Int)=  0.01547664
 Iteration  2 RMS(Cart)=  0.05061297 RMS(Int)=  0.00203000
 Iteration  3 RMS(Cart)=  0.00300153 RMS(Int)=  0.00003419
 Iteration  4 RMS(Cart)=  0.00000494 RMS(Int)=  0.00003404
 Iteration  5 RMS(Cart)=  0.00000000 RMS(Int)=  0.00003404
 Variable       Old X    -DE/DX   Delta X   Delta X   Delta X     New X
                                 (Linear)    (Quad)   (Total)
    R1        2.27355  -0.00012  -0.01942   0.06902   0.04959   2.32314
    R2        2.00554   0.00059   0.00261  -0.00660  -0.00400   2.00155
    R3        2.75044   0.00114   0.01994  -0.04817  -0.02822   2.72221
    R4        2.93189   0.00125  -0.00727   0.02038   0.01312   2.94501
    R5        2.94492  -0.00178   0.00045  -0.00473  -0.00428   2.94063
    R6        2.07061   0.00122  -0.00118   0.00435   0.00318   2.07378
    R7        2.91603  -0.00350   0.00135  -0.00989  -0.00855   2.90748
    R8        2.06735   0.00065   0.00053  -0.00051   0.00002   2.06737
    R9        2.06497  -0.00056   0.00150  -0.00447  -0.00297   2.06200
   R10        2.88588  -0.00131  -0.00680   0.01392   0.00712   2.89300
   R11        2.06464   0.00051  -0.00126   0.00395   0.00270   2.06733
   R12        2.07467   0.00048  -0.00091   0.00252   0.00161   2.07627
   R13        2.39688  -0.00071   0.00621  -0.01557  -0.00935   2.38753
   R14        2.88074  -0.00077  -0.00773   0.01868   0.01095   2.89170
   R15        1.93452   0.00036  -0.00084   0.00283   0.00199   1.93651
   R16        2.06448   0.00114  -0.00026   0.00191   0.00165   2.06613
   R17        2.06409   0.00026  -0.00008   0.00056   0.00048   2.06457
    A1        1.98456  -0.00041  -0.01407   0.03053   0.01644   2.00100
    A2        1.99177   0.00175  -0.01828   0.04401   0.02572   2.01749
    A3        1.87938  -0.00052   0.00626  -0.01535  -0.00910   1.87028
    A4        1.82047  -0.00123   0.00235  -0.00517  -0.00284   1.81764
    A5        1.89078   0.00031   0.01389  -0.03197  -0.01808   1.87270
    A6        1.89324   0.00008   0.01148  -0.02763  -0.01610   1.87715
    A7        1.81151   0.00106   0.00113   0.00301   0.00409   1.81560
    A8        1.90076   0.00001   0.00930  -0.02139  -0.01207   1.88869
    A9        1.96128  -0.00053   0.00008  -0.00251  -0.00243   1.95885
   A10        1.92254   0.00020  -0.00240   0.00668   0.00436   1.92690
   A11        1.99111  -0.00105  -0.00453   0.00515   0.00062   1.99173
   A12        1.87542   0.00034  -0.00288   0.00746   0.00457   1.87999
   A13        1.82915  -0.00072  -0.00988   0.02021   0.01035   1.83950
   A14        1.98565   0.00027  -0.00761   0.01880   0.01125   1.99690
   A15        1.92120   0.00046   0.00562  -0.01157  -0.00599   1.91522
   A16        1.95316   0.00039  -0.00372   0.00952   0.00578   1.95894
   A17        1.89859  -0.00004  -0.00105   0.00187   0.00081   1.89940
   A18        1.87507  -0.00034   0.01590  -0.03803  -0.02212   1.85295
   A19        2.25398  -0.00090  -0.00916   0.01982   0.01068   2.26466
   A20        1.89510   0.00069   0.01037  -0.02248  -0.01206   1.88303
   A21        2.13362   0.00022  -0.00097   0.00241   0.00146   2.13508
   A22        1.92512   0.00155  -0.00283   0.01206   0.00923   1.93435
   A23        1.84519  -0.00003  -0.00727   0.01893   0.01168   1.85687
   A24        1.93161   0.00052   0.01079  -0.02558  -0.01484   1.91677
   A25        1.96398  -0.00013  -0.00281   0.00609   0.00329   1.96726
   A26        1.91800  -0.00069  -0.00689   0.01625   0.00935   1.92736
   A27        1.93819   0.00044  -0.00864   0.01853   0.00989   1.94809
   A28        1.86765  -0.00012   0.01391  -0.03305  -0.01913   1.84852
   A29        3.25969  -0.01076  -0.07768  -0.08751  -0.16519   3.09449
   A30        3.31102  -0.01798  -0.11405  -0.18628  -0.30034   3.01068
   A31        3.16057  -0.00004  -0.01394   0.01920   0.00526   3.16583
   A32        3.17050  -0.00055  -0.00329  -0.01308  -0.01637   3.15413
    D1        2.79538   0.00156  -0.02656   0.05039   0.02384   2.81922
    D2        0.74765   0.00078  -0.02865   0.05086   0.02222   0.76987
    D3       -1.32816   0.00067  -0.03130   0.05723   0.02591  -1.30225
    D4        0.61496   0.00049   0.00270  -0.02000  -0.01727   0.59769
    D5       -1.43277  -0.00029   0.00060  -0.01953  -0.01889  -1.45166
    D6        2.77460  -0.00040  -0.00205  -0.01316  -0.01520   2.75940
    D7       -1.39924   0.00086  -0.01813   0.02812   0.01001  -1.38923
    D8        2.83621   0.00008  -0.02023   0.02859   0.00840   2.84461
    D9        0.76041  -0.00003  -0.02288   0.03496   0.01208   0.77249
   D10       -2.58885   0.00050   0.03373  -0.05535  -0.02160  -2.61045
   D11       -0.51278  -0.00007   0.02685  -0.03842  -0.01158  -0.52436
   D12        1.57583   0.00006   0.05048  -0.09413  -0.04367   1.53217
   D13       -0.41302   0.00018   0.00716   0.00663   0.01385  -0.39918
   D14        1.66305  -0.00039   0.00028   0.02357   0.02386   1.68691
   D15       -2.53153  -0.00026   0.02391  -0.03214  -0.00822  -2.53974
   D16        1.59944  -0.00003   0.02967  -0.04458  -0.01488   1.58456
   D17       -2.60767  -0.00060   0.02279  -0.02765  -0.00486  -2.61254
   D18       -0.51906  -0.00047   0.04642  -0.08336  -0.03695  -0.55600
   D19       -0.58283  -0.00031  -0.00734   0.01810   0.01073  -0.57210
   D20       -2.72177  -0.00045   0.00812  -0.01889  -0.01081  -2.73258
   D21        1.45601  -0.00052  -0.01129   0.02570   0.01439   1.47039
   D22        1.44967   0.00036   0.00294  -0.00204   0.00090   1.45057
   D23       -0.68927   0.00022   0.01840  -0.03903  -0.02063  -0.70990
   D24       -2.79468   0.00015  -0.00100   0.00556   0.00456  -2.79012
   D25       -2.72289   0.00022  -0.00561   0.01617   0.01055  -2.71234
   D26        1.42135   0.00009   0.00985  -0.02082  -0.01098   1.41037
   D27       -0.68406   0.00001  -0.00956   0.02376   0.01421  -0.66984
[...]
   yx        -0.152895D+02     -0.226567D+01     -0.252089D+01
   yy         0.575117D+02      0.852235D+01      0.948239D+01
   zx        -0.599337D+01     -0.888126D+00     -0.988173D+00
   zy         0.164684D+01      0.244037D+00      0.271528D+00
   zz         0.668479D+02      0.990583D+01      0.110217D+02

 ----------------------------------------------------------------------
 1\1\GINC-LEWIS4-R630-HPC4-NODE537\Freq\RB3LYP\6-31G(2df,p)\C7H9N1\KS29
 C\03-Jul-2022\0\\#N Geom=AllCheck Guess=TCheck SCRF=Check GenChk RB3LY
 P/6-31G(2df,p) Freq\\Title Card Required\\0,1\C,1.0703655467,0.0907240
 301,-0.1595602833\C,2.2651971239,0.0647356219,-0.0283771792\C,3.707745
 4443,0.0366709087,0.1519771568\C,4.267829661,1.2070504064,1.006663703\
 C,5.6838024907,0.7388753485,1.3787105\C,5.5990460946,-0.7884905227,1.4
 287511398\N,6.4700479326,-1.6202597582,1.8238394756\C,4.2430419441,-1.
 2146916921,0.8899878996\H,0.0159202835,0.111428641,-0.2823294182\H,4.1
 860019989,0.0815032511,-0.8364774422\H,3.6501459896,1.3167270801,1.904
 1538302\H,4.245059421,2.1588572292,0.471743301\H,6.0507382813,1.154961
 4191,2.321385507\H,6.4051208522,1.022894078,0.6014030803\H,7.306635565
 3,-1.1368909278,2.1635147028\H,3.5815252175,-1.4506826805,1.7328094858
 \H,4.3081961529,-2.1083424328,0.2673745408\\Version=ES64L-G16RevA.03\S
 tate=1-A\HF=-326.8545567\RMSD=2.395e-09\RMSF=6.635e-06\ZeroPoint=0.142
 5547\Thermal=0.1502631\Dipole=0.0089387,0.8495137,-0.0611821\DipoleDer
 iv=-0.5227858,0.0138618,-0.0945121,0.0136608,-0.2473815,0.0047543,-0.0
 225613,0.0017043,-0.2566814,0.2344816,-0.0148932,0.0487198,-0.0141805,
 -0.1181849,-0.0039917,0.0035027,-0.002885,-0.0995419,0.218701,0.004843
 1,-0.0205223,-0.0467251,0.12315,-0.0255499,-0.0270428,-0.0024017,0.151
 1529,0.0657528,-0.0374868,-0.0099634,0.1102539,0.1089371,-0.023643,0.0
 22846,-0.008856,0.1371115,0.0701551,-0.0788035,-0.0311638,-0.024167,-0
 .2219066,0.0365945,-0.095923,0.0192818,0.1659838,0.688648,-0.0655012,0
 .2528646,-0.0734895,0.6274334,-0.0771729,0.2498133,-0.0645332,0.136219
 8,-0.5995986,0.232743,-0.0730851,0.4353166,-0.6147491,0.1912994,-0.104
 3669,0.1136234,-0.4703832,-0.223002,-0.0197717,-0.1166117,-0.2279656,0
 .051241,-0.028504,-0.0279937,-0.0345928,0.1255964,0.2277742,-0.0016697
 ,0.0108313,-0.0019551,0.2014337,-0.000487,0.0006971,0.0000482,0.201044
 6,-0.0844036,0.0012433,0.0498671,0.0018087,0.015533,0.0088377,0.036661
 3,0.0068264,-0.0880529,-0.0405426,0.0261303,0.0653872,0.0005287,0.0383
 357,0.0053818,0.0595736,-0.0338144,-0.071954,0.0197708,0.0099217,-0.01
 72873,0.0109991,-0.122461,0.0502136,-0.0244566,0.0832268,0.0086755,-0.
 0404399,-0.001444,-0.0727756,0.010622,0.006974,-0.0189442,-0.088617,-0
 .0620292,-0.0602315,-0.0557618,-0.0006835,0.0462769,0.0255736,-0.00397
 5,0.0220583,0.0842795,0.0388575,-0.0251553,0.0332432,-0.076214,-0.0712
 779,-0.2431034,0.1663223,-0.101902,-0.0545916,-0.0409808,0.1834616,-0.
 0274014,-0.0158636,0.04368,-0.0022056,0.0569409,0.0010429,0.0265861,0.
 0410657,-0.0432376,0.035409,0.0235878,-0.0104278,0.0250283,-0.067643,-
 0.0399879,-0.0384068,-0.0545409,0.0059918\Polar=103.2019023,-5.3166397
 ,66.6789634,15.1764533,-2.4187434,57.471697\Quadrupole=2.7970707,-3.18
 018,0.3831093,3.9542148,-0.2222765,1.7165907\PG=C01 [X(C7H9N1)]\NImag=
 0\\1.52187081,-0.03108099,0.04120555,0.16702985,-0.00332508,0.05750035
 ,-1.09613626,0.02282234,-0.11909188,1.42392413,0.02285148,-0.02863810,
 0.00223020,-0.02779095,0.09484596,-0.12058054,0.00228245,-0.03907323,0
 .15277475,-0.00321820,0.11022402,-0.00322535,0.00005622,-0.00040605,-0
 .27213686,0.00417566,-0.02036564,0.55939041,0.00006056,0.00522888,0.00
 017162,0.00475649,-0.06491700,0.00098741,-0.00505701,0.37727488,0.0000
 2134,0.00022774,0.00383298,-0.02191352,0.00046760,-0.06742089,-0.02592
 177,-0.01127559,0.52694271,0.00082126,0.00049937,0.00038045,-0.0218687
 3,-0.02607176,-0.01934878,-0.07343830,-0.02060270,-0.00920630,0.457008
 32,0.00532650,-0.00059936,-0.00025536,-0.00912616,0.00300891,0.0008808
 8,-0.01378765,-0.11330210,-0.03203271,-0.03728983,0.55666162,0.0037361
 7,-0.00076805,0.00034583,-0.00997726,-0.00083358,-0.00399470,-0.006092
 24,-0.03469652,-0.09925344,-0.07493344,-0.06702996,0.53371590,0.000335
 39,0.00014640,-0.00006753,-0.00093895,-0.00134874,-0.00154367,-0.02313
 548,-0.00667728,-0.01114457,-0.16173117,0.02689128,-0.01755157,0.50804
 286,-0.00101761,0.00027787,-0.00007987,-0.00112060,-0.00359041,-0.0022
 1512,-0.01757876,0.00330305,-0.00412165,0.02764543,-0.08272514,0.00798
 339,0.05772947,0.42814307,-0.00097139,0.00040456,0.00015946,-0.0009489
 8,-0.00373956,-0.00184771,-0.02554391,-0.00169996,-0.00731317,-0.01748
 960,0.00461752,-0.08356616,0.00810221,0.03609108,0.56632072,0.00150199
 ,-0.00029665,0.00011119,-0.00221290,-0.00022857,-0.00197635,-0.0182875
 4,0.01406625,-0.00947777,-0.00454008,0.03243507,-0.00637124,-0.0839762
 3,-0.01818304,-0.00034748,0.67646071,0.00108085,0.00014441,0.00010161,
 0.00059817,-0.00612350,0.00191474,0.02282413,0.00157501,0.00813501,0.0
 1922607,-0.01787585,0.01022717,-0.01237993,-0.15429499,-0.00092835,-0.
 20181040,0.63027431,0.00009349,-0.00035877,0.00025498,-0.00083821,0.00
 161703,-0.00146340,-0.02085982,0.00420696,-0.00796592,-0.00403756,0.00
 655974,-0.00201895,0.00025509,-0.00552548,-0.08236076,0.20394885,-0.10
 358083,0.29679405,-0.00122939,0.00008054,-0.00010862,0.00079010,0.0018
 6058,-0.00105061,-0.00478472,-0.00374736,-0.00086706,0.00067910,-0.001
 81692,-0.00041559,0.00792344,0.00795054,-0.00980066,-0.35856926,0.2646
 0449,-0.13760926,0.65824790,0.00047329,0.00001428,0.00004161,-0.000609
 29,0.00095767,0.00001283,-0.00245648,0.00014532,-0.00146020,-0.0046611
 8,-0.00804790,-0.00003076,0.02938688,-0.02898188,0.01498459,0.20615376
 ,-0.32552197,0.09564522,-0.11888248,0.46943547,-0.00071505,0.00001157,
 -0.00001947,0.00033010,0.00110618,-0.00030351,-0.00285059,-0.00185194,
 -0.00024869,0.00129977,0.00142807,0.00169868,-0.01240818,0.00712152,0.
 02319139,-0.13616802,0.11922562,-0.11819370,0.25577032,-0.06474294,0.1
 7419948,0.00035677,-0.00036078,0.00016111,-0.01926684,0.02826516,-0.01
 589005,-0.07538194,0.02106059,-0.00914272,0.00323561,-0.00084723,0.002
 43615,-0.00436584,-0.00942809,-0.00978598,-0.14632805,-0.03814519,-0.0
 2719141,-0.03648166,0.00407544,-0.01106837,0.45596744,-0.00554963,-0.0
 0024056,0.00021680,0.00994755,0.00216005,-0.00050091,0.01541645,-0.126
 56806,0.03208680,-0.00124213,-0.04083204,0.00690068,-0.02225695,-0.017
 91295,-0.00660731,-0.03110440,-0.09449234,-0.01344307,0.02120544,0.012
 19999,0.00909144,0.02377346,0.55787541,0.00283018,0.00059662,0.0004335
 2,-0.00866585,0.00291429,-0.00325998,-0.00851005,0.03369585,-0.0962891
 5,0.00264594,-0.01148759,0.00859082,-0.00755873,-0.00426738,0.01115519
 ,-0.02873427,-0.01752859,-0.08802761,-0.01105835,0.00059582,-0.0104743
 7,-0.05632639,0.06224067,0.51351234,-0.42130719,0.00799857,-0.04683368
 ,0.00632175,-0.00018927,0.00094903,0.00090473,0.00013760,-0.00064330,-
 0.00003377,-0.00021851,-0.00013078,-0.00001534,0.00005158,0.00001991,-
 0.00021793,-0.00002562,-0.00008917,0.00015508,-0.00010787,0.00007649,0
 .00002477,0.00023995,-0.00007795,0.41384549,0.00782107,-0.01860480,0.0
 0088083,-0.00001595,-0.00041036,0.00009098,0.00011680,0.00598897,-0.00
 005484,0.00099766,-0.00016615,-0.00002363,-0.00002575,0.00016950,0.000
 15057,0.00017677,0.00045054,0.00001362,-0.00015086,-0.00009854,-0.0000
 8221,-0.00110534,-0.00020703,-0.00010196,-0.00791230,0.01293416,-0.047
 18989,0.00088409,-0.02342532,0.00141449,0.00010098,-0.00127203,-0.0009
 5234,-0.00007545,0.00648533,0.00060413,-0.00017036,0.00014829,0.000054
 06,0.00013549,0.00010188,0.00005369,-0.00013386,0.00007299,0.00009341,
 -0.00001710,0.00001057,0.00050237,0.00017062,0.00013834,0.04662594,-0.
 00091832,0.01815426,-0.00115554,0.00008588,-0.00117360,-0.02422881,-0.
 00107107,0.02960928,-0.09435009,-0.00457292,0.09737856,0.00480864,0.00
 025893,-0.00914062,0.00078438,0.00011589,-0.00001278,0.00069700,-0.000
 19573,0.00025912,0.00000057,0.00009476,0.00008449,0.00509569,0.0009611
 6,-0.00895938,0.00029361,0.00006234,-0.00137657,0.10752354,0.00012834,
 0.00052476,0.00004531,0.00006190,-0.00001699,-0.00057185,-0.00426883,-
 0.04199285,0.00904992,0.01060177,-0.00259934,-0.02619698,0.00078470,0.
 00044606,0.00083517,-0.00128146,-0.00014311,-0.00016784,0.00055881,0.0
 0001958,-0.00029389,-0.01083410,-0.00509371,0.02683554,-0.00000550,0.0
 0006543,0.00003136,0.00444663,0.05327022,-0.00213914,0.00006964,-0.000
 35674,0.00190264,-0.00036545,0.00611736,0.09471261,0.00948837,-0.24595
 074,0.00744005,-0.00143912,-0.01730813,0.00041499,0.00022998,0.0003647
 3,0.00075726,0.00037026,-0.00005547,-0.00051631,0.00012018,0.00007477,
 0.00585100,0.00228422,-0.01392832,0.00009976,0.00002055,-0.00028572,-0
 .10406086,-0.00989496,0.26983975,-0.00010681,0.00008210,0.00019496,0.0
 0185213,0.00033557,-0.00080886,0.00611650,-0.00234862,-0.01248897,-0.1
 2730083,0.01426645,0.12170522,-0.01909759,0.00220258,0.02388439,-0.000
 95675,-0.00132990,0.00017563,0.00018940,0.00082016,-0.00026047,-0.0001
 3102,0.00078542,0.00017627,-0.00002830,-0.00002796,0.00002901,-0.00035
 202,-0.00262549,-0.00186660,0.14224497,-0.00043571,0.00003764,0.000268
 45,0.00166577,0.00105666,0.00047056,0.01240636,-0.00346488,-0.02146091
 ,0.01369822,-0.05256662,-0.01631539,0.00415800,-0.00069958,-0.00696542
 ,0.00008090,0.00021842,-0.00007201,-0.00000832,-0.00008582,0.00018600,
 0.00020605,0.00135358,-0.00043370,-0.00002209,-0.00003453,-0.00002671,
 -0.00134824,-0.00340019,-0.00255657,-0.01464286,0.05377998,-0.00087619
 ,0.00027872,0.00032319,0.00167633,0.00051591,0.00080905,0.00897924,-0.
 00272169,-0.01836227,0.12106598,-0.01713096,-0.22295279,-0.00688141,0.
 00123977,0.00817479,-0.00003870,-0.00050298,0.00010412,0.00009201,0.00
 004429,-0.00002823,-0.00005667,0.00075340,0.00043541,-0.00000886,-0.00
 003599,-0.00006280,-0.00184942,-0.00347030,-0.00086850,-0.12903234,0.0
 2274127,0.24262836,-0.00037803,0.00032454,-0.00013524,0.00109019,-0.00
 020339,0.00049428,-0.00063470,-0.01023179,0.00722585,-0.04733360,0.001
 83555,-0.00053204,0.00092092,0.02682131,-0.01318012,-0.00629651,-0.000
 40691,-0.00220260,0.00022193,0.00302297,-0.00023357,-0.00077199,-0.001
 46908,-0.00218149,-0.00000263,-0.00000314,-0.00001190,0.00046959,0.000
 85487,0.00002658,0.00032642,-0.01578197,0.00884047,0.05007822,-0.00077
 952,0.00031204,-0.00013586,0.00129292,-0.00001222,0.00007854,0.0002680
 3,-0.01847573,0.01111069,0.00321700,-0.24627963,0.11623003,-0.00106096
 ,-0.00383259,0.00209635,0.00060091,-0.00067648,0.00009842,0.00021366,-
 0.00030668,0.00016392,-0.00108246,-0.00266726,-0.00337423,0.00001746,-
 0.00000784,0.00001937,0.00052591,0.00123911,0.00008210,-0.00002249,0.0
 0339097,-0.00173766,-0.00393782,0.26776030,-0.00026916,0.00014493,-0.0
 0006226,0.00113808,-0.00001570,0.00043982,0.00002114,-0.01796862,0.009
 01527,-0.00097647,0.11931939,-0.11574993,0.00105159,0.00533465,-0.0032
 7723,-0.00161822,-0.00218402,-0.00024196,0.00030254,0.00080240,-0.0000
 2503,-0.00112200,-0.00282396,-0.00186070,-0.00000616,0.00001453,-0.000
 00674,0.00036150,0.00067838,0.00135287,-0.00038558,0.02353720,-0.01306
 454,0.00143591,-0.12516652,0.12157320,-0.00060643,0.00007107,0.0000185
 2,0.00000132,-0.00136322,-0.00089798,-0.00505501,0.00143915,-0.0008445
 8,-0.00767727,-0.01241443,-0.02344575,-0.07133594,-0.02929963,-0.07430
 344,-0.00232097,-0.00237026,-0.00025647,0.00031991,0.00135284,0.000132
 06,-0.00071057,0.00007335,-0.00056438,0.00005021,0.00008596,0.00005435
 ,0.00014388,0.00006357,-0.00020117,0.00163879,-0.00049472,0.00051220,-
 0.00066428,0.00040535,-0.00037044,0.07923713,0.00016477,0.00001017,0.0
 0000774,0.00020224,0.00069089,0.00014304,0.00212493,-0.00194726,0.0005
 7441,0.00336225,0.00536022,0.01132229,-0.03002256,-0.08188628,-0.08906
 571,-0.00963837,-0.01261545,-0.02856890,-0.00259637,0.00226885,0.00396
 767,-0.00111507,-0.00322648,0.00085781,-0.00000594,-0.00004649,-0.0000
 1296,-0.00002784,-0.00008385,-0.00011335,-0.00089558,0.00064564,-0.000
 39951,0.00013827,-0.00034273,0.00026709,0.03476259,0.08795073,-0.00009
 875,-0.00004442,-0.00001511,-0.00013302,-0.00031445,0.00004120,-0.0004
 1872,0.00117642,0.00069729,0.00026476,-0.00187901,-0.00399891,-0.07628
 512,-0.08766442,-0.24526076,0.00057784,0.00285384,0.00337107,0.0007163
 7,-0.00023826,0.00100254,0.00081477,0.00057642,-0.00041083,0.00002810,
 0.00002102,-0.00000990,0.00017704,0.00021662,0.00028949,0.00009713,0.0
 0014925,0.00140062,-0.00053495,0.00000604,-0.00022636,0.08179976,0.094
 82627,0.26384263,0.00002742,-0.00004233,-0.00007225,0.00010144,-0.0000
 1445,-0.00051405,0.00026363,0.00028984,0.00090299,-0.02052737,-0.00568
 528,0.02234792,-0.15098308,-0.04299669,0.11804105,-0.00084023,-0.00131
 184,-0.00050069,0.00037122,0.00117161,-0.00009550,0.00010592,-0.000563
 31,-0.00065944,0.00002089,0.00000546,0.00004828,-0.00005841,-0.0003987
 1,-0.00070324,-0.00473106,0.00100941,-0.00235343,0.00200237,0.00005824
 ,0.00003552,0.00699914,0.00281443,-0.00734646,0.16760804,0.00000767,0.
 00003154,0.00003371,-0.00001316,0.00004647,-0.00004492,-0.00046290,-0.
 00013416,0.00015644,0.00999276,0.00211293,-0.00973173,-0.04685712,-0.0
 5958445,0.05159846,-0.02099432,-0.01192531,0.02596394,0.00144318,0.000
 08578,-0.00625432,0.00137936,-0.00267537,-0.00241517,-0.00001469,-0.00
 001005,0.00000721,-0.00020782,0.00019424,-0.00015422,0.00323484,0.0001
 3523,0.00094298,-0.00061090,0.00059842,-0.00071686,0.00802503,0.003627
 80,-0.00911957,0.04570256,0.06694597,0.00006573,-0.00002162,-0.0000046
 7,-0.00000450,0.00014537,-0.00002000,-0.00007577,0.00017615,0.00029395
 ,-0.00579009,-0.00278030,0.00593217,0.11793231,0.04613488,-0.17589168,
 -0.00013739,0.00076123,-0.00065009,-0.00032715,0.00044975,0.00160130,0
 .00014920,0.00008596,-0.00102086,-0.00000053,-0.00000965,-0.00000179,0
 .00003710,0.00007744,-0.00005615,-0.00158430,0.00004702,0.00079005,0.0
 0041561,-0.00031972,0.00109242,0.01864350,0.00788320,-0.02066674,-0.12
 940218,-0.05296280,0.18906240,-0.00016034,0.00000650,0.00000445,-0.000
 07471,0.00079544,-0.00016030,-0.00171212,-0.00148809,-0.00030979,-0.00
 021760,-0.00061038,0.00020315,0.00156271,-0.00075305,0.00504630,-0.034
 78193,-0.02077885,-0.01461074,-0.26968360,-0.11898342,-0.09543334,0.00
 265928,0.00616712,-0.00713281,0.00001642,-0.00005380,0.00000822,-0.000
 01243,0.00002222,-0.00005276,0.00012107,0.00001562,0.00004002,0.000326
 85,-0.00001526,0.00012159,0.00019299,0.00203470,0.00017636,-0.00024579
 ,-0.00019145,0.00006524,0.30099479,-0.00016405,0.00001203,-0.00003508,
 0.00015595,-0.00010279,0.00011358,0.00014268,0.00003212,0.00044319,0.0
 0030345,0.00000224,-0.00009197,0.00135176,0.00253580,0.00054290,0.0363
 5790,-0.00018307,0.01521961,-0.17338975,-0.12300298,-0.07057109,0.0007
 1531,-0.00006915,0.00007530,0.00004370,0.00000718,0.00000072,-0.000018
 32,-0.00000062,-0.00003018,-0.00012219,0.00002559,0.00000264,-0.000156
 86,0.00006798,-0.00005233,0.00010810,0.00023035,-0.00058029,-0.0000464
 9,0.00037399,0.00024581,0.13411662,0.12006123,0.00013850,0.00004105,-0
 .00005501,-0.00010191,-0.00011229,-0.00004825,0.00049870,0.00061410,0.
 00069243,-0.00056899,-0.00095998,-0.00048359,0.00637663,-0.00072202,-0
 .00840093,-0.01655712,-0.00892604,-0.00503983,-0.09389005,-0.04703922,
 -0.07396292,-0.00600993,0.00135950,0.01408989,-0.00000120,0.00000640,0
 .00001108,-0.00001852,0.00014699,-0.00008428,0.00008151,-0.00004640,-0
 .00000978,0.00027317,-0.00002682,0.00016389,-0.00038503,-0.00121102,-0
 .00017738,0.00020041,0.00261515,-0.00042852,0.11132341,0.05407306,0.07
 438870,-0.00013513,-0.00011116,0.00016834,0.00186923,-0.00034609,-0.00
 098321,0.00703817,0.00417448,-0.01151402,-0.00022103,-0.00054288,0.000
 22770,-0.00052485,-0.00034203,-0.00239342,-0.02115744,-0.00498402,0.02
 129519,-0.00010917,-0.00115113,0.00045828,-0.13868437,-0.03351974,0.12
 598218,-0.00003165,0.00003730,0.00004040,-0.00019581,0.00288095,-0.001
 61364,0.00018965,-0.00023703,0.00008211,0.00002955,-0.00012969,-0.0000
 2580,-0.00009890,-0.00062169,0.00014325,0.00003014,0.00040541,0.000096
 91,0.00112862,0.00010162,-0.00296184,0.15172289,0.00044246,0.00008599,
 -0.00030640,-0.00176522,0.00133322,-0.00043992,-0.01423387,-0.00707749
 ,0.02149205,-0.00018207,0.00111685,0.00060610,0.00010512,-0.00046104,-
 0.00190669,-0.00516666,-0.00234011,0.00553044,0.00067192,0.00034022,0.
 00126670,-0.03299899,-0.05536221,0.04013046,0.00003182,-0.00005256,0.0
 0003148,0.00145075,-0.00373247,0.00201363,0.00017782,-0.00045105,-0.00
 044764,0.00030105,0.00008099,-0.00032708,-0.00018788,-0.00035782,0.000
 06178,0.00018140,0.00030405,0.00010417,0.00012047,-0.00008062,-0.00051
 677,0.03504015,0.06062166,-0.00071506,-0.00029055,0.00023002,0.0014311
 7,-0.00066881,0.00071254,0.00864988,0.00461073,-0.01547241,-0.00010231
 ,-0.00081690,0.00032153,0.00048675,-0.00006384,-0.00156347,-0.00770678
 ,-0.00231590,0.01102213,-0.00120035,0.00009588,0.00076824,0.11850282,0
 .03832139,-0.19412649,-0.00000918,0.00005350,-0.00005555,-0.00160795,0
 .00342633,-0.00046661,0.00013803,0.00020433,0.00047961,-0.00006678,0.0
 0004836,0.00021064,0.00005818,-0.00034454,0.00010328,0.00004187,0.0003
 4293,-0.00000218,0.00077099,0.00017655,-0.00124047,-0.13046219,-0.0469
 7068,0.21353419,-0.00047317,-0.00028160,-0.00018002,0.00091377,0.00034
 361,0.00029270,-0.00157131,0.00874081,0.00794564,-0.00166317,0.0013254
 8,-0.00206580,-0.00346524,-0.00179730,-0.00031612,0.00182612,-0.024595
 05,-0.01783144,0.00195914,0.00030014,0.00108158,-0.04532319,0.01713534
 ,0.00879452,0.00000386,-0.00000824,0.00000233,0.00053623,-0.00098968,-
 0.00005117,0.00002546,-0.00026939,-0.00019134,0.00061569,0.00042871,0.
 00030595,-0.00011401,-0.00068076,0.00002163,-0.00014426,-0.00083846,-0
 .00008370,-0.00011420,0.00050059,0.00160227,-0.00084990,0.01601175,0.0
 1179092,0.04783817,0.00067051,0.00019767,0.00013975,-0.00106201,-0.000
 28844,0.00001589,0.00031425,-0.01566870,-0.01333795,0.00050569,-0.0032
 6865,0.00244890,0.00007570,-0.00090604,-0.00040819,-0.00116770,-0.0064
 7052,-0.00313808,0.00200290,0.00057861,0.00022769,0.01644189,-0.224241
 87,-0.12833375,-0.00001890,0.00002258,-0.00002657,-0.00056030,0.001303
 74,-0.00012509,0.00011015,0.00005898,-0.00007224,-0.00049669,-0.000848
 65,-0.00084346,-0.00025686,-0.00027828,-0.00004722,-0.00017384,-0.0001
 2706,-0.00001689,-0.00040439,0.00009072,0.00070429,-0.00065445,0.00603
 241,0.00419121,-0.01532595,0.24381350,-0.00036010,-0.00013289,-0.00006
 852,0.00100757,0.00017049,0.00035970,-0.00086467,0.01516216,0.01031672
 ,-0.00124757,0.00317665,-0.00142663,-0.00123286,0.00038902,0.00001370,
 0.00368450,-0.00748891,-0.00560166,-0.00013064,0.00073592,0.00070894,0
 .00817608,-0.13071267,-0.13895720,0.00000159,-0.00002541,-0.00000292,0
 .00029261,-0.00074721,0.00132169,-0.00005505,0.00027301,0.00020370,0.0
 0036681,0.00082698,0.00066665,0.00005069,-0.00013353,0.00001787,0.0000
 2920,-0.00026124,-0.00002962,-0.00005999,0.00046756,0.00058499,0.00145
 976,-0.02032163,-0.01445499,-0.01111795,0.13862169,0.14634756\\0.00000
 016,-0.00000106,0.00000531,0.00000344,-0.00001107,0.00000166,-0.000015
 50,0.00002385,-0.00000853,0.00000313,-0.00000828,0.00000429,-0.0000132
 1,-0.00000148,-0.00000359,0.00000904,-0.00000649,-0.00000422,-0.000007
 43,0.00000648,-0.00000070,0.00001422,-0.00000483,0.00001786,0.00000020
 ,0.00000197,-0.00000494,0.00000403,0.00000105,-0.00000016,-0.00000093,
 -0.00000056,-0.00000141,0.00000357,0.00000091,-0.00000091,0.00000079,0
 .00000377,0.00000002,0.00000286,0.00000116,0.00000157,-0.00000023,-0.0
 0000235,-0.00000090,-0.00000203,-0.00000258,-0.00000321,-0.00000212,-0
 .00000049,-0.00000214\\\@


 IT IS NOT EASY TO DESCRIBE
     THE SEA WITH THE MOUTH

                   -- KOKYU
 Job cpu time:       0 days  1 hours 18 minutes 45.8 seconds.
 Elapsed time:       0 days  0 hours 19 minutes 42.1 seconds.
 File lengths (MBytes):  RWF=     97 Int=      0 D2E=      0 Chk=      7 Scr=      1
 Normal termination of Gaussian 16 at Sun Jul  3 23:44:13 2022.
### All Done ###
