### Starting Gaussian ###
 Entering Gaussian System, Link 0=g16
 Initial command:
 /cluster/software/gaussian/gaussian-16-A.03/avx2/g16/l1.exe "/local/scratch/ks29c/Gau-23273.inp" -scrdir="/local/scratch/ks29c/"
 Entering Link 1 = /cluster/software/gaussian/gaussian-16-A.03/avx2/g16/l1.exe PID=     23274.
  
 Copyright (c) 1988,1990,1992,1993,1995,1998,2003,2009,2016,
            Gaussian, Inc.  All Rights Reserved.
  
 This is part of the Gaussian(R) 16 program.  It is based on
 the Gaussian(R) 09 system (copyright 2009, Gaussian, Inc.),
 the Gaussian(R) 03 system (copyright 2003, Gaussian, Inc.),
 the Gaussian(R) 98 system (copyright 1998, Gaussian, Inc.),
 the Gaussian(R) 94 system (copyright 1995, Gaussian, Inc.),
 the Gaussian 92(TM) system (copyright 1992, Gaussian, Inc.),
 the Gaussian 90(TM) system (copyright 1990, Gaussian, Inc.),
 the Gaussian 88(TM) system (copyright 1988, Gaussian, Inc.),
 the Gaussian 86(TM) system (copyright 1986, Carnegie Mellon
 University), and the Gaussian 82(TM) system (copyright 1983,
 Carnegie Mellon University). Gaussian is a federally registered
 trademark of Gaussian, Inc.
  
 This software contains proprietary and confidential information,
 including trade secrets, belonging to Gaussian, Inc.
  
 This software is provided under written license and may be
 used, copied, transmitted, or stored only in accord with that
 written license.
  
 The following legend is applicable only to US Government
 contracts under FAR:
  
                    RESTRICTED RIGHTS LEGEND
  
 Use, reproduction and disclosure by the US Government is
 subject to restrictions as set forth in subparagraphs (a)
 and (c) of the Commercial Computer Software - Restricted
 Rights clause in FAR 52.227-19.
  
 Gaussian, Inc.
 340 Quinnipiac St., Bldg. 40, Wallingford CT 06492
  
  
 ---------------------------------------------------------------
 Warning -- This program may not be used in any manner that
 competes with the business of Gaussian, Inc. or will provide
 assistance to any competitor of Gaussian, Inc.  The licensee
 of this program is prohibited from giving any competitor of
 Gaussian, Inc. access to this program.  By using this program,
 the user acknowledges that Gaussian, Inc. is engaged in the
 business of creating and licensing software in the field of
 computational chemistry and represents and warrants to the
 licensee that it is not a competitor of Gaussian, Inc. and that
 it will not use this program in any manner prohibited above.
 ---------------------------------------------------------------
  

 Cite this work as:
 Gaussian 16, Revision A.03,
 M. J. Frisch, G. W. Trucks, H. B. Schlegel, G. E. Scuseria, 
 M. A. Robb, J. R. Cheeseman, G. Scalmani, V. Barone, 
 G. A. Petersson, H. Nakatsuji, X. Li, M. Caricato, A. V. Marenich, 
 J. Bloino, B. G. Janesko, R. Gomperts, B. Mennucci, H. P. Hratchian, 
 J. V. Ortiz, A. F. Izmaylov, J. L. Sonnenberg, D. Williams-Young, 
 F. Ding, F. Lipparini, F. Egidi, J. Goings, B. Peng, A. Petrone, 
 T. Henderson, D. Ranasinghe, V. G. Zakrzewski, J. Gao, N. Rega, 
 G. Zheng, W. Liang, M. Hada, M. Ehara, K. Toyota, R. Fukuda, 
 J. Hasegawa, M. Ishida, T. Nakajima, Y. Honda, O. Kitao, H. Nakai, 
 T. Vreven, K. Throssell, J. A. Montgomery, Jr., J. E. Peralta, 
 F. Ogliaro, M. J. Bearpark, J. J. Heyd, E. N. Brothers, K. N. Kudin, 
 V. N. Staroverov, T. A. Keith, R. Kobayashi, J. Normand, 
 K. Raghavachari, A. P. Rendell, J. C. Burant, S. S. Iyengar, 
 J. Tomasi, M. Cossi, J. M. Millam, M. Klene, C. Adamo, R. Cammi, 
 J. W. Ochterski, R. L. Martin, K. Morokuma, O. Farkas, 
 J. B. Foresman, and D. J. Fox, Gaussian, Inc., Wallingford CT, 2016.
 
 ******************************************
 Gaussian 16:  ES64L-G16RevA.03 25-Dec-2016
                 4-Aug-2022 
 ******************************************
 %chk=CtCCCtC.chk
 %NProcShared=20
 Will use up to   20 processors via shared memory.
 -----------------------------
 # opt freq b3lyp/6-31g(2df,p)
 -----------------------------
 1/18=20,19=15,26=3,38=1/1,3;
 2/9=110,12=2,17=6,18=5,40=1/2;
 3/5=1,6=6,7=104,11=2,25=1,30=1,71=1,74=-5/1,2,3;
 4//1;
 5/5=2,38=5/2;
 6/7=2,8=2,9=2,10=2,28=1/1;
 7//1,2,3,16;
 1/18=20,19=15,26=3/3(2);
 2/9=110/2;
 99//99;
 2/9=110/2;
 3/5=1,6=6,7=104,11=2,25=1,30=1,71=1,74=-5/1,2,3;
 4/5=5,16=3,69=1/1;
 5/5=2,38=5/2;
 7//1,2,3,16;
 1/18=20,19=15,26=3/3(-5);
 2/9=110/2;
 6/7=2,8=2,9=2,10=2,19=2,28=1/1;
 99/9=1/99;
 -------------------
 Title Card Required
 -------------------
 Symbolic Z-matrix:
 Charge =  0 Multiplicity = 1
 C                     0.98193  -0.08973   0.04027 
 C                     2.28578  -0.08973   0.04027 
 C                     3.80578  -0.08973   0.04027 
 C                     4.31244  -1.14068   1.01453 
 C                     4.74706  -2.04219   1.85026 
 H                    -0.08368  -0.09337   0.04364 
 H                     4.17445   0.89708   0.33785 
 H                     4.17445  -0.31184  -0.96623 
 H                     5.09758  -2.78017   2.5344 
 

 GradGradGradGradGradGradGradGradGradGradGradGradGradGradGradGradGradGrad
 Berny optimization.
 Initialization pass.
                           ----------------------------
                           !    Initial Parameters    !
                           ! (Angstroms and Degrees)  !
 --------------------------                            --------------------------
 ! Name  Definition              Value          Derivative Info.                !
 --------------------------------------------------------------------------------
 ! R1    R(1,2)                  1.3038         estimate D2E/DX2                !
 ! R2    R(1,6)                  1.0656         estimate D2E/DX2                !
 ! R3    R(2,3)                  1.52           estimate D2E/DX2                !
 ! R4    R(3,4)                  1.52           estimate D2E/DX2                !
 ! R5    R(3,7)                  1.0947         estimate D2E/DX2                !
 ! R6    R(3,8)                  1.0947         estimate D2E/DX2                !
 ! R7    R(4,5)                  1.3039         estimate D2E/DX2                !
 ! R8    R(5,9)                  1.0656         estimate D2E/DX2                !
 ! A1    A(2,3,4)              109.471          estimate D2E/DX2                !
 ! A2    A(2,3,7)              109.6815         estimate D2E/DX2                !
 ! A3    A(2,3,8)              109.6813         estimate D2E/DX2                !
 ! A4    A(4,3,7)              109.6816         estimate D2E/DX2                !
 ! A5    A(4,3,8)              109.6813         estimate D2E/DX2                !
 ! A6    A(7,3,8)              108.629          estimate D2E/DX2                !
 ! A7    L(2,1,6,9,-1)         179.7333         estimate D2E/DX2                !
 ! A8    L(1,2,3,9,-1)         180.0            estimate D2E/DX2                !
 ! A9    L(3,4,5,6,-1)         180.0001         estimate D2E/DX2                !
 ! A10   L(4,5,9,6,-1)         179.7332         estimate D2E/DX2                !
 ! A11   L(2,1,6,9,-2)         180.0003         estimate D2E/DX2                !
 ! A12   L(1,2,3,9,-2)         180.0            estimate D2E/DX2                !
 ! A13   L(3,4,5,6,-2)         180.0002         estimate D2E/DX2                !
 ! A14   L(4,5,9,6,-2)         180.0005         estimate D2E/DX2                !
 ! D1    D(4,3,8,7)           -119.8704         estimate D2E/DX2                !
 --------------------------------------------------------------------------------
 Trust Radius=3.00D-01 FncErr=1.00D-07 GrdErr=1.00D-06 EigMax=2.50D+02 EigMin=1.00D-04
 Number of steps in this run=     33 maximum allowed number of steps=    100.
 GradGradGradGradGradGradGradGradGradGradGradGradGradGradGradGradGradGrad

                          Input orientation:                          
 ---------------------------------------------------------------------
 Center     Atomic      Atomic             Coordinates (Angstroms)
 Number     Number       Type             X           Y           Z
 ---------------------------------------------------------------------
      1          6           0        0.981930   -0.089730    0.040270
      2          6           0        2.285780   -0.089730    0.040270
      3          6           0        3.805780   -0.089730    0.040270
      4          6           0        4.312440   -1.140680    1.014530
      5          6           0        4.747060   -2.042190    1.850260
      6          1           0       -0.083680   -0.093370    0.043640
      7          1           0        4.174450    0.897080    0.337850
      8          1           0        4.174450   -0.311840   -0.966230
      9          1           0        5.097580   -2.780170    2.534400
 ---------------------------------------------------------------------
                    Distance matrix (angstroms):
                    1          2          3          4          5
     1  C    0.000000
     2  C    1.303850   0.000000
     3  C    2.823850   1.520000   0.000000
     4  C    3.625738   2.482142   1.519994   0.000000
     5  C    4.611330   3.625750   2.823858   1.303863   0.000000
     6  H    1.065622   2.369465   3.889463   4.622267   5.513422
     7  H    3.354777   2.151609   1.094653   2.151605   3.354784
     8  H    3.354782   2.151616   1.094666   2.151610   3.354789
     9  H    5.513413   4.622269   3.889460   2.369468   1.065611
                    6          7          8          9
     6  H    0.000000
     7  H    4.381692   0.000000
     8  H    4.381693   1.778233   0.000000
     9  H    6.345726   4.381686   4.381693   0.000000
 Stoichiometry    C5H4
 Framework group  C1[X(C5H4)]
 Deg. of freedom    21
 Full point group                 C1      NOp   1
 Largest Abelian subgroup         C1      NOp   1
 Largest concise Abelian subgroup C1      NOp   1
                         Standard orientation:                         
 ---------------------------------------------------------------------
 Center     Atomic      Atomic             Coordinates (Angstroms)
 Number     Number       Type             X           Y           Z
 ---------------------------------------------------------------------
      1          6           0        2.305662   -0.650434    0.000000
      2          6           0        1.241074    0.102346   -0.000001
      3          6           0        0.000001    0.979921   -0.000002
      4          6           0       -1.241068    0.102350    0.000001
      5          6           0       -2.305669   -0.650435    0.000001
      6          1           0        3.172863   -1.269717    0.000004
      7          1           0        0.000000    1.618472   -0.889113
      8          1           0        0.000002    1.618476    0.889120
      9          1           0       -3.172862   -1.269710   -0.000005
 ---------------------------------------------------------------------
 Rotational constants (GHZ):          15.7717345           2.7107158           2.3473906
 Standard basis: 6-31G(2df,p) (6D, 7F)
 There are   175 symmetry adapted cartesian basis functions of A   symmetry.
 There are   160 symmetry adapted basis functions of A   symmetry.
   160 basis functions,   248 primitive gaussians,   175 cartesian basis functions
    17 alpha electrons       17 beta electrons
       nuclear repulsion energy       119.2457428958 Hartrees.
 NAtoms=    9 NActive=    9 NUniq=    9 SFac= 1.00D+00 NAtFMM=   60 NAOKFM=F Big=F
 Integral buffers will be    131072 words long.
 Raffenetti 2 integral format.
 Two-electron integral symmetry is turned on.
 One-electron integrals computed using PRISM.
 PrsmSu:  requested number of processors reduced to:  13 ShMem   1 Linda.
 NBasis=   160 RedAO= T EigKep=  2.51D-04  NBF=   160
 NBsUse=   160 1.00D-06 EigRej= -1.00D+00 NBFU=   160
 ExpMin= 1.61D-01 ExpMax= 3.05D+03 ExpMxC= 4.57D+02 IAcc=3 IRadAn=         5 AccDes= 0.00D+00
 Harris functional with IExCor=  402 and IRadAn=       5 diagonalized for initial guess.
 HarFok:  IExCor=  402 AccDes= 0.00D+00 IRadAn=         5 IDoV= 1 UseB2=F ITyADJ=14
 ICtDFT=  3500011 ScaDFX=  1.000000  1.000000  1.000000  1.000000
 FoFCou: FMM=F IPFlag=           0 FMFlag=      100000 FMFlg1=           0
         NFxFlg=           0 DoJE=T BraDBF=F KetDBF=T FulRan=T
         wScrn=  0.000000 ICntrl=       500 IOpCl=  0 I1Cent=   200000004 NGrid=           0
         NMat0=    1 NMatS0=      1 NMatT0=    0 NMatD0=    1 NMtDS0=    0 NMtDT0=    0
 Petite list used in FoFCou.
 Keep R1 ints in memory in canonical form, NReq=102951637.
 CoulSu:  requested number of processors reduced to:  11 ShMem   1 Linda.
 Requested convergence on RMS density matrix=1.00D-08 within 128 cycles.
 Requested convergence on MAX density matrix=1.00D-06.
 Requested convergence on             energy=1.00D-06.
 No special actions if energy rises.
 Integral accuracy reduced to 1.0D-05 until final iterations.
 Initial convergence to 1.0D-05 achieved.  Increase integral accuracy.
 CalDSu:  requested number of processors reduced to:  19 ShMem   1 Linda.
 CalDSu:  requested number of processors reduced to:  19 ShMem   1 Linda.
 CalDSu:  requested number of processors reduced to:  19 ShMem   1 Linda.
 CalDSu:  requested number of processors reduced to:  19 ShMem   1 Linda.
 CalDSu:  requested number of processors reduced to:  19 ShMem   1 Linda.
 CalDSu:  requested number of processors reduced to:  19 ShMem   1 Linda.
 SCF Done:  E(RB3LYP) =  -192.762273273     A.U. after   13 cycles
            NFock= 13  Conv=0.80D-08     -V/T= 2.0136

 **********************************************************************

            Population analysis using the SCF density.

 **********************************************************************

 Orbital symmetries:
       Occupied  (A) (A) (A) (A) (A) (A) (A) (A) (A) (A) (A) (A)
                 (A) (A) (A) (A) (A)
       Virtual   (A) (A) (A) (A) (A) (A) (A) (A) (A) (A) (A) (A)
                 (A) (A) (A) (A) (A) (A) (A) (A) (A) (A) (A) (A)
                 (A) (A) (A) (A) (A) (A) (A) (A) (A) (A) (A) (A)
                 (A) (A) (A) (A) (A) (A) (A) (A) (A) (A) (A) (A)
                 (A) (A) (A) (A) (A) (A) (A) (A) (A) (A) (A) (A)
                 (A) (A) (A) (A) (A) (A) (A) (A) (A) (A) (A) (A)
                 (A) (A) (A) (A) (A) (A) (A) (A) (A) (A) (A) (A)
                 (A) (A) (A) (A) (A) (A) (A) (A) (A) (A) (A) (A)
                 (A) (A) (A) (A) (A) (A) (A) (A) (A) (A) (A) (A)
                 (A) (A) (A) (A) (A) (A) (A) (A) (A) (A) (A) (A)
                 (A) (A) (A) (A) (A) (A) (A) (A) (A) (A) (A) (A)
                 (A) (A) (A) (A) (A) (A) (A) (A) (A) (A) (A)
 The electronic state is 1-A.
 Alpha  occ. eigenvalues --  -10.25896 -10.21808 -10.21808 -10.20386 -10.20386
 Alpha  occ. eigenvalues --   -0.80349  -0.71822  -0.68785  -0.55236  -0.53188
 Alpha  occ. eigenvalues --   -0.46468  -0.46260  -0.46258  -0.27151  -0.26549
 Alpha  occ. eigenvalues --   -0.25459  -0.25210
 Alpha virt. eigenvalues --    0.00606   0.01942   0.03371   0.04443   0.08712
 Alpha virt. eigenvalues --    0.11374   0.12452   0.17101   0.19646   0.21773
 Alpha virt. eigenvalues --    0.34857   0.37472   0.39162   0.39168   0.49993
 Alpha virt. eigenvalues --    0.50517   0.53689   0.55907   0.59066   0.60676
 Alpha virt. eigenvalues --    0.64967   0.65150   0.67213   0.68780   0.68803
 Alpha virt. eigenvalues --    0.71646   0.73217   0.74249   0.74874   0.76376
 Alpha virt. eigenvalues --    0.77439   0.78188   0.79227   0.80466   0.81362
 Alpha virt. eigenvalues --    0.90570   1.00038   1.01582   1.02137   1.03235
 Alpha virt. eigenvalues --    1.04104   1.04983   1.10394   1.14809   1.18740
 Alpha virt. eigenvalues --    1.21711   1.23190   1.25288   1.27739   1.51290
 Alpha virt. eigenvalues --    1.51302   1.52061   1.57291   1.60103   1.62745
 Alpha virt. eigenvalues --    1.72498   1.76173   1.82035   1.85507   2.17576
 Alpha virt. eigenvalues --    2.20054   2.25015   2.32826   2.37151   2.38072
 Alpha virt. eigenvalues --    2.41308   2.44878   2.50932   2.56721   2.60135
 Alpha virt. eigenvalues --    2.61325   2.65374   2.68310   2.69166   2.69305
 Alpha virt. eigenvalues --    2.70446   2.71650   2.73064   2.76455   2.85784
 Alpha virt. eigenvalues --    2.90703   2.90770   2.95041   3.01211   3.02130
 Alpha virt. eigenvalues --    3.02700   3.03225   3.15361   3.25739   3.28204
 Alpha virt. eigenvalues --    3.29030   3.33509   3.35260   3.44185   3.44533
 Alpha virt. eigenvalues --    3.47402   3.47416   3.49122   3.52698   3.57430
 Alpha virt. eigenvalues --    3.58888   3.66951   3.67828   3.74662   3.78477
 Alpha virt. eigenvalues --    3.89793   3.91967   3.94160   4.03524   4.13894
 Alpha virt. eigenvalues --    4.21153   4.21653   4.21760   4.22922   4.23866
 Alpha virt. eigenvalues --    4.29820   4.31515   4.31899   4.38205   4.47335
 Alpha virt. eigenvalues --    4.51534   4.57603   4.64964   4.69737   4.72306
 Alpha virt. eigenvalues --    4.75910   4.82590   4.87705   4.96934   5.01874
 Alpha virt. eigenvalues --    5.03079   5.05827   5.09939   5.14094   5.27980
 Alpha virt. eigenvalues --    5.79755   5.96568   6.84267   9.49444   9.63479
 Alpha virt. eigenvalues --   10.67081  11.21290  12.12572
          Condensed to atoms (all electrons):
               1          2          3          4          5          6
     1  C    5.082035   0.946309  -0.028527  -0.008888  -0.001105   0.367299
     2  C    0.946309   4.587076   0.399846  -0.057137  -0.008887  -0.001369
     3  C   -0.028527   0.399846   4.970099   0.399846  -0.028526   0.000781
     4  C   -0.008888  -0.057137   0.399846   4.587089   0.946305  -0.000040
     5  C   -0.001105  -0.008887  -0.028526   0.946305   5.082031  -0.000005
     6  H    0.367299  -0.001369   0.000781  -0.000040  -0.000005   0.418650
     7  H   -0.001553  -0.027124   0.367473  -0.027125  -0.001553  -0.000043
     8  H   -0.001553  -0.027124   0.367471  -0.027124  -0.001553  -0.000043
     9  H   -0.000005  -0.000040   0.000781  -0.001369   0.367299   0.000000
               7          8          9
     1  C   -0.001553  -0.001553  -0.000005
     2  C   -0.027124  -0.027124  -0.000040
     3  C    0.367473   0.367471   0.000781
     4  C   -0.027125  -0.027124  -0.001369
     5  C   -0.001553  -0.001553   0.367299
     6  H   -0.000043  -0.000043   0.000000
     7  H    0.551111  -0.036555  -0.000043
     8  H   -0.036555   0.551114  -0.000043
     9  H   -0.000043  -0.000043   0.418648
 Mulliken charges:
               1
     1  C   -0.354013
     2  C    0.188452
     3  C   -0.449242
     4  C    0.188443
     5  C   -0.354006
     6  H    0.214770
     7  H    0.175413
     8  H    0.175412
     9  H    0.214772
 Sum of Mulliken charges =  -0.00000
 Mulliken charges with hydrogens summed into heavy atoms:
               1
     1  C   -0.139243
     2  C    0.188452
     3  C   -0.098418
     4  C    0.188443
     5  C   -0.139234
 Electronic spatial extent (au):  <R**2>=            500.4566
 Charge=             -0.0000 electrons
 Dipole moment (field-independent basis, Debye):
    X=              0.0000    Y=              0.5260    Z=             -0.0000  Tot=              0.5260
 Quadrupole moment (field-independent basis, Debye-Ang):
   XX=            -24.0436   YY=            -25.8531   ZZ=            -30.4300
   XY=             -0.0000   XZ=              0.0000   YZ=             -0.0000
 Traceless Quadrupole moment (field-independent basis, Debye-Ang):
   XX=              2.7320   YY=              0.9225   ZZ=             -3.6545
   XY=             -0.0000   XZ=              0.0000   YZ=             -0.0000
 Octapole moment (field-independent basis, Debye-Ang**2):
  XXX=              0.0002  YYY=              2.3922  ZZZ=             -0.0000  XYY=              0.0001
  XXY=            -22.9649  XXZ=             -0.0000  XZZ=              0.0000  YZZ=              3.0402
  YYZ=             -0.0000  XYZ=             -0.0001
 Hexadecapole moment (field-independent basis, Debye-Ang**3):
 XXXX=           -422.0331 YYYY=           -113.4739 ZZZZ=            -37.8585 XXXY=             -0.0002
 XXXZ=              0.0005 YYYX=             -0.0001 YYYZ=             -0.0000 ZZZX=              0.0000
 ZZZY=             -0.0000 XXYY=            -83.6940 XXZZ=           -107.3366 YYZZ=            -24.2712
 XXYZ=              0.0000 YYXZ=              0.0001 ZZXY=              0.0000
 N-N= 1.192457428958D+02 E-N=-6.840644280592D+02  KE= 1.901819125741D+02
 PrsmSu:  requested number of processors reduced to:  13 ShMem   1 Linda.
 Calling FoFJK, ICntrl=      2127 FMM=F ISym2X=0 I1Cent= 0 IOpClX= 0 NMat=1 NMatS=1 NMatT=0.
 ***** Axes restored to original set *****
 -------------------------------------------------------------------
 Center     Atomic                   Forces (Hartrees/Bohr)
 Number     Number              X              Y              Z
 -------------------------------------------------------------------
      1        6           0.162385413    0.000140514   -0.000130326
      2        6          -0.133782003    0.002198863   -0.002038364
      3        6          -0.023540009   -0.024416239    0.022625487
      4        6           0.047426596   -0.091777780    0.085081642
      5        6          -0.053955556    0.112339031   -0.104141882
      6        1           0.001327507   -0.000050872    0.000047228
      7        1           0.000322884    0.000162473   -0.000496534
      8        1           0.000320287    0.000509161   -0.000117486
      9        1          -0.000505119    0.000894848   -0.000829764
 -------------------------------------------------------------------
 Cartesian Forces:  Max     0.162385413 RMS     0.057808834

 GradGradGradGradGradGradGradGradGradGradGradGradGradGradGradGradGradGrad
 Berny optimization.
 FormGI is forming the generalized inverse of G from B-inverse, IUseBI=4.
 Internal  Forces:  Max     0.163728153 RMS     0.049109909
 Search for a local minimum.
 Step number   1 out of a maximum of   33
 All quantities printed in internal units (Hartrees-Bohrs-Radians)
 Mixed Optimization -- RFO/linear search
 Second derivative matrix not updated -- first step.
 ITU=  0
     Eigenvalues ---    0.00501   0.00501   0.00557   0.00557   0.00557
     Eigenvalues ---    0.00557   0.03360   0.03360   0.07605   0.16000
     Eigenvalues ---    0.16000   0.16000   0.22495   0.30367   0.30367
     Eigenvalues ---    0.34279   0.34280   0.37789   0.37790   0.66132
     Eigenvalues ---    0.66135
 RFO step:  Lambda=-7.74969778D-02 EMin= 5.01385868D-03
 Linear search not attempted -- first point.
 Maximum step size (   0.300) exceeded in Quadratic search.
    -- Step size scaled by   0.899
 Iteration  1 RMS(Cart)=  0.09663238 RMS(Int)=  0.00042607
 Iteration  2 RMS(Cart)=  0.00118265 RMS(Int)=  0.00001759
 Iteration  3 RMS(Cart)=  0.00000054 RMS(Int)=  0.00001758
 Variable       Old X    -DE/DX   Delta X   Delta X   Delta X     New X
                                 (Linear)    (Quad)   (Total)
    R1        2.46392  -0.16371   0.00000  -0.19926  -0.19926   2.26466
    R2        2.01373  -0.00133   0.00000  -0.00262  -0.00262   2.01111
    R3        2.87238  -0.02993   0.00000  -0.07062  -0.07062   2.80177
    R4        2.87237  -0.02993   0.00000  -0.07061  -0.07061   2.80176
    R5        2.06859   0.00012   0.00000   0.00026   0.00026   2.06885
    R6        2.06862   0.00011   0.00000   0.00024   0.00024   2.06886
    R7        2.46394  -0.16373   0.00000  -0.19929  -0.19929   2.26465
    R8        2.01371  -0.00132   0.00000  -0.00260  -0.00260   2.01111
    A1        1.91063   0.00705   0.00000   0.02153   0.02149   1.93212
    A2        1.91430  -0.00204   0.00000  -0.00476  -0.00480   1.90951
    A3        1.91430  -0.00204   0.00000  -0.00476  -0.00480   1.90950
    A4        1.91430   0.00012   0.00000  -0.00139  -0.00143   1.91288
    A5        1.91430  -0.00098   0.00000  -0.00311  -0.00315   1.91115
    A6        1.89593  -0.00220   0.00000  -0.00778  -0.00782   1.88812
    A7        3.13694  -0.00015   0.00000  -0.00165  -0.00165   3.13529
    A8        3.14159   0.00015   0.00000   0.00162   0.00162   3.14322
    A9        3.14160   0.00015   0.00000   0.00121   0.00121   3.14280
   A10        3.13694  -0.00015   0.00000  -0.00165  -0.00165   3.13529
   A11        3.14160  -0.00000   0.00000  -0.00000  -0.00000   3.14160
   A12        3.14159   0.00000   0.00000   0.00000   0.00000   3.14159
   A13        3.14160  -0.00000   0.00000  -0.00000  -0.00000   3.14159
   A14        3.14160  -0.00000   0.00000  -0.00000  -0.00000   3.14160
    D1       -2.09213   0.00177   0.00000   0.00826   0.00825  -2.08388
         Item               Value     Threshold  Converged?
 Maximum Force            0.163728     0.000450     NO 
 RMS     Force            0.049110     0.000300     NO 
 Maximum Displacement     0.209773     0.001800     NO 
 RMS     Displacement     0.096942     0.001200     NO 
 Predicted change in Energy=-4.184550D-02
 GradGradGradGradGradGradGradGradGradGradGradGradGradGradGradGradGradGrad

                          Input orientation:                          
 ---------------------------------------------------------------------
 Center     Atomic      Atomic             Coordinates (Angstroms)
 Number     Number       Type             X           Y           Z
 ---------------------------------------------------------------------
      1          6           0        1.091542   -0.102341    0.051964
      2          6           0        2.289855   -0.113115    0.062170
      3          6           0        3.772400   -0.124679    0.073162
      4          6           0        4.281581   -1.146025    1.019617
      5          6           0        4.694509   -1.971209    1.784294
      6          1           0        0.027327   -0.097695    0.047457
      7          1           0        4.141728    0.863567    0.365618
      8          1           0        4.141949   -0.343178   -0.933944
      9          1           0        5.054900   -2.705686    2.464921
 ---------------------------------------------------------------------
                    Distance matrix (angstroms):
                    1          2          3          4          5
     1  C    0.000000
     2  C    1.198405   0.000000
     3  C    2.681035   1.482631   0.000000
     4  C    3.493132   2.439381   1.482629   0.000000
     5  C    4.413049   3.492933   2.681032   1.198403   0.000000
     6  H    1.064235   2.262628   3.745259   4.488069   5.320643
     7  H    3.214808   2.115520   1.094789   2.117955   3.217788
     8  H    3.214810   2.115520   1.094793   2.116710   3.216306
     9  H    5.320524   4.487773   3.745252   2.262625   1.064233
                    6          7          8          9
     6  H    0.000000
     7  H    4.237163   0.000000
     8  H    4.237160   1.773442   0.000000
     9  H    6.158103   4.240345   4.238774   0.000000
 Stoichiometry    C5H4
 Framework group  C1[X(C5H4)]
 Deg. of freedom    21
 Full point group                 C1      NOp   1
 Largest Abelian subgroup         C1      NOp   1
 Largest concise Abelian subgroup C1      NOp   1
                         Standard orientation:                         
 ---------------------------------------------------------------------
 Center     Atomic      Atomic             Coordinates (Angstroms)
 Number     Number       Type             X           Y           Z
 ---------------------------------------------------------------------
      1          6           0        2.206423   -0.600344    0.000004
      2          6           0        1.219543    0.079540   -0.000023
      3          6           0       -0.000029    0.922653   -0.000057
      4          6           0       -1.219837    0.079886   -0.000047
      5          6           0       -2.206626   -0.600128   -0.000041
      6          1           0        3.078992   -1.209621    0.000030
      7          1           0        0.002185    1.565512   -0.886223
      8          1           0        0.001086    1.563990    0.887218
      9          1           0       -3.079111   -1.209522   -0.000038
 ---------------------------------------------------------------------
 Rotational constants (GHZ):          17.7474977           2.9170870           2.5452950
 Standard basis: 6-31G(2df,p) (6D, 7F)
 There are   175 symmetry adapted cartesian basis functions of A   symmetry.
 There are   160 symmetry adapted basis functions of A   symmetry.
   160 basis functions,   248 primitive gaussians,   175 cartesian basis functions
    17 alpha electrons       17 beta electrons
       nuclear repulsion energy       124.4475749169 Hartrees.
 NAtoms=    9 NActive=    9 NUniq=    9 SFac= 1.00D+00 NAtFMM=   60 NAOKFM=F Big=F
 Integral buffers will be    131072 words long.
 Raffenetti 2 integral format.
 Two-electron integral symmetry is turned on.
 One-electron integrals computed using PRISM.
 PrsmSu:  requested number of processors reduced to:  13 ShMem   1 Linda.
 NBasis=   160 RedAO= T EigKep=  1.54D-04  NBF=   160
 NBsUse=   160 1.00D-06 EigRej= -1.00D+00 NBFU=   160
 Initial guess from the checkpoint file:  "CtCCCtC.chk"
 B after Tr=    -0.000000   -0.000000   -0.000000
         Rot=    1.000000   -0.000069    0.000010    0.000050 Ang=  -0.01 deg.
 ExpMin= 1.61D-01 ExpMax= 3.05D+03 ExpMxC= 4.57D+02 IAcc=2 IRadAn=         4 AccDes= 0.00D+00
 Harris functional with IExCor=  402 and IRadAn=       4 diagonalized for initial guess.
 HarFok:  IExCor=  402 AccDes= 0.00D+00 IRadAn=         4 IDoV= 1 UseB2=F ITyADJ=14
 ICtDFT=  3500011 ScaDFX=  1.000000  1.000000  1.000000  1.000000
 FoFCou: FMM=F IPFlag=           0 FMFlag=      100000 FMFlg1=           0
         NFxFlg=           0 DoJE=T BraDBF=F KetDBF=T FulRan=T
         wScrn=  0.000000 ICntrl=       500 IOpCl=  0 I1Cent=   200000004 NGrid=           0
         NMat0=    1 NMatS0=      1 NMatT0=    0 NMatD0=    1 NMtDS0=    0 NMtDT0=    0
 Petite list used in FoFCou.
 Keep R1 ints in memory in canonical form, NReq=102951637.
 CoulSu:  requested number of processors reduced to:  11 ShMem   1 Linda.
 Requested convergence on RMS density matrix=1.00D-08 within 128 cycles.
 Requested convergence on MAX density matrix=1.00D-06.
 Requested convergence on             energy=1.00D-06.
 No special actions if energy rises.
 Integral accuracy reduced to 1.0D-05 until final iterations.
 Initial convergence to 1.0D-05 achieved.  Increase integral accuracy.
 CalDSu:  requested number of processors reduced to:  19 ShMem   1 Linda.
 CalDSu:  requested number of processors reduced to:  19 ShMem   1 Linda.
 CalDSu:  requested number of processors reduced to:  19 ShMem   1 Linda.
 CalDSu:  requested number of processors reduced to:  19 ShMem   1 Linda.
 CalDSu:  requested number of processors reduced to:  19 ShMem   1 Linda.
 CalDSu:  requested number of processors reduced to:  19 ShMem   1 Linda.
 SCF Done:  E(RB3LYP) =  -192.800678919     A.U. after   12 cycles
            NFock= 12  Conv=0.62D-08     -V/T= 2.0087
 PrsmSu:  requested number of processors reduced to:  13 ShMem   1 Linda.
 Calling FoFJK, ICntrl=      2127 FMM=F ISym2X=0 I1Cent= 0 IOpClX= 0 NMat=1 NMatS=1 NMatT=0.
 ***** Axes restored to original set *****
 -------------------------------------------------------------------
 Center     Atomic                   Forces (Hartrees/Bohr)
 Number     Number              X              Y              Z
 -------------------------------------------------------------------
      1        6          -0.005964398    0.000111411   -0.000102696
      2        6           0.014053142    0.001772959   -0.001638940
      3        6          -0.011917494   -0.012128850    0.011092938
      4        6          -0.002335532    0.010526390   -0.009623016
      5        6           0.002126723   -0.004078849    0.003776662
      6        1           0.001910403    0.000019374   -0.000017478
      7        1           0.001393823    0.000887579   -0.001407976
      8        1           0.001345268    0.001567559   -0.000848258
      9        1          -0.000611934    0.001322427   -0.001231236
 -------------------------------------------------------------------
 Cartesian Forces:  Max     0.014053142 RMS     0.005813077

 GradGradGradGradGradGradGradGradGradGradGradGradGradGradGradGradGradGrad
 Berny optimization.
 Using GEDIIS/GDIIS optimizer.
 FormGI is forming the generalized inverse of G from B-inverse, IUseBI=4.
 Internal  Forces:  Max     0.010152471 RMS     0.003702803
 Search for a local minimum.
 Step number   2 out of a maximum of   33
 All quantities printed in internal units (Hartrees-Bohrs-Radians)
 Mixed Optimization -- RFO/linear search
 Update second derivatives using D2CorX and points    1    2
 DE= -3.84D-02 DEPred=-4.18D-02 R= 9.18D-01
 TightC=F SS=  1.41D+00  RLast= 3.00D-01 DXNew= 5.0454D-01 9.0034D-01
 Trust test= 9.18D-01 RLast= 3.00D-01 DXMaxT set to 5.05D-01
 ITU=  1  0
 Use linear search instead of GDIIS.
     Eigenvalues ---    0.00501   0.00501   0.00557   0.00557   0.00557
     Eigenvalues ---    0.00557   0.03360   0.03360   0.07681   0.15989
     Eigenvalues ---    0.16000   0.16000   0.22353   0.29853   0.30367
     Eigenvalues ---    0.34278   0.34280   0.37777   0.37790   0.66133
     Eigenvalues ---    0.84645
 RFO step:  Lambda=-1.13153345D-03 EMin= 5.01380150D-03
 Quartic linear search produced a step of  0.00026.
 Iteration  1 RMS(Cart)=  0.07319698 RMS(Int)=  0.00164312
 Iteration  2 RMS(Cart)=  0.00252778 RMS(Int)=  0.00008112
 Iteration  3 RMS(Cart)=  0.00000016 RMS(Int)=  0.00008112
 Variable       Old X    -DE/DX   Delta X   Delta X   Delta X     New X
                                 (Linear)    (Quad)   (Total)
    R1        2.26466   0.00406  -0.00005   0.00380   0.00375   2.26841
    R2        2.01111  -0.00191  -0.00000  -0.00507  -0.00507   2.00604
    R3        2.80177  -0.00997  -0.00002  -0.03353  -0.03355   2.76822
    R4        2.80176  -0.01015  -0.00002  -0.03413  -0.03414   2.76762
    R5        2.06885   0.00090   0.00000   0.00261   0.00261   2.07146
    R6        2.06886   0.00092   0.00000   0.00268   0.00268   2.07154
    R7        2.26465   0.00404  -0.00005   0.00378   0.00373   2.26838
    R8        2.01111  -0.00191  -0.00000  -0.00506  -0.00506   2.00604
    A1        1.93212   0.00656   0.00001   0.03154   0.03141   1.96354
    A2        1.90951  -0.00134  -0.00000  -0.00052  -0.00064   1.90887
    A3        1.90950  -0.00133  -0.00000  -0.00045  -0.00057   1.90893
    A4        1.91288   0.00064  -0.00000  -0.00310  -0.00332   1.90956
    A5        1.91115  -0.00040  -0.00000  -0.00176  -0.00192   1.90923
    A6        1.88812  -0.00440  -0.00000  -0.02707  -0.02723   1.86088
    A7        3.13529   0.00008  -0.00000   0.01132   0.01132   3.14661
    A8        3.14322   0.00036   0.00000   0.05929   0.05929   3.20251
    A9        3.14280   0.00037   0.00000   0.01053   0.01053   3.15333
   A10        3.13529   0.00007  -0.00000   0.01083   0.01083   3.14612
   A11        3.14160  -0.00000  -0.00000  -0.00002  -0.00002   3.14158
   A12        3.14159   0.00000   0.00000   0.00039   0.00039   3.14198
   A13        3.14159  -0.00002  -0.00000  -0.00053  -0.00053   3.14107
   A14        3.14160  -0.00001  -0.00000  -0.00084  -0.00084   3.14076
    D1       -2.08388   0.00206   0.00000   0.02077   0.02070  -2.06319
         Item               Value     Threshold  Converged?
 Maximum Force            0.010152     0.000450     NO 
 RMS     Force            0.003703     0.000300     NO 
 Maximum Displacement     0.170505     0.001800     NO 
 RMS     Displacement     0.072695     0.001200     NO 
 Predicted change in Energy=-5.709082D-04
 GradGradGradGradGradGradGradGradGradGradGradGradGradGradGradGradGradGrad

                          Input orientation:                          
 ---------------------------------------------------------------------
 Center     Atomic      Atomic             Coordinates (Angstroms)
 Number     Number       Type             X           Y           Z
 ---------------------------------------------------------------------
      1          6           0        1.077735   -0.077444    0.028847
      2          6           0        2.274724   -0.143754    0.090110
      3          6           0        3.739451   -0.159013    0.104592
      4          6           0        4.280484   -1.156851    1.030086
      5          6           0        4.736984   -1.971139    1.784705
      6          1           0        0.019604   -0.014907   -0.028931
      7          1           0        4.110657    0.834345    0.382137
      8          1           0        4.111024   -0.361321   -0.906688
      9          1           0        5.145127   -2.690277    2.450403
 ---------------------------------------------------------------------
                    Distance matrix (angstroms):
                    1          2          3          4          5
     1  C    0.000000
     2  C    1.200388   0.000000
     3  C    2.664042   1.464878   0.000000
     4  C    3.524939   2.435774   1.464561   0.000000
     5  C    4.478752   3.503386   2.664892   1.200377   0.000000
     6  H    1.061551   2.261932   3.725031   4.536590   5.419390
     7  H    3.186657   2.100621   1.096169   2.100843   3.198472
     8  H    3.186951   2.100700   1.096213   2.100638   3.197957
     9  H    5.406895   4.504995   3.726400   2.261925   1.061553
                    6          7          8          9
     6  H    0.000000
     7  H    4.198442   0.000000
     8  H    4.198830   1.758035   0.000000
     9  H    6.290921   4.215545   4.214672   0.000000
 Stoichiometry    C5H4
 Framework group  C1[X(C5H4)]
 Deg. of freedom    21
 Full point group                 C1      NOp   1
 Largest Abelian subgroup         C1      NOp   1
 Largest concise Abelian subgroup C1      NOp   1
                         Standard orientation:                         
 ---------------------------------------------------------------------
 Center     Atomic      Atomic             Coordinates (Angstroms)
 Number     Number       Type             X           Y           Z
 ---------------------------------------------------------------------
      1          6           0        2.242164   -0.564891   -0.000033
      2          6           0        1.211255    0.050055    0.000187
      3          6           0        0.001219    0.875694    0.000020
      4          6           0       -1.224402    0.073952   -0.000270
      5          6           0       -2.236583   -0.571335   -0.000042
      6          1           0        3.156552   -1.104135   -0.000235
      7          1           0        0.008194    1.530787   -0.878837
      8          1           0        0.007615    1.530437    0.879198
      9          1           0       -3.134278   -1.137937    0.000705
 ---------------------------------------------------------------------
 Rotational constants (GHZ):          19.5526920           2.8479950           2.5245855
 Standard basis: 6-31G(2df,p) (6D, 7F)
 There are   175 symmetry adapted cartesian basis functions of A   symmetry.
 There are   160 symmetry adapted basis functions of A   symmetry.
   160 basis functions,   248 primitive gaussians,   175 cartesian basis functions
    17 alpha electrons       17 beta electrons
       nuclear repulsion energy       124.7457066275 Hartrees.
 NAtoms=    9 NActive=    9 NUniq=    9 SFac= 1.00D+00 NAtFMM=   60 NAOKFM=F Big=F
 Integral buffers will be    131072 words long.
 Raffenetti 2 integral format.
 Two-electron integral symmetry is turned on.
 One-electron integrals computed using PRISM.
 PrsmSu:  requested number of processors reduced to:  13 ShMem   1 Linda.
 NBasis=   160 RedAO= T EigKep=  1.51D-04  NBF=   160
 NBsUse=   160 1.00D-06 EigRej= -1.00D+00 NBFU=   160
 Initial guess from the checkpoint file:  "CtCCCtC.chk"
 B after Tr=    -0.000000    0.000000   -0.000000
         Rot=    1.000000    0.000056   -0.000005   -0.000211 Ang=   0.03 deg.
 ExpMin= 1.61D-01 ExpMax= 3.05D+03 ExpMxC= 4.57D+02 IAcc=2 IRadAn=         4 AccDes= 0.00D+00
 Harris functional with IExCor=  402 and IRadAn=       4 diagonalized for initial guess.
 HarFok:  IExCor=  402 AccDes= 0.00D+00 IRadAn=         4 IDoV= 1 UseB2=F ITyADJ=14
 ICtDFT=  3500011 ScaDFX=  1.000000  1.000000  1.000000  1.000000
 FoFCou: FMM=F IPFlag=           0 FMFlag=      100000 FMFlg1=           0
         NFxFlg=           0 DoJE=T BraDBF=F KetDBF=T FulRan=T
         wScrn=  0.000000 ICntrl=       500 IOpCl=  0 I1Cent=   200000004 NGrid=           0
         NMat0=    1 NMatS0=      1 NMatT0=    0 NMatD0=    1 NMtDS0=    0 NMtDT0=    0
 Petite list used in FoFCou.
 Keep R1 ints in memory in canonical form, NReq=102951637.
 CoulSu:  requested number of processors reduced to:  11 ShMem   1 Linda.
 Requested convergence on RMS density matrix=1.00D-08 within 128 cycles.
 Requested convergence on MAX density matrix=1.00D-06.
 Requested convergence on             energy=1.00D-06.
 No special actions if energy rises.
 Integral accuracy reduced to 1.0D-05 until final iterations.
 Initial convergence to 1.0D-05 achieved.  Increase integral accuracy.
 CalDSu:  requested number of processors reduced to:  19 ShMem   1 Linda.
 CalDSu:  requested number of processors reduced to:  19 ShMem   1 Linda.
 CalDSu:  requested number of processors reduced to:  19 ShMem   1 Linda.
 CalDSu:  requested number of processors reduced to:  19 ShMem   1 Linda.
 CalDSu:  requested number of processors reduced to:  19 ShMem   1 Linda.
 CalDSu:  requested number of processors reduced to:  19 ShMem   1 Linda.
 CalDSu:  requested number of processors reduced to:  19 ShMem   1 Linda.
 SCF Done:  E(RB3LYP) =  -192.801181969     A.U. after   12 cycles
            NFock= 12  Conv=0.95D-09     -V/T= 2.0085
 PrsmSu:  requested number of processors reduced to:  13 ShMem   1 Linda.
 Calling FoFJK, ICntrl=      2127 FMM=F ISym2X=0 I1Cent= 0 IOpClX= 0 NMat=1 NMatS=1 NMatT=0.
 ***** Axes restored to original set *****
 -------------------------------------------------------------------
 Center     Atomic                   Forces (Hartrees/Bohr)
 Number     Number              X              Y              Z
 -------------------------------------------------------------------
      1        6           0.000395760   -0.000150103    0.000135940
      2        6          -0.000228058    0.003347470   -0.003082355
      3        6          -0.003146501   -0.004312516    0.003962024
      4        6           0.002041682   -0.000096528    0.000078161
      5        6           0.000148227    0.000424140   -0.000413458
      6        1          -0.000305116   -0.000704181    0.000646870
      7        1           0.000671616    0.001138067   -0.000480560
      8        1           0.000656060    0.000581584   -0.001082445
      9        1          -0.000233670   -0.000227933    0.000235823
 -------------------------------------------------------------------
 Cartesian Forces:  Max     0.004312516 RMS     0.001664397

 GradGradGradGradGradGradGradGradGradGradGradGradGradGradGradGradGradGrad
 Berny optimization.
 Using GEDIIS/GDIIS optimizer.
 FormGI is forming the generalized inverse of G from B-inverse, IUseBI=4.
 Internal  Forces:  Max     0.004566497 RMS     0.001473210
 Search for a local minimum.
 Step number   3 out of a maximum of   33
 All quantities printed in internal units (Hartrees-Bohrs-Radians)
 Mixed Optimization -- RFO/linear search
 Update second derivatives using D2CorX and points    1    2    3
 DE= -5.03D-04 DEPred=-5.71D-04 R= 8.81D-01
 TightC=F SS=  1.41D+00  RLast= 9.18D-02 DXNew= 8.4853D-01 2.7545D-01
 Trust test= 8.81D-01 RLast= 9.18D-02 DXMaxT set to 5.05D-01
 ITU=  1  1  0
 Use linear search instead of GDIIS.
     Eigenvalues ---    0.00501   0.00548   0.00556   0.00557   0.00557
     Eigenvalues ---    0.00777   0.03360   0.03408   0.07550   0.13549
     Eigenvalues ---    0.16000   0.16001   0.18154   0.30331   0.31835
     Eigenvalues ---    0.34280   0.35187   0.37790   0.38054   0.66134
     Eigenvalues ---    0.84834
 RFO step:  Lambda=-2.92422638D-03 EMin= 5.01385254D-03
 Quartic linear search produced a step of -0.10636.
 Maximum step size (   0.505) exceeded in Quadratic search.
    -- Step size scaled by   0.991
 Iteration  1 RMS(Cart)=  0.12993925 RMS(Int)=  0.05144837
 Iteration  2 RMS(Cart)=  0.14440920 RMS(Int)=  0.01095988
 Iteration  3 RMS(Cart)=  0.02848537 RMS(Int)=  0.00076508
 Iteration  4 RMS(Cart)=  0.00033836 RMS(Int)=  0.00072915
 Iteration  5 RMS(Cart)=  0.00000006 RMS(Int)=  0.00072915
 Variable       Old X    -DE/DX   Delta X   Delta X   Delta X     New X
                                 (Linear)    (Quad)   (Total)
    R1        2.26841  -0.00018  -0.00040   0.00096   0.00056   2.26897
    R2        2.00604   0.00023   0.00054  -0.01320  -0.01266   1.99338
    R3        2.76822   0.00019   0.00357  -0.09259  -0.08902   2.67919
    R4        2.76762   0.00059   0.00363  -0.09297  -0.08934   2.67828
    R5        2.07146   0.00114  -0.00028   0.01004   0.00976   2.08122
    R6        2.07154   0.00111  -0.00029   0.01018   0.00990   2.08144
    R7        2.26838  -0.00028  -0.00040   0.00078   0.00038   2.26876
    R8        2.00604   0.00021   0.00054  -0.01321  -0.01268   1.99337
    A1        1.96354   0.00374  -0.00334   0.10037   0.09571   2.05925
    A2        1.90887  -0.00103   0.00007  -0.00523  -0.00632   1.90255
    A3        1.90893  -0.00103   0.00006  -0.00505  -0.00614   1.90279
    A4        1.90956   0.00031   0.00035  -0.00947  -0.01103   1.89853
    A5        1.90923  -0.00026   0.00020  -0.00636  -0.00757   1.90166
    A6        1.86088  -0.00204   0.00290  -0.08428  -0.08268   1.77820
    A7        3.14661  -0.00196  -0.00120  -0.19154  -0.19274   2.95386
    A8        3.20251  -0.00457  -0.00631  -0.42384  -0.43015   2.77236
    A9        3.15333  -0.00064  -0.00112   0.01040   0.00928   3.16261
   A10        3.14612  -0.00069  -0.00115  -0.05430  -0.05545   3.09066
   A11        3.14158   0.00001   0.00000   0.00055   0.00055   3.14213
   A12        3.14198  -0.00002  -0.00004  -0.00132  -0.00136   3.14062
   A13        3.14107   0.00003   0.00006  -0.00050  -0.00045   3.14062
   A14        3.14076   0.00002   0.00009   0.00091   0.00100   3.14176
    D1       -2.06319   0.00092  -0.00220   0.06173   0.05885  -2.00434
         Item               Value     Threshold  Converged?
 Maximum Force            0.004566     0.000450     NO 
 RMS     Force            0.001473     0.000300     NO 
 Maximum Displacement     0.698284     0.001800     NO 
 RMS     Displacement     0.288146     0.001200     NO 
 Predicted change in Energy=-1.853261D-03
 GradGradGradGradGradGradGradGradGradGradGradGradGradGradGradGradGradGrad

                          Input orientation:                          
 ---------------------------------------------------------------------
 Center     Atomic      Atomic             Coordinates (Angstroms)
 Number     Number       Type             X           Y           Z
 ---------------------------------------------------------------------
      1          6           0        1.174581   -0.098752    0.049020
      2          6           0        2.353666    0.067553   -0.105086
      3          6           0        3.748717   -0.118484    0.066064
      4          6           0        4.179981   -1.107902    0.984624
      5          6           0        4.569259   -1.940890    1.756622
      6          1           0        0.194083   -0.384423    0.313075
      7          1           0        4.207988    0.844197    0.340386
      8          1           0        4.207471   -0.317151   -0.915398
      9          1           0        4.860044   -2.684508    2.445952
 ---------------------------------------------------------------------
                    Distance matrix (angstroms):
                    1          2          3          4          5
     1  C    0.000000
     2  C    1.200687   0.000000
     3  C    2.574268   1.417769   0.000000
     4  C    3.305476   2.429936   1.417283   0.000000
     5  C    4.222939   3.522591   2.617717   1.200578   0.000000
     6  H    1.054851   2.245650   3.573117   4.106311   4.862981
     7  H    3.189923   2.059158   1.101334   2.055849   3.145306
     8  H    3.190019   2.059416   1.101449   2.058186   3.147556
     9  H    5.100397   4.512600   3.671974   2.254695   1.054845
                    6          7          8          9
     6  H    0.000000
     7  H    4.197820   0.000000
     8  H    4.197732   1.710474   0.000000
     9  H    5.622343   4.160570   4.162800   0.000000
 Stoichiometry    C5H4
 Framework group  C1[X(C5H4)]
 Deg. of freedom    21
 Full point group                 C1      NOp   1
 Largest Abelian subgroup         C1      NOp   1
 Largest concise Abelian subgroup C1      NOp   1
                         Standard orientation:                         
 ---------------------------------------------------------------------
 Center     Atomic      Atomic             Coordinates (Angstroms)
 Number     Number       Type             X           Y           Z
 ---------------------------------------------------------------------
      1          6           0        2.073155   -0.668028   -0.000007
      2          6           0        1.277800    0.231448   -0.000360
      3          6           0        0.018630    0.883030    0.000394
      4          6           0       -1.147232    0.077141   -0.000278
      5          6           0       -2.148960   -0.584619    0.000130
      6          1           0        2.612150   -1.574778    0.000871
      7          1           0       -0.027924    1.574560   -0.855501
      8          1           0       -0.026227    1.576482    0.854971
      9          1           0       -2.998354   -1.210102    0.000389
 ---------------------------------------------------------------------
 Rotational constants (GHZ):          16.8595094           3.1626580           2.7051229
 Standard basis: 6-31G(2df,p) (6D, 7F)
 There are   175 symmetry adapted cartesian basis functions of A   symmetry.
 There are   160 symmetry adapted basis functions of A   symmetry.
   160 basis functions,   248 primitive gaussians,   175 cartesian basis functions
    17 alpha electrons       17 beta electrons
       nuclear repulsion energy       127.0149894278 Hartrees.
 NAtoms=    9 NActive=    9 NUniq=    9 SFac= 1.00D+00 NAtFMM=   60 NAOKFM=F Big=F
 Integral buffers will be    131072 words long.
 Raffenetti 2 integral format.
 Two-electron integral symmetry is turned on.
 One-electron integrals computed using PRISM.
 PrsmSu:  requested number of processors reduced to:  13 ShMem   1 Linda.
 NBasis=   160 RedAO= T EigKep=  1.67D-04  NBF=   160
 NBsUse=   160 1.00D-06 EigRej= -1.00D+00 NBFU=   160
 Initial guess from the checkpoint file:  "CtCCCtC.chk"
 B after Tr=    -0.000000   -0.000000    0.000000
         Rot=    0.999961    0.000092   -0.000019    0.008852 Ang=   1.01 deg.
 ExpMin= 1.61D-01 ExpMax= 3.05D+03 ExpMxC= 4.57D+02 IAcc=2 IRadAn=         4 AccDes= 0.00D+00
 Harris functional with IExCor=  402 and IRadAn=       4 diagonalized for initial guess.
 HarFok:  IExCor=  402 AccDes= 0.00D+00 IRadAn=         4 IDoV= 1 UseB2=F ITyADJ=14
 ICtDFT=  3500011 ScaDFX=  1.000000  1.000000  1.000000  1.000000
 FoFCou: FMM=F IPFlag=           0 FMFlag=      100000 FMFlg1=           0
         NFxFlg=           0 DoJE=T BraDBF=F KetDBF=T FulRan=T
         wScrn=  0.000000 ICntrl=       500 IOpCl=  0 I1Cent=   200000004 NGrid=           0
         NMat0=    1 NMatS0=      1 NMatT0=    0 NMatD0=    1 NMtDS0=    0 NMtDT0=    0
 Petite list used in FoFCou.
 Keep R1 ints in memory in canonical form, NReq=102951637.
 CoulSu:  requested number of processors reduced to:  11 ShMem   1 Linda.
 Requested convergence on RMS density matrix=1.00D-08 within 128 cycles.
 Requested convergence on MAX density matrix=1.00D-06.
 Requested convergence on             energy=1.00D-06.
 No special actions if energy rises.
 Integral accuracy reduced to 1.0D-05 until final iterations.
 Initial convergence to 1.0D-05 achieved.  Increase integral accuracy.
 CalDSu:  requested number of processors reduced to:  19 ShMem   1 Linda.
 CalDSu:  requested number of processors reduced to:  19 ShMem   1 Linda.
 CalDSu:  requested number of processors reduced to:  19 ShMem   1 Linda.
 CalDSu:  requested number of processors reduced to:  19 ShMem   1 Linda.
 CalDSu:  requested number of processors reduced to:  19 ShMem   1 Linda.
 CalDSu:  requested number of processors reduced to:  19 ShMem   1 Linda.
 SCF Done:  E(RB3LYP) =  -192.788765204     A.U. after   14 cycles
            NFock= 14  Conv=0.95D-08     -V/T= 2.0073
 PrsmSu:  requested number of processors reduced to:  13 ShMem   1 Linda.
 Calling FoFJK, ICntrl=      2127 FMM=F ISym2X=0 I1Cent= 0 IOpClX= 0 NMat=1 NMatS=1 NMatT=0.
 ***** Axes restored to original set *****
 -------------------------------------------------------------------
 Center     Atomic                   Forces (Hartrees/Bohr)
 Number     Number              X              Y              Z
 -------------------------------------------------------------------
      1        6           0.001872728   -0.000748524    0.000684652
      2        6          -0.032381706   -0.015365249    0.014175945
      3        6           0.034738245    0.034018714   -0.031266732
      4        6           0.003368710   -0.023216864    0.021220617
      5        6          -0.003621125    0.003912323   -0.003599249
      6        1          -0.009607999    0.005355742   -0.004937260
      7        1           0.001346974    0.001217973    0.001460223
      8        1           0.001353217   -0.001546115   -0.001122847
      9        1           0.002930955   -0.003628000    0.003384652
 -------------------------------------------------------------------
 Cartesian Forces:  Max     0.034738245 RMS     0.014985599

 GradGradGradGradGradGradGradGradGradGradGradGradGradGradGradGradGradGrad
 Berny optimization.
 Using GEDIIS/GDIIS optimizer.
 FormGI is forming the generalized inverse of G from B-inverse, IUseBI=4.
 Internal  Forces:  Max     0.037843880 RMS     0.014047573
 Search for a local minimum.
 Step number   4 out of a maximum of   33
 All quantities printed in internal units (Hartrees-Bohrs-Radians)
 Mixed Optimization -- RFO/linear search
 Update second derivatives using D2CorX and points    1    2    4    3
 DE=  1.24D-02 DEPred=-1.85D-03 R=-6.70D+00
 Trust test=-6.70D+00 RLast= 5.11D-01 DXMaxT set to 2.52D-01
 ITU= -1  1  1  0
 Use linear search instead of GDIIS.
     Eigenvalues ---    0.00501   0.00547   0.00557   0.00557   0.00557
     Eigenvalues ---    0.03344   0.03360   0.07847   0.09280   0.14027
     Eigenvalues ---    0.16000   0.16017   0.19723   0.30470   0.33148
     Eigenvalues ---    0.34280   0.36680   0.37790   0.39293   0.66244
     Eigenvalues ---    0.78889
 RFO step:  Lambda=-1.64548523D-04 EMin= 5.01385762D-03
 Quartic linear search produced a step of -0.90183.
 Iteration  1 RMS(Cart)=  0.15008816 RMS(Int)=  0.04086019
 Iteration  2 RMS(Cart)=  0.12482142 RMS(Int)=  0.00770497
 Iteration  3 RMS(Cart)=  0.01095901 RMS(Int)=  0.00023029
 Iteration  4 RMS(Cart)=  0.00002472 RMS(Int)=  0.00022972
 Iteration  5 RMS(Cart)=  0.00000000 RMS(Int)=  0.00022972
 Variable       Old X    -DE/DX   Delta X   Delta X   Delta X     New X
                                 (Linear)    (Quad)   (Total)
    R1        2.26897   0.00641  -0.00051   0.00057   0.00007   2.26904
    R2        1.99338   0.00624   0.01142   0.00148   0.01290   2.00628
    R3        2.67919   0.03686   0.08028   0.00799   0.08827   2.76747
    R4        2.67828   0.03044   0.08057   0.00693   0.08750   2.76578
    R5        2.08122   0.00199  -0.00880   0.00361  -0.00520   2.07602
    R6        2.08144   0.00184  -0.00892   0.00352  -0.00541   2.07603
    R7        2.26876  -0.00056  -0.00034  -0.00059  -0.00093   2.26784
    R8        1.99337   0.00558   0.01143   0.00128   0.01271   2.00608
    A1        2.05925  -0.01369  -0.08631   0.01182  -0.07409   1.98515
    A2        1.90255   0.00551   0.00570  -0.00076   0.00531   1.90786
    A3        1.90279   0.00539   0.00554  -0.00081   0.00510   1.90789
    A4        1.89853   0.00020   0.00995  -0.00112   0.00941   1.90794
    A5        1.90166   0.00150   0.00683  -0.00047   0.00682   1.90847
    A6        1.77820   0.00359   0.07456  -0.01222   0.06278   1.84098
    A7        2.95386   0.02056   0.17382   0.05889   0.23271   3.18657
    A8        2.77236   0.03784   0.38792  -0.03150   0.35642   3.12878
    A9        3.16261   0.00167  -0.00837  -0.00913  -0.01750   3.14511
   A10        3.09066   0.00289   0.05001  -0.05110  -0.00110   3.08957
   A11        3.14213  -0.00004  -0.00049   0.00016  -0.00034   3.14179
   A12        3.14062   0.00007   0.00123  -0.00148  -0.00025   3.14037
   A13        3.14062   0.00010   0.00040   0.00099   0.00139   3.14201
   A14        3.14176   0.00002  -0.00090   0.00359   0.00269   3.14445
    D1       -2.00434  -0.00252  -0.05307   0.00727  -0.04562  -2.04996
         Item               Value     Threshold  Converged?
 Maximum Force            0.037844     0.000450     NO 
 RMS     Force            0.014048     0.000300     NO 
 Maximum Displacement     0.633783     0.001800     NO 
 RMS     Displacement     0.258714     0.001200     NO 
 Predicted change in Energy=-5.077849D-04
 GradGradGradGradGradGradGradGradGradGradGradGradGradGradGradGradGradGrad

                          Input orientation:                          
 ---------------------------------------------------------------------
 Center     Atomic      Atomic             Coordinates (Angstroms)
 Number     Number       Type             X           Y           Z
 ---------------------------------------------------------------------
      1          6           0        1.080579   -0.099441    0.049481
      2          6           0        2.281053   -0.116965    0.066393
      3          6           0        3.744732   -0.153017    0.098772
      4          6           0        4.289326   -1.149663    1.021921
      5          6           0        4.739786   -1.965460    1.778076
      6          1           0        0.021160   -0.049040    0.002005
      7          1           0        4.126727    0.840650    0.370051
      8          1           0        4.125878   -0.347488   -0.913061
      9          1           0        5.086550   -2.699936    2.461622
 ---------------------------------------------------------------------
                    Distance matrix (angstroms):
                    1          2          3          4          5
     1  C    0.000000
     2  C    1.200722   0.000000
     3  C    2.665148   1.464480   0.000000
     4  C    3.513498   2.452072   1.463589   0.000000
     5  C    4.456441   3.520250   2.663672   1.200087   0.000000
     6  H    1.061679   2.261830   3.726280   4.524250   5.393749
     7  H    3.203991   2.101368   1.098584   2.100648   3.198848
     8  H    3.203414   2.101392   1.098589   2.101037   3.199521
     9  H    5.350589   4.503296   3.724290   2.260896   1.061572
                    6          7          8          9
     6  H    0.000000
     7  H    4.216952   0.000000
     8  H    4.216056   1.748728   0.000000
     9  H    6.223756   4.222758   4.224380   0.000000
 Stoichiometry    C5H4
 Framework group  C1[X(C5H4)]
 Deg. of freedom    21
 Full point group                 C1      NOp   1
 Largest Abelian subgroup         C1      NOp   1
 Largest concise Abelian subgroup C1      NOp   1
                         Standard orientation:                         
 ---------------------------------------------------------------------
 Center     Atomic      Atomic             Coordinates (Angstroms)
 Number     Number       Type             X           Y           Z
 ---------------------------------------------------------------------
      1          6           0        2.224418   -0.588036    0.000099
      2          6           0        1.226753    0.080093   -0.000549
      3          6           0       -0.000404    0.879335    0.000019
      4          6           0       -1.225318    0.078288    0.000366
      5          6           0       -2.232005   -0.575005    0.000270
      6          1           0        3.132225   -1.138533    0.000797
      7          1           0       -0.001305    1.544303   -0.874455
      8          1           0       -0.000340    1.544600    0.874272
      9          1           0       -3.091242   -1.198417   -0.001838
 ---------------------------------------------------------------------
 Rotational constants (GHZ):          18.9704538           2.8666874           2.5287656
 Standard basis: 6-31G(2df,p) (6D, 7F)
 There are   175 symmetry adapted cartesian basis functions of A   symmetry.
 There are   160 symmetry adapted basis functions of A   symmetry.
   160 basis functions,   248 primitive gaussians,   175 cartesian basis functions
    17 alpha electrons       17 beta electrons
       nuclear repulsion energy       124.7061123433 Hartrees.
 NAtoms=    9 NActive=    9 NUniq=    9 SFac= 1.00D+00 NAtFMM=   60 NAOKFM=F Big=F
 Integral buffers will be    131072 words long.
 Raffenetti 2 integral format.
 Two-electron integral symmetry is turned on.
 One-electron integrals computed using PRISM.
 PrsmSu:  requested number of processors reduced to:  13 ShMem   1 Linda.
 NBasis=   160 RedAO= T EigKep=  1.57D-04  NBF=   160
 NBsUse=   160 1.00D-06 EigRej= -1.00D+00 NBFU=   160
 Lowest energy guess from the checkpoint file:  "CtCCCtC.chk"
 B after Tr=    -0.000000   -0.000000    0.000000
         Rot=    1.000000    0.000032   -0.000013   -0.000063 Ang=   0.01 deg.
 B after Tr=     0.000000    0.000000   -0.000000
         Rot=    0.999960   -0.000032    0.000001   -0.008966 Ang=  -1.03 deg.
 Keep R1 ints in memory in canonical form, NReq=102951637.
 CoulSu:  requested number of processors reduced to:  11 ShMem   1 Linda.
 Requested convergence on RMS density matrix=1.00D-08 within 128 cycles.
 Requested convergence on MAX density matrix=1.00D-06.
 Requested convergence on             energy=1.00D-06.
 No special actions if energy rises.
 Integral accuracy reduced to 1.0D-05 until final iterations.
 Initial convergence to 1.0D-05 achieved.  Increase integral accuracy.
 CalDSu:  requested number of processors reduced to:  19 ShMem   1 Linda.
 CalDSu:  requested number of processors reduced to:  19 ShMem   1 Linda.
 CalDSu:  requested number of processors reduced to:  19 ShMem   1 Linda.
 CalDSu:  requested number of processors reduced to:  19 ShMem   1 Linda.
 CalDSu:  requested number of processors reduced to:  19 ShMem   1 Linda.
 CalDSu:  requested number of processors reduced to:  19 ShMem   1 Linda.
 CalDSu:  requested number of processors reduced to:  19 ShMem   1 Linda.
 SCF Done:  E(RB3LYP) =  -192.801237811     A.U. after   11 cycles
            NFock= 11  Conv=0.34D-08     -V/T= 2.0085
 PrsmSu:  requested number of processors reduced to:  13 ShMem   1 Linda.
 Calling FoFJK, ICntrl=      2127 FMM=F ISym2X=0 I1Cent= 0 IOpClX= 0 NMat=1 NMatS=1 NMatT=0.
 ***** Axes restored to original set *****
 -------------------------------------------------------------------
 Center     Atomic                   Forces (Hartrees/Bohr)
 Number     Number              X              Y              Z
 -------------------------------------------------------------------
      1        6           0.001093535    0.001634050   -0.001507843
      2        6          -0.000333757   -0.001388256    0.001201083
      3        6           0.000604725    0.000719629   -0.000621619
      4        6          -0.000823487    0.000083970   -0.000081136
      5        6          -0.001598780   -0.000515714    0.000567092
      6        1          -0.000204772   -0.000736898    0.000705598
      7        1          -0.000059040    0.000112621    0.000033775
      8        1          -0.000066407   -0.000044841   -0.000100180
      9        1           0.001387982    0.000135439   -0.000196769
 -------------------------------------------------------------------
 Cartesian Forces:  Max     0.001634050 RMS     0.000812548

 GradGradGradGradGradGradGradGradGradGradGradGradGradGradGradGradGradGrad
 Berny optimization.
 Using GEDIIS/GDIIS optimizer.
 FormGI is forming the generalized inverse of G from B-inverse, IUseBI=4.
 Internal  Forces:  Max     0.002784675 RMS     0.000892583
 Search for a local minimum.
 Step number   5 out of a maximum of   33
 All quantities printed in internal units (Hartrees-Bohrs-Radians)
 Mixed Optimization -- En-DIIS/RFO-DIIS
 Update second derivatives using D2CorX and points    1    2    4    3    5
 DE= -5.58D-05 DEPred=-5.08D-04 R= 1.10D-01
 Trust test= 1.10D-01 RLast= 1.07D-01 DXMaxT set to 2.52D-01
 ITU=  0 -1  1  1  0
 Use linear search instead of GDIIS.
     Eigenvalues ---    0.00501   0.00537   0.00557   0.00557   0.01571
     Eigenvalues ---    0.03352   0.03407   0.07642   0.09336   0.11627
     Eigenvalues ---    0.16000   0.16014   0.18895   0.30512   0.32693
     Eigenvalues ---    0.34280   0.36728   0.37792   0.39369   0.66477
     Eigenvalues ---    0.84980
 RFO step:  Lambda=-3.96461760D-04 EMin= 5.01398238D-03
 Quartic linear search produced a step of -0.42891.
 Iteration  1 RMS(Cart)=  0.07233284 RMS(Int)=  0.00459550
 Iteration  2 RMS(Cart)=  0.00462861 RMS(Int)=  0.00008253
 Iteration  3 RMS(Cart)=  0.00000959 RMS(Int)=  0.00008231
 Iteration  4 RMS(Cart)=  0.00000000 RMS(Int)=  0.00008231
 Variable       Old X    -DE/DX   Delta X   Delta X   Delta X     New X
                                 (Linear)    (Quad)   (Total)
    R1        2.26904  -0.00086  -0.00027  -0.00015  -0.00042   2.26862
    R2        2.00628   0.00014  -0.00010  -0.00022  -0.00032   2.00596
    R3        2.76747  -0.00058   0.00032  -0.00791  -0.00758   2.75988
    R4        2.76578  -0.00000   0.00079  -0.00932  -0.00853   2.75725
    R5        2.07602   0.00009  -0.00196   0.00894   0.00698   2.08301
    R6        2.07603   0.00008  -0.00193   0.00880   0.00687   2.08291
    R7        2.26784   0.00041   0.00024  -0.00153  -0.00130   2.26654
    R8        2.00608   0.00023  -0.00002  -0.00050  -0.00051   2.00557
    A1        1.98515  -0.00079  -0.00927   0.04291   0.03349   2.01864
    A2        1.90786   0.00021   0.00043  -0.00188  -0.00159   1.90628
    A3        1.90789   0.00017   0.00045  -0.00204  -0.00173   1.90616
    A4        1.90794   0.00006   0.00070  -0.00311  -0.00262   1.90532
    A5        1.90847   0.00020   0.00032  -0.00160  -0.00144   1.90703
    A6        1.84098   0.00023   0.00854  -0.04064  -0.03226   1.80872
    A7        3.18657  -0.00207  -0.01714  -0.05984  -0.07698   3.10959
    A8        3.12878   0.00070   0.03162  -0.01726   0.01436   3.14315
    A9        3.14511   0.00189   0.00353   0.01155   0.01508   3.16019
   A10        3.08957   0.00278   0.02425   0.11065   0.13490   3.22447
   A11        3.14179  -0.00002  -0.00009  -0.00120  -0.00129   3.14050
   A12        3.14037   0.00006   0.00069   0.00240   0.00309   3.14346
   A13        3.14201  -0.00006  -0.00041   0.00089   0.00049   3.14250
   A14        3.14445  -0.00007  -0.00158   0.00132  -0.00027   3.14418
    D1       -2.04996  -0.00029  -0.00567   0.02636   0.02062  -2.02933
         Item               Value     Threshold  Converged?
 Maximum Force            0.002785     0.000450     NO 
 RMS     Force            0.000893     0.000300     NO 
 Maximum Displacement     0.247006     0.001800     NO 
 RMS     Displacement     0.072246     0.001200     NO 
 Predicted change in Energy=-2.730166D-04
 GradGradGradGradGradGradGradGradGradGradGradGradGradGradGradGradGradGrad

                          Input orientation:                          
 ---------------------------------------------------------------------
 Center     Atomic      Atomic             Coordinates (Angstroms)
 Number     Number       Type             X           Y           Z
 ---------------------------------------------------------------------
      1          6           0        1.064808   -0.046937    0.000145
      2          6           0        2.262408   -0.108800    0.056082
      3          6           0        3.719503   -0.181066    0.124029
      4          6           0        4.260531   -1.174990    1.045065
      5          6           0        4.725906   -1.985282    1.797003
      6          1           0        0.004049   -0.016577   -0.025684
      7          1           0        4.120228    0.811654    0.386610
      8          1           0        4.121096   -0.364490   -0.885912
      9          1           0        5.217260   -2.673872    2.437921
 ---------------------------------------------------------------------
                    Distance matrix (angstroms):
                    1          2          3          4          5
     1  C    0.000000
     2  C    1.200501   0.000000
     3  C    2.660966   1.460467   0.000000
     4  C    3.546407   2.471303   1.459075   0.000000
     5  C    4.515475   3.552578   2.658361   1.199400   0.000000
     6  H    1.061508   2.261720   3.722106   4.539390   5.430831
     7  H    3.197205   2.099518   1.102281   2.097618   3.190440
     8  H    3.197942   2.099393   1.102226   2.098814   3.192302
     9  H    5.485107   4.580819   3.716376   2.258767   1.061302
                    6          7          8          9
     6  H    0.000000
     7  H    4.218872   0.000000
     8  H    4.220321   1.732809   0.000000
     9  H    6.348869   4.190495   4.193171   0.000000
 Stoichiometry    C5H4
 Framework group  C1[X(C5H4)]
 Deg. of freedom    21
 Full point group                 C1      NOp   1
 Largest Abelian subgroup         C1      NOp   1
 Largest concise Abelian subgroup C1      NOp   1
                         Standard orientation:                         
 ---------------------------------------------------------------------
 Center     Atomic      Atomic             Coordinates (Angstroms)
 Number     Number       Type             X           Y           Z
 ---------------------------------------------------------------------
      1          6           0        2.260961   -0.555106   -0.000049
      2          6           0        1.239370    0.075412    0.000742
      3          6           0       -0.002251    0.844398   -0.000254
      4          6           0       -1.231878    0.058958    0.000418
      5          6           0       -2.254496   -0.567790    0.000178
      6          1           0        3.145974   -1.141236   -0.001519
      7          1           0       -0.007455    1.524085   -0.868023
      8          1           0       -0.006582    1.527475    0.864783
      9          1           0       -3.202174   -1.045561   -0.001453
 ---------------------------------------------------------------------
 Rotational constants (GHZ):          20.3450961           2.7952147           2.4942739
 Standard basis: 6-31G(2df,p) (6D, 7F)
 There are   175 symmetry adapted cartesian basis functions of A   symmetry.
 There are   160 symmetry adapted basis functions of A   symmetry.
   160 basis functions,   248 primitive gaussians,   175 cartesian basis functions
    17 alpha electrons       17 beta electrons
       nuclear repulsion energy       124.5751178914 Hartrees.
 NAtoms=    9 NActive=    9 NUniq=    9 SFac= 1.00D+00 NAtFMM=   60 NAOKFM=F Big=F
 Integral buffers will be    131072 words long.
 Raffenetti 2 integral format.
 Two-electron integral symmetry is turned on.
 One-electron integrals computed using PRISM.
 PrsmSu:  requested number of processors reduced to:  13 ShMem   1 Linda.
 NBasis=   160 RedAO= T EigKep=  1.58D-04  NBF=   160
 NBsUse=   160 1.00D-06 EigRej= -1.00D+00 NBFU=   160
 Initial guess from the checkpoint file:  "CtCCCtC.chk"
 B after Tr=    -0.000000    0.000000   -0.000000
         Rot=    1.000000    0.000143   -0.000001    0.000309 Ang=   0.04 deg.
 ExpMin= 1.61D-01 ExpMax= 3.05D+03 ExpMxC= 4.57D+02 IAcc=2 IRadAn=         4 AccDes= 0.00D+00
 Harris functional with IExCor=  402 and IRadAn=       4 diagonalized for initial guess.
 HarFok:  IExCor=  402 AccDes= 0.00D+00 IRadAn=         4 IDoV= 1 UseB2=F ITyADJ=14
 ICtDFT=  3500011 ScaDFX=  1.000000  1.000000  1.000000  1.000000
 FoFCou: FMM=F IPFlag=           0 FMFlag=      100000 FMFlg1=           0
         NFxFlg=           0 DoJE=T BraDBF=F KetDBF=T FulRan=T
         wScrn=  0.000000 ICntrl=       500 IOpCl=  0 I1Cent=   200000004 NGrid=           0
         NMat0=    1 NMatS0=      1 NMatT0=    0 NMatD0=    1 NMtDS0=    0 NMtDT0=    0
 Petite list used in FoFCou.
 Keep R1 ints in memory in canonical form, NReq=102951637.
 CoulSu:  requested number of processors reduced to:  11 ShMem   1 Linda.
 Requested convergence on RMS density matrix=1.00D-08 within 128 cycles.
 Requested convergence on MAX density matrix=1.00D-06.
 Requested convergence on             energy=1.00D-06.
 No special actions if energy rises.
 Integral accuracy reduced to 1.0D-05 until final iterations.
 Initial convergence to 1.0D-05 achieved.  Increase integral accuracy.
 CalDSu:  requested number of processors reduced to:  19 ShMem   1 Linda.
 CalDSu:  requested number of processors reduced to:  19 ShMem   1 Linda.
 CalDSu:  requested number of processors reduced to:  19 ShMem   1 Linda.
 CalDSu:  requested number of processors reduced to:  19 ShMem   1 Linda.
 CalDSu:  requested number of processors reduced to:  19 ShMem   1 Linda.
 CalDSu:  requested number of processors reduced to:  19 ShMem   1 Linda.
 SCF Done:  E(RB3LYP) =  -192.800912760     A.U. after   11 cycles
            NFock= 11  Conv=0.90D-08     -V/T= 2.0085
 PrsmSu:  requested number of processors reduced to:  13 ShMem   1 Linda.
 Calling FoFJK, ICntrl=      2127 FMM=F ISym2X=0 I1Cent= 0 IOpClX= 0 NMat=1 NMatS=1 NMatT=0.
 ***** Axes restored to original set *****
 -------------------------------------------------------------------
 Center     Atomic                   Forces (Hartrees/Bohr)
 Number     Number              X              Y              Z
 -------------------------------------------------------------------
      1        6           0.000795261   -0.000750007    0.000709796
      2        6          -0.001712920   -0.001980757    0.001955466
      3        6           0.004439200    0.006538573   -0.006009599
      4        6          -0.002386551   -0.000313988    0.000213578
      5        6           0.003699830    0.000053191    0.000008471
      6        1          -0.000233569    0.000669432   -0.000672442
      7        1          -0.001378356   -0.001442623    0.001416329
      8        1          -0.001294015   -0.001621581    0.001361563
      9        1          -0.001928879   -0.001152239    0.001016838
 -------------------------------------------------------------------
 Cartesian Forces:  Max     0.006538573 RMS     0.002354414

 GradGradGradGradGradGradGradGradGradGradGradGradGradGradGradGradGradGrad
 Berny optimization.
 Using GEDIIS/GDIIS optimizer.
 FormGI is forming the generalized inverse of G from B-inverse, IUseBI=4.
 Internal  Forces:  Max     0.005024931 RMS     0.002062168
 Search for a local minimum.
 Step number   6 out of a maximum of   33
 All quantities printed in internal units (Hartrees-Bohrs-Radians)
 Mixed Optimization -- RFO/linear search
 Update second derivatives using D2CorX and points    1    2    4    3    6
                                                      5
 DE=  3.25D-04 DEPred=-2.73D-04 R=-1.19D+00
 Trust test=-1.19D+00 RLast= 1.66D-01 DXMaxT set to 1.26D-01
 ITU= -1  0 -1  1  1  0
 Use linear search instead of GDIIS.
     Eigenvalues ---    0.00501   0.00547   0.00557   0.00558   0.02422
     Eigenvalues ---    0.03361   0.07186   0.07501   0.09473   0.13195
     Eigenvalues ---    0.16000   0.16019   0.19337   0.29479   0.30489
     Eigenvalues ---    0.33608   0.34280   0.37789   0.37830   0.66282
     Eigenvalues ---    0.84686
 RFO step:  Lambda=-2.04583327D-04 EMin= 5.01404421D-03
 Quartic linear search produced a step of -0.68717.
 Maximum step size (   0.126) exceeded in Quadratic search.
    -- Step size scaled by   0.863
 Iteration  1 RMS(Cart)=  0.05541964 RMS(Int)=  0.00359230
 Iteration  2 RMS(Cart)=  0.00374135 RMS(Int)=  0.00002302
 Iteration  3 RMS(Cart)=  0.00000596 RMS(Int)=  0.00002265
 Iteration  4 RMS(Cart)=  0.00000000 RMS(Int)=  0.00002265
 Variable       Old X    -DE/DX   Delta X   Delta X   Delta X     New X
                                 (Linear)    (Quad)   (Total)
    R1        2.26862  -0.00057   0.00029  -0.00128  -0.00099   2.26763
    R2        2.00596   0.00027   0.00022   0.00010   0.00032   2.00628
    R3        2.75988   0.00095   0.00521  -0.00159   0.00362   2.76350
    R4        2.75725   0.00152   0.00586   0.00004   0.00590   2.76316
    R5        2.08301  -0.00146  -0.00480  -0.00147  -0.00627   2.07674
    R6        2.08291  -0.00145  -0.00472  -0.00146  -0.00619   2.07672
    R7        2.26654   0.00207   0.00089   0.00081   0.00170   2.26824
    R8        2.00557   0.00047   0.00035   0.00038   0.00073   2.00630
    A1        2.01864  -0.00502  -0.02301  -0.00877  -0.03182   1.98682
    A2        1.90628   0.00116   0.00109   0.00040   0.00146   1.90773
    A3        1.90616   0.00120   0.00119   0.00039   0.00154   1.90770
    A4        1.90532  -0.00068   0.00180   0.00075   0.00249   1.90781
    A5        1.90703   0.00009   0.00099   0.00019   0.00114   1.90816
    A6        1.80872   0.00429   0.02217   0.00901   0.03114   1.83986
    A7        3.10959   0.00188   0.05290  -0.10366  -0.05076   3.05883
    A8        3.14315   0.00178  -0.00987   0.06056   0.05069   3.19383
    A9        3.16019  -0.00248  -0.01036   0.00240  -0.00796   3.15222
   A10        3.22447  -0.00486  -0.09270  -0.03560  -0.12830   3.09617
   A11        3.14050   0.00005   0.00089   0.00073   0.00162   3.14211
   A12        3.14346  -0.00010  -0.00212  -0.00034  -0.00246   3.14100
   A13        3.14250  -0.00005  -0.00034  -0.00120  -0.00153   3.14097
   A14        3.14418  -0.00005   0.00018  -0.00732  -0.00714   3.13704
    D1       -2.02933  -0.00145  -0.01417  -0.00553  -0.01972  -2.04905
         Item               Value     Threshold  Converged?
 Maximum Force            0.005025     0.000450     NO 
 RMS     Force            0.002062     0.000300     NO 
 Maximum Displacement     0.196051     0.001800     NO 
 RMS     Displacement     0.056422     0.001200     NO 
 Predicted change in Energy=-1.880490D-04
 GradGradGradGradGradGradGradGradGradGradGradGradGradGradGradGradGradGrad

                          Input orientation:                          
 ---------------------------------------------------------------------
 Center     Atomic      Atomic             Coordinates (Angstroms)
 Number     Number       Type             X           Y           Z
 ---------------------------------------------------------------------
      1          6           0        1.079843   -0.054792    0.008027
      2          6           0        2.275668   -0.127767    0.076016
      3          6           0        3.737348   -0.161172    0.106589
      4          6           0        4.286559   -1.154298    1.028594
      5          6           0        4.749198   -1.966360    1.781745
      6          1           0        0.018168   -0.054888    0.007218
      7          1           0        4.117954    0.834067    0.375578
      8          1           0        4.117539   -0.355458   -0.906033
      9          1           0        5.113514   -2.699691    2.457526
 ---------------------------------------------------------------------
                    Distance matrix (angstroms):
                    1          2          3          4          5
     1  C    0.000000
     2  C    1.199977   0.000000
     3  C    2.661459   1.462381   0.000000
     4  C    3.540268   2.450480   1.462199   0.000000
[...]
 Rotational symmetry number  1.
 Rotational temperatures (Kelvin)      0.92662     0.13684     0.12107
 Rotational constants (GHZ):          19.30756     2.85121     2.52263
 Zero-point vibrational energy     171378.2 (Joules/Mol)
                                   40.96037 (Kcal/Mol)
 Warning -- explicit consideration of   5 degrees of freedom as
           vibrations may cause significant error
 Vibrational temperatures:    197.58   448.28   475.09   487.32   807.10
          (Kelvin)            899.75   900.77   937.15   940.77  1300.67
                             1348.72  1436.67  1771.60  1917.99  2089.57
                             3231.95  3240.65  4332.27  4368.48  5045.10
                             5046.62
 
 Zero-point correction=                           0.065275 (Hartree/Particle)
 Thermal correction to Energy=                    0.070846
 Thermal correction to Enthalpy=                  0.071790
 Thermal correction to Gibbs Free Energy=         0.037195
 Sum of electronic and zero-point Energies=           -192.736098
 Sum of electronic and thermal Energies=              -192.730526
 Sum of electronic and thermal Enthalpies=            -192.729582
 Sum of electronic and thermal Free Energies=         -192.764178
 
                     E (Thermal)             CV                S
                      KCal/Mol        Cal/Mol-Kelvin    Cal/Mol-Kelvin
 Total                   44.457             19.399             72.812
 Electronic               0.000              0.000              0.000
 Translational            0.889              2.981             38.389
 Rotational               0.889              2.981             25.252
 Vibrational             42.679             13.438              9.171
 Vibration     1          0.614              1.916              2.841
 Vibration     2          0.700              1.652              1.354
 Vibration     3          0.713              1.615              1.259
 Vibration     4          0.719              1.598              1.218
 Vibration     5          0.917              1.116              0.522
                       Q            Log10(Q)             Ln(Q)
 Total Bot       0.778834D-17        -17.108555        -39.393904
 Total V=0       0.823396D+13         12.915609         29.739289
 Vib (Bot)       0.525097D-29        -29.279760        -67.419140
 Vib (Bot)    1  0.148173D+01          0.170770          0.393213
 Vib (Bot)    2  0.606346D+00         -0.217279         -0.500304
 Vib (Bot)    3  0.565773D+00         -0.247358         -0.569563
 Vib (Bot)    4  0.548666D+00         -0.260692         -0.600266
 Vib (Bot)    5  0.276804D+00         -0.557828         -1.284447
 Vib (V=0)       0.555141D+01          0.744404          1.714053
 Vib (V=0)    1  0.206382D+01          0.314672          0.724559
 Vib (V=0)    2  0.128591D+01          0.109211          0.251467
 Vib (V=0)    3  0.125505D+01          0.098661          0.227175
 Vib (V=0)    4  0.124232D+01          0.094232          0.216978
 Vib (V=0)    5  0.107151D+01          0.029995          0.069066
 Electronic      0.100000D+01          0.000000          0.000000
 Translational   0.201392D+08          7.304042         16.818179
 Rotational      0.736483D+05          4.867163         11.207057
 ***** Axes restored to original set *****
 -------------------------------------------------------------------
 Center     Atomic                   Forces (Hartrees/Bohr)
 Number     Number              X              Y              Z
 -------------------------------------------------------------------
      1        6           0.000042275    0.000001981   -0.000000647
      2        6          -0.000038745    0.000062427    0.000056015
      3        6           0.000012497   -0.000018039   -0.000014073
      4        6          -0.000110319    0.000112168   -0.000141153
      5        6           0.000108432   -0.000171920    0.000092016
      6        1          -0.000005551   -0.000021281   -0.000019000
      7        1          -0.000015613    0.000014522   -0.000008516
      8        1           0.000010930   -0.000000777   -0.000003156
      9        1          -0.000003906    0.000020919    0.000038514
 -------------------------------------------------------------------
 Cartesian Forces:  Max     0.000171920 RMS     0.000063509
 FormGI is forming the generalized inverse of G from B-inverse, IUseBI=4.

 GradGradGradGradGradGradGradGradGradGradGradGradGradGradGradGradGradGrad
 Berny optimization.
 Internal  Forces:  Max     0.000224163 RMS     0.000055149
 Search for a local minimum.
 Step number   1 out of a maximum of    2
 All quantities printed in internal units (Hartrees-Bohrs-Radians)
 Second derivative matrix not updated -- analytic derivatives used.
 ITU=  0
     Eigenvalues ---    0.01430   0.01440   0.03830   0.03878   0.05003
     Eigenvalues ---    0.05070   0.06775   0.09227   0.09591   0.13178
     Eigenvalues ---    0.14860   0.16277   0.17521   0.32261   0.32480
     Eigenvalues ---    0.32891   0.37223   0.41944   0.41953   1.11761
     Eigenvalues ---    1.11949
 Angle between quadratic step and forces=  60.97 degrees.
 Linear search not attempted -- first point.
 Iteration  1 RMS(Cart)=  0.00082171 RMS(Int)=  0.00000054
 Iteration  2 RMS(Cart)=  0.00000074 RMS(Int)=  0.00000000
 Variable       Old X    -DE/DX   Delta X   Delta X   Delta X     New X
                                 (Linear)    (Quad)   (Total)
    R1        2.26814  -0.00004   0.00000  -0.00003  -0.00003   2.26811
    R2        2.00654   0.00001   0.00000   0.00001   0.00001   2.00656
    R3        2.76622   0.00000   0.00000   0.00001   0.00001   2.76623
    R4        2.76620   0.00002   0.00000   0.00003   0.00003   2.76623
    R5        2.07607   0.00001   0.00000   0.00002   0.00002   2.07609
    R6        2.07607   0.00001   0.00000   0.00002   0.00002   2.07609
    R7        2.26791   0.00022   0.00000   0.00020   0.00020   2.26811
    R8        2.00653   0.00001   0.00000   0.00002   0.00002   2.00655
    A1        1.98242   0.00001   0.00000   0.00005   0.00005   1.98248
    A2        1.90827  -0.00003   0.00000  -0.00006  -0.00006   1.90821
    A3        1.90824   0.00002   0.00000  -0.00004  -0.00004   1.90821
    A4        1.90816   0.00001   0.00000   0.00004   0.00004   1.90821
    A5        1.90818  -0.00001   0.00000   0.00003   0.00003   1.90821
    A6        1.84340  -0.00001   0.00000  -0.00002  -0.00002   1.84338
    A7        3.13665  -0.00001   0.00000  -0.00009  -0.00009   3.13655
    A8        3.15262  -0.00000   0.00000  -0.00001  -0.00001   3.15261
    A9        3.15202   0.00003   0.00000   0.00060   0.00060   3.15261
   A10        3.13712  -0.00002   0.00000  -0.00057  -0.00057   3.13655
   A11        3.14100   0.00004   0.00000   0.00059   0.00059   3.14159
   A12        3.14330  -0.00009   0.00000  -0.00171  -0.00171   3.14159
   A13        3.14121   0.00005   0.00000   0.00038   0.00038   3.14159
   A14        3.13923   0.00005   0.00000   0.00236   0.00236   3.14159
    D1       -2.05138  -0.00001   0.00000  -0.00005  -0.00005  -2.05143
         Item               Value     Threshold  Converged?
 Maximum Force            0.000224     0.000450     YES
 RMS     Force            0.000055     0.000300     YES
 Maximum Displacement     0.001483     0.001800     YES
 RMS     Displacement     0.000822     0.001200     YES
 Predicted change in Energy=-2.003703D-07
 Optimization completed.
    -- Stationary point found.
                           ----------------------------
                           !   Optimized Parameters   !
                           ! (Angstroms and Degrees)  !
 --------------------------                            --------------------------
 ! Name  Definition              Value          Derivative Info.                !
 --------------------------------------------------------------------------------
 ! R1    R(1,2)                  1.2002         -DE/DX =    0.0                 !
 ! R2    R(1,6)                  1.0618         -DE/DX =    0.0                 !
 ! R3    R(2,3)                  1.4638         -DE/DX =    0.0                 !
 ! R4    R(3,4)                  1.4638         -DE/DX =    0.0                 !
 ! R5    R(3,7)                  1.0986         -DE/DX =    0.0                 !
 ! R6    R(3,8)                  1.0986         -DE/DX =    0.0                 !
 ! R7    R(4,5)                  1.2001         -DE/DX =    0.0002              !
 ! R8    R(5,9)                  1.0618         -DE/DX =    0.0                 !
 ! A1    A(2,3,4)              113.5846         -DE/DX =    0.0                 !
 ! A2    A(2,3,7)              109.3356         -DE/DX =    0.0                 !
 ! A3    A(2,3,8)              109.3344         -DE/DX =    0.0                 !
 ! A4    A(4,3,7)              109.3297         -DE/DX =    0.0                 !
 ! A5    A(4,3,8)              109.3306         -DE/DX =    0.0                 !
 ! A6    A(7,3,8)              105.6193         -DE/DX =    0.0                 !
 ! A7    L(2,1,6,9,-1)         179.7167         -DE/DX =    0.0                 !
 ! A8    L(1,2,3,9,-1)         180.6321         -DE/DX =    0.0                 !
 ! A9    L(3,4,5,6,-1)         180.5972         -DE/DX =    0.0                 !
 ! A10   L(4,5,9,6,-1)         179.7438         -DE/DX =    0.0                 !
 ! A11   L(2,1,6,9,-2)         179.9662         -DE/DX =    0.0                 !
 ! A12   L(1,2,3,9,-2)         180.0981         -DE/DX =   -0.0001              !
 ! A13   L(3,4,5,6,-2)         179.9783         -DE/DX =    0.0001              !
 ! A14   L(4,5,9,6,-2)         179.8646         -DE/DX =    0.0001              !
 ! D1    D(4,3,8,7)           -117.5356         -DE/DX =    0.0                 !
 --------------------------------------------------------------------------------
 GradGradGradGradGradGradGradGradGradGradGradGradGradGradGradGradGradGrad


 ----------------------------------------------------------------------

 Electric dipole moment (input orientation):
 (Debye = 10**-18 statcoulomb cm , SI units = C m)
                  (au)            (Debye)         (10**-30 SI)
   Tot        0.187914D+00      0.477629D+00      0.159320D+01
   x          0.108499D+00      0.275776D+00      0.919889D+00
   y          0.112458D+00      0.285839D+00      0.953456D+00
   z         -0.104369D+00     -0.265279D+00     -0.884876D+00

 Dipole polarizability, Alpha (input orientation).
 (esu units = cm**3 , SI units = C**2 m**2 J**-1)
 Alpha(0;0):
               (au)            (10**-24 esu)      (10**-40 SI)
   iso        0.452124D+02      0.669978D+01      0.745452D+01
   aniso      0.363020D+02      0.537941D+01      0.598540D+01
   xx         0.588890D+02      0.872645D+01      0.970948D+01
   yx        -0.967160D+01     -0.143318D+01     -0.159463D+01
   yy         0.392174D+02      0.581142D+01      0.646607D+01
   zx         0.895779D+01      0.132741D+01      0.147694D+01
   zy        -0.111579D+02     -0.165344D+01     -0.183970D+01
   zz         0.375308D+02      0.556149D+01      0.618799D+01

 ----------------------------------------------------------------------

 Dipole orientation:
     6          1.66607103          0.53351194          1.05796694
     6          3.50461633          1.05494103          2.27957884
     6          5.73191810          1.68293363          3.79507158
     6          7.95930247          2.31299343          2.28059205
     6          9.79763474          2.83367427          1.05877324
     1          0.04494320          0.07296561         -0.03109454
     1          6.18148215          0.09050291          5.04891536
     1          5.28246208          3.27371457          5.05105311
     1         11.41861541          3.29589747         -0.02977388

 Electric dipole moment (dipole orientation):
 (Debye = 10**-18 statcoulomb cm , SI units = C m)
                  (au)            (Debye)         (10**-30 SI)
   Tot        0.187914D+00      0.477629D+00      0.159320D+01
   x          0.000000D+00      0.000000D+00      0.000000D+00
   y          0.000000D+00      0.000000D+00      0.000000D+00
   z          0.187914D+00      0.477629D+00      0.159320D+01

 Dipole polarizability, Alpha (dipole orientation).
 (esu units = cm**3 , SI units = C**2 m**2 J**-1)
 Alpha(0;0):
               (au)            (10**-24 esu)      (10**-40 SI)
   iso        0.452124D+02      0.669978D+01      0.745452D+01
   aniso      0.363020D+02      0.537941D+01      0.598540D+01
   xx         0.651635D+02      0.965624D+01      0.107440D+02
   yx         0.107553D+02      0.159377D+01      0.177331D+01
   yy         0.302301D+02      0.447964D+01      0.498427D+01
   zx         0.282105D-02      0.418037D-03      0.465128D-03
   zy         0.634875D-03      0.940788D-04      0.104677D-03
   zz         0.402435D+02      0.596348D+01      0.663526D+01

 ----------------------------------------------------------------------
 1\1\GINC-LEWIS4-Z10PH-HPC3-NODE403\Freq\RB3LYP\6-31G(2df,p)\C5H4\KS29C
 \04-Aug-2022\0\\#N Geom=AllCheck Guess=TCheck SCRF=Check GenChk RB3LYP
 /6-31G(2df,p) Freq\\Title Card Required\\0,1\C,1.0786508181,-0.0781295
 146,0.0291459118\C,2.2775886237,-0.1197886523,0.0667190947\C,3.7404744
 171,-0.157487091,0.102950691\C,4.2778628711,-1.1555943019,1.0290910704
 \C,4.7300607701,-1.9707297411,1.784984087\H,0.0177625979,-0.0448517449
 ,-0.0002364719\H,4.1232789619,0.835384179,0.3760975281\H,4.1243703637,
 -0.354866524,-0.9073026406\H,5.1257405764,-2.6942966091,2.4538107295\\
 Version=ES64L-G16RevA.03\State=1-A\HF=-192.8013727\RMSD=4.841e-09\RMSF
 =6.351e-05\ZeroPoint=0.0652745\Thermal=0.0708462\Dipole=0.1084985,0.11
 24577,-0.1043689\DipoleDeriv=-0.4341443,0.0623049,-0.0580044,0.0213629
 ,-0.2356073,0.0001775,-0.0204705,0.0002543,-0.2356047,0.1280997,-0.020
 1243,0.0187979,0.0027379,-0.1208477,0.0384933,-0.0013852,0.0383816,-0.
 1150284,0.3623347,-0.0745744,0.0693025,-0.0750794,0.2503298,-0.0431995
 ,0.0690239,-0.0429861,0.2436845,-0.1170989,-0.0615191,0.057043,-0.0835
 974,0.0104839,-0.083534,0.07785,-0.0841596,-0.0011769,-0.2937612,0.057
 896,-0.0536773,0.098484,-0.3103855,0.0696631,-0.0920315,0.0707486,-0.3
 010961,0.223787,-0.0069472,0.0064236,-0.0044989,0.2043783,-0.0012585,0
 .0043155,-0.0012835,0.204201,-0.0408604,0.002947,-0.047354,-0.0064606,
 -0.0601891,0.0186877,-0.0574961,-0.0009088,0.0536018,-0.0407637,0.0474
 012,0.000675,0.0567781,0.051636,0.0075898,0.0108403,0.0271737,-0.05825
 34,0.2124072,-0.0073842,0.0067936,-0.0097266,0.2102016,-0.0066194,0.00
 93537,-0.0072202,0.2096722\Polar=58.8889807,-9.6715997,39.2173879,8.95
 77922,-11.1579431,37.5308009\Quadrupole=1.4904416,-0.6192155,-0.871226
 2,-0.6532608,0.5973436,-1.6039975\PG=C01 [X(C5H4)]\NImag=0\\1.55038237
 ,-0.05080851,0.04170319,0.04570639,-0.00406689,0.04099028,-1.12248735,
 0.03736478,-0.03371977,1.45313035,0.03811522,-0.02686376,0.00273567,-0
 .04423225,0.08791556,-0.03455226,0.00273889,-0.02638648,0.04034694,-0.
 00449587,0.08719810,0.00068695,0.00021374,-0.00026047,-0.27479649,0.00
 373487,-0.00353199,0.49535482,-0.00100465,0.00331030,0.00005851,0.0024
 5638,-0.06083176,-0.00154178,0.00422341,0.50842099,0.00100393,0.000055
 68,0.00332682,-0.00249769,-0.00153261,-0.06108345,-0.00398840,0.009630
 79,0.50982826,-0.00032892,-0.00049586,0.00046176,-0.02268636,0.0265414
 0,-0.02463202,-0.08612076,0.05270651,-0.04890471,0.28088714,-0.0019748
 2,0.00046591,0.00012137,0.01125787,-0.00260720,0.00195528,0.05154826,-
 0.16227787,0.09254320,-0.34796113,0.71855473,0.00183606,0.00012376,0.0
 0048567,-0.01046371,0.00195975,-0.00234846,-0.04783026,0.09255002,-0.1
 4835202,0.32266895,-0.58935369,0.62944685,-0.00033871,0.00013968,-0.00
 012894,0.00133922,-0.00007002,0.00005972,0.00333033,0.00094753,-0.0008
 6975,-0.18272238,0.28064140,-0.26022018,0.25556760,0.00088835,0.000133
 43,-0.00002549,-0.00154332,-0.00043032,0.00094995,-0.00038268,0.001924
 52,0.00137769,0.28149816,-0.53255701,0.47171905,-0.38612035,0.73881534
 ,-0.00082681,-0.00002699,0.00012777,0.00143812,0.00095422,-0.00027816,
 0.00036245,0.00137037,0.00208384,-0.26095845,0.47162346,-0.46107395,0.
 35770709,-0.64998908,0.63933110,-0.42677589,0.01300295,-0.01152073,0.0
 0699897,-0.00043488,0.00039417,0.00057002,0.00029605,-0.00026271,-0.00
 002670,0.00016797,-0.00015581,0.00009787,-0.00014650,0.00013617,0.4188
 3192,0.01263417,-0.01917080,0.00145489,-0.00005305,-0.00092452,-0.0009
 1632,0.00020420,0.00637310,0.00038996,-0.00107640,0.00021359,-0.000103
 98,-0.00003825,-0.00004591,-0.00002755,-0.01279092,0.01358187,-0.01117
 417,0.00145483,-0.01891686,0.00005587,-0.00091758,-0.00106541,-0.00019
 338,0.00039230,0.00643367,0.00099756,-0.00010427,0.00019922,0.00003563
 ,-0.00002738,-0.00005029,0.01132093,-0.00075150,0.01343471,-0.00059827
 ,0.00093704,0.00038280,-0.02106602,-0.03018889,-0.00974303,-0.07201622
 ,-0.07803436,-0.02291547,0.00502240,0.01139077,0.00429207,-0.00039781,
 0.00077215,-0.00158311,0.00016217,0.00133491,0.00038851,0.08506737,0.0
 0234942,-0.00015646,-0.00010723,-0.00539259,0.00412605,0.00025754,-0.0
 7747814,-0.24853658,-0.06059280,-0.00203871,-0.02615310,0.00110253,-0.
 00030315,0.00124702,-0.00031460,-0.00008686,-0.00011092,0.00000654,0.0
 8444136,0.27494771,0.00022423,-0.00018951,0.00058865,-0.00021807,0.001
 11957,-0.00015275,-0.02232130,-0.05944820,-0.06023050,0.00700575,0.023
 88742,0.00403883,-0.00106945,0.00045210,-0.00102101,0.00002910,-0.0000
 5476,0.00005955,0.02675534,0.06205784,0.06540212,-0.00061197,-0.000308
 36,-0.00096272,-0.02109471,0.00742923,0.03082557,-0.07220015,0.0170055
 7,0.07973954,0.00503792,-0.00341924,-0.01167004,-0.00039720,0.00163353
 ,-0.00066358,0.00015896,-0.00028807,-0.00136277,0.00401354,-0.00185757
 ,-0.00993238,0.08528240,-0.00004616,0.00061046,-0.00013048,-0.00020363
 ,-0.00022867,0.00081355,0.01645129,-0.05226316,-0.04456453,-0.00715980
 ,0.00198414,0.02598392,0.00103884,-0.00102144,0.00029024,-0.00003534,0
 .00006149,-0.00004293,0.00980356,-0.00603927,-0.02708124,-0.02035111,0
 .05724717,-0.00236001,-0.00004954,-0.00017801,0.00538053,-0.00006141,0
 .00423795,0.07914722,-0.04571339,-0.25631063,0.00153177,0.00322182,-0.
 02410813,0.00038118,-0.00048205,0.00123829,0.00008458,0.00001926,-0.00
 011516,0.00261251,-0.00284874,-0.00830208,-0.08644746,0.04555438,0.282
 88858,0.00007179,-0.00004548,0.00004167,0.00066240,-0.00089468,0.00083
 290,0.00519149,0.00140356,-0.00130475,0.00093767,-0.00165109,0.0015429
 1,-0.07647892,0.10340066,-0.09561188,-0.00001733,0.00007342,-0.0000681
 9,-0.00018716,0.00036626,-0.00047321,-0.00018879,0.00050236,-0.0003303
 1,0.07000885,-0.00015301,-0.00003227,-0.00004036,0.00034581,-0.0001553
 8,0.00023878,0.00148504,0.00388045,0.00269262,-0.00201416,0.00237683,-
 0.00398136,0.10376432,-0.20806562,0.17611994,0.00002753,0.00002211,-0.
 00001001,-0.00045653,0.00067554,-0.00074321,0.00015603,-0.00035072,0.0
 0035967,-0.10315502,0.20164907,0.00014264,-0.00004023,-0.00003785,-0.0
 0032222,0.00023827,-0.00012135,-0.00138387,0.00270138,0.00430401,0.001
 82940,-0.00389459,0.00171199,-0.09589530,0.17602520,-0.18035759,-0.000
 02570,-0.00000999,0.00002057,-0.00018963,0.00043893,-0.00038281,0.0004
 7383,-0.00082291,0.00064919,0.09537085,-0.17463606,0.17421384\\-0.0000
 4227,-0.00000198,0.00000065,0.00003875,-0.00006243,-0.00005601,-0.0000
 1250,0.00001804,0.00001407,0.00011032,-0.00011217,0.00014115,-0.000108
 43,0.00017192,-0.00009202,0.00000555,0.00002128,0.00001900,0.00001561,
 -0.00001452,0.00000852,-0.00001093,0.00000078,0.00000316,0.00000391,-0
 .00002092,-0.00003851\\\@


 IN THE UNIVERSE THE DIFFICULT THINGS ARE DONE AS IF THEY WERE EASY.

                                                          -- LAO-TSU
 Job cpu time:       0 days  0 hours 20 minutes  5.9 seconds.
 Elapsed time:       0 days  0 hours  5 minutes  1.8 seconds.
 File lengths (MBytes):  RWF=     26 Int=      0 D2E=      0 Chk=      3 Scr=      1
 Normal termination of Gaussian 16 at Thu Aug  4 14:45:09 2022.
### All Done ###
