### Starting Gaussian ###
 Entering Gaussian System, Link 0=g16
 Initial command:
 /cluster/software/gaussian/gaussian-16-A.03/avx2/g16/l1.exe "/local/scratch/ks29c/Gau-29472.inp" -scrdir="/local/scratch/ks29c/"
 Entering Link 1 = /cluster/software/gaussian/gaussian-16-A.03/avx2/g16/l1.exe PID=     29473.
  
 Copyright (c) 1988,1990,1992,1993,1995,1998,2003,2009,2016,
            Gaussian, Inc.  All Rights Reserved.
  
 This is part of the Gaussian(R) 16 program.  It is based on
 the Gaussian(R) 09 system (copyright 2009, Gaussian, Inc.),
 the Gaussian(R) 03 system (copyright 2003, Gaussian, Inc.),
 the Gaussian(R) 98 system (copyright 1998, Gaussian, Inc.),
 the Gaussian(R) 94 system (copyright 1995, Gaussian, Inc.),
 the Gaussian 92(TM) system (copyright 1992, Gaussian, Inc.),
 the Gaussian 90(TM) system (copyright 1990, Gaussian, Inc.),
 the Gaussian 88(TM) system (copyright 1988, Gaussian, Inc.),
 the Gaussian 86(TM) system (copyright 1986, Carnegie Mellon
 University), and the Gaussian 82(TM) system (copyright 1983,
 Carnegie Mellon University). Gaussian is a federally registered
 trademark of Gaussian, Inc.
  
 This software contains proprietary and confidential information,
 including trade secrets, belonging to Gaussian, Inc.
  
 This software is provided under written license and may be
 used, copied, transmitted, or stored only in accord with that
 written license.
  
 The following legend is applicable only to US Government
 contracts under FAR:
  
                    RESTRICTED RIGHTS LEGEND
  
 Use, reproduction and disclosure by the US Government is
 subject to restrictions as set forth in subparagraphs (a)
 and (c) of the Commercial Computer Software - Restricted
 Rights clause in FAR 52.227-19.
  
 Gaussian, Inc.
 340 Quinnipiac St., Bldg. 40, Wallingford CT 06492
  
  
 ---------------------------------------------------------------
 Warning -- This program may not be used in any manner that
 competes with the business of Gaussian, Inc. or will provide
 assistance to any competitor of Gaussian, Inc.  The licensee
 of this program is prohibited from giving any competitor of
 Gaussian, Inc. access to this program.  By using this program,
 the user acknowledges that Gaussian, Inc. is engaged in the
 business of creating and licensing software in the field of
 computational chemistry and represents and warrants to the
 licensee that it is not a competitor of Gaussian, Inc. and that
 it will not use this program in any manner prohibited above.
 ---------------------------------------------------------------
  

 Cite this work as:
 Gaussian 16, Revision A.03,
 M. J. Frisch, G. W. Trucks, H. B. Schlegel, G. E. Scuseria, 
 M. A. Robb, J. R. Cheeseman, G. Scalmani, V. Barone, 
 G. A. Petersson, H. Nakatsuji, X. Li, M. Caricato, A. V. Marenich, 
 J. Bloino, B. G. Janesko, R. Gomperts, B. Mennucci, H. P. Hratchian, 
 J. V. Ortiz, A. F. Izmaylov, J. L. Sonnenberg, D. Williams-Young, 
 F. Ding, F. Lipparini, F. Egidi, J. Goings, B. Peng, A. Petrone, 
 T. Henderson, D. Ranasinghe, V. G. Zakrzewski, J. Gao, N. Rega, 
 G. Zheng, W. Liang, M. Hada, M. Ehara, K. Toyota, R. Fukuda, 
 J. Hasegawa, M. Ishida, T. Nakajima, Y. Honda, O. Kitao, H. Nakai, 
 T. Vreven, K. Throssell, J. A. Montgomery, Jr., J. E. Peralta, 
 F. Ogliaro, M. J. Bearpark, J. J. Heyd, E. N. Brothers, K. N. Kudin, 
 V. N. Staroverov, T. A. Keith, R. Kobayashi, J. Normand, 
 K. Raghavachari, A. P. Rendell, J. C. Burant, S. S. Iyengar, 
 J. Tomasi, M. Cossi, J. M. Millam, M. Klene, C. Adamo, R. Cammi, 
 J. W. Ochterski, R. L. Martin, K. Morokuma, O. Farkas, 
 J. B. Foresman, and D. J. Fox, Gaussian, Inc., Wallingford CT, 2016.
 
 ******************************************
 Gaussian 16:  ES64L-G16RevA.03 25-Dec-2016
                 3-Jul-2022 
 ******************************************
 %chk=CtCC1NC1NC1CC1.chk
 %NProcShared=20
 Will use up to   20 processors via shared memory.
 -----------------------------
 # opt freq b3lyp/6-31g(2df,p)
 -----------------------------
 1/18=20,19=15,26=3,38=1/1,3;
 2/9=110,12=2,17=6,18=5,40=1/2;
 3/5=1,6=6,7=104,11=2,25=1,30=1,71=1,74=-5/1,2,3;
 4//1;
 5/5=2,38=5/2;
 6/7=2,8=2,9=2,10=2,28=1/1;
 7//1,2,3,16;
 1/18=20,19=15,26=3/3(2);
 2/9=110/2;
 99//99;
 2/9=110/2;
 3/5=1,6=6,7=104,11=2,25=1,30=1,71=1,74=-5/1,2,3;
 4/5=5,16=3,69=1/1;
 5/5=2,38=5/2;
 7//1,2,3,16;
 1/18=20,19=15,26=3/3(-5);
 2/9=110/2;
 6/7=2,8=2,9=2,10=2,19=2,28=1/1;
 99/9=1/99;
 -------------------
 Title Card Required
 -------------------
 Symbolic Z-matrix:
 Charge =  0 Multiplicity = 1
 C                     1.14096   0.03736  -0.03616 
 C                     2.34614   0.04193  -0.06084 
 C                     3.77233   0.1114    0.00514 
 N                     4.61924  -0.54391  -0.98471 
 C                     4.48478   0.90993  -1.0652 
 N                     5.7343    1.56586  -0.80411 
 C                     5.81485   3.00476  -0.63996 
 C                     5.41461   3.92868  -1.78152 
 C                     4.85697   4.12823  -0.40644 
 H                     0.08088   0.05406   0.03751 
 H                     4.18593   0.10106   1.00799 
 H                     4.05567  -1.02236  -1.6845 
 H                     3.93563   1.263    -1.92885 
 H                     6.48891   1.1936   -1.38244 
 H                     6.67854   3.19456  -0.00694 
 H                     4.64736   3.70537  -2.51981 
 H                     6.17126   4.59242  -2.1847 
 H                     3.79051   4.0289   -0.27423 
 H                     5.2588    4.96515   0.16826 
 

 GradGradGradGradGradGradGradGradGradGradGradGradGradGradGradGradGradGrad
 Berny optimization.
 Initialization pass.
                           ----------------------------
                           !    Initial Parameters    !
                           ! (Angstroms and Degrees)  !
 --------------------------                            --------------------------
 ! Name  Definition              Value          Derivative Info.                !
 --------------------------------------------------------------------------------
 ! R1    R(1,2)                  1.2054         estimate D2E/DX2                !
 ! R2    R(1,10)                 1.0628         estimate D2E/DX2                !
 ! R3    R(2,3)                  1.4294         estimate D2E/DX2                !
 ! R4    R(3,4)                  1.4582         estimate D2E/DX2                !
 ! R5    R(3,5)                  1.5136         estimate D2E/DX2                !
 ! R6    R(3,11)                 1.0848         estimate D2E/DX2                !
 ! R7    R(4,5)                  1.4623         estimate D2E/DX2                !
 ! R8    R(4,12)                 1.018          estimate D2E/DX2                !
 ! R9    R(5,6)                  1.4352         estimate D2E/DX2                !
 ! R10   R(5,13)                 1.0826         estimate D2E/DX2                !
 ! R11   R(6,7)                  1.4505         estimate D2E/DX2                !
 ! R12   R(6,14)                 1.021          estimate D2E/DX2                !
 ! R13   R(7,8)                  1.5222         estimate D2E/DX2                !
 ! R14   R(7,9)                  1.4947         estimate D2E/DX2                !
 ! R15   R(7,15)                 1.0875         estimate D2E/DX2                !
 ! R16   R(8,9)                  1.4972         estimate D2E/DX2                !
 ! R17   R(8,16)                 1.0879         estimate D2E/DX2                !
 ! R18   R(8,17)                 1.0843         estimate D2E/DX2                !
 ! R19   R(9,18)                 1.0792         estimate D2E/DX2                !
 ! R20   R(9,19)                 1.0919         estimate D2E/DX2                !
 ! A1    A(2,3,4)              121.7553         estimate D2E/DX2                !
 ! A2    A(2,3,5)              117.5584         estimate D2E/DX2                !
 ! A3    A(2,3,11)             114.9991         estimate D2E/DX2                !
 ! A4    A(4,3,11)             113.6899         estimate D2E/DX2                !
 ! A5    A(5,3,11)             118.6389         estimate D2E/DX2                !
 ! A6    A(3,4,12)             110.8741         estimate D2E/DX2                !
 ! A7    A(5,4,12)             112.2442         estimate D2E/DX2                !
 ! A8    A(3,5,6)              121.4866         estimate D2E/DX2                !
 ! A9    A(3,5,13)             119.8294         estimate D2E/DX2                !
 ! A10   A(4,5,6)              111.3667         estimate D2E/DX2                !
 ! A11   A(4,5,13)             114.5063         estimate D2E/DX2                !
 ! A12   A(6,5,13)             115.9567         estimate D2E/DX2                !
 ! A13   A(5,6,7)              121.4888         estimate D2E/DX2                !
 ! A14   A(5,6,14)             111.9495         estimate D2E/DX2                !
 ! A15   A(7,6,14)             112.628          estimate D2E/DX2                !
 ! A16   A(6,7,8)              120.1762         estimate D2E/DX2                !
 ! A17   A(6,7,9)              136.6949         estimate D2E/DX2                !
 ! A18   A(6,7,15)             106.446          estimate D2E/DX2                !
 ! A19   A(8,7,15)             122.6445         estimate D2E/DX2                !
 ! A20   A(9,7,15)             106.6681         estimate D2E/DX2                !
 ! A21   A(7,8,16)             124.7348         estimate D2E/DX2                !
 ! A22   A(7,8,17)             117.8361         estimate D2E/DX2                !
 ! A23   A(9,8,16)             112.827          estimate D2E/DX2                !
 ! A24   A(9,8,17)             121.3217         estimate D2E/DX2                !
 ! A25   A(16,8,17)            111.4356         estimate D2E/DX2                !
 ! A26   A(7,9,18)             125.6778         estimate D2E/DX2                !
 ! A27   A(7,9,19)             114.9928         estimate D2E/DX2                !
 ! A28   A(8,9,18)             117.9241         estimate D2E/DX2                !
 ! A29   A(8,9,19)             116.6475         estimate D2E/DX2                !
 ! A30   A(18,9,19)            111.6997         estimate D2E/DX2                !
 ! A31   L(2,1,10,18,-1)       178.9661         estimate D2E/DX2                !
 ! A32   L(1,2,3,18,-1)        177.6602         estimate D2E/DX2                !
 ! A33   L(2,1,10,18,-2)       183.3907         estimate D2E/DX2                !
 ! A34   L(1,2,3,18,-2)        175.7433         estimate D2E/DX2                !
 ! D1    D(2,3,4,12)             0.2518         estimate D2E/DX2                !
 ! D2    D(11,3,4,12)          144.7707         estimate D2E/DX2                !
 ! D3    D(2,3,5,6)            150.4471         estimate D2E/DX2                !
 ! D4    D(2,3,5,13)           -10.0868         estimate D2E/DX2                !
 ! D5    D(11,3,5,6)             4.5403         estimate D2E/DX2                !
 ! D6    D(11,3,5,13)         -155.9936         estimate D2E/DX2                !
 ! D7    D(12,4,5,6)          -142.514          estimate D2E/DX2                !
 ! D8    D(12,4,5,13)           -8.4972         estimate D2E/DX2                !
 ! D9    D(3,5,6,7)           -105.6914         estimate D2E/DX2                !
 ! D10   D(3,5,6,14)           117.1448         estimate D2E/DX2                !
 ! D11   D(4,5,6,7)           -171.1464         estimate D2E/DX2                !
 ! D12   D(4,5,6,14)            51.6898         estimate D2E/DX2                !
 ! D13   D(13,5,6,7)            55.5531         estimate D2E/DX2                !
 ! D14   D(13,5,6,14)          -81.6107         estimate D2E/DX2                !
 ! D15   D(5,6,7,8)            -61.6102         estimate D2E/DX2                !
 ! D16   D(5,6,7,9)             14.5575         estimate D2E/DX2                !
 ! D17   D(5,6,7,15)           153.0799         estimate D2E/DX2                !
 ! D18   D(14,6,7,8)            75.2945         estimate D2E/DX2                !
 ! D19   D(14,6,7,9)           151.4623         estimate D2E/DX2                !
 ! D20   D(14,6,7,15)          -70.0153         estimate D2E/DX2                !
 ! D21   D(6,7,8,16)            31.4615         estimate D2E/DX2                !
 ! D22   D(6,7,8,17)          -118.8817         estimate D2E/DX2                !
 ! D23   D(15,7,8,16)          171.0514         estimate D2E/DX2                !
 ! D24   D(15,7,8,17)           20.7081         estimate D2E/DX2                !
 ! D25   D(6,7,9,18)             2.1984         estimate D2E/DX2                !
 ! D26   D(6,7,9,19)           149.0115         estimate D2E/DX2                !
 ! D27   D(15,7,9,18)         -136.2656         estimate D2E/DX2                !
 ! D28   D(15,7,9,19)           10.5475         estimate D2E/DX2                !
 ! D29   D(16,8,9,18)            0.4817         estimate D2E/DX2                !
 ! D30   D(16,8,9,19)         -136.7541         estimate D2E/DX2                !
 ! D31   D(17,8,9,18)          136.5605         estimate D2E/DX2                !
 ! D32   D(17,8,9,19)           -0.6753         estimate D2E/DX2                !
 --------------------------------------------------------------------------------
 Trust Radius=3.00D-01 FncErr=1.00D-07 GrdErr=1.00D-06 EigMax=2.50D+02 EigMin=1.00D-04
 Number of steps in this run=     96 maximum allowed number of steps=    114.
 GradGradGradGradGradGradGradGradGradGradGradGradGradGradGradGradGradGrad

                          Input orientation:                          
 ---------------------------------------------------------------------
 Center     Atomic      Atomic             Coordinates (Angstroms)
 Number     Number       Type             X           Y           Z
 ---------------------------------------------------------------------
      1          6           0        1.140960    0.037360   -0.036160
      2          6           0        2.346140    0.041930   -0.060840
      3          6           0        3.772330    0.111400    0.005140
      4          7           0        4.619240   -0.543910   -0.984710
      5          6           0        4.484780    0.909930   -1.065200
      6          7           0        5.734300    1.565860   -0.804110
      7          6           0        5.814850    3.004760   -0.639960
      8          6           0        5.414610    3.928680   -1.781520
      9          6           0        4.856970    4.128230   -0.406440
     10          1           0        0.080880    0.054060    0.037510
     11          1           0        4.185930    0.101060    1.007990
     12          1           0        4.055670   -1.022360   -1.684500
     13          1           0        3.935630    1.263000   -1.928850
     14          1           0        6.488910    1.193600   -1.382440
     15          1           0        6.678540    3.194560   -0.006940
     16          1           0        4.647360    3.705370   -2.519810
     17          1           0        6.171260    4.592420   -2.184700
     18          1           0        3.790510    4.028900   -0.274230
     19          1           0        5.258800    4.965150    0.168260
 ---------------------------------------------------------------------
                    Distance matrix (angstroms):
                    1          2          3          4          5
     1  C    0.000000
     2  C    1.205441   0.000000
     3  C    2.632735   1.429405   0.000000
     4  N    3.651856   2.522643   1.458249   0.000000
     5  C    3.605750   2.517130   1.513560   1.462262   0.000000
     6  N    4.901513   3.788726   2.572871   2.393137   1.435170
     7  C    5.569137   4.598444   3.599941   3.760505   2.517584
     8  C    6.037610   5.242430   4.523369   4.612112   3.238912
     9  C    5.539048   4.808488   4.181001   4.713789   3.306047
    10  H    1.062768   2.267426   3.692037   4.690332   4.619829
    11  H    3.219650   2.128549   1.084841   2.138831   2.245373
    12  H    3.512202   2.586789   2.054404   1.017955   2.073985
    13  H    3.590912   2.739882   2.256805   2.150267   1.082643
    14  H    5.634708   4.498390   3.236718   2.583176   2.048816
    15  H    6.374446   5.358327   4.236989   4.378688   3.339466
    16  H    5.649571   4.976237   4.478579   4.518153   3.155441
    17  H    7.118196   6.312629   5.534420   5.498239   4.202169
    18  H    4.796789   4.245900   3.927491   4.701294   3.291750
    19  H    6.425069   5.724873   5.078887   5.664638   4.308752
                    6          7          8          9         10
     6  N    0.000000
     7  C    1.450471   0.000000
     8  C    2.576907   1.522163   0.000000
     9  C    2.737442   1.494741   1.497207   0.000000
    10  H    5.912277   6.484135   6.838876   6.293408   0.000000
    11  H    2.797641   3.714915   4.893025   4.320764   4.218468
    12  H    3.208079   4.517020   5.135068   5.366945   4.463514
    13  H    2.142890   2.868176   3.052038   3.372854   4.493017
    14  H    1.021019   2.070250   2.965476   3.496835   6.661656
    15  H    2.044440   1.087520   2.299040   2.085535   7.307108
    16  H    2.950012   2.321147   1.087939   2.165428   6.381590
    17  H    3.355150   2.243639   1.084262   2.259433   7.913764
    18  H    3.182084   2.297950   2.218032   1.079205   5.445906
    19  H    3.567461   2.192154   2.213637   1.091871   7.137700
                   11         12         13         14         15
    11  H    0.000000
    12  H    2.920367   0.000000
    13  H    3.168246   2.301518   0.000000
    14  H    3.494498   3.304902   2.612014   0.000000
    15  H    4.100357   5.241762   3.866292   2.435529   0.000000
    16  H    5.064518   4.837279   2.611698   3.315706   3.271259
    17  H    5.857228   6.020936   4.018524   3.506637   2.637041
    18  H    4.150707   5.251133   3.226303   4.067975   3.017993
    19  H    5.051294   6.382046   4.455846   4.259393   2.276257
                   16         17         18         19
    16  H    0.000000
    17  H    1.794834   0.000000
    18  H    2.425179   3.104097   0.000000
    19  H    3.030945   2.551065   1.796730   0.000000
 Stoichiometry    C7H10N2
 Framework group  C1[X(C7H10N2)]
 Deg. of freedom    51
 Full point group                 C1      NOp   1
 Largest Abelian subgroup         C1      NOp   1
 Largest concise Abelian subgroup C1      NOp   1
                         Standard orientation:                         
 ---------------------------------------------------------------------
 Center     Atomic      Atomic             Coordinates (Angstroms)
 Number     Number       Type             X           Y           Z
 ---------------------------------------------------------------------
      1          6           0        3.228223    1.523658    0.179871
      2          6           0        2.476092    0.625623   -0.104594
      3          6           0        1.552044   -0.377259   -0.533033
      4          7           0        1.373841   -1.622242    0.205040
      5          6           0        0.325034   -0.610053    0.322021
      6          7           0       -0.909823   -1.068331   -0.247909
      7          6           0       -2.040615   -0.176871   -0.422482
      8          6           0       -2.688094    0.483502    0.786508
      9          6           0       -2.275864    1.299063   -0.399475
     10          1           0        3.882214    2.337138    0.379925
     11          1           0        1.465820   -0.491867   -1.608352
     12          1           0        1.977685   -1.647920    1.024152
     13          1           0        0.253630   -0.148150    1.298578
     14          1           0       -1.182626   -1.982105    0.116885
     15          1           0       -2.618481   -0.571907   -1.254779
     16          1           0       -2.160964    0.764498    1.695787
     17          1           0       -3.731321    0.264509    0.984860
     18          1           0       -1.519209    2.054850   -0.254761
     19          1           0       -3.075794    1.648981   -1.055104
 ---------------------------------------------------------------------
 Rotational constants (GHZ):           3.0507849           0.9092068           0.7645850
 Standard basis: 6-31G(2df,p) (6D, 7F)
 There are   329 symmetry adapted cartesian basis functions of A   symmetry.
 There are   302 symmetry adapted basis functions of A   symmetry.
   302 basis functions,   466 primitive gaussians,   329 cartesian basis functions
    33 alpha electrons       33 beta electrons
       nuclear repulsion energy       410.3907560393 Hartrees.
 NAtoms=   19 NActive=   19 NUniq=   19 SFac= 1.00D+00 NAtFMM=   60 NAOKFM=F Big=F
 Integral buffers will be    131072 words long.
 Raffenetti 2 integral format.
 Two-electron integral symmetry is turned on.
 One-electron integrals computed using PRISM.
 PrsmSu:  requested number of processors reduced to:  13 ShMem   1 Linda.
 NBasis=   302 RedAO= T EigKep=  1.38D-04  NBF=   302
 NBsUse=   302 1.00D-06 EigRej= -1.00D+00 NBFU=   302
 ExpMin= 1.61D-01 ExpMax= 4.17D+03 ExpMxC= 6.27D+02 IAcc=3 IRadAn=         5 AccDes= 0.00D+00
 Harris functional with IExCor=  402 and IRadAn=       5 diagonalized for initial guess.
 HarFok:  IExCor=  402 AccDes= 0.00D+00 IRadAn=         5 IDoV= 1 UseB2=F ITyADJ=14
 ICtDFT=  3500011 ScaDFX=  1.000000  1.000000  1.000000  1.000000
 FoFCou: FMM=F IPFlag=           0 FMFlag=      100000 FMFlg1=           0
         NFxFlg=           0 DoJE=T BraDBF=F KetDBF=T FulRan=T
         wScrn=  0.000000 ICntrl=       500 IOpCl=  0 I1Cent=   200000004 NGrid=           0
         NMat0=    1 NMatS0=      1 NMatT0=    0 NMatD0=    1 NMtDS0=    0 NMtDT0=    0
 Petite list used in FoFCou.
 Requested convergence on RMS density matrix=1.00D-08 within 128 cycles.
 Requested convergence on MAX density matrix=1.00D-06.
 Requested convergence on             energy=1.00D-06.
 No special actions if energy rises.
 Integral accuracy reduced to 1.0D-05 until final iterations.
 Initial convergence to 1.0D-05 achieved.  Increase integral accuracy.
 SCF Done:  E(RB3LYP) =  -382.108024258     A.U. after   13 cycles
            NFock= 13  Conv=0.64D-08     -V/T= 2.0081

 **********************************************************************

            Population analysis using the SCF density.

 **********************************************************************

 Orbital symmetries:
       Occupied  (A) (A) (A) (A) (A) (A) (A) (A) (A) (A) (A) (A)
                 (A) (A) (A) (A) (A) (A) (A) (A) (A) (A) (A) (A)
                 (A) (A) (A) (A) (A) (A) (A) (A) (A)
       Virtual   (A) (A) (A) (A) (A) (A) (A) (A) (A) (A) (A) (A)
                 (A) (A) (A) (A) (A) (A) (A) (A) (A) (A) (A) (A)
                 (A) (A) (A) (A) (A) (A) (A) (A) (A) (A) (A) (A)
                 (A) (A) (A) (A) (A) (A) (A) (A) (A) (A) (A) (A)
                 (A) (A) (A) (A) (A) (A) (A) (A) (A) (A) (A) (A)
                 (A) (A) (A) (A) (A) (A) (A) (A) (A) (A) (A) (A)
                 (A) (A) (A) (A) (A) (A) (A) (A) (A) (A) (A) (A)
                 (A) (A) (A) (A) (A) (A) (A) (A) (A) (A) (A) (A)
                 (A) (A) (A) (A) (A) (A) (A) (A) (A) (A) (A) (A)
                 (A) (A) (A) (A) (A) (A) (A) (A) (A) (A) (A) (A)
                 (A) (A) (A) (A) (A) (A) (A) (A) (A) (A) (A) (A)
                 (A) (A) (A) (A) (A) (A) (A) (A) (A) (A) (A) (A)
                 (A) (A) (A) (A) (A) (A) (A) (A) (A) (A) (A) (A)
                 (A) (A) (A) (A) (A) (A) (A) (A) (A) (A) (A) (A)
                 (A) (A) (A) (A) (A) (A) (A) (A) (A) (A) (A) (A)
                 (A) (A) (A) (A) (A) (A) (A) (A) (A) (A) (A) (A)
                 (A) (A) (A) (A) (A) (A) (A) (A) (A) (A) (A) (A)
                 (A) (A) (A) (A) (A) (A) (A) (A) (A) (A) (A) (A)
                 (A) (A) (A) (A) (A) (A) (A) (A) (A) (A) (A) (A)
                 (A) (A) (A) (A) (A) (A) (A) (A) (A) (A) (A) (A)
                 (A) (A) (A) (A) (A) (A) (A) (A) (A) (A) (A) (A)
                 (A) (A) (A) (A) (A) (A) (A) (A) (A) (A) (A) (A)
                 (A) (A) (A) (A) (A)
 The electronic state is 1-A.
 Alpha  occ. eigenvalues --  -14.33154 -14.31478 -10.24479 -10.23436 -10.21937
 Alpha  occ. eigenvalues --  -10.18906 -10.18425 -10.17814 -10.17697  -0.97830
 Alpha  occ. eigenvalues --   -0.89497  -0.82415  -0.75493  -0.66606  -0.63930
 Alpha  occ. eigenvalues --   -0.60009  -0.57229  -0.55929  -0.51168  -0.49981
 Alpha  occ. eigenvalues --   -0.49005  -0.46925  -0.42891  -0.39926  -0.37158
 Alpha  occ. eigenvalues --   -0.36002  -0.35021  -0.31253  -0.29399  -0.28502
 Alpha  occ. eigenvalues --   -0.27167  -0.24547  -0.20241
 Alpha virt. eigenvalues --    0.03360   0.04312   0.07606   0.09126   0.10066
 Alpha virt. eigenvalues --    0.12156   0.12648   0.14591   0.15203   0.16011
 Alpha virt. eigenvalues --    0.16726   0.17513   0.19638   0.20944   0.23288
 Alpha virt. eigenvalues --    0.24108   0.24761   0.27776   0.28374   0.30935
 Alpha virt. eigenvalues --    0.34650   0.38585   0.40760   0.42725   0.46585
 Alpha virt. eigenvalues --    0.48350   0.48832   0.50111   0.51071   0.52609
 Alpha virt. eigenvalues --    0.53050   0.53924   0.54424   0.55500   0.56309
 Alpha virt. eigenvalues --    0.59136   0.59778   0.61028   0.62271   0.63637
 Alpha virt. eigenvalues --    0.64649   0.67417   0.68994   0.69673   0.71811
 Alpha virt. eigenvalues --    0.72796   0.73643   0.74326   0.75825   0.76948
 Alpha virt. eigenvalues --    0.78397   0.79671   0.79868   0.80799   0.81800
 Alpha virt. eigenvalues --    0.82470   0.82772   0.84420   0.85164   0.85663
 Alpha virt. eigenvalues --    0.93458   0.94756   1.00337   1.01783   1.03711
 Alpha virt. eigenvalues --    1.06319   1.07898   1.10090   1.12334   1.13666
 Alpha virt. eigenvalues --    1.15041   1.16218   1.18344   1.19666   1.20559
 Alpha virt. eigenvalues --    1.23403   1.25718   1.28459   1.31507   1.33667
 Alpha virt. eigenvalues --    1.36547   1.38526   1.39471   1.42720   1.45124
 Alpha virt. eigenvalues --    1.46580   1.47762   1.49441   1.51061   1.53194
 Alpha virt. eigenvalues --    1.55987   1.57095   1.58280   1.60584   1.62739
 Alpha virt. eigenvalues --    1.64579   1.70037   1.70837   1.72235   1.74988
 Alpha virt. eigenvalues --    1.79479   1.79857   1.83089   1.83865   1.88937
 Alpha virt. eigenvalues --    1.91677   1.96972   1.98816   2.04038   2.08622
 Alpha virt. eigenvalues --    2.16696   2.19455   2.20886   2.23771   2.26296
 Alpha virt. eigenvalues --    2.30452   2.32384   2.35436   2.36230   2.38783
 Alpha virt. eigenvalues --    2.44841   2.49731   2.51657   2.53759   2.60176
 Alpha virt. eigenvalues --    2.61618   2.62570   2.63041   2.65917   2.66607
 Alpha virt. eigenvalues --    2.67521   2.68780   2.69915   2.73001   2.74469
 Alpha virt. eigenvalues --    2.76329   2.77960   2.80895   2.84789   2.86370
 Alpha virt. eigenvalues --    2.87317   2.88700   2.91799   2.93848   2.95784
 Alpha virt. eigenvalues --    2.98063   2.98681   3.02200   3.03008   3.04601
 Alpha virt. eigenvalues --    3.07414   3.07766   3.08261   3.10927   3.13456
 Alpha virt. eigenvalues --    3.14668   3.17176   3.21244   3.22809   3.23662
 Alpha virt. eigenvalues --    3.24071   3.28440   3.29383   3.30091   3.31845
 Alpha virt. eigenvalues --    3.34835   3.37475   3.40302   3.42389   3.42653
 Alpha virt. eigenvalues --    3.43410   3.45064   3.47185   3.51054   3.52408
 Alpha virt. eigenvalues --    3.57381   3.59984   3.61000   3.65290   3.69647
 Alpha virt. eigenvalues --    3.74307   3.77111   3.77864   3.81920   3.84876
 Alpha virt. eigenvalues --    3.89554   3.91191   3.94189   3.94930   3.97667
 Alpha virt. eigenvalues --    4.02200   4.06658   4.11205   4.12869   4.13816
 Alpha virt. eigenvalues --    4.20009   4.21456   4.23186   4.24229   4.26475
 Alpha virt. eigenvalues --    4.28932   4.31475   4.32722   4.35167   4.36209
 Alpha virt. eigenvalues --    4.37362   4.39112   4.39178   4.41885   4.43676
 Alpha virt. eigenvalues --    4.46151   4.49488   4.51189   4.52666   4.53582
 Alpha virt. eigenvalues --    4.58373   4.60316   4.62876   4.63698   4.65850
 Alpha virt. eigenvalues --    4.69402   4.70576   4.72820   4.75112   4.77060
 Alpha virt. eigenvalues --    4.78844   4.80082   4.82090   4.84939   4.86244
 Alpha virt. eigenvalues --    4.88054   4.89083   4.93369   4.94481   4.95569
 Alpha virt. eigenvalues --    4.96203   4.98470   5.02349   5.07344   5.14680
 Alpha virt. eigenvalues --    5.16783   5.23599   5.24783   5.27074   5.29199
 Alpha virt. eigenvalues --    5.30361   5.34937   5.44052   5.45900   5.52863
 Alpha virt. eigenvalues --    5.52997   5.60515   5.70004   5.75951   5.87720
 Alpha virt. eigenvalues --    5.91638   6.28044   6.83614   9.60261  10.19029
 Alpha virt. eigenvalues --   10.58194  11.20342  11.31157  11.57747  11.74016
 Alpha virt. eigenvalues --   11.98337  12.10737  13.55828  16.62517
          Condensed to atoms (all electrons):
               1          2          3          4          5          6
     1  C    5.278190   0.874296  -0.072327   0.000733  -0.000354   0.000079
     2  C    0.874296   4.495861   0.357931  -0.021365  -0.011838   0.004089
     3  C   -0.072327   0.357931   5.154532   0.285458   0.235187  -0.032978
     4  N    0.000733  -0.021365   0.285458   6.548993   0.272531  -0.029630
     5  C   -0.000354  -0.011838   0.235187   0.272531   4.914604   0.375975
     6  N    0.000079   0.004089  -0.032978  -0.029630   0.375975   6.384487
     7  C    0.000003   0.000196  -0.000768   0.002896  -0.075839   0.414748
     8  C    0.000006   0.000105  -0.000650  -0.000029  -0.002029  -0.061950
     9  C   -0.000020  -0.000174   0.001450   0.000068  -0.003480  -0.002184
    10  H    0.374643   0.000533  -0.000352   0.000002   0.000062  -0.000000
    11  H   -0.005880  -0.051081   0.388653  -0.029906  -0.022715   0.004006
    12  H    0.001178   0.003127  -0.056497   0.336407  -0.031245   0.003539
    13  H    0.003374   0.008179  -0.052272  -0.036971   0.378963  -0.060469
    14  H   -0.000007  -0.000252   0.006412   0.002943  -0.044256   0.343225
    15  H   -0.000000  -0.000011  -0.000002  -0.000144   0.005749  -0.031306
    16  H    0.000000   0.000002   0.000063  -0.000033   0.000831  -0.004576
    17  H   -0.000000  -0.000001  -0.000000   0.000000  -0.000034   0.001889
    18  H    0.000051   0.000232  -0.000228  -0.000012   0.001802  -0.003893
    19  H    0.000000   0.000002   0.000003  -0.000000   0.000004   0.001277
               7          8          9         10         11         12
     1  C    0.000003   0.000006  -0.000020   0.374643  -0.005880   0.001178
     2  C    0.000196   0.000105  -0.000174   0.000533  -0.051081   0.003127
     3  C   -0.000768  -0.000650   0.001450  -0.000352   0.388653  -0.056497
     4  N    0.002896  -0.000029   0.000068   0.000002  -0.029906   0.336407
     5  C   -0.075839  -0.002029  -0.003480   0.000062  -0.022715  -0.031245
     6  N    0.414748  -0.061950  -0.002184  -0.000000   0.004006   0.003539
     7  C    4.668286   0.298686   0.357112   0.000000   0.000788  -0.000164
     8  C    0.298686   5.063411   0.298745   0.000000   0.000032   0.000018
     9  C    0.357112   0.298745   4.942727  -0.000000   0.000020   0.000001
    10  H    0.000000   0.000000  -0.000000   0.426675  -0.000108  -0.000013
    11  H    0.000788   0.000032   0.000020  -0.000108   0.586245   0.004239
    12  H   -0.000164   0.000018   0.000001  -0.000013   0.004239   0.508842
    13  H    0.002656   0.007227  -0.001801   0.000021   0.002890  -0.007763
    14  H   -0.043242  -0.004851   0.004626  -0.000000  -0.000316   0.000102
    15  H    0.378558  -0.032840  -0.045142  -0.000000  -0.000084   0.000002
    16  H   -0.011333   0.387109  -0.028447   0.000000  -0.000000   0.000001
    17  H   -0.018368   0.373229  -0.014388  -0.000000  -0.000000  -0.000000
    18  H   -0.021131  -0.019007   0.380762   0.000000  -0.000029   0.000002
    19  H   -0.013266  -0.023168   0.377625   0.000000   0.000001  -0.000000
              13         14         15         16         17         18
     1  C    0.003374  -0.000007  -0.000000   0.000000  -0.000000   0.000051
     2  C    0.008179  -0.000252  -0.000011   0.000002  -0.000001   0.000232
     3  C   -0.052272   0.006412  -0.000002   0.000063  -0.000000  -0.000228
     4  N   -0.036971   0.002943  -0.000144  -0.000033   0.000000  -0.000012
     5  C    0.378963  -0.044256   0.005749   0.000831  -0.000034   0.001802
     6  N   -0.060469   0.343225  -0.031306  -0.004576   0.001889  -0.003893
     7  C    0.002656  -0.043242   0.378558  -0.011333  -0.018368  -0.021131
     8  C    0.007227  -0.004851  -0.032840   0.387109   0.373229  -0.019007
     9  C   -0.001801   0.004626  -0.045142  -0.028447  -0.014388   0.380762
    10  H    0.000021  -0.000000  -0.000000   0.000000  -0.000000   0.000000
    11  H    0.002890  -0.000316  -0.000084  -0.000000  -0.000000  -0.000029
    12  H   -0.007763   0.000102   0.000002   0.000001  -0.000000   0.000002
    13  H    0.659910  -0.000176  -0.000220   0.003056  -0.000152   0.000369
    14  H   -0.000176   0.502402  -0.001349   0.000353   0.000379  -0.000023
    15  H   -0.000220  -0.001349   0.631876   0.002192  -0.004327   0.003456
    16  H    0.003056   0.000353   0.002192   0.579420  -0.043504  -0.006924
    17  H   -0.000152   0.000379  -0.004327  -0.043504   0.606105   0.002248
    18  H    0.000369  -0.000023   0.003456  -0.006924   0.002248   0.583247
    19  H    0.000041  -0.000067  -0.009983   0.003644  -0.008100  -0.040221
              19
     1  C    0.000000
     2  C    0.000002
     3  C    0.000003
     4  N   -0.000000
     5  C    0.000004
     6  N    0.001277
     7  C   -0.013266
     8  C   -0.023168
     9  C    0.377625
    10  H    0.000000
    11  H    0.000001
    12  H   -0.000000
    13  H    0.000041
    14  H   -0.000067
    15  H   -0.009983
    16  H    0.003644
    17  H   -0.008100
    18  H   -0.040221
    19  H    0.594542
 Mulliken charges:
               1
     1  C   -0.453963
     2  C    0.340169
     3  C   -0.213614
     4  N   -0.331943
     5  C    0.006082
     6  N   -0.306327
     7  C    0.060184
     8  C   -0.284043
     9  C   -0.267498
    10  H    0.198535
    11  H    0.123244
    12  H    0.238225
    13  H    0.093140
    14  H    0.234098
    15  H    0.103575
    16  H    0.118146
    17  H    0.105024
    18  H    0.119300
    19  H    0.117668
 Sum of Mulliken charges =  -0.00000
 Mulliken charges with hydrogens summed into heavy atoms:
               1
     1  C   -0.255428
     2  C    0.340169
     3  C   -0.090370
     4  N   -0.093718
     5  C    0.099222
     6  N   -0.072229
     7  C    0.163759
     8  C   -0.060873
     9  C   -0.030531
 Electronic spatial extent (au):  <R**2>=           1513.6888
 Charge=             -0.0000 electrons
 Dipole moment (field-independent basis, Debye):
    X=             -0.7234    Y=              0.8703    Z=              1.1544  Tot=              1.6166
 Quadrupole moment (field-independent basis, Debye-Ang):
   XX=            -49.8974   YY=            -53.4460   ZZ=            -51.9186
   XY=              3.5080   XZ=              2.6120   YZ=             -1.7029
 Traceless Quadrupole moment (field-independent basis, Debye-Ang):
   XX=              1.8566   YY=             -1.6920   ZZ=             -0.1646
   XY=              3.5080   XZ=              2.6120   YZ=             -1.7029
 Octapole moment (field-independent basis, Debye-Ang**2):
  XXX=             -0.3241  YYY=              5.3393  ZZZ=              0.9916  XYY=              4.3645
  XXY=              9.4776  XXZ=              1.6662  XZZ=             -0.3229  YZZ=             -4.0633
  YYZ=              5.9647  XYZ=              1.1855
 Hexadecapole moment (field-independent basis, Debye-Ang**3):
 XXXX=          -1423.4464 YYYY=           -407.4082 ZZZZ=           -143.3413 XXXY=             65.5607
 XXXZ=             41.4811 YYYX=             49.3863 YYYZ=             -7.3461 ZZZX=              1.0010
 ZZZY=             -0.9214 XXYY=           -266.1215 XXZZ=           -268.4310 YYZZ=            -94.1608
 XXYZ=              1.1773 YYXZ=             16.9368 ZZXY=             -9.7461
 N-N= 4.103907560393D+02 E-N=-1.707613798688D+03  KE= 3.790387576462D+02
 PrsmSu:  requested number of processors reduced to:  13 ShMem   1 Linda.
 Calling FoFJK, ICntrl=      2127 FMM=F ISym2X=0 I1Cent= 0 IOpClX= 0 NMat=1 NMatS=1 NMatT=0.
 ***** Axes restored to original set *****
 -------------------------------------------------------------------
 Center     Atomic                   Forces (Hartrees/Bohr)
 Number     Number              X              Y              Z
 -------------------------------------------------------------------
      1        6           0.003427901   -0.000239361    0.001050874
      2        6          -0.010384559   -0.000705371    0.003770578
      3        6          -0.003633280    0.011419532   -0.001693128
      4        7           0.003416100   -0.008280271   -0.005682834
      5        6           0.028556295   -0.007990609   -0.003518120
      6        7          -0.021426956   -0.005386751    0.022035224
      7        6           0.006540859   -0.018513578   -0.014343722
      8        6           0.016699721    0.021328701   -0.000032405
      9        6          -0.015625743    0.007406004    0.008040024
     10        1           0.000563789   -0.000953391   -0.002084965
     11        1           0.002395377    0.002783938    0.000392209
     12        1          -0.000786199    0.003101017    0.000067505
     13        1          -0.012633849    0.004348257    0.000696060
     14        1          -0.007714298    0.006119315    0.003111303
     15        1           0.010955342    0.006518707   -0.016803878
     16        1           0.006236173   -0.015513529    0.001385530
     17        1          -0.001578734    0.006159370    0.001443277
     18        1          -0.004452121   -0.004967044   -0.000870837
     19        1          -0.000555817   -0.006634936    0.003037305
 -------------------------------------------------------------------
 Cartesian Forces:  Max     0.028556295 RMS     0.009488078

 GradGradGradGradGradGradGradGradGradGradGradGradGradGradGradGradGradGrad
 Berny optimization.
 FormGI is forming the generalized inverse of G from B-inverse, IUseBI=4.
 Internal  Forces:  Max     0.019976594 RMS     0.006376679
 Search for a local minimum.
 Step number   1 out of a maximum of   96
 All quantities printed in internal units (Hartrees-Bohrs-Radians)
 Mixed Optimization -- RFO/linear search
 Second derivative matrix not updated -- first step.
 ITU=  0
     Eigenvalues ---    0.00595   0.00595   0.01024   0.01227   0.01700
     Eigenvalues ---    0.01700   0.01903   0.01954   0.02301   0.02526
     Eigenvalues ---    0.02842   0.02896   0.03251   0.03378   0.03615
     Eigenvalues ---    0.03907   0.04401   0.05668   0.09350   0.10283
     Eigenvalues ---    0.10769   0.12944   0.13055   0.13331   0.14785
     Eigenvalues ---    0.16000   0.17756   0.17774   0.18199   0.20434
     Eigenvalues ---    0.22760   0.26812   0.28239   0.28683   0.31767
     Eigenvalues ---    0.32147   0.34597   0.35052   0.35101   0.35416
     Eigenvalues ---    0.35484   0.35677   0.36091   0.36148   0.38159
     Eigenvalues ---    0.38183   0.40255   0.41075   0.44176   0.44666
     Eigenvalues ---    1.02136
 RFO step:  Lambda=-3.00346839D-02 EMin= 5.95057628D-03
 Linear search not attempted -- first point.
 Maximum step size (   0.300) exceeded in Quadratic search.
    -- Step size scaled by   0.882
 Iteration  1 RMS(Cart)=  0.12643074 RMS(Int)=  0.00860720
 Iteration  2 RMS(Cart)=  0.01138992 RMS(Int)=  0.00168716
 Iteration  3 RMS(Cart)=  0.00012141 RMS(Int)=  0.00168452
 Iteration  4 RMS(Cart)=  0.00000025 RMS(Int)=  0.00168452
 Variable       Old X    -DE/DX   Delta X   Delta X   Delta X     New X
                                 (Linear)    (Quad)   (Total)
    R1        2.27795  -0.00400   0.00000  -0.00335  -0.00335   2.27460
    R2        2.00834  -0.00072   0.00000  -0.00155  -0.00155   2.00679
    R3        2.70118   0.00638   0.00000   0.01276   0.01276   2.71394
    R4        2.75569   0.00722   0.00000   0.02256   0.02336   2.77905
    R5        2.86021  -0.00448   0.00000  -0.01724  -0.01772   2.84249
    R6        2.05005   0.00125   0.00000   0.00287   0.00287   2.05292
    R7        2.76327   0.00057   0.00000  -0.00054  -0.00084   2.76243
    R8        1.92366  -0.00107   0.00000  -0.00198  -0.00198   1.92168
    R9        2.71208  -0.00980   0.00000  -0.01998  -0.01998   2.69209
   R10        2.04590   0.00727   0.00000   0.01658   0.01658   2.06248
   R11        2.74099  -0.00524   0.00000  -0.01121  -0.01121   2.72978
   R12        1.92945  -0.00969   0.00000  -0.01812  -0.01812   1.91132
   R13        2.87647  -0.00256   0.00000  -0.01333  -0.01587   2.86060
   R14        2.82465   0.00574   0.00000   0.01406   0.01142   2.83608
   R15        2.05511   0.00006   0.00000   0.00013   0.00013   2.05525
   R16        2.82931   0.00804   0.00000   0.02605   0.03120   2.86051
   R17        2.05591  -0.00215   0.00000  -0.00499  -0.00499   2.05092
   R18        2.04896   0.00213   0.00000   0.00489   0.00489   2.05384
   R19        2.03940   0.00472   0.00000   0.01065   0.01065   2.05005
   R20        2.06334  -0.00369   0.00000  -0.00866  -0.00866   2.05468
    A1        2.12503  -0.00155   0.00000  -0.01202  -0.01211   2.11292
    A2        2.05178   0.00353   0.00000   0.02201   0.02219   2.07397
    A3        2.00711   0.00048   0.00000   0.00411   0.00409   2.01120
    A4        1.98426   0.00053   0.00000   0.00459   0.00487   1.98914
    A5        2.07064  -0.00343   0.00000  -0.02253  -0.02252   2.04812
    A6        1.93512  -0.00071   0.00000  -0.00981  -0.00986   1.92526
    A7        1.95903   0.00156   0.00000  -0.00717  -0.00716   1.95187
    A8        2.12034  -0.00214   0.00000  -0.02148  -0.02245   2.09789
    A9        2.09142  -0.00611   0.00000  -0.04082  -0.04181   2.04961
   A10        1.94372   0.00158   0.00000   0.02870   0.02842   1.97213
   A11        1.99851  -0.00299   0.00000   0.01297   0.01206   2.01057
   A12        2.02383   0.00611   0.00000   0.03218   0.02923   2.05306
   A13        2.12038  -0.00347   0.00000  -0.01664  -0.01699   2.10339
   A14        1.95389   0.00187   0.00000  -0.00074  -0.00126   1.95263
   A15        1.96573  -0.00067   0.00000  -0.01416  -0.01451   1.95122
   A16        2.09747   0.00718   0.00000   0.06380   0.07104   2.16851
   A17        2.38578  -0.01998   0.00000  -0.12537  -0.12256   2.26322
   A18        1.85783   0.00946   0.00000   0.04093   0.03891   1.89674
   A19        2.14055  -0.01481   0.00000  -0.10276  -0.10431   2.03624
   A20        1.86171   0.00614   0.00000   0.05934   0.06181   1.92352
   A21        2.17703  -0.01468   0.00000  -0.08563  -0.08603   2.09101
   A22        2.05663   0.00917   0.00000   0.03625   0.03668   2.09331
   A23        1.96920  -0.01263   0.00000   0.00484   0.00696   1.97616
   A24        2.11746   0.01224   0.00000   0.01694   0.01522   2.13268
   A25        1.94492   0.00362   0.00000   0.02076   0.01936   1.96428
   A26        2.19349  -0.00574   0.00000  -0.04604  -0.04581   2.14769
   A27        2.00700   0.00349   0.00000   0.01043   0.01113   2.01813
   A28        2.05816   0.01143   0.00000   0.04170   0.04176   2.09992
   A29        2.03588  -0.00821   0.00000  -0.00915  -0.00880   2.02709
   A30        1.94953   0.00088   0.00000   0.01107   0.00967   1.95920
   A31        3.12355   0.00184   0.00000   0.04503   0.04503   3.16858
   A32        3.10076   0.00447   0.00000   0.08378   0.08378   3.18453
   A33        3.20077  -0.00347   0.00000  -0.08499  -0.08499   3.11578
   A34        3.06730   0.00608   0.00000   0.11394   0.11394   3.18124
    D1        0.00440   0.00387   0.00000   0.03994   0.03979   0.04418
    D2        2.52673   0.00320   0.00000   0.03637   0.03652   2.56324
    D3        2.62580  -0.00175   0.00000  -0.03104  -0.02980   2.59600
    D4       -0.17605   0.00450   0.00000   0.06702   0.06577  -0.11028
    D5        0.07924  -0.00293   0.00000  -0.03882  -0.03772   0.04152
    D6       -2.72260   0.00332   0.00000   0.05924   0.05784  -2.66476
    D7       -2.48734  -0.00534   0.00000  -0.04942  -0.04957  -2.53691
    D8       -0.14830   0.00234   0.00000   0.03987   0.04008  -0.10823
    D9       -1.84466   0.00266   0.00000   0.01696   0.01704  -1.82762
   D10        2.04456   0.00566   0.00000   0.06311   0.06323   2.10779
   D11       -2.98707  -0.00227   0.00000  -0.00932  -0.00821  -2.99527
   D12        0.90216   0.00073   0.00000   0.03684   0.03799   0.94014
   D13        0.96958  -0.00554   0.00000  -0.09052  -0.09176   0.87782
   D14       -1.42438  -0.00254   0.00000  -0.04436  -0.04557  -1.46995
   D15       -1.07530  -0.00118   0.00000  -0.00019   0.00421  -1.07110
   D16        0.25408   0.00287   0.00000   0.03383   0.02944   0.28351
   D17        2.67175   0.00180   0.00000   0.03721   0.03684   2.70859
   D18        1.31414  -0.00324   0.00000  -0.04153  -0.03689   1.27725
   D19        2.64352   0.00081   0.00000  -0.00750  -0.01166   2.63186
   D20       -1.22200  -0.00026   0.00000  -0.00413  -0.00425  -1.22625
   D21        0.54911  -0.01666   0.00000  -0.21612  -0.21541   0.33370
   D22       -2.07488  -0.01383   0.00000  -0.15862  -0.15913  -2.23401
   D23        2.98541  -0.00987   0.00000  -0.19579  -0.19358   2.79183
   D24        0.36143  -0.00704   0.00000  -0.13828  -0.13730   0.22413
   D25        0.03837  -0.00596   0.00000  -0.08814  -0.08780  -0.04943
   D26        2.60074  -0.00805   0.00000  -0.13123  -0.12950   2.47124
   D27       -2.37828  -0.00573   0.00000  -0.08649  -0.08792  -2.46620
   D28        0.18409  -0.00782   0.00000  -0.12958  -0.12962   0.05447
   D29        0.00841   0.00059   0.00000  -0.02897  -0.02899  -0.02058
   D30       -2.38681  -0.00507   0.00000  -0.09078  -0.09241  -2.47922
   D31        2.38343   0.00531   0.00000   0.03375   0.03503   2.41846
   D32       -0.01179  -0.00035   0.00000  -0.02806  -0.02839  -0.04018
         Item               Value     Threshold  Converged?
 Maximum Force            0.019977     0.000450     NO 
 RMS     Force            0.006377     0.000300     NO 
 Maximum Displacement     0.554355     0.001800     NO 
 RMS     Displacement     0.129317     0.001200     NO 
 Predicted change in Energy=-1.935226D-02
 GradGradGradGradGradGradGradGradGradGradGradGradGradGradGradGradGradGrad

                          Input orientation:                          
 ---------------------------------------------------------------------
 Center     Atomic      Atomic             Coordinates (Angstroms)
 Number     Number       Type             X           Y           Z
 ---------------------------------------------------------------------
      1          6           0        1.158842    0.095721    0.015397
      2          6           0        2.359739    0.171590    0.045493
      3          6           0        3.795683    0.194709    0.036774
      4          7           0        4.559997   -0.529967   -0.989559
      5          6           0        4.502588    0.928518   -1.069742
      6          7           0        5.761842    1.549170   -0.827796
      7          6           0        5.857740    2.983738   -0.688116
      8          6           0        5.483868    3.972063   -1.772048
      9          6           0        4.779342    3.995701   -0.432486
     10          1           0        0.102333   -0.002358   -0.028262
     11          1           0        4.264778    0.197324    1.016630
     12          1           0        3.928916   -0.970423   -1.654269
     13          1           0        3.890197    1.325510   -1.881260
     14          1           0        6.485420    1.181392   -1.431256
     15          1           0        6.740369    3.217886   -0.097360
     16          1           0        4.840658    3.659618   -2.588462
     17          1           0        6.189111    4.743839   -2.069085
     18          1           0        3.728536    3.735548   -0.361754
     19          1           0        5.047712    4.810421    0.235651
 ---------------------------------------------------------------------
                    Distance matrix (angstroms):
                    1          2          3          4          5
     1  C    0.000000
     2  C    1.203668   0.000000
     3  C    2.638785   1.436156   0.000000
     4  N    3.601288   2.530740   1.470609   0.000000
     5  C    3.612716   2.531499   1.504183   1.461815   0.000000
     6  N    4.900112   3.772885   2.539258   2.406950   1.424594
     7  C    5.560146   4.547787   3.543477   3.757809   2.491185
     8  C    6.076746   5.244734   4.515553   4.661985   3.274036
     9  C    5.340268   4.550469   3.954154   4.565097   3.144885
    10  H    1.061950   2.265300   3.699176   4.590559   4.616650
    11  H    3.264908   2.138443   1.086358   2.154275   2.223543
    12  H    3.405548   2.579864   2.057889   1.016909   2.068030
    13  H    3.545417   2.717757   2.228564   2.164845   1.091415
    14  H    5.625293   4.496857   3.219214   2.613637   2.031320
    15  H    6.396411   5.337625   4.222412   4.426787   3.345803
    16  H    5.747800   5.025834   4.470954   4.493092   3.143200
    17  H    7.159167   6.327795   5.554973   5.624270   4.289490
    18  H    4.471455   3.839433   3.563829   4.390909   2.996635
    19  H    6.115572   5.364709   4.786641   5.500795   4.131632
                    6          7          8          9         10
     6  N    0.000000
     7  C    1.444538   0.000000
     8  C    2.615205   1.513763   0.000000
     9  C    2.665913   1.500787   1.513718   0.000000
    10  H    5.922545   6.517430   6.913591   6.166222   0.000000
    11  H    2.733240   3.634253   4.848873   4.097852   4.296233
    12  H    3.223512   4.504354   5.182656   5.184435   4.268933
    13  H    2.159367   2.836290   3.091271   3.165350   4.420944
    14  H    1.011429   2.048094   2.984475   3.439270   6.641796
    15  H    2.067768   1.087590   2.225345   2.136103   7.378229
    16  H    2.898709   2.258890   1.085298   2.182875   6.512789
    17  H    3.453877   2.261601   1.086847   2.285961   7.983747
    18  H    3.021883   2.281500   2.264080   1.084839   5.218478
    19  H    3.503807   2.201423   2.218994   1.087290   6.905742
                   11         12         13         14         15
    11  H    0.000000
    12  H    2.934303   0.000000
    13  H    3.132232   2.307452   0.000000
    14  H    3.448447   3.348993   2.637889   0.000000
    15  H    4.061197   5.279220   3.858350   2.447772   0.000000
    16  H    5.031481   4.810537   2.617550   3.191546   3.163798
    17  H    5.821984   6.159006   4.123743   3.631206   2.553452
    18  H    3.834909   4.884354   2.853649   3.907423   3.067412
    19  H    4.743794   6.183985   4.238603   4.244460   2.347798
                   16         17         18         19
    16  H    0.000000
    17  H    1.806547   0.000000
    18  H    2.490142   3.160073   0.000000
    19  H    3.056605   2.572749   1.803461   0.000000
 Stoichiometry    C7H10N2
 Framework group  C1[X(C7H10N2)]
 Deg. of freedom    51
 Full point group                 C1      NOp   1
 Largest Abelian subgroup         C1      NOp   1
 Largest concise Abelian subgroup C1      NOp   1
                         Standard orientation:                         
 ---------------------------------------------------------------------
 Center     Atomic      Atomic             Coordinates (Angstroms)
 Number     Number       Type             X           Y           Z
 ---------------------------------------------------------------------
      1          6           0        3.233143    1.459364    0.196871
      2          6           0        2.419266    0.647744   -0.160471
      3          6           0        1.488821   -0.376530   -0.544763
      4          7           0        1.363048   -1.618085    0.233319
      5          6           0        0.289188   -0.630630    0.326375
      6          7           0       -0.932853   -1.081372   -0.250614
      7          6           0       -2.046406   -0.175295   -0.410968
      8          6           0       -2.747148    0.524266    0.734044
      9          6           0       -2.076108    1.324391   -0.361788
     10          1           0        3.969608    2.149191    0.527770
     11          1           0        1.365799   -0.512383   -1.615550
     12          1           0        1.974704   -1.589313    1.045200
     13          1           0        0.233283   -0.092913    1.274490
     14          1           0       -1.224661   -1.971042    0.131911
     15          1           0       -2.676065   -0.537203   -1.220538
     16          1           0       -2.251333    0.615092    1.695184
     17          1           0       -3.828266    0.462827    0.827020
     18          1           0       -1.200858    1.926661   -0.142504
     19          1           0       -2.738111    1.805425   -1.077718
 ---------------------------------------------------------------------
 Rotational constants (GHZ):           3.0945557           0.9319071           0.7809487
 Standard basis: 6-31G(2df,p) (6D, 7F)
 There are   329 symmetry adapted cartesian basis functions of A   symmetry.
 There are   302 symmetry adapted basis functions of A   symmetry.
   302 basis functions,   466 primitive gaussians,   329 cartesian basis functions
    33 alpha electrons       33 beta electrons
       nuclear repulsion energy       412.4725887625 Hartrees.
 NAtoms=   19 NActive=   19 NUniq=   19 SFac= 1.00D+00 NAtFMM=   60 NAOKFM=F Big=F
 Integral buffers will be    131072 words long.
 Raffenetti 2 integral format.
 Two-electron integral symmetry is turned on.
 One-electron integrals computed using PRISM.
 PrsmSu:  requested number of processors reduced to:  13 ShMem   1 Linda.
 NBasis=   302 RedAO= T EigKep=  1.47D-04  NBF=   302
 NBsUse=   302 1.00D-06 EigRej= -1.00D+00 NBFU=   302
 Initial guess from the checkpoint file:  "CtCC1NC1NC1CC1.chk"
 B after Tr=    -0.000000   -0.000000   -0.000000
         Rot=    0.999954   -0.001605    0.002999    0.008978 Ang=  -1.10 deg.
 ExpMin= 1.61D-01 ExpMax= 4.17D+03 ExpMxC= 6.27D+02 IAcc=2 IRadAn=         4 AccDes= 0.00D+00
 Harris functional with IExCor=  402 and IRadAn=       4 diagonalized for initial guess.
 HarFok:  IExCor=  402 AccDes= 0.00D+00 IRadAn=         4 IDoV= 1 UseB2=F ITyADJ=14
 ICtDFT=  3500011 ScaDFX=  1.000000  1.000000  1.000000  1.000000
 FoFCou: FMM=F IPFlag=           0 FMFlag=      100000 FMFlg1=           0
         NFxFlg=           0 DoJE=T BraDBF=F KetDBF=T FulRan=T
         wScrn=  0.000000 ICntrl=       500 IOpCl=  0 I1Cent=   200000004 NGrid=           0
         NMat0=    1 NMatS0=      1 NMatT0=    0 NMatD0=    1 NMtDS0=    0 NMtDT0=    0
 Petite list used in FoFCou.
 Requested convergence on RMS density matrix=1.00D-08 within 128 cycles.
 Requested convergence on MAX density matrix=1.00D-06.
 Requested convergence on             energy=1.00D-06.
 No special actions if energy rises.
 Integral accuracy reduced to 1.0D-05 until final iterations.
 Initial convergence to 1.0D-05 achieved.  Increase integral accuracy.
 SCF Done:  E(RB3LYP) =  -382.126148777     A.U. after   11 cycles
            NFock= 11  Conv=0.88D-08     -V/T= 2.0082
 PrsmSu:  requested number of processors reduced to:  13 ShMem   1 Linda.
 Calling FoFJK, ICntrl=      2127 FMM=F ISym2X=0 I1Cent= 0 IOpClX= 0 NMat=1 NMatS=1 NMatT=0.
 ***** Axes restored to original set *****
 -------------------------------------------------------------------
 Center     Atomic                   Forces (Hartrees/Bohr)
 Number     Number              X              Y              Z
 -------------------------------------------------------------------
      1        6           0.000248704   -0.000513059   -0.000674956
      2        6          -0.000721756   -0.005177895   -0.002202216
      3        6          -0.006021453    0.009293830    0.004075045
      4        7           0.002663336   -0.003141703   -0.000321734
      5        6           0.010067259   -0.004854983   -0.006529018
      6        7          -0.010679988    0.002171934    0.011583778
      7        6           0.007334911   -0.004905999   -0.002361302
      8        6          -0.002206842    0.005081841   -0.001635833
      9        6          -0.002021620    0.003897449    0.003969359
     10        1          -0.000061945    0.001373967    0.001027702
     11        1           0.002150160    0.000517977   -0.001056277
     12        1          -0.000924381    0.002748995   -0.000544101
     13        1          -0.004919127    0.001998256    0.002347128
     14        1          -0.001056868    0.000240547   -0.001624859
     15        1           0.004235931    0.002376666   -0.006815039
     16        1           0.004180046   -0.006685857   -0.001428482
     17        1          -0.002224469    0.001951167    0.003977006
     18        1           0.000455593   -0.002868774   -0.004666640
     19        1          -0.000497489   -0.003504360    0.002880440
 -------------------------------------------------------------------
 Cartesian Forces:  Max     0.011583778 RMS     0.004244025

 GradGradGradGradGradGradGradGradGradGradGradGradGradGradGradGradGradGrad
 Berny optimization.
 Using GEDIIS/GDIIS optimizer.
 FormGI is forming the generalized inverse of G from B-inverse, IUseBI=4.
 Internal  Forces:  Max     0.008942653 RMS     0.002686871
 Search for a local minimum.
 Step number   2 out of a maximum of   96
 All quantities printed in internal units (Hartrees-Bohrs-Radians)
 Mixed Optimization -- RFO/linear search
 Update second derivatives using D2CorX and points    1    2
 DE= -1.81D-02 DEPred=-1.94D-02 R= 9.37D-01
 TightC=F SS=  1.41D+00  RLast= 5.61D-01 DXNew= 5.0454D-01 1.6817D+00
 Trust test= 9.37D-01 RLast= 5.61D-01 DXMaxT set to 5.05D-01
 ITU=  1  0
 Use linear search instead of GDIIS.
     Eigenvalues ---    0.00593   0.00607   0.01024   0.01227   0.01546
     Eigenvalues ---    0.01701   0.02076   0.02266   0.02539   0.02645
     Eigenvalues ---    0.02916   0.03066   0.03302   0.03446   0.03582
     Eigenvalues ---    0.04058   0.04531   0.05700   0.09300   0.10350
     Eigenvalues ---    0.10659   0.12676   0.12980   0.13059   0.15170
     Eigenvalues ---    0.15383   0.17214   0.17852   0.18128   0.20426
     Eigenvalues ---    0.22964   0.26510   0.28207   0.28599   0.31739
     Eigenvalues ---    0.32250   0.34581   0.35072   0.35101   0.35417
     Eigenvalues ---    0.35518   0.35638   0.36128   0.36186   0.38091
     Eigenvalues ---    0.38162   0.40164   0.41096   0.44332   0.44665
     Eigenvalues ---    1.02137
 RFO step:  Lambda=-1.08739327D-02 EMin= 5.93490989D-03
 Quartic linear search produced a step of  0.49636.
 Maximum step size (   0.505) exceeded in Quadratic search.
    -- Step size scaled by   0.936
 Iteration  1 RMS(Cart)=  0.21181660 RMS(Int)=  0.02758902
 Iteration  2 RMS(Cart)=  0.05475183 RMS(Int)=  0.00287051
 Iteration  3 RMS(Cart)=  0.00268104 RMS(Int)=  0.00210575
 Iteration  4 RMS(Cart)=  0.00001530 RMS(Int)=  0.00210573
 Iteration  5 RMS(Cart)=  0.00000002 RMS(Int)=  0.00210573
 Variable       Old X    -DE/DX   Delta X   Delta X   Delta X     New X
                                 (Linear)    (Quad)   (Total)
    R1        2.27460  -0.00025  -0.00166   0.00003  -0.00164   2.27297
    R2        2.00679  -0.00011  -0.00077  -0.00017  -0.00094   2.00586
    R3        2.71394   0.00060   0.00633   0.00032   0.00665   2.72059
    R4        2.77905   0.00286   0.01159   0.01202   0.02469   2.80374
    R5        2.84249  -0.00066  -0.00879  -0.00288  -0.01237   2.83012
    R6        2.05292  -0.00002   0.00142  -0.00046   0.00096   2.05388
    R7        2.76243  -0.00153  -0.00042  -0.00810  -0.00890   2.75353
    R8        1.92168  -0.00026  -0.00098  -0.00053  -0.00151   1.92017
    R9        2.69209  -0.00251  -0.00992  -0.00563  -0.01555   2.67654
   R10        2.06248   0.00174   0.00823   0.00420   0.01243   2.07490
   R11        2.72978  -0.00460  -0.00556  -0.01434  -0.01990   2.70988
   R12        1.91132   0.00013  -0.00899   0.00261  -0.00638   1.90494
   R13        2.86060  -0.00178  -0.00788  -0.00556  -0.01683   2.84377
   R14        2.83608  -0.00129   0.00567  -0.00354  -0.00065   2.83543
   R15        2.05525   0.00025   0.00007   0.00090   0.00097   2.05622
   R16        2.86051   0.00287   0.01549   0.00433   0.02588   2.88639
   R17        2.05092   0.00052  -0.00248   0.00261   0.00013   2.05104
   R18        2.05384  -0.00114   0.00242  -0.00486  -0.00244   2.05141
   R19        2.05005  -0.00007   0.00528  -0.00164   0.00365   2.05370
   R20        2.05468  -0.00098  -0.00430  -0.00254  -0.00684   2.04784
    A1        2.11292  -0.00098  -0.00601  -0.01956  -0.02570   2.08722
    A2        2.07397   0.00128   0.01101   0.01676   0.02781   2.10178
    A3        2.01120   0.00131   0.00203   0.01479   0.01634   2.02754
    A4        1.98914  -0.00064   0.00242  -0.01198  -0.00929   1.97984
    A5        2.04812  -0.00132  -0.01118  -0.00847  -0.01989   2.02822
    A6        1.92526  -0.00171  -0.00489  -0.01254  -0.01758   1.90768
    A7        1.95187  -0.00096  -0.00355  -0.02139  -0.02497   1.92690
    A8        2.09789  -0.00045  -0.01115  -0.00756  -0.02026   2.07763
    A9        2.04961  -0.00328  -0.02075  -0.03027  -0.05238   1.99723
   A10        1.97213   0.00027   0.01410   0.00870   0.02224   1.99437
   A11        2.01057  -0.00084   0.00598   0.01308   0.01761   2.02818
   A12        2.05306   0.00249   0.01451   0.01572   0.02529   2.07835
   A13        2.10339  -0.00504  -0.00844  -0.03099  -0.04041   2.06298
   A14        1.95263   0.00081  -0.00063  -0.00884  -0.01067   1.94196
   A15        1.95122   0.00210  -0.00720   0.00647  -0.00205   1.94917
   A16        2.16851  -0.00071   0.03526   0.00685   0.04840   2.21691
   A17        2.26322  -0.00894  -0.06083  -0.08541  -0.14105   2.12217
   A18        1.89674   0.00475   0.01931   0.03783   0.05517   1.95191
   A19        2.03624  -0.00246  -0.05177  -0.02276  -0.07655   1.95969
   A20        1.92352   0.00309   0.03068   0.03567   0.06906   1.99257
   A21        2.09101  -0.00483  -0.04270  -0.04000  -0.08252   2.00849
   A22        2.09331   0.00243   0.01821   0.00697   0.02562   2.11892
   A23        1.97616  -0.00296   0.00346   0.02443   0.02992   2.00608
   A24        2.13268   0.00297   0.00755  -0.01487  -0.00891   2.12377
   A25        1.96428   0.00177   0.00961   0.01595   0.02324   1.98752
   A26        2.14769  -0.00334  -0.02274  -0.03012  -0.05296   2.09472
   A27        2.01813   0.00173   0.00552   0.00737   0.01385   2.03198
   A28        2.09992  -0.00059   0.02073  -0.02680  -0.00666   2.09326
   A29        2.02709   0.00086  -0.00437   0.02702   0.02271   2.04980
   A30        1.95920   0.00132   0.00480   0.01620   0.01957   1.97877
   A31        3.16858  -0.00243   0.02235  -0.24098  -0.21862   2.94996
   A32        3.18453  -0.00424   0.04158  -0.26027  -0.21869   2.96585
   A33        3.11578   0.00186  -0.04219   0.23692   0.19474   3.31052
   A34        3.18124  -0.00311   0.05655  -0.22538  -0.16883   3.01241
    D1        0.04418   0.00205   0.01975   0.04703   0.06640   0.11058
    D2        2.56324   0.00201   0.01813   0.02521   0.04362   2.60687
    D3        2.59600   0.00079  -0.01479   0.01492   0.00229   2.59829
    D4       -0.11028   0.00328   0.03264   0.06618   0.09691  -0.01337
    D5        0.04152  -0.00188  -0.01872  -0.03063  -0.04758  -0.00606
    D6       -2.66476   0.00061   0.02871   0.02064   0.04703  -2.61773
    D7       -2.53691  -0.00204  -0.02461  -0.01683  -0.04167  -2.57858
    D8       -0.10823   0.00133   0.01989   0.03488   0.05516  -0.05307
    D9       -1.82762   0.00134   0.00846   0.01445   0.02332  -1.80430
   D10        2.10779   0.00269   0.03139   0.05012   0.08151   2.18930
   D11       -2.99527  -0.00058  -0.00407   0.00373   0.00134  -2.99394
   D12        0.94014   0.00077   0.01885   0.03940   0.05952   0.99966
   D13        0.87782  -0.00256  -0.04555  -0.04809  -0.09511   0.78271
   D14       -1.46995  -0.00121  -0.02262  -0.01242  -0.03692  -1.50687
   D15       -1.07110   0.00260   0.00209   0.05055   0.05879  -1.01231
   D16        0.28351  -0.00000   0.01461   0.01643   0.02540   0.30891
   D17        2.70859   0.00077   0.01829   0.02349   0.04089   2.74948
   D18        1.27725   0.00072  -0.01831   0.00869  -0.00322   1.27402
   D19        2.63186  -0.00188  -0.00579  -0.02544  -0.03662   2.59524
   D20       -1.22625  -0.00111  -0.00211  -0.01838  -0.02112  -1.24737
   D21        0.33370  -0.00839  -0.10692  -0.15564  -0.26092   0.07278
   D22       -2.23401  -0.00770  -0.07899  -0.12742  -0.20697  -2.44098
   D23        2.79183  -0.00407  -0.09608  -0.10620  -0.19991   2.59192
   D24        0.22413  -0.00338  -0.06815  -0.07798  -0.14597   0.07816
   D25       -0.04943  -0.00279  -0.04358  -0.05919  -0.10199  -0.15141
   D26        2.47124  -0.00270  -0.06428  -0.06413  -0.12659   2.34466
   D27       -2.46620  -0.00398  -0.04364  -0.06606  -0.11099  -2.57719
   D28        0.05447  -0.00390  -0.06434  -0.07100  -0.13559  -0.08112
   D29       -0.02058  -0.00025  -0.01439  -0.03125  -0.04639  -0.06697
   D30       -2.47922  -0.00318  -0.04587  -0.06314  -0.11119  -2.59041
   D31        2.41846   0.00279   0.01739   0.01331   0.03223   2.45070
   D32       -0.04018  -0.00014  -0.01409  -0.01858  -0.03256  -0.07274
         Item               Value     Threshold  Converged?
 Maximum Force            0.008943     0.000450     NO 
 RMS     Force            0.002687     0.000300     NO 
 Maximum Displacement     1.324770     0.001800     NO 
 RMS     Displacement     0.251424     0.001200     NO 
 Predicted change in Energy=-1.029471D-02
 GradGradGradGradGradGradGradGradGradGradGradGradGradGradGradGradGradGrad

                          Input orientation:                          
 ---------------------------------------------------------------------
 Center     Atomic      Atomic             Coordinates (Angstroms)
 Number     Number       Type             X           Y           Z
 ---------------------------------------------------------------------
      1          6           0        1.223656    0.331140    0.047830
      2          6           0        2.409060    0.149642   -0.044951
      3          6           0        3.847338    0.208042   -0.020281
      4          7           0        4.628696   -0.549353   -1.028806
      5          6           0        4.596912    0.904932   -1.113624
      6          7           0        5.829631    1.532872   -0.809997
      7          6           0        5.850069    2.961380   -0.686233
      8          6           0        5.441737    3.967072   -1.728562
      9          6           0        4.590846    3.750458   -0.478743
     10          1           0        0.252058    0.698680    0.265993
     11          1           0        4.309694    0.222214    0.963235
     12          1           0        3.993295   -0.957807   -1.708448
     13          1           0        3.960538    1.330947   -1.900467
     14          1           0        6.567130    1.200625   -1.411560
     15          1           0        6.693700    3.303982   -0.090517
     16          1           0        5.031854    3.544139   -2.640232
     17          1           0        6.005155    4.881995   -1.883203
     18          1           0        3.623500    3.261760   -0.559253
     19          1           0        4.622801    4.517280    0.286308
 ---------------------------------------------------------------------
                    Distance matrix (angstroms):
                    1          2          3          4          5
     1  C    0.000000
     2  C    1.202802   0.000000
     3  C    2.627451   1.439675   0.000000
     4  N    3.678140   2.526529   1.483675   0.000000
     5  C    3.613457   2.549357   1.497637   1.457103   0.000000
     6  N    4.836842   3.768147   2.511635   2.413666   1.416367
     7  C    5.372216   4.489728   3.469193   3.732876   2.445822
     8  C    5.845321   5.157950   4.426132   4.642068   3.235519
     9  C    4.827731   4.232522   3.648521   4.335018   2.915498
    10  H    1.061453   2.247396   3.639879   4.731707   4.563293
    11  H    3.220786   2.152700   1.086866   2.159932   2.204981
    12  H    3.523748   2.550190   2.056797   1.016111   2.046452
    13  H    3.505140   2.691748   2.192905   2.177558   1.097991
    14  H    5.607008   4.501303   3.212187   2.639403   2.014438
    15  H    6.227223   5.320722   4.206133   4.471333   3.346447
    16  H    5.661397   5.013695   4.404176   4.417682   3.079793
    17  H    6.877638   6.221433   5.474714   5.667819   4.288640
    18  H    3.836187   3.380037   3.108985   3.969318   2.609502
    19  H    5.397669   4.907815   4.389177   5.234533   3.874215
                    6          7          8          9         10
     6  N    0.000000
     7  C    1.434006   0.000000
     8  C    2.630505   1.504859   0.000000
     9  C    2.561641   1.500445   1.527411   0.000000
    10  H    5.741338   6.112632   6.449295   5.356591   0.000000
    11  H    2.678131   3.549160   4.748817   3.821892   4.144584
    12  H    3.222239   4.455621   5.133500   4.902754   4.543041
    13  H    2.173340   2.775428   3.028640   2.876216   4.341214
    14  H    1.008053   2.034831   3.003370   3.358198   6.553340
    15  H    2.097879   1.088103   2.165708   2.184503   6.957690
    16  H    2.833974   2.197088   1.085366   2.215646   6.276084
    17  H    3.521251   2.268380   1.085558   2.291976   7.430834
    18  H    2.814062   2.250325   2.273925   1.086769   4.314746
    19  H    3.400738   2.207453   2.243454   1.083671   5.803922
                   11         12         13         14         15
    11  H    0.000000
    12  H    2.937763   0.000000
    13  H    3.090629   2.297028   0.000000
    14  H    3.419497   3.372180   2.655247   0.000000
    15  H    4.036233   5.298370   3.826089   2.487023   0.000000
    16  H    4.953956   4.713209   2.567720   3.059210   3.052942
    17  H    5.717548   6.179110   4.097645   3.753764   2.485547
    18  H    3.468094   4.388866   2.374971   3.693192   3.106062
    19  H    4.359342   5.861050   3.920880   4.202782   2.429550
                   16         17         18         19
    16  H    0.000000
    17  H    1.819413   0.000000
    18  H    2.528571   3.170219   0.000000
    19  H    3.111103   2.598211   1.813810   0.000000
 Stoichiometry    C7H10N2
 Framework group  C1[X(C7H10N2)]
 Deg. of freedom    51
 Full point group                 C1      NOp   1
 Largest Abelian subgroup         C1      NOp   1
 Largest concise Abelian subgroup C1      NOp   1
                         Standard orientation:                         
 ---------------------------------------------------------------------
 Center     Atomic      Atomic             Coordinates (Angstroms)
 Number     Number       Type             X           Y           Z
 ---------------------------------------------------------------------
      1          6           0        3.050320    1.544005    0.161091
      2          6           0        2.403333    0.558556   -0.077720
      3          6           0        1.438305   -0.422265   -0.501249
      4          7           0        1.302619   -1.691004    0.255838
      5          6           0        0.229952   -0.708101    0.336066
      6          7           0       -0.970962   -1.103559   -0.302301
      7          6           0       -2.018225   -0.133233   -0.436768
      8          6           0       -2.699573    0.623930    0.670963
      9          6           0       -1.751621    1.336209   -0.291860
     10          1           0        3.445834    2.527327    0.218791
     11          1           0        1.318380   -0.544389   -1.574553
     12          1           0        1.884193   -1.649388    1.088018
     13          1           0        0.173695   -0.126576    1.265715
     14          1           0       -1.315255   -1.973458    0.073077
     15          1           0       -2.701250   -0.384389   -1.245696
     16          1           0       -2.297000    0.448414    1.663509
     17          1           0       -3.769637    0.806133    0.656711
     18          1           0       -0.782021    1.681002    0.057509
     19          1           0       -2.193477    1.982671   -1.040987
 ---------------------------------------------------------------------
 Rotational constants (GHZ):           2.9386580           1.0216980           0.8246466
 Standard basis: 6-31G(2df,p) (6D, 7F)
 There are   329 symmetry adapted cartesian basis functions of A   symmetry.
 There are   302 symmetry adapted basis functions of A   symmetry.
   302 basis functions,   466 primitive gaussians,   329 cartesian basis functions
    33 alpha electrons       33 beta electrons
       nuclear repulsion energy       417.3297038891 Hartrees.
 NAtoms=   19 NActive=   19 NUniq=   19 SFac= 1.00D+00 NAtFMM=   60 NAOKFM=F Big=F
 Integral buffers will be    131072 words long.
 Raffenetti 2 integral format.
 Two-electron integral symmetry is turned on.
 One-electron integrals computed using PRISM.
 PrsmSu:  requested number of processors reduced to:  13 ShMem   1 Linda.
 NBasis=   302 RedAO= T EigKep=  1.96D-04  NBF=   302
 NBsUse=   302 1.00D-06 EigRej= -1.00D+00 NBFU=   302
 Initial guess from the checkpoint file:  "CtCC1NC1NC1CC1.chk"
 B after Tr=    -0.000000   -0.000000   -0.000000
         Rot=    0.999941    0.000452    0.005425    0.009444 Ang=   1.25 deg.
 ExpMin= 1.61D-01 ExpMax= 4.17D+03 ExpMxC= 6.27D+02 IAcc=2 IRadAn=         4 AccDes= 0.00D+00
 Harris functional with IExCor=  402 and IRadAn=       4 diagonalized for initial guess.
 HarFok:  IExCor=  402 AccDes= 0.00D+00 IRadAn=         4 IDoV= 1 UseB2=F ITyADJ=14
 ICtDFT=  3500011 ScaDFX=  1.000000  1.000000  1.000000  1.000000
 FoFCou: FMM=F IPFlag=           0 FMFlag=      100000 FMFlg1=           0
         NFxFlg=           0 DoJE=T BraDBF=F KetDBF=T FulRan=T
         wScrn=  0.000000 ICntrl=       500 IOpCl=  0 I1Cent=   200000004 NGrid=           0
         NMat0=    1 NMatS0=      1 NMatT0=    0 NMatD0=    1 NMtDS0=    0 NMtDT0=    0
 Petite list used in FoFCou.
 Requested convergence on RMS density matrix=1.00D-08 within 128 cycles.
 Requested convergence on MAX density matrix=1.00D-06.
 Requested convergence on             energy=1.00D-06.
 No special actions if energy rises.
 Integral accuracy reduced to 1.0D-05 until final iterations.
 Initial convergence to 1.0D-05 achieved.  Increase integral accuracy.
 SCF Done:  E(RB3LYP) =  -382.125720805     A.U. after   14 cycles
            NFock= 14  Conv=0.34D-08     -V/T= 2.0080
 PrsmSu:  requested number of processors reduced to:  13 ShMem   1 Linda.
 Calling FoFJK, ICntrl=      2127 FMM=F ISym2X=0 I1Cent= 0 IOpClX= 0 NMat=1 NMatS=1 NMatT=0.
 ***** Axes restored to original set *****
 -------------------------------------------------------------------
 Center     Atomic                   Forces (Hartrees/Bohr)
 Number     Number              X              Y              Z
 -------------------------------------------------------------------
      1        6          -0.000673985    0.004088975    0.004604996
      2        6           0.007313925    0.013630165    0.005568786
      3        6          -0.005595612   -0.010480939   -0.001751802
      4        7           0.006612763   -0.000097159    0.000947539
      5        6          -0.007065369   -0.002643352   -0.007538640
      6        7           0.000681327    0.002470628   -0.000260177
      7        6           0.005713711    0.006780261    0.012068404
      8        6          -0.013251888   -0.008770133   -0.007486249
      9        6           0.006041198    0.006999727   -0.000173531
     10        1          -0.004679325   -0.006612597   -0.004466518
     11        1          -0.000432192   -0.001266121   -0.000435438
     12        1          -0.000767847    0.000948645   -0.000352417
     13        1           0.002437673   -0.000862769    0.000831830
     14        1           0.002845480   -0.003627767   -0.003307086
     15        1          -0.000165971   -0.003081263    0.002726539
     16        1          -0.000844400    0.002511439   -0.002277094
     17        1           0.000015595   -0.001122551    0.003670796
     18        1           0.002945779    0.000534791   -0.002958202
     19        1          -0.001130862    0.000600020    0.000588264
 -------------------------------------------------------------------
 Cartesian Forces:  Max     0.013630165 RMS     0.005006309

 GradGradGradGradGradGradGradGradGradGradGradGradGradGradGradGradGradGrad
 Berny optimization.
 Using GEDIIS/GDIIS optimizer.
 FormGI is forming the generalized inverse of G from B-inverse, IUseBI=4.
 Internal  Forces:  Max     0.021960844 RMS     0.004336511
 Search for a local minimum.
 Step number   3 out of a maximum of   96
 All quantities printed in internal units (Hartrees-Bohrs-Radians)
 Mixed Optimization -- RFO/linear search
 Update second derivatives using D2CorX and points    1    3    2
 DE=  4.28D-04 DEPred=-1.03D-02 R=-4.16D-02
 Trust test=-4.16D-02 RLast= 7.23D-01 DXMaxT set to 2.52D-01
 ITU= -1  1  0
 Use linear search instead of GDIIS.
     Eigenvalues ---    0.00593   0.00759   0.01020   0.01224   0.01643
     Eigenvalues ---    0.02069   0.02253   0.02322   0.02554   0.02855
     Eigenvalues ---    0.02956   0.03179   0.03244   0.03559   0.03764
     Eigenvalues ---    0.04375   0.05706   0.07069   0.09717   0.10498
     Eigenvalues ---    0.10703   0.12439   0.12585   0.13168   0.15100
     Eigenvalues ---    0.15609   0.17538   0.17957   0.19057   0.20467
     Eigenvalues ---    0.23073   0.26146   0.28049   0.28560   0.31868
     Eigenvalues ---    0.32257   0.34583   0.35071   0.35101   0.35418
     Eigenvalues ---    0.35502   0.35669   0.36163   0.36219   0.38159
     Eigenvalues ---    0.38234   0.40243   0.41110   0.44410   0.44665
     Eigenvalues ---    1.02228
 RFO step:  Lambda=-7.37888806D-03 EMin= 5.92954777D-03
 Quartic linear search produced a step of -0.50392.
 Maximum step size (   0.252) exceeded in Quadratic search.
    -- Step size scaled by   0.695
 Iteration  1 RMS(Cart)=  0.10916684 RMS(Int)=  0.02174350
 Iteration  2 RMS(Cart)=  0.05158138 RMS(Int)=  0.00451165
 Iteration  3 RMS(Cart)=  0.00483181 RMS(Int)=  0.00065205
 Iteration  4 RMS(Cart)=  0.00003563 RMS(Int)=  0.00065163
 Iteration  5 RMS(Cart)=  0.00000000 RMS(Int)=  0.00065163
 Variable       Old X    -DE/DX   Delta X   Delta X   Delta X     New X
                                 (Linear)    (Quad)   (Total)
    R1        2.27297   0.00501   0.00082   0.00155   0.00238   2.27534
    R2        2.00586   0.00108   0.00047   0.00073   0.00120   2.00706
    R3        2.72059  -0.00234  -0.00335  -0.00132  -0.00467   2.71592
    R4        2.80374   0.00317  -0.01244   0.01343   0.00065   2.80439
    R5        2.83012   0.00269   0.00623  -0.00019   0.00626   2.83639
    R6        2.05388  -0.00059  -0.00048  -0.00086  -0.00134   2.05253
    R7        2.75353  -0.00163   0.00449  -0.00825  -0.00365   2.74988
    R8        1.92017   0.00034   0.00076  -0.00023   0.00053   1.92070
    R9        2.67654   0.00461   0.00784  -0.00133   0.00650   2.68305
   R10        2.07490  -0.00234  -0.00626   0.00167  -0.00459   2.07031
   R11        2.70988   0.00486   0.01003  -0.00792   0.00211   2.71199
   R12        1.90494   0.00525   0.00322   0.00562   0.00884   1.91378
   R13        2.84377   0.00535   0.00848   0.00124   0.01084   2.85461
   R14        2.83543   0.00041   0.00033  -0.00278  -0.00179   2.83364
[...]
 41519845,-0.00269559,-0.00033692,0.00035657,0.01487362,-0.00178239,-0.
 00446677,0.04966439,-0.05733380,-0.09965529,0.14654353,0.15978051,0.37
 213502,0.00619182,0.00045475,0.00041800,-0.02960874,-0.02050593,0.0161
 6664,-0.07578384,-0.02119195,0.05174364,-0.04240659,0.00116367,-0.0430
 5551,0.52113045,0.00122967,-0.00010440,0.00080191,0.00260018,0.0005710
 1,-0.00515777,-0.05895192,-0.04013942,0.09114550,-0.00325176,-0.217403
 35,-0.01229915,0.06632611,0.48298229,-0.00910723,0.00139129,-0.0008162
 6,0.01525139,-0.01083923,-0.00131712,0.04418128,0.04660832,-0.15210881
 ,-0.02086697,0.05257521,-0.05502686,0.09898455,-0.14048036,0.48728484,
 -0.00258953,0.00048264,-0.00005112,0.00242461,-0.00523208,0.00199032,-
 0.03378826,-0.01507138,0.00226305,0.00895888,-0.00523266,0.00707176,-0
 .22494862,-0.04179365,-0.05175792,0.59645516,-0.00083399,0.00021253,0.
 00002753,0.00114849,0.00069935,-0.00129409,-0.00104402,-0.00431150,0.0
 0450077,-0.03715338,-0.02793190,-0.01145100,-0.04702663,-0.10211969,-0
 .03232216,0.01341028,0.51818880,0.00088380,-0.00020656,0.00004891,0.00
 120204,0.00366014,-0.00019462,0.02000058,0.00447394,0.01058817,-0.0080
 7041,-0.00286661,-0.00095123,-0.00283009,-0.00711106,-0.07376509,-0.15
 236133,0.14386706,0.27725648,0.00014566,0.00002594,0.00003018,-0.00007
 188,-0.00004213,-0.00006913,0.00054301,-0.00039264,-0.00012868,-0.0042
 3762,-0.00272065,-0.00233235,-0.00031381,-0.03309861,-0.00357795,-0.10
 409614,-0.00758513,0.00758010,0.61920609,0.00174005,-0.00027262,-0.000
 03839,-0.00150906,0.00099357,0.00004093,0.00283377,0.00000639,-0.00104
 787,-0.00064001,0.00239026,-0.00036471,-0.01323219,-0.02455692,0.00416
 561,-0.01375278,-0.23122124,-0.03809376,-0.01010757,0.55777001,0.00018
 284,-0.00008728,-0.00012398,-0.00008537,0.00023333,0.00009805,0.000570
 78,0.00144881,0.00047330,-0.00072167,0.00065333,-0.00035360,-0.0099729
 9,-0.01238417,-0.00811503,0.00851597,0.00112325,-0.05376181,0.13128847
 ,0.04109295,0.31195247,-0.00010979,0.00002268,-0.00001335,0.00004578,-
 0.00011140,0.00001468,-0.00027436,-0.00008732,-0.00016684,-0.00038485,
 -0.00028160,-0.00032453,0.00401113,-0.00134528,0.00341350,-0.00214019,
 -0.00185449,0.00682155,-0.06735995,0.01397381,-0.04702373,0.37934795,-
 0.00038945,0.00001119,-0.00002175,0.00031478,-0.00015339,-0.00010728,-
 0.00015556,-0.00013134,-0.00015206,-0.00026446,-0.00068808,-0.00041987
 ,0.00490787,0.00164682,0.00241455,0.00113257,-0.02803256,0.02668270,0.
 02848053,-0.10865330,0.04018021,0.19988562,0.50230247,0.00021851,-0.00
 003833,0.00000437,-0.00024204,-0.00001301,0.00000414,-0.00028587,0.000
 16623,-0.00067974,0.00002952,0.00006336,-0.00010868,0.00028255,-0.0005
 9608,0.00176034,0.00098048,0.00654016,0.00782856,-0.07812674,0.0659865
 2,-0.10960728,0.08448073,-0.03789930,0.58200102,-0.00003699,0.00007256
 ,-0.00002216,-0.00019521,0.00004956,-0.00001776,0.00072545,0.00060888,
 0.00099470,-0.00095463,0.00076663,-0.00030259,0.00268262,-0.00051027,-
 0.00164364,0.00420633,0.00280204,-0.00601919,-0.17520862,0.07595090,0.
 01342089,-0.06694707,-0.04215499,0.07714916,0.57825018,-0.00013140,0.0
 0019501,-0.00001006,0.00024287,0.00009416,0.00002523,-0.00002283,-0.00
 023846,-0.00036842,0.00043567,0.00044416,0.00033319,-0.00027218,-0.000
 45738,-0.00146366,0.02805144,-0.01236112,-0.01699484,0.05107595,-0.111
 16638,-0.02059643,-0.02295076,-0.04326169,-0.01635058,0.10890838,0.482
 42127,-0.00021436,0.00007112,0.00002348,0.00020560,-0.00006832,0.00010
 816,-0.00061179,-0.00009972,-0.00003864,0.00016448,-0.00002055,-0.0001
 1863,0.00183580,-0.00076814,0.00124930,0.00079450,-0.00229776,-0.00498
 866,0.04575929,-0.05154919,-0.03151882,0.04456548,0.01923760,-0.184773
 83,-0.08859063,0.17932420,0.43979043,-0.42650891,-0.00138289,-0.009906
 10,0.00632516,-0.00002640,0.00019692,0.00093679,0.00011203,-0.00059478
 ,0.00014961,-0.00021866,0.00009173,-0.00039272,-0.00000709,0.00042278,
 0.00026520,0.00013327,-0.00003713,-0.00002367,-0.00020144,-0.00001400,
 0.00000627,0.00006410,-0.00003375,-0.00003585,-0.00002425,0.00000780,0
 .41914269,-0.00133288,-0.01630505,-0.00106878,-0.00013720,-0.00135748,
 0.00045421,0.00043807,0.00577624,-0.00020949,-0.00151586,0.00003866,0.
 00021138,0.00075354,0.00010562,0.00058688,0.00037327,-0.00006941,-0.00
 015418,-0.00000556,0.00001570,-0.00001537,0.00000832,-0.00000180,0.000
 01102,-0.00001246,-0.00005442,0.00000291,0.00141021,0.01170457,-0.0096
 2687,-0.00095571,-0.02072766,-0.00023316,0.00021373,0.00016991,0.00048
 790,0.00013397,0.00669570,-0.00080110,-0.00026812,0.00025024,-0.000538
 66,0.00029745,0.00012498,-0.00012837,0.00007623,-0.00003396,-0.0000073
 0,0.00000136,0.00000097,0.00000218,0.00002405,-0.00000258,0.00001296,-
 0.00000271,-0.00000979,0.00982254,0.00053353,0.01406229,-0.00087612,-0
 .00013220,0.00045259,-0.01861257,0.00001110,-0.02661967,-0.10007545,-0
 .00484854,-0.11785029,0.00429500,0.00368744,0.01393131,0.00370857,0.00
 070065,0.01189762,0.00083696,0.00000878,-0.00084381,-0.00012674,-0.000
 39719,0.00008995,0.00000465,0.00003399,-0.00001788,0.00002810,-0.00000
 608,0.00003361,0.00005181,-0.00001299,0.00108345,0.11230610,0.00027679
 ,0.00057141,0.00005807,-0.00176619,0.00020235,-0.00044563,-0.00334718,
 -0.03520451,-0.00185795,-0.01107825,-0.00394593,-0.02582971,0.01185181
 ,-0.00198639,0.02201634,0.00239474,0.00058357,-0.00284164,-0.00019370,
 -0.00016777,0.00025381,0.00008443,0.00022897,0.00007024,0.00001779,-0.
 00010776,-0.00017484,-0.00003382,0.00011475,-0.00000166,0.00098660,0.0
 3856933,0.00197986,-0.00000073,-0.00031868,-0.00171748,0.00121263,0.00
 512971,-0.11212317,-0.00650447,-0.27280324,0.00193573,-0.00448418,-0.0
 1359520,-0.00530379,-0.00275925,-0.01571242,-0.00149148,0.00003005,0.0
 0244594,0.00039839,0.00033010,0.00005637,-0.00004712,-0.00022095,-0.00
 004144,0.00001310,0.00010168,0.00012431,-0.00001630,-0.00010517,-0.000
 30854,0.11453762,0.01181563,0.29734903,-0.00098608,-0.00006774,-0.0004
 0019,0.00421956,-0.00135806,0.00166195,0.00651834,0.01770631,0.0221088
 2,-0.19673316,-0.13072700,-0.17925208,-0.00999568,0.01197309,-0.005072
 28,-0.00044790,-0.00603178,-0.00075566,-0.00065783,0.00035654,0.000752
 38,-0.00022740,-0.00034957,0.00000901,-0.00000189,0.00014331,-0.000114
 69,-0.00002960,0.00006784,-0.00008775,-0.00068819,0.00320014,0.0008942
 6,0.19705625,-0.00013329,-0.00027276,0.00035010,-0.00055477,0.00220666
 ,-0.00066448,-0.00113580,-0.01112005,-0.00800881,-0.08034667,-0.081870
 95,-0.07788030,-0.02327627,-0.02157046,-0.02493758,0.00396287,-0.00438
 762,-0.00129288,-0.00128952,-0.00022293,-0.00047301,-0.00013651,0.0000
 5247,-0.00009002,-0.00021948,0.00010576,-0.00000162,0.00007591,-0.0001
 0495,0.00003362,-0.00054895,-0.00023065,0.00184146,0.10435358,0.115024
 79,0.00011133,0.00037015,0.00021630,-0.00103377,0.00265135,0.00241505,
 -0.02162700,-0.00870485,-0.02258154,-0.15229385,-0.11252035,-0.2055908
 2,0.01030513,0.01005245,0.00836196,-0.00022822,0.00402619,0.00121760,0
 .00115917,0.00013863,0.00042624,-0.00001123,-0.00003287,0.00002178,-0.
 00001075,0.00000434,0.00006119,0.00008319,-0.00018220,-0.00015281,0.00
 267565,-0.00530447,-0.00179109,0.16004119,0.10909780,0.21683917,-0.000
 64092,0.00006539,-0.00029536,0.00226446,0.00087335,0.00044698,0.007049
 44,-0.00685561,0.01494951,-0.00170319,0.00216736,-0.00305401,-0.119926
 57,0.04960225,-0.10657462,-0.02486262,0.00191847,-0.02422275,0.0003946
 9,0.00508208,0.00061870,-0.00008058,-0.00109413,0.00033900,-0.00031137
 ,0.00014125,-0.00026749,0.00001758,-0.00003557,0.00001705,-0.00077882,
 -0.00260714,0.00109379,0.00147730,-0.00096632,0.00099058,0.13589047,-0
 .00024446,-0.00012082,-0.00005032,-0.00043693,0.00031274,0.00053410,0.
 00085017,-0.00408112,-0.00333972,0.01142417,-0.02062234,0.02925813,0.0
 4457725,-0.07796386,0.07075745,-0.01178389,0.00587896,-0.01136790,0.00
 012917,0.00244381,-0.00042125,0.00057188,-0.00051941,0.00008245,-0.000
 34296,-0.00045824,-0.00006945,0.00001428,-0.00002170,-0.00002511,0.000
 40569,0.00095533,-0.00106873,0.00107182,0.00259744,-0.00010202,-0.0462
 7705,0.09269993,0.00122407,-0.00036960,0.00055091,-0.00297185,-0.00083
 584,0.00095966,-0.01150255,0.01164243,-0.01890530,0.00738294,-0.004710
 76,0.00645470,-0.10364327,0.07612691,-0.19308126,-0.00754942,-0.002765
 94,0.00004599,-0.00010717,0.00177415,0.00123804,-0.00044231,-0.0005970
 9,-0.00025438,-0.00035227,-0.00006289,-0.00022954,-0.00000488,0.000038
 81,-0.00006917,0.00063400,0.00276568,-0.00077919,0.00065266,0.00171219
 ,0.00069714,0.11575963,-0.08404144,0.20366932,-0.00020703,0.00002526,0
 .00000585,-0.00011103,-0.00115262,0.00032926,-0.00272214,0.00166329,-0
 .00334796,0.00362867,-0.00057650,-0.00085265,-0.03193045,0.00666195,0.
 02432962,-0.22408514,0.08158365,0.15766157,0.00476900,0.00062739,-0.00
 046708,-0.00102052,-0.00058418,0.00036365,0.00118531,-0.00080638,-0.00
 074984,0.00004184,0.00004093,-0.00000189,0.00011074,0.00009502,-0.0001
 1568,0.00020831,0.00013958,-0.00014147,-0.00003275,0.00010790,-0.00013
 328,0.24983744,-0.00080884,0.00023240,-0.00012447,0.00056118,-0.001877
 72,0.00071687,-0.00601808,-0.00065549,0.00121356,0.00264063,0.00250863
 ,-0.00101392,-0.01180347,0.00503342,0.01151216,0.07677881,-0.09291770,
 -0.08724544,0.02867524,-0.01936211,-0.02428651,0.00085365,0.00226869,0
 .00056654,-0.00351434,-0.00502235,-0.00192113,0.00005200,0.00011580,-0
 .00003704,0.00006955,0.00040807,-0.00026574,0.00018540,0.00011675,0.00
 002102,-0.00026886,0.00010601,-0.00037611,-0.08745010,0.10928402,0.000
 33978,-0.00010408,0.00008570,-0.00051870,0.00093273,0.00016792,0.00235
 028,0.00045477,-0.00083861,0.00036684,0.00071101,0.00000713,-0.0141662
 0,0.00254189,0.00221750,0.19286063,-0.10779787,-0.17077313,-0.00106638
 ,0.00507802,-0.00258436,-0.00063348,-0.00024596,0.00243928,-0.00163036
 ,0.00059313,-0.00060202,-0.00002188,-0.00008302,-0.00000396,0.00003131
 ,-0.00047707,0.00020940,-0.00051252,0.00010684,-0.00005558,-0.00116319
 ,-0.00077542,-0.00043954,-0.17657438,0.10006445,0.17008808,-0.00006818
 ,-0.00002876,0.00000770,0.00006188,-0.00003223,0.00003074,-0.00003795,
 0.00018114,-0.00004363,-0.00005074,0.00001111,-0.00030861,0.00182876,0
 .00030695,-0.00017243,0.00184307,-0.00230026,0.00067410,-0.25632584,-0
 .06903389,-0.10251021,-0.00199070,0.00182012,0.00148406,-0.01780814,-0
 .00415089,-0.00977849,0.00001880,0.00001145,-0.00000733,-0.00001672,0.
 00000151,0.00000118,-0.00003016,-0.00004883,0.00005632,0.00002138,0.00
 006165,0.00006150,-0.00017997,-0.00072712,-0.00003131,0.27159059,-0.00
 031938,0.00004796,0.00000141,0.00029452,-0.00004883,0.00006609,0.00002
 949,0.00016457,0.00011029,-0.00123733,-0.00102375,-0.00076732,0.003537
 61,-0.00369545,-0.00278767,-0.03355530,-0.02047590,-0.00969662,-0.0657
 4825,-0.06767297,-0.03311739,0.01186884,0.00263381,0.00650771,0.010521
 17,0.00178709,0.00488916,0.00004044,-0.00001074,-0.00000491,-0.0000455
 4,-0.00003935,0.00010986,-0.00027163,-0.00035884,0.00038720,-0.0007437
 4,-0.00011556,-0.00024964,0.00033585,0.00052760,-0.00039054,0.07208712
 ,0.08840371,0.00001889,0.00000673,0.00000833,-0.00001545,0.00003687,-0
 .00001871,0.00004289,-0.00013470,0.00011156,-0.00003184,0.00000770,0.0
 0016471,0.00082827,0.00032641,0.00009295,-0.00025926,-0.00185693,0.001
 90357,-0.10527235,-0.03315231,-0.08808545,-0.02329001,-0.00792499,-0.0
 1346333,0.01779230,0.00755870,0.00737216,-0.00000415,-0.00000131,-0.00
 000079,0.00002907,-0.00000351,-0.00000177,0.00000811,0.00006772,-0.000
 00223,0.00019451,0.00020773,0.00003782,-0.00013958,-0.00013475,-0.0002
 6235,0.11046013,0.03354344,0.09072536,-0.00006145,0.00002391,-0.000017
 88,0.00004298,0.00000454,0.00000071,0.00004436,-0.00004967,0.00008051,
 -0.00001773,-0.00002757,0.00002035,0.00070696,0.00043441,0.00060073,0.
 00122256,-0.00164674,0.00291571,-0.01299764,-0.01121600,-0.01207249,-0
 .11823684,-0.06656997,-0.11911436,0.01158824,0.01083460,0.01694274,0.0
 0000077,-0.00001083,0.00000640,-0.00002951,-0.00002475,-0.00000187,-0.
 00000430,0.00002700,-0.00002880,0.00038658,-0.00010464,-0.00009343,-0.
 00019446,0.00032487,-0.00007621,0.00041610,0.00218754,-0.00351337,0.12
 364161,0.00007146,-0.00000662,0.00000505,-0.00001454,-0.00000630,-0.00
 002219,-0.00002773,-0.00005737,0.00009726,-0.00007465,0.00006337,-0.00
 016731,-0.00037909,-0.00043029,0.00023801,-0.00032172,0.00186381,-0.00
 346586,0.01195547,0.01179499,0.01752354,-0.06634832,-0.08934837,-0.083
 24533,-0.00339005,-0.00589627,-0.00248003,-0.00001263,0.00000888,-0.00
 000382,0.00002498,0.00001743,-0.00001470,0.00000119,-0.00005519,0.0000
 3062,-0.00061645,-0.00113827,0.00049574,0.00023226,-0.00039118,-0.0003
 2197,-0.00006380,-0.00148941,0.00391646,0.06954542,0.09021722,-0.00002
 805,-0.00001578,0.00003372,0.00004485,0.00004466,0.00002932,0.00020229
 ,-0.00007319,0.00005369,0.00023714,-0.00015623,0.00036593,-0.00141403,
 0.00002909,-0.00100373,-0.00041429,0.00009568,0.00173185,-0.00073569,-
 0.00475043,-0.00884331,-0.11646863,-0.08151233,-0.20872135,-0.01187334
 ,-0.00596894,-0.01681352,0.00001119,0.00000259,-0.00001309,-0.00002638
 ,-0.00012538,0.00007175,0.00003696,0.00010009,-0.00001754,0.00078156,0
 .00041616,0.00058081,-0.00000497,0.00062283,0.00001586,0.00105829,-0.0
 0005359,-0.00087048,0.12375603,0.08710936,0.22650410,0.00007629,-0.000
 03860,0.00000125,-0.00001915,0.00006787,-0.00000162,0.00023298,0.00002
 671,-0.00007949,0.00019975,-0.00000192,0.00019073,-0.00226333,-0.00023
 997,-0.00085124,0.00067363,0.00417822,-0.00402273,0.01188664,0.0158349
 9,0.00067253,-0.11909333,-0.13091958,0.02765588,-0.01122717,-0.0152574
 0,-0.00102056,0.00000629,-0.00000028,-0.00000166,-0.00002254,-0.000002
 01,0.00001287,0.00014070,0.00005218,-0.00002036,0.00040439,-0.00006565
 ,0.00042075,0.00025062,-0.00029005,0.00018085,0.00040175,-0.00063750,0
 .00208219,-0.00693094,-0.01099863,0.00490413,0.12324508,-0.00016292,0.
 00001104,0.00000329,0.00009975,-0.00006648,0.00001358,-0.00014047,0.00
 003222,0.00007922,-0.00009275,-0.00024454,-0.00009524,0.00221098,0.000
 79095,0.00059089,-0.00019218,-0.00355877,0.00365423,-0.01253838,-0.012
 17305,-0.00045766,-0.13201545,-0.24166654,0.05122007,0.00753988,0.0076
 3212,0.00084974,0.00002457,0.00000478,0.00000008,0.00000224,-0.0000069
 2,-0.00001418,-0.00013088,0.00002740,0.00001795,-0.00013847,0.00035667
 ,-0.00030364,-0.00041681,0.00024536,-0.00019636,0.00039699,0.00127617,
 -0.00152511,-0.00318012,-0.00690289,0.00327569,0.13838366,0.25303928,0
 .00001565,0.00002312,0.00002031,-0.00001133,0.00001771,0.00001988,0.00
 001622,-0.00016937,0.00011533,0.00012676,0.00006709,0.00029603,-0.0007
 6352,0.00014517,-0.00083436,0.00081673,-0.00033196,-0.00027563,0.00536
 294,0.00665577,-0.00673229,0.02731495,0.04831588,-0.05867497,0.0103809
 9,0.01933770,-0.00615482,-0.00000722,-0.00000406,-0.00000833,-0.000005
 39,-0.00010392,0.00005687,0.00002350,0.00007975,-0.00001472,0.00041755
 ,0.00017286,0.00016624,0.00006447,-0.00003558,0.00025460,-0.00053000,0
 .00091183,0.00119466,-0.01133375,-0.01966692,0.00720778,-0.03187347,-0
 .05614309,0.06396456,-0.00028650,0.00019118,-0.00004371,0.00057034,0.0
 0015197,-0.00005100,0.00065552,0.00005922,-0.00073100,0.00048241,-0.00
 068339,-0.00018865,-0.00124263,-0.00010161,0.00060890,0.00244174,-0.00
 068612,-0.00135515,-0.01840793,-0.01233763,0.00152939,-0.00105522,0.00
 324843,0.00084943,-0.27352398,-0.12020358,0.01637043,0.00001017,-0.000
 03610,0.00000836,-0.00009642,0.00016120,-0.00006086,0.00012871,0.00000
 968,-0.00001928,0.00019705,-0.00002029,0.00028822,0.00019034,-0.000429
 93,-0.00001418,-0.00139431,0.00109187,0.00288196,0.00057582,-0.0003167
 3,0.00057829,0.00042791,0.00076470,-0.00113585,0.29084274,0.00005838,0
 .00009222,-0.00001604,-0.00005065,-0.00030793,0.00006616,-0.00039855,-
 0.00122726,-0.00003138,0.00005217,-0.00010129,0.00019171,0.00124892,-0
 .00109540,-0.00023316,-0.00253559,0.00067830,0.00153602,0.02078555,0.0
 1270616,-0.00036312,-0.00772337,-0.00753129,-0.00151165,-0.12321742,-0
 .10594107,0.00066609,-0.00004205,0.00004247,-0.00000395,0.00005909,0.0
 0007456,-0.00001252,-0.00008983,0.00007174,0.00000759,-0.00014293,-0.0
 0018969,-0.00033697,-0.00031946,0.00055723,0.00008101,0.00260075,-0.00
 131946,-0.00262165,0.00124470,0.00097678,-0.00147185,-0.00117164,0.000
 73953,0.00201260,0.12855004,0.10969790,0.00002991,0.00000500,-0.000114
 55,-0.00007093,-0.00007806,-0.00008064,-0.00000174,0.00017336,0.000118
 99,-0.00025364,-0.00001611,-0.00022892,0.00131817,0.00008089,0.0009186
 4,0.00110317,-0.00139297,0.00020269,-0.00556294,-0.00283987,-0.0050318
 1,0.02701956,0.01328998,-0.00186403,0.01481351,-0.00091961,-0.04179230
 ,0.00000246,-0.00001216,0.00002843,-0.00002652,0.00019655,-0.00010202,
 -0.00000198,-0.00006243,-0.00002890,-0.00016499,-0.00025286,-0.0005998
 3,-0.00001544,-0.00014190,-0.00001175,-0.00145536,0.00129604,0.0008704
 7,-0.00236479,0.00158959,0.00219440,0.00389961,-0.00219393,-0.00314470
 ,-0.01988438,-0.00135895,0.04621601,0.00001881,-0.00005508,0.00002431,
 0.00005081,0.00007934,-0.00002591,0.00020942,0.00020193,-0.00033340,0.
 00035193,-0.00025743,-0.00002085,-0.00144733,-0.00053510,-0.00006609,-
 0.00236975,0.00097933,0.00277879,0.00288259,0.01602820,0.01522564,-0.0
 0449499,0.00259389,0.00397867,-0.05241530,-0.03600770,-0.02533188,0.00
 001775,-0.00000392,-0.00000673,-0.00001885,-0.00001701,0.00001095,0.00
 005302,0.00003559,-0.00000785,0.00023348,0.00006190,0.00037664,0.00026
 119,0.00116947,0.00027909,0.00172038,0.00056421,-0.00181230,-0.0001531
 0,0.00073357,-0.00064535,0.00161043,-0.00041438,0.00112075,-0.00051578
 ,-0.01890811,-0.01838370,0.05400532,-0.00013389,-0.00000848,0.00002341
 ,0.00012693,-0.00000830,0.00003515,-0.00005935,0.00013060,-0.00025115,
 0.00001436,-0.00021548,-0.00003329,0.00065520,0.00039290,0.00020712,0.
 00288463,-0.00071790,-0.00253674,-0.00740573,-0.01265160,-0.01030703,0
 .00558527,0.01084335,0.00853002,-0.03387584,-0.20771441,-0.14559008,0.
 00002242,-0.00000193,-0.00001099,0.00000138,-0.00003651,0.00000923,-0.
 00003273,-0.00000861,0.00004146,-0.00010385,-0.00011988,0.00009403,-0.
 00020704,-0.00117745,-0.00017157,-0.00109303,0.00140938,0.00168349,-0.
 00179670,0.00077968,0.00243158,0.00107958,0.00046368,-0.00128459,0.000
 58709,-0.00792353,-0.00736257,0.03375130,0.21656449,-0.00000672,0.0000
 1243,0.00000316,-0.00001047,-0.00000400,-0.00000030,0.00001893,-0.0000
 4841,0.00014610,-0.00001638,0.00008575,0.00006567,-0.00019468,0.000008
 32,-0.00022957,-0.00215519,0.00122376,0.00147435,0.00540813,0.00657248
 ,0.00051230,-0.00521141,-0.02101054,-0.01586788,-0.02411494,-0.1445400
 3,-0.16168844,0.00000159,-0.00000557,-0.00000185,-0.00000625,-0.000010
 54,0.00001021,0.00000833,0.00002156,-0.00002119,0.00013355,0.00008534,
 -0.00004243,-0.00021021,0.00086517,0.00008582,0.00100333,-0.00075533,0
 .00022353,0.00429377,-0.00161750,-0.00250618,-0.00214966,0.00122448,0.
 00254354,0.00036907,0.00340009,0.00244983,0.02283921,0.15449253,0.1728
 4335\\0.00000017,0.00000009,-0.00000283,0.00000611,-0.00000033,0.00000
 207,-0.00001108,0.00000354,-0.00000019,0.00000124,0.00001383,0.0000024
 9,-0.00001202,-0.00000978,0.00000101,0.00000584,0.00001754,0.00000418,
 0.00001169,-0.00004594,0.00001239,0.00000149,0.00003811,-0.00000470,-0
 .00000423,0.00001261,0.00000264,0.00000046,0.00000018,-0.00000056,0.00
 000135,-0.00000419,-0.00000157,0.00000076,-0.00000167,0.00000052,0.000
 00572,-0.00000195,-0.00000394,0.00000208,0.00000458,-0.00000540,-0.000
 00720,0.00000069,-0.00000054,-0.00000462,-0.00000959,0.00001026,0.0000
 0066,-0.00000449,-0.00000899,0.00000107,-0.00001134,-0.00000758,0.0000
 0050,-0.00000188,0.00000075\\\@


 READER, WHETHER YOU BE DILETTANTE OR PROFESSOR ... SHOW YOURSELF TO BE
 MORE HUMAN THAN CRITICAL, AND THEN YOUR PLEASURE WILL INCREASE.
                                           -- DOMENICO SCARLATTI (1738)
 Job cpu time:       0 days  1 hours 51 minutes 51.2 seconds.
 Elapsed time:       0 days  0 hours 27 minutes 58.4 seconds.
 File lengths (MBytes):  RWF=    135 Int=      0 D2E=      0 Chk=      9 Scr=      1
 Normal termination of Gaussian 16 at Mon Jul  4 01:27:25 2022.
### All Done ###
