### Starting Gaussian ###
 Entering Gaussian System, Link 0=g16
 Initial command:
 /cluster/software/gaussian/gaussian-16-A.03/avx2/g16/l1.exe "/local/scratch/ks29c/Gau-21912.inp" -scrdir="/local/scratch/ks29c/"
 Entering Link 1 = /cluster/software/gaussian/gaussian-16-A.03/avx2/g16/l1.exe PID=     21913.
  
 Copyright (c) 1988,1990,1992,1993,1995,1998,2003,2009,2016,
            Gaussian, Inc.  All Rights Reserved.
  
 This is part of the Gaussian(R) 16 program.  It is based on
 the Gaussian(R) 09 system (copyright 2009, Gaussian, Inc.),
 the Gaussian(R) 03 system (copyright 2003, Gaussian, Inc.),
 the Gaussian(R) 98 system (copyright 1998, Gaussian, Inc.),
 the Gaussian(R) 94 system (copyright 1995, Gaussian, Inc.),
 the Gaussian 92(TM) system (copyright 1992, Gaussian, Inc.),
 the Gaussian 90(TM) system (copyright 1990, Gaussian, Inc.),
 the Gaussian 88(TM) system (copyright 1988, Gaussian, Inc.),
 the Gaussian 86(TM) system (copyright 1986, Carnegie Mellon
 University), and the Gaussian 82(TM) system (copyright 1983,
 Carnegie Mellon University). Gaussian is a federally registered
 trademark of Gaussian, Inc.
  
 This software contains proprietary and confidential information,
 including trade secrets, belonging to Gaussian, Inc.
  
 This software is provided under written license and may be
 used, copied, transmitted, or stored only in accord with that
 written license.
  
 The following legend is applicable only to US Government
 contracts under FAR:
  
                    RESTRICTED RIGHTS LEGEND
  
 Use, reproduction and disclosure by the US Government is
 subject to restrictions as set forth in subparagraphs (a)
 and (c) of the Commercial Computer Software - Restricted
 Rights clause in FAR 52.227-19.
  
 Gaussian, Inc.
 340 Quinnipiac St., Bldg. 40, Wallingford CT 06492
  
  
 ---------------------------------------------------------------
 Warning -- This program may not be used in any manner that
 competes with the business of Gaussian, Inc. or will provide
 assistance to any competitor of Gaussian, Inc.  The licensee
 of this program is prohibited from giving any competitor of
 Gaussian, Inc. access to this program.  By using this program,
 the user acknowledges that Gaussian, Inc. is engaged in the
 business of creating and licensing software in the field of
 computational chemistry and represents and warrants to the
 licensee that it is not a competitor of Gaussian, Inc. and that
 it will not use this program in any manner prohibited above.
 ---------------------------------------------------------------
  

 Cite this work as:
 Gaussian 16, Revision A.03,
 M. J. Frisch, G. W. Trucks, H. B. Schlegel, G. E. Scuseria, 
 M. A. Robb, J. R. Cheeseman, G. Scalmani, V. Barone, 
 G. A. Petersson, H. Nakatsuji, X. Li, M. Caricato, A. V. Marenich, 
 J. Bloino, B. G. Janesko, R. Gomperts, B. Mennucci, H. P. Hratchian, 
 J. V. Ortiz, A. F. Izmaylov, J. L. Sonnenberg, D. Williams-Young, 
 F. Ding, F. Lipparini, F. Egidi, J. Goings, B. Peng, A. Petrone, 
 T. Henderson, D. Ranasinghe, V. G. Zakrzewski, J. Gao, N. Rega, 
 G. Zheng, W. Liang, M. Hada, M. Ehara, K. Toyota, R. Fukuda, 
 J. Hasegawa, M. Ishida, T. Nakajima, Y. Honda, O. Kitao, H. Nakai, 
 T. Vreven, K. Throssell, J. A. Montgomery, Jr., J. E. Peralta, 
 F. Ogliaro, M. J. Bearpark, J. J. Heyd, E. N. Brothers, K. N. Kudin, 
 V. N. Staroverov, T. A. Keith, R. Kobayashi, J. Normand, 
 K. Raghavachari, A. P. Rendell, J. C. Burant, S. S. Iyengar, 
 J. Tomasi, M. Cossi, J. M. Millam, M. Klene, C. Adamo, R. Cammi, 
 J. W. Ochterski, R. L. Martin, K. Morokuma, O. Farkas, 
 J. B. Foresman, and D. J. Fox, Gaussian, Inc., Wallingford CT, 2016.
 
 ******************************************
 Gaussian 16:  ES64L-G16RevA.03 25-Dec-2016
                 4-Aug-2022 
 ******************************************
 %chk=CtCCC1CCCO1.chk
 %NProcShared=20
 Will use up to   20 processors via shared memory.
 -----------------------------
 # opt freq b3lyp/6-31g(2df,p)
 -----------------------------
 1/18=20,19=15,26=3,38=1/1,3;
 2/9=110,12=2,17=6,18=5,40=1/2;
 3/5=1,6=6,7=104,11=2,25=1,30=1,71=1,74=-5/1,2,3;
 4//1;
 5/5=2,38=5/2;
 6/7=2,8=2,9=2,10=2,28=1/1;
 7//1,2,3,16;
 1/18=20,19=15,26=3/3(2);
 2/9=110/2;
 99//99;
 2/9=110/2;
 3/5=1,6=6,7=104,11=2,25=1,30=1,71=1,74=-5/1,2,3;
 4/5=5,16=3,69=1/1;
 5/5=2,38=5/2;
 7//1,2,3,16;
 1/18=20,19=15,26=3/3(-5);
 2/9=110/2;
 6/7=2,8=2,9=2,10=2,19=2,28=1/1;
 99/9=1/99;
 -------------------
 Title Card Required
 -------------------
 Symbolic Z-matrix:
 Charge =  0 Multiplicity = 1
 C                     0.91932  -0.04199   0.04156 
 C                     2.22317  -0.04199   0.04156 
 C                     3.74317  -0.04199   0.04156 
 C                     4.25938   0.63377   1.3108 
 C                     4.07108   2.14378   1.29512 
 C                     5.20595   2.62189   2.16103 
 C                     6.30059   1.62081   1.86094 
 O                     5.67035   0.39877   1.45877 
 H                    -0.14649  -0.0447    0.03987 
 H                     4.11951   0.46342  -0.85513 
 H                     4.10286  -1.07624  -0.00947 
 H                     3.77387   0.20468   2.19715 
 H                     3.08828   2.4497    1.66875 
 H                     4.18673   2.54414   0.28204 
 H                     4.92069   2.56607   3.21652 
 H                     5.50797   3.65132   1.94491 
 H                     6.9398    1.43602   2.72988 
 H                     6.92985   1.95348   1.0306 
 

 GradGradGradGradGradGradGradGradGradGradGradGradGradGradGradGradGradGrad
 Berny optimization.
 Initialization pass.
                           ----------------------------
                           !    Initial Parameters    !
                           ! (Angstroms and Degrees)  !
 --------------------------                            --------------------------
 ! Name  Definition              Value          Derivative Info.                !
 --------------------------------------------------------------------------------
 ! R1    R(1,2)                  1.3038         estimate D2E/DX2                !
 ! R2    R(1,9)                  1.0658         estimate D2E/DX2                !
 ! R3    R(2,3)                  1.52           estimate D2E/DX2                !
 ! R4    R(3,4)                  1.5278         estimate D2E/DX2                !
 ! R5    R(3,10)                 1.096          estimate D2E/DX2                !
 ! R6    R(3,11)                 1.0962         estimate D2E/DX2                !
 ! R7    R(4,5)                  1.5218         estimate D2E/DX2                !
 ! R8    R(4,8)                  1.438          estimate D2E/DX2                !
 ! R9    R(4,12)                 1.0979         estimate D2E/DX2                !
 ! R10   R(5,6)                  1.5054         estimate D2E/DX2                !
 ! R11   R(5,13)                 1.095          estimate D2E/DX2                !
 ! R12   R(5,14)                 1.0954         estimate D2E/DX2                !
 ! R13   R(6,7)                  1.5134         estimate D2E/DX2                !
 ! R14   R(6,15)                 1.0948         estimate D2E/DX2                !
 ! R15   R(6,16)                 1.0944         estimate D2E/DX2                !
 ! R16   R(7,8)                  1.4326         estimate D2E/DX2                !
 ! R17   R(7,17)                 1.0944         estimate D2E/DX2                !
 ! R18   R(7,18)                 1.0937         estimate D2E/DX2                !
 ! A1    A(2,3,4)              109.748          estimate D2E/DX2                !
 ! A2    A(2,3,10)             110.0835         estimate D2E/DX2                !
 ! A3    A(2,3,11)             109.155          estimate D2E/DX2                !
 ! A4    A(4,3,10)             111.0831         estimate D2E/DX2                !
 ! A5    A(4,3,11)             110.1895         estimate D2E/DX2                !
 ! A6    A(10,3,11)            106.5191         estimate D2E/DX2                !
 ! A7    A(3,4,5)              112.8628         estimate D2E/DX2                !
 ! A8    A(3,4,8)              110.1651         estimate D2E/DX2                !
 ! A9    A(3,4,12)             110.3895         estimate D2E/DX2                !
 ! A10   A(5,4,8)              106.5361         estimate D2E/DX2                !
 ! A11   A(5,4,12)             109.9618         estimate D2E/DX2                !
 ! A12   A(8,4,12)             106.6752         estimate D2E/DX2                !
 ! A13   A(4,5,6)              102.4699         estimate D2E/DX2                !
 ! A14   A(4,5,13)             112.6282         estimate D2E/DX2                !
 ! A15   A(4,5,14)             111.0459         estimate D2E/DX2                !
 ! A16   A(6,5,13)             113.0545         estimate D2E/DX2                !
 ! A17   A(6,5,14)             109.6507         estimate D2E/DX2                !
 ! A18   A(13,5,14)            107.9509         estimate D2E/DX2                !
 ! A19   A(5,6,7)              102.775          estimate D2E/DX2                !
 ! A20   A(5,6,15)             109.9944         estimate D2E/DX2                !
 ! A21   A(5,6,16)             113.1536         estimate D2E/DX2                !
 ! A22   A(7,6,15)             110.237          estimate D2E/DX2                !
 ! A23   A(7,6,16)             112.5473         estimate D2E/DX2                !
 ! A24   A(15,6,16)            108.0753         estimate D2E/DX2                !
 ! A25   A(6,7,8)              107.5608         estimate D2E/DX2                !
 ! A26   A(6,7,17)             112.129          estimate D2E/DX2                !
 ! A27   A(6,7,18)             111.4381         estimate D2E/DX2                !
 ! A28   A(8,7,17)             109.6212         estimate D2E/DX2                !
 ! A29   A(8,7,18)             107.425          estimate D2E/DX2                !
 ! A30   A(17,7,18)            108.5486         estimate D2E/DX2                !
 ! A31   A(4,8,7)              108.7316         estimate D2E/DX2                !
 ! A32   L(2,1,9,13,-1)        180.1717         estimate D2E/DX2                !
 ! A33   L(1,2,3,13,-1)        180.0            estimate D2E/DX2                !
 ! A34   L(2,1,9,13,-2)        180.0045         estimate D2E/DX2                !
 ! A35   L(1,2,3,13,-2)        180.0            estimate D2E/DX2                !
 ! D1    D(2,3,4,5)            -72.8995         estimate D2E/DX2                !
 ! D2    D(2,3,4,8)            168.1599         estimate D2E/DX2                !
 ! D3    D(2,3,4,12)            50.604          estimate D2E/DX2                !
 ! D4    D(10,3,4,5)            49.0671         estimate D2E/DX2                !
 ! D5    D(10,3,4,8)           -69.8735         estimate D2E/DX2                !
 ! D6    D(10,3,4,12)          172.5707         estimate D2E/DX2                !
 ! D7    D(11,3,4,5)           166.8712         estimate D2E/DX2                !
 ! D8    D(11,3,4,8)            47.9306         estimate D2E/DX2                !
 ! D9    D(11,3,4,12)          -69.6252         estimate D2E/DX2                !
 ! D10   D(3,4,5,6)           -151.2977         estimate D2E/DX2                !
 ! D11   D(3,4,5,13)            86.9197         estimate D2E/DX2                !
 ! D12   D(3,4,5,14)           -34.2894         estimate D2E/DX2                !
 ! D13   D(8,4,5,6)            -30.2704         estimate D2E/DX2                !
 ! D14   D(8,4,5,13)          -152.053          estimate D2E/DX2                !
 ! D15   D(8,4,5,14)            86.7379         estimate D2E/DX2                !
 ! D16   D(12,4,5,6)            84.9624         estimate D2E/DX2                !
 ! D17   D(12,4,5,13)          -36.8202         estimate D2E/DX2                !
 ! D18   D(12,4,5,14)         -158.0293         estimate D2E/DX2                !
 ! D19   D(3,4,8,7)            136.8406         estimate D2E/DX2                !
 ! D20   D(5,4,8,7)             14.1035         estimate D2E/DX2                !
 ! D21   D(12,4,8,7)          -103.3282         estimate D2E/DX2                !
 ! D22   D(4,5,6,7)             33.7727         estimate D2E/DX2                !
 ! D23   D(4,5,6,15)           -83.6102         estimate D2E/DX2                !
 ! D24   D(4,5,6,16)           155.413          estimate D2E/DX2                !
 ! D25   D(13,5,6,7)           155.2638         estimate D2E/DX2                !
 ! D26   D(13,5,6,15)           37.881          estimate D2E/DX2                !
 ! D27   D(13,5,6,16)          -83.0959         estimate D2E/DX2                !
 ! D28   D(14,5,6,7)           -84.2294         estimate D2E/DX2                !
 ! D29   D(14,5,6,15)          158.3878         estimate D2E/DX2                !
 ! D30   D(14,5,6,16)           37.4109         estimate D2E/DX2                !
 ! D31   D(5,6,7,8)            -26.6877         estimate D2E/DX2                !
 ! D32   D(5,6,7,17)          -147.2791         estimate D2E/DX2                !
 ! D33   D(5,6,7,18)            90.8096         estimate D2E/DX2                !
 ! D34   D(15,6,7,8)            90.523          estimate D2E/DX2                !
 ! D35   D(15,6,7,17)          -30.0685         estimate D2E/DX2                !
 ! D36   D(15,6,7,18)         -151.9798         estimate D2E/DX2                !
 ! D37   D(16,6,7,8)          -148.7393         estimate D2E/DX2                !
 ! D38   D(16,6,7,17)           90.6692         estimate D2E/DX2                !
 ! D39   D(16,6,7,18)          -31.2421         estimate D2E/DX2                !
 ! D40   D(6,7,8,4)              7.9338         estimate D2E/DX2                !
 ! D41   D(17,7,8,4)           130.0937         estimate D2E/DX2                !
 ! D42   D(18,7,8,4)          -112.1407         estimate D2E/DX2                !
 --------------------------------------------------------------------------------
 Trust Radius=3.00D-01 FncErr=1.00D-07 GrdErr=1.00D-06 EigMax=2.50D+02 EigMin=1.00D-04
 Number of steps in this run=    105 maximum allowed number of steps=    108.
 GradGradGradGradGradGradGradGradGradGradGradGradGradGradGradGradGradGrad

                          Input orientation:                          
 ---------------------------------------------------------------------
 Center     Atomic      Atomic             Coordinates (Angstroms)
 Number     Number       Type             X           Y           Z
 ---------------------------------------------------------------------
      1          6           0        0.919320   -0.041990    0.041560
      2          6           0        2.223170   -0.041990    0.041560
      3          6           0        3.743170   -0.041990    0.041560
      4          6           0        4.259380    0.633770    1.310800
      5          6           0        4.071080    2.143780    1.295120
      6          6           0        5.205950    2.621890    2.161030
      7          6           0        6.300590    1.620810    1.860940
      8          8           0        5.670350    0.398770    1.458770
      9          1           0       -0.146490   -0.044700    0.039870
     10          1           0        4.119510    0.463420   -0.855130
     11          1           0        4.102860   -1.076240   -0.009470
     12          1           0        3.773870    0.204680    2.197150
     13          1           0        3.088280    2.449700    1.668750
     14          1           0        4.186730    2.544140    0.282040
     15          1           0        4.920690    2.566070    3.216520
     16          1           0        5.507970    3.651320    1.944910
     17          1           0        6.939800    1.436020    2.729880
     18          1           0        6.929850    1.953480    1.030600
 ---------------------------------------------------------------------
                    Distance matrix (angstroms):
                    1          2          3          4          5
     1  C    0.000000
     2  C    1.303850   0.000000
     3  C    2.823850   1.520000   0.000000
     4  C    3.636430   2.492744   1.527774   0.000000
     5  C    4.035170   3.124704   2.540970   1.521786   0.000000
     6  C    5.473902   4.526078   3.705150   2.360404   1.505430
     7  C    5.918878   4.764494   3.551823   2.333118   2.358891
     8  O    4.977453   3.753106   2.432442   1.438039   2.372658
     9  H    1.065815   2.369662   3.889661   4.635437   4.914570
    10  H    3.361653   2.157683   1.095958   2.177116   2.729383
    11  H    3.347716   2.146046   1.096200   2.166044   3.474406
    12  H    3.585508   2.666849   2.169875   1.097932   2.159190
    13  H    3.682479   3.099142   3.047154   2.190252   1.095026
    14  H    4.173951   3.255989   2.634890   2.170976   1.095442
    15  H    5.735269   4.915177   4.274214   2.793364   2.142882
    16  H    6.190233   5.296526   4.514178   3.326662   2.181641
    17  H    6.757052   5.626560   4.430578   3.137203   3.284664
    18  H    6.409881   5.207008   3.887805   2.991915   2.877282
                    6          7          8          9         10
     6  C    0.000000
     7  C    1.513424   0.000000
     8  O    2.377204   1.432594   0.000000
     9  H    6.344969   6.903264   6.003796   0.000000
    10  H    3.864785   3.670654   2.786291   4.388390   0.000000
    11  H    4.427645   3.950004   2.605457   4.373041   1.756693
    12  H    2.809815   2.915952   2.044386   4.481659   3.082666
    13  H    2.180944   3.323091   3.304163   4.397615   3.373235
    14  H    2.139032   2.795330   2.861544   5.053468   2.372145
    15  H    1.094782   2.152960   2.889440   6.525606   4.652028
    16  H    1.094372   2.181346   3.292686   7.018736   4.464387
    17  H    2.176261   1.094438   2.074394   7.722965   4.663934
    18  H    2.167135   1.093664   2.046165   7.419492   3.697873
                   11         12         13         14         15
    11  H    0.000000
    12  H    2.572579   0.000000
    13  H    4.034606   2.406108   0.000000
    14  H    3.633065   3.051421   1.771574   0.000000
    15  H    4.933790   2.816110   2.401429   3.024955   0.000000
    16  H    5.305069   3.866530   2.715705   2.395132   1.771908
    17  H    4.675865   3.438475   4.121620   3.846979   2.364453
    18  H    4.272332   3.792011   3.925701   2.904123   3.031540
                   16         17         18
    16  H    0.000000
    17  H    2.752066   0.000000
    18  H    2.395906   1.776349   0.000000
 Stoichiometry    C7H10O
 Framework group  C1[X(C7H10O)]
 Deg. of freedom    48
 Full point group                 C1      NOp   1
 Largest Abelian subgroup         C1      NOp   1
 Largest concise Abelian subgroup C1      NOp   1
                         Standard orientation:                         
 ---------------------------------------------------------------------
 Center     Atomic      Atomic             Coordinates (Angstroms)
 Number     Number       Type             X           Y           Z
 ---------------------------------------------------------------------
      1          6           0        3.498545    0.522808   -0.209929
      2          6           0        2.409094   -0.136207    0.070820
      3          6           0        1.139035   -0.904473    0.398112
      4          6           0       -0.047347   -0.274623   -0.329816
      5          6           0       -0.471895    1.056596    0.273051
      6          6           0       -1.941926    1.104727   -0.047904
      7          6           0       -2.350463   -0.350130    0.035418
      8          8           0       -1.192151   -1.141647   -0.254647
      9          1           0        4.390809    1.058835   -0.439060
     10          1           0        0.975323   -0.916789    1.481703
     11          1           0        1.260981   -1.949217    0.089416
     12          1           0        0.181874   -0.147180   -1.395964
     13          1           0        0.085369    1.903433   -0.140963
     14          1           0       -0.331770    1.058975    1.359491
     15          1           0       -2.090924    1.482270   -1.064668
     16          1           0       -2.511355    1.740390    0.637174
     17          1           0       -3.149395   -0.595121   -0.671321
     18          1           0       -2.683962   -0.614604    1.042858
 ---------------------------------------------------------------------
 Rotational constants (GHZ):           5.2525842           1.1638601           1.0102634
 Standard basis: 6-31G(2df,p) (6D, 7F)
 There are   298 symmetry adapted cartesian basis functions of A   symmetry.
 There are   274 symmetry adapted basis functions of A   symmetry.
   274 basis functions,   422 primitive gaussians,   298 cartesian basis functions
    30 alpha electrons       30 beta electrons
       nuclear repulsion energy       357.0069193170 Hartrees.
 NAtoms=   18 NActive=   18 NUniq=   18 SFac= 1.00D+00 NAtFMM=   60 NAOKFM=F Big=F
 Integral buffers will be    131072 words long.
 Raffenetti 2 integral format.
 Two-electron integral symmetry is turned on.
 One-electron integrals computed using PRISM.
 PrsmSu:  requested number of processors reduced to:  13 ShMem   1 Linda.
 NBasis=   274 RedAO= T EigKep=  2.70D-04  NBF=   274
 NBsUse=   274 1.00D-06 EigRej= -1.00D+00 NBFU=   274
 ExpMin= 1.61D-01 ExpMax= 5.48D+03 ExpMxC= 8.25D+02 IAcc=3 IRadAn=         5 AccDes= 0.00D+00
 Harris functional with IExCor=  402 and IRadAn=       5 diagonalized for initial guess.
 HarFok:  IExCor=  402 AccDes= 0.00D+00 IRadAn=         5 IDoV= 1 UseB2=F ITyADJ=14
 ICtDFT=  3500011 ScaDFX=  1.000000  1.000000  1.000000  1.000000
 FoFCou: FMM=F IPFlag=           0 FMFlag=      100000 FMFlg1=           0
         NFxFlg=           0 DoJE=T BraDBF=F KetDBF=T FulRan=T
         wScrn=  0.000000 ICntrl=       500 IOpCl=  0 I1Cent=   200000004 NGrid=           0
         NMat0=    1 NMatS0=      1 NMatT0=    0 NMatD0=    1 NMtDS0=    0 NMtDT0=    0
 Petite list used in FoFCou.
 Requested convergence on RMS density matrix=1.00D-08 within 128 cycles.
 Requested convergence on MAX density matrix=1.00D-06.
 Requested convergence on             energy=1.00D-06.
 No special actions if energy rises.
 Integral accuracy reduced to 1.0D-05 until final iterations.
 Initial convergence to 1.0D-05 achieved.  Increase integral accuracy.
 SCF Done:  E(RB3LYP) =  -347.913300001     A.U. after   14 cycles
            NFock= 14  Conv=0.34D-08     -V/T= 2.0091

 **********************************************************************

            Population analysis using the SCF density.

 **********************************************************************

 Orbital symmetries:
       Occupied  (A) (A) (A) (A) (A) (A) (A) (A) (A) (A) (A) (A)
                 (A) (A) (A) (A) (A) (A) (A) (A) (A) (A) (A) (A)
                 (A) (A) (A) (A) (A) (A)
       Virtual   (A) (A) (A) (A) (A) (A) (A) (A) (A) (A) (A) (A)
                 (A) (A) (A) (A) (A) (A) (A) (A) (A) (A) (A) (A)
                 (A) (A) (A) (A) (A) (A) (A) (A) (A) (A) (A) (A)
                 (A) (A) (A) (A) (A) (A) (A) (A) (A) (A) (A) (A)
                 (A) (A) (A) (A) (A) (A) (A) (A) (A) (A) (A) (A)
                 (A) (A) (A) (A) (A) (A) (A) (A) (A) (A) (A) (A)
                 (A) (A) (A) (A) (A) (A) (A) (A) (A) (A) (A) (A)
                 (A) (A) (A) (A) (A) (A) (A) (A) (A) (A) (A) (A)
                 (A) (A) (A) (A) (A) (A) (A) (A) (A) (A) (A) (A)
                 (A) (A) (A) (A) (A) (A) (A) (A) (A) (A) (A) (A)
                 (A) (A) (A) (A) (A) (A) (A) (A) (A) (A) (A) (A)
                 (A) (A) (A) (A) (A) (A) (A) (A) (A) (A) (A) (A)
                 (A) (A) (A) (A) (A) (A) (A) (A) (A) (A) (A) (A)
                 (A) (A) (A) (A) (A) (A) (A) (A) (A) (A) (A) (A)
                 (A) (A) (A) (A) (A) (A) (A) (A) (A) (A) (A) (A)
                 (A) (A) (A) (A) (A) (A) (A) (A) (A) (A) (A) (A)
                 (A) (A) (A) (A) (A) (A) (A) (A) (A) (A) (A) (A)
                 (A) (A) (A) (A) (A) (A) (A) (A) (A) (A) (A) (A)
                 (A) (A) (A) (A) (A) (A) (A) (A) (A) (A) (A) (A)
                 (A) (A) (A) (A) (A) (A) (A) (A) (A) (A) (A) (A)
                 (A) (A) (A) (A)
 The electronic state is 1-A.
 Alpha  occ. eigenvalues --  -19.13276 -10.23467 -10.22314 -10.21474 -10.20756
 Alpha  occ. eigenvalues --  -10.19396 -10.18467 -10.18325  -1.02797  -0.80216
 Alpha  occ. eigenvalues --   -0.78353  -0.71901  -0.67483  -0.59647  -0.57893
 Alpha  occ. eigenvalues --   -0.53396  -0.50192  -0.48711  -0.45292  -0.44581
 Alpha  occ. eigenvalues --   -0.42207  -0.40492  -0.39343  -0.35448  -0.34535
 Alpha  occ. eigenvalues --   -0.33416  -0.31830  -0.25466  -0.25039  -0.24420
 Alpha virt. eigenvalues --    0.03100   0.03423   0.08253   0.10545   0.10618
 Alpha virt. eigenvalues --    0.12418   0.13616   0.14834   0.15129   0.16957
 Alpha virt. eigenvalues --    0.17738   0.18937   0.19535   0.20828   0.22208
 Alpha virt. eigenvalues --    0.23593   0.27116   0.27542   0.30113   0.39021
 Alpha virt. eigenvalues --    0.40300   0.45137   0.45914   0.46849   0.49020
 Alpha virt. eigenvalues --    0.49617   0.51215   0.51898   0.53329   0.54291
 Alpha virt. eigenvalues --    0.58280   0.59787   0.60368   0.62188   0.65367
 Alpha virt. eigenvalues --    0.66246   0.68682   0.69675   0.70273   0.71363
 Alpha virt. eigenvalues --    0.72288   0.73441   0.74906   0.75594   0.76708
 Alpha virt. eigenvalues --    0.77095   0.78191   0.78817   0.80383   0.81912
 Alpha virt. eigenvalues --    0.82353   0.84294   0.84826   0.85172   0.87096
 Alpha virt. eigenvalues --    0.93398   0.94866   0.99157   1.01781   1.04611
 Alpha virt. eigenvalues --    1.05090   1.06801   1.08783   1.13846   1.14836
 Alpha virt. eigenvalues --    1.16177   1.17776   1.21425   1.23687   1.26903
 Alpha virt. eigenvalues --    1.27730   1.28751   1.35605   1.37051   1.38285
 Alpha virt. eigenvalues --    1.42432   1.43827   1.45206   1.47948   1.49696
 Alpha virt. eigenvalues --    1.53768   1.54935   1.56173   1.56729   1.59598
 Alpha virt. eigenvalues --    1.63937   1.65271   1.68846   1.70399   1.72340
 Alpha virt. eigenvalues --    1.74420   1.76549   1.81190   1.83975   1.88010
 Alpha virt. eigenvalues --    1.92050   1.93923   1.96540   1.99097   2.01693
 Alpha virt. eigenvalues --    2.12109   2.15845   2.21908   2.24030   2.24322
 Alpha virt. eigenvalues --    2.31534   2.32496   2.36775   2.38418   2.40511
 Alpha virt. eigenvalues --    2.42702   2.43985   2.47758   2.51231   2.52733
 Alpha virt. eigenvalues --    2.57301   2.60620   2.61891   2.65029   2.66992
 Alpha virt. eigenvalues --    2.68606   2.70253   2.71037   2.71792   2.73876
 Alpha virt. eigenvalues --    2.77421   2.78833   2.83169   2.85719   2.86930
 Alpha virt. eigenvalues --    2.89788   2.91132   2.91463   2.93962   2.95274
 Alpha virt. eigenvalues --    3.01071   3.02608   3.03512   3.04592   3.07947
 Alpha virt. eigenvalues --    3.10593   3.14470   3.16575   3.17488   3.23956
 Alpha virt. eigenvalues --    3.27855   3.30458   3.30823   3.34605   3.37334
 Alpha virt. eigenvalues --    3.38130   3.39423   3.42121   3.45079   3.46682
 Alpha virt. eigenvalues --    3.49266   3.49671   3.50977   3.52099   3.53460
 Alpha virt. eigenvalues --    3.58072   3.61422   3.62753   3.67402   3.69700
 Alpha virt. eigenvalues --    3.74784   3.76760   3.78363   3.81271   3.84947
 Alpha virt. eigenvalues --    3.87784   3.92157   3.92771   3.96911   4.04182
 Alpha virt. eigenvalues --    4.07031   4.15828   4.21101   4.22426   4.24714
 Alpha virt. eigenvalues --    4.30094   4.31028   4.31930   4.36150   4.36944
 Alpha virt. eigenvalues --    4.42807   4.45400   4.48330   4.48705   4.50719
 Alpha virt. eigenvalues --    4.55187   4.56191   4.58498   4.59740   4.61066
 Alpha virt. eigenvalues --    4.61403   4.63750   4.67358   4.68888   4.71143
 Alpha virt. eigenvalues --    4.72052   4.73291   4.75236   4.76430   4.78327
 Alpha virt. eigenvalues --    4.80558   4.83377   4.84921   4.87704   4.89789
 Alpha virt. eigenvalues --    4.93037   4.94888   4.97221   5.01122   5.01595
 Alpha virt. eigenvalues --    5.06068   5.06669   5.10109   5.16234   5.23971
 Alpha virt. eigenvalues --    5.31055   5.35602   5.40046   5.45794   5.51407
 Alpha virt. eigenvalues --    5.56303   5.70653   5.75772   5.86905   5.94951
 Alpha virt. eigenvalues --    6.01946   6.13160   6.17064   6.25819   6.68155
 Alpha virt. eigenvalues --    7.15149   9.62426  10.91539  11.24918  11.68932
 Alpha virt. eigenvalues --   12.06486  12.26446  12.56321  13.52479
          Condensed to atoms (all electrons):
               1          2          3          4          5          6
     1  C    5.151044   0.911254  -0.062897   0.000226   0.000335   0.000004
     2  C    0.911254   4.710207   0.278383  -0.037889   0.001646   0.000339
     3  C   -0.062897   0.278383   5.180171   0.378342  -0.021569   0.003470
     4  C    0.000226  -0.037889   0.378342   4.635294   0.368332  -0.054264
     5  C    0.000335   0.001646  -0.021569   0.368332   4.957292   0.411397
     6  C    0.000004   0.000339   0.003470  -0.054264   0.411397   4.914382
     7  C   -0.000001  -0.000200   0.004893  -0.105941  -0.060952   0.389759
     8  O    0.000017   0.003748  -0.024281   0.356018  -0.041994  -0.047712
     9  H    0.372093  -0.007551   0.000269   0.000052  -0.000002  -0.000000
    10  H   -0.000386  -0.018200   0.345920  -0.021052  -0.012962   0.000002
    11  H   -0.001071  -0.020371   0.356242  -0.025041   0.005648  -0.000057
    12  H    0.003615   0.009640  -0.068640   0.362061  -0.057368   0.000173
    13  H    0.001129   0.003099   0.000544  -0.018009   0.363161  -0.024707
    14  H   -0.000040  -0.000249  -0.010892  -0.023683   0.358215  -0.033417
    15  H   -0.000002  -0.000039   0.000126   0.001767  -0.032782   0.367096
    16  H   -0.000000  -0.000013  -0.000162   0.004403  -0.022321   0.364722
    17  H    0.000000   0.000017  -0.000208   0.002252   0.004354  -0.027663
    18  H   -0.000001  -0.000064   0.000071   0.007257  -0.002054  -0.034090
               7          8          9         10         11         12
     1  C   -0.000001   0.000017   0.372093  -0.000386  -0.001071   0.003615
     2  C   -0.000200   0.003748  -0.007551  -0.018200  -0.020371   0.009640
     3  C    0.004893  -0.024281   0.000269   0.345920   0.356242  -0.068640
     4  C   -0.105941   0.356018   0.000052  -0.021052  -0.025041   0.362061
     5  C   -0.060952  -0.041994  -0.000002  -0.012962   0.005648  -0.057368
     6  C    0.389759  -0.047712  -0.000000   0.000002  -0.000057   0.000173
     7  C    4.752679   0.384546  -0.000000   0.000575  -0.000241   0.005390
     8  O    0.384546   7.742556   0.000000   0.002208   0.000563  -0.031330
     9  H   -0.000000   0.000000   0.428672  -0.000032  -0.000038   0.000029
    10  H    0.000575   0.002208  -0.000032   0.592969  -0.038779   0.006506
    11  H   -0.000241   0.000563  -0.000038  -0.038779   0.580961  -0.003335
    12  H    0.005390  -0.031330   0.000029   0.006506  -0.003335   0.686950
    13  H    0.004942   0.002809   0.000002   0.000037  -0.000121  -0.004685
    14  H    0.002514  -0.001003   0.000000   0.008063   0.000076   0.006394
    15  H   -0.026754  -0.000014  -0.000000   0.000009   0.000008   0.001140
    16  H   -0.024653   0.002744  -0.000000  -0.000020   0.000004  -0.000206
    17  H    0.367742  -0.025942   0.000000   0.000012  -0.000011   0.000780
    18  H    0.363933  -0.034714  -0.000000  -0.000083   0.000037  -0.000615
              13         14         15         16         17         18
     1  C    0.001129  -0.000040  -0.000002  -0.000000   0.000000  -0.000001
     2  C    0.003099  -0.000249  -0.000039  -0.000013   0.000017  -0.000064
     3  C    0.000544  -0.010892   0.000126  -0.000162  -0.000208   0.000071
     4  C   -0.018009  -0.023683   0.001767   0.004403   0.002252   0.007257
     5  C    0.363161   0.358215  -0.032782  -0.022321   0.004354  -0.002054
     6  C   -0.024707  -0.033417   0.367096   0.364722  -0.027663  -0.034090
     7  C    0.004942   0.002514  -0.026754  -0.024653   0.367742   0.363933
     8  O    0.002809  -0.001003  -0.000014   0.002744  -0.025942  -0.034714
     9  H    0.000002   0.000000  -0.000000  -0.000000   0.000000  -0.000000
    10  H    0.000037   0.008063   0.000009  -0.000020   0.000012  -0.000083
    11  H   -0.000121   0.000076   0.000008   0.000004  -0.000011   0.000037
    12  H   -0.004685   0.006394   0.001140  -0.000206   0.000780  -0.000615
    13  H    0.599409  -0.037925  -0.007879   0.002000  -0.000148  -0.000210
    14  H   -0.037925   0.632224   0.006029  -0.008465  -0.000082   0.001201
    15  H   -0.007879   0.006029   0.629497  -0.040113  -0.010141   0.006106
    16  H    0.002000  -0.008465  -0.040113   0.621726   0.003679  -0.006626
    17  H   -0.000148  -0.000082  -0.010141   0.003679   0.640716  -0.057073
    18  H   -0.000210   0.001201   0.006106  -0.006626  -0.057073   0.662988
 Mulliken charges:
               1
     1  C   -0.375317
     2  C    0.166244
     3  C   -0.359782
     4  C    0.169873
     5  C   -0.218375
     6  C   -0.229433
     7  C   -0.058230
     8  O   -0.288219
     9  H    0.206505
    10  H    0.135213
    11  H    0.145526
    12  H    0.083502
    13  H    0.116551
    14  H    0.101039
    15  H    0.105948
    16  H    0.103302
    17  H    0.101716
    18  H    0.093937
 Sum of Mulliken charges =  -0.00000
 Mulliken charges with hydrogens summed into heavy atoms:
               1
     1  C   -0.168812
     2  C    0.166244
     3  C   -0.079043
     4  C    0.253374
     5  C   -0.000785
     6  C   -0.020183
     7  C    0.137423
     8  O   -0.288219
 Electronic spatial extent (au):  <R**2>=           1160.4518
 Charge=              0.0000 electrons
 Dipole moment (field-independent basis, Debye):
    X=             -0.7489    Y=              1.3484    Z=              0.3304  Tot=              1.5775
 Quadrupole moment (field-independent basis, Debye-Ang):
   XX=            -45.4618   YY=            -49.2897   ZZ=            -47.8596
   XY=             -0.2432   XZ=             -1.3341   YZ=             -1.2959
 Traceless Quadrupole moment (field-independent basis, Debye-Ang):
   XX=              2.0752   YY=             -1.7527   ZZ=             -0.3226
   XY=             -0.2432   XZ=             -1.3341   YZ=             -1.2959
 Octapole moment (field-independent basis, Debye-Ang**2):
  XXX=              0.3483  YYY=             -2.4664  ZZZ=              0.6276  XYY=              2.5469
  XXY=             14.0727  XXZ=             -6.5384  XZZ=             -7.2233  YZZ=             -1.4873
  YYZ=             -0.1176  XYZ=             -2.2154
 Hexadecapole moment (field-independent basis, Debye-Ang**3):
 XXXX=          -1048.4892 YYYY=           -272.5278 ZZZZ=           -100.0035 XXXY=             84.4803
 XXXZ=            -30.5642 YYYX=             -0.6971 YYYZ=             -0.7834 ZZZX=              2.9562
 ZZZY=             -0.4917 XXYY=           -235.6749 XXZZ=           -223.9790 YYZZ=            -62.5786
 XXYZ=             -9.2076 YYXZ=             -3.8270 ZZXY=             -0.1237
 N-N= 3.570069193170D+02 E-N=-1.522404434538D+03  KE= 3.447902902753D+02
 PrsmSu:  requested number of processors reduced to:  13 ShMem   1 Linda.
 Calling FoFJK, ICntrl=      2127 FMM=F ISym2X=0 I1Cent= 0 IOpClX= 0 NMat=1 NMatS=1 NMatT=0.
 ***** Axes restored to original set *****
 -------------------------------------------------------------------
 Center     Atomic                   Forces (Hartrees/Bohr)
 Number     Number              X              Y              Z
 -------------------------------------------------------------------
      1        6           0.159075886    0.000368638    0.000481435
      2        6          -0.128873713   -0.001215509   -0.004753541
      3        6          -0.031367945   -0.007650956    0.002196947
      4        6           0.004848133   -0.003054565    0.001913659
      5        6          -0.010512759    0.005359986   -0.003386135
      6        6           0.002366349    0.010473447    0.011488128
      7        6           0.009757531   -0.007249651   -0.003857648
      8        8          -0.006379641    0.005199885   -0.001942425
      9        1           0.001650938    0.000033167    0.000208631
     10        1          -0.000642010    0.001567388    0.001200572
     11        1          -0.001321408   -0.000196084    0.001362781
     12        1          -0.004692184   -0.001643993   -0.002212593
     13        1           0.001070274   -0.001320126   -0.002235000
     14        1          -0.001549661   -0.002198608   -0.001905432
     15        1           0.000703846    0.001146332    0.001136102
     16        1           0.000173286   -0.000665590    0.001634515
     17        1           0.001674402   -0.001803715   -0.000471567
     18        1           0.004018677    0.002849955   -0.000858429
 -------------------------------------------------------------------
 Cartesian Forces:  Max     0.159075886 RMS     0.028463942

 GradGradGradGradGradGradGradGradGradGradGradGradGradGradGradGradGradGrad
 Berny optimization.
 FormGI is forming the generalized inverse of G from B-inverse, IUseBI=4.
 Internal  Forces:  Max     0.160727996 RMS     0.017109640
 Search for a local minimum.
 Step number   1 out of a maximum of  105
 All quantities printed in internal units (Hartrees-Bohrs-Radians)
 Mixed Optimization -- RFO/linear search
 Second derivative matrix not updated -- first step.
 ITU=  0
     Eigenvalues ---    0.00399   0.00501   0.00501   0.00555   0.00555
     Eigenvalues ---    0.00748   0.00883   0.02943   0.03404   0.04362
     Eigenvalues ---    0.04765   0.05104   0.05520   0.05626   0.05903
     Eigenvalues ---    0.05967   0.06241   0.06842   0.06906   0.07533
     Eigenvalues ---    0.07868   0.09850   0.11349   0.11847   0.15683
     Eigenvalues ---    0.16000   0.16000   0.19863   0.21406   0.22288
     Eigenvalues ---    0.28108   0.29630   0.30174   0.30367   0.30676
     Eigenvalues ---    0.33912   0.34106   0.34133   0.34191   0.34238
     Eigenvalues ---    0.34266   0.34305   0.34312   0.34393   0.37764
     Eigenvalues ---    0.38262   0.39178   0.66135
 RFO step:  Lambda=-4.32980651D-02 EMin= 3.98545885D-03
 Linear search not attempted -- first point.
 Iteration  1 RMS(Cart)=  0.04780966 RMS(Int)=  0.00300602
 Iteration  2 RMS(Cart)=  0.00414911 RMS(Int)=  0.00010242
 Iteration  3 RMS(Cart)=  0.00000597 RMS(Int)=  0.00010237
 Iteration  4 RMS(Cart)=  0.00000000 RMS(Int)=  0.00010237
 Variable       Old X    -DE/DX   Delta X   Delta X   Delta X     New X
                                 (Linear)    (Quad)   (Total)
    R1        2.46392  -0.16073   0.00000  -0.22810  -0.22810   2.23582
    R2        2.01410  -0.00165   0.00000  -0.00392  -0.00392   2.01017
    R3        2.87238  -0.03185   0.00000  -0.09181  -0.09181   2.78057
    R4        2.88708   0.00306   0.00000   0.00901   0.00901   2.89608
    R5        2.07106  -0.00048   0.00000  -0.00125  -0.00125   2.06981
    R6        2.07152  -0.00031   0.00000  -0.00081  -0.00081   2.07071
    R7        2.87576   0.00719   0.00000   0.01973   0.01967   2.89543
    R8        2.71750  -0.00194   0.00000  -0.00449  -0.00451   2.71299
    R9        2.07479   0.00093   0.00000   0.00244   0.00244   2.07723
   R10        2.84485   0.01711   0.00000   0.04939   0.04933   2.89418
   R11        2.06930  -0.00209   0.00000  -0.00542  -0.00542   2.06387
   R12        2.07009   0.00080   0.00000   0.00207   0.00207   2.07215
   R13        2.85996   0.01183   0.00000   0.03279   0.03287   2.89283
   R14        2.06884   0.00085   0.00000   0.00221   0.00221   2.07105
   R15        2.06806  -0.00090   0.00000  -0.00233  -0.00233   2.06573
   R16        2.70721   0.00152   0.00000   0.00321   0.00328   2.71049
   R17        2.06819   0.00091   0.00000   0.00235   0.00235   2.07054
   R18        2.06673   0.00383   0.00000   0.00989   0.00989   2.07662
    A1        1.91546   0.00665   0.00000   0.02457   0.02460   1.94006
    A2        1.92132  -0.00247   0.00000  -0.01208  -0.01198   1.90934
    A3        1.90511  -0.00211   0.00000  -0.00514  -0.00520   1.89992
    A4        1.93877  -0.00318   0.00000  -0.01546  -0.01541   1.92335
    A5        1.92317  -0.00113   0.00000  -0.00277  -0.00281   1.92036
    A6        1.85911   0.00201   0.00000   0.01021   0.01019   1.86930
    A7        1.96983   0.00803   0.00000   0.03638   0.03650   2.00632
    A8        1.92274  -0.00416   0.00000  -0.02363  -0.02350   1.89925
    A9        1.92666  -0.00429   0.00000  -0.02556  -0.02563   1.90103
   A10        1.85941  -0.00267   0.00000  -0.01200  -0.01187   1.84753
   A11        1.91920  -0.00103   0.00000  -0.00207  -0.00182   1.91738
   A12        1.86183   0.00397   0.00000   0.02700   0.02678   1.88861
   A13        1.78844  -0.00069   0.00000  -0.00322  -0.00343   1.78501
   A14        1.96573  -0.00109   0.00000  -0.00739  -0.00731   1.95843
   A15        1.93812  -0.00063   0.00000  -0.00968  -0.00963   1.92849
   A16        1.97317   0.00207   0.00000   0.01175   0.01179   1.98497
   A17        1.91377   0.00090   0.00000   0.01305   0.01307   1.92684
   A18        1.88410  -0.00051   0.00000  -0.00400  -0.00424   1.87985
   A19        1.79376  -0.00288   0.00000  -0.00866  -0.00868   1.78508
   A20        1.91976   0.00100   0.00000   0.00769   0.00766   1.92742
   A21        1.97490   0.00183   0.00000   0.00677   0.00678   1.98169
   A22        1.92400   0.00178   0.00000   0.00712   0.00714   1.93114
   A23        1.96432  -0.00035   0.00000  -0.00502  -0.00498   1.95934
   A24        1.88627  -0.00127   0.00000  -0.00712  -0.00714   1.87913
   A25        1.87729  -0.00431   0.00000  -0.01669  -0.01664   1.86066
   A26        1.95702   0.00219   0.00000   0.01191   0.01177   1.96879
   A27        1.94496   0.00104   0.00000   0.00269   0.00280   1.94776
   A28        1.91325  -0.00020   0.00000  -0.00839  -0.00831   1.90494
   A29        1.87492   0.00318   0.00000   0.02090   0.02088   1.89580
   A30        1.89453  -0.00184   0.00000  -0.01004  -0.01003   1.88450
   A31        1.89772   0.00924   0.00000   0.03008   0.02996   1.92769
   A32        3.14459  -0.00027   0.00000  -0.00559  -0.00559   3.13900
   A33        3.14159  -0.00203   0.00000  -0.04193  -0.04193   3.09966
   A34        3.14167   0.00025   0.00000   0.00516   0.00516   3.14683
   A35        3.14159  -0.00114   0.00000  -0.02363  -0.02363   3.11796
    D1       -1.27234   0.00022   0.00000   0.01047   0.01047  -1.26187
    D2        2.93494   0.00120   0.00000   0.01810   0.01839   2.95334
    D3        0.88321   0.00147   0.00000   0.01493   0.01477   0.89798
    D4        0.85638  -0.00049   0.00000   0.00165   0.00157   0.85795
    D5       -1.21952   0.00049   0.00000   0.00928   0.00950  -1.21003
    D6        3.01193   0.00076   0.00000   0.00611   0.00587   3.01780
    D7        2.91245  -0.00068   0.00000   0.00298   0.00293   2.91538
    D8        0.83655   0.00030   0.00000   0.01061   0.01086   0.84740
    D9       -1.21519   0.00057   0.00000   0.00744   0.00723  -1.20796
   D10       -2.64064   0.00164   0.00000   0.00769   0.00778  -2.63286
   D11        1.51704   0.00015   0.00000  -0.00057  -0.00045   1.51659
   D12       -0.59846   0.00203   0.00000   0.01677   0.01680  -0.58167
   D13       -0.52832  -0.00048   0.00000  -0.00783  -0.00781  -0.53613
   D14       -2.65383  -0.00197   0.00000  -0.01609  -0.01603  -2.66986
   D15        1.51386  -0.00009   0.00000   0.00124   0.00121   1.51507
   D16        1.48287   0.00223   0.00000   0.01637   0.01629   1.49916
   D17       -0.64263   0.00074   0.00000   0.00811   0.00807  -0.63457
   D18       -2.75813   0.00261   0.00000   0.02545   0.02531  -2.73282
   D19        2.38832   0.00577   0.00000   0.02489   0.02522   2.41354
   D20        0.24615   0.00011   0.00000   0.00205   0.00204   0.24819
   D21       -1.80342   0.00067   0.00000  -0.00289  -0.00302  -1.80644
   D22        0.58944   0.00155   0.00000   0.01471   0.01467   0.60412
   D23       -1.45927   0.00057   0.00000   0.00765   0.00765  -1.45162
   D24        2.71247   0.00024   0.00000   0.00666   0.00663   2.71910
   D25        2.70986   0.00087   0.00000   0.00987   0.00979   2.71966
   D26        0.66115  -0.00010   0.00000   0.00282   0.00277   0.66392
   D27       -1.45030  -0.00043   0.00000   0.00182   0.00175  -1.44855
   D28       -1.47008   0.00223   0.00000   0.02178   0.02182  -1.44826
   D29        2.76439   0.00125   0.00000   0.01472   0.01480   2.77919
   D30        0.65294   0.00092   0.00000   0.01373   0.01378   0.66672
   D31       -0.46579  -0.00102   0.00000  -0.01120  -0.01112  -0.47691
   D32       -2.57051   0.00074   0.00000   0.00296   0.00307  -2.56744
   D33        1.58493   0.00080   0.00000   0.00550   0.00558   1.59051
   D34        1.57992  -0.00061   0.00000  -0.00375  -0.00375   1.57617
   D35       -0.52479   0.00115   0.00000   0.01041   0.01044  -0.51436
   D36       -2.65255   0.00122   0.00000   0.01295   0.01295  -2.63959
   D37       -2.59599  -0.00122   0.00000  -0.01123  -0.01124  -2.60723
   D38        1.58248   0.00054   0.00000   0.00293   0.00295   1.58543
   D39       -0.54528   0.00061   0.00000   0.00547   0.00546  -0.53981
   D40        0.13847   0.00175   0.00000   0.00900   0.00908   0.14755
   D41        2.27056   0.00163   0.00000   0.00815   0.00835   2.27891
   D42       -1.95722   0.00113   0.00000   0.00349   0.00362  -1.95361
         Item               Value     Threshold  Converged?
 Maximum Force            0.160728     0.000450     NO 
 RMS     Force            0.017110     0.000300     NO 
 Maximum Displacement     0.250600     0.001800     NO 
 RMS     Displacement     0.050889     0.001200     NO 
 Predicted change in Energy=-2.337473D-02
 GradGradGradGradGradGradGradGradGradGradGradGradGradGradGradGradGradGrad

                          Input orientation:                          
 ---------------------------------------------------------------------
 Center     Atomic      Atomic             Coordinates (Angstroms)
 Number     Number       Type             X           Y           Z
 ---------------------------------------------------------------------
      1          6           0        1.049566   -0.052219    0.023654
      2          6           0        2.232470   -0.071384    0.009264
      3          6           0        3.703200   -0.061840    0.053137
      4          6           0        4.214470    0.649716    1.310506
      5          6           0        4.044074    2.172400    1.305975
      6          6           0        5.213048    2.633421    2.181503
      7          6           0        6.300813    1.613317    1.835734
      8          8           0        5.625007    0.413237    1.435237
      9          1           0       -0.013878   -0.035269    0.042036
     10          1           0        4.090718    0.431602   -0.844649
     11          1           0        4.064814   -1.096046    0.033948
     12          1           0        3.715092    0.220730    2.190778
     13          1           0        3.065665    2.479438    1.681804
     14          1           0        4.149533    2.567481    0.288537
     15          1           0        4.945462    2.568417    3.242297
     16          1           0        5.529798    3.660389    1.981606
     17          1           0        6.958185    1.389747    2.683318
     18          1           0        6.928044    1.957802    1.001774
 ---------------------------------------------------------------------
                    Distance matrix (angstroms):
                    1          2          3          4          5
     1  C    0.000000
     2  C    1.183147   0.000000
     3  C    2.653816   1.471416   0.000000
     4  C    3.487882   2.478213   1.532542   0.000000
     5  C    3.944661   3.161951   2.584110   1.532195   0.000000
     6  C    5.404032   4.573668   3.751535   2.385557   1.531532
     7  C    5.799417   4.767141   3.568108   2.357375   2.384553
     8  O    4.810808   3.711815   2.414382   1.435651   2.368694
     9  H    1.063738   2.246877   3.717190   4.467343   4.789397
    10  H    3.199475   2.106003   1.095297   2.169696   2.767262
    11  H    3.190831   2.099531   1.095771   2.167875   3.507310
    12  H    3.446151   2.653772   2.156269   1.099221   2.167976
    13  H    3.636400   3.162009   3.084980   2.192145   1.092155
    14  H    4.067283   3.273643   2.677304   2.174042   1.096536
    15  H    5.692573   4.978089   4.316503   2.819145   2.172250
    16  H    6.139179   5.356178   4.572794   3.353299   2.208612
    17  H    6.638136   5.622975   4.429433   3.155983   3.316875
    18  H    6.289150   5.210671   3.921541   3.028182   2.907899
                    6          7          8          9         10
     6  C    0.000000
     7  C    1.530818   0.000000
     8  O    2.378201   1.434330   0.000000
     9  H    6.246598   6.768347   5.825736   0.000000
    10  H    3.907075   3.669527   2.748138   4.225149   0.000000
    11  H    4.454140   3.948009   2.583747   4.214386   1.762473
    12  H    2.839901   2.958261   2.062929   4.311363   3.065841
    13  H    2.210127   3.352618   3.298517   4.300719   3.409888
    14  H    2.172264   2.816426   2.851791   4.916205   2.418585
    15  H    1.095952   2.174307   2.893448   6.451039   4.690383
    16  H    1.093139   2.192316   3.294174   6.939177   4.525897
    17  H    2.200920   1.095682   2.070903   7.590567   4.646177
    18  H    2.188478   1.098898   2.066755   7.285857   3.713353
                   11         12         13         14         15
    11  H    0.000000
    12  H    2.551103   0.000000
    13  H    4.061751   2.404698   0.000000
    14  H    3.673340   3.051966   1.767403   0.000000
    15  H    4.949478   2.851514   2.444726   3.059117   0.000000
    16  H    5.344458   3.894633   2.748905   2.442552   1.767256
    17  H    4.644343   3.482362   4.164393   3.874346   2.398494
    18  H    4.296599   3.841121   3.956326   2.932668   3.053428
                   16         17         18
    16  H    0.000000
    17  H    2.772816   0.000000
    18  H    2.411217   1.775158   0.000000
 Stoichiometry    C7H10O
 Framework group  C1[X(C7H10O)]
 Deg. of freedom    48
 Full point group                 C1      NOp   1
 Largest Abelian subgroup         C1      NOp   1
 Largest concise Abelian subgroup C1      NOp   1
                         Standard orientation:                         
 ---------------------------------------------------------------------
 Center     Atomic      Atomic             Coordinates (Angstroms)
 Number     Number       Type             X           Y           Z
 ---------------------------------------------------------------------
      1          6           0        3.386049    0.514960   -0.187733
      2          6           0        2.424902   -0.122388    0.076499
      3          6           0        1.191894   -0.871960    0.364422
      4          6           0       -0.015784   -0.240479   -0.336598
      5          6           0       -0.490734    1.086686    0.263966
      6          6           0       -1.987519    1.073568   -0.060153
      7          6           0       -2.333345   -0.412918    0.058870
      8          8           0       -1.131512   -1.138284   -0.235654
      9          1           0        4.248089    1.089099   -0.430203
     10          1           0        1.028236   -0.900981    1.447034
     11          1           0        1.320715   -1.907506    0.030109
     12          1           0        0.220852   -0.104999   -1.401462
     13          1           0        0.042087    1.943320   -0.154464
     14          1           0       -0.334741    1.094589    1.349321
     15          1           0       -2.160884    1.430040   -1.081908
     16          1           0       -2.585542    1.693091    0.613281
     17          1           0       -3.120081   -0.722988   -0.637852
     18          1           0       -2.659418   -0.672208    1.075739
 ---------------------------------------------------------------------
 Rotational constants (GHZ):           5.3193179           1.1884734           1.0287542
 Standard basis: 6-31G(2df,p) (6D, 7F)
 There are   298 symmetry adapted cartesian basis functions of A   symmetry.
 There are   274 symmetry adapted basis functions of A   symmetry.
   274 basis functions,   422 primitive gaussians,   298 cartesian basis functions
    30 alpha electrons       30 beta electrons
       nuclear repulsion energy       359.1844677554 Hartrees.
 NAtoms=   18 NActive=   18 NUniq=   18 SFac= 1.00D+00 NAtFMM=   60 NAOKFM=F Big=F
 Integral buffers will be    131072 words long.
 Raffenetti 2 integral format.
 Two-electron integral symmetry is turned on.
 One-electron integrals computed using PRISM.
 PrsmSu:  requested number of processors reduced to:  13 ShMem   1 Linda.
 NBasis=   274 RedAO= T EigKep=  1.51D-04  NBF=   274
 NBsUse=   274 1.00D-06 EigRej= -1.00D+00 NBFU=   274
 Initial guess from the checkpoint file:  "CtCCC1CCCO1.chk"
 B after Tr=     0.000000    0.000000   -0.000000
         Rot=    0.999962    0.001663   -0.000803   -0.008469 Ang=   0.99 deg.
 ExpMin= 1.61D-01 ExpMax= 5.48D+03 ExpMxC= 8.25D+02 IAcc=2 IRadAn=         4 AccDes= 0.00D+00
 Harris functional with IExCor=  402 and IRadAn=       4 diagonalized for initial guess.
 HarFok:  IExCor=  402 AccDes= 0.00D+00 IRadAn=         4 IDoV= 1 UseB2=F ITyADJ=14
 ICtDFT=  3500011 ScaDFX=  1.000000  1.000000  1.000000  1.000000
 FoFCou: FMM=F IPFlag=           0 FMFlag=      100000 FMFlg1=           0
         NFxFlg=           0 DoJE=T BraDBF=F KetDBF=T FulRan=T
         wScrn=  0.000000 ICntrl=       500 IOpCl=  0 I1Cent=   200000004 NGrid=           0
         NMat0=    1 NMatS0=      1 NMatT0=    0 NMatD0=    1 NMtDS0=    0 NMtDT0=    0
 Petite list used in FoFCou.
 Requested convergence on RMS density matrix=1.00D-08 within 128 cycles.
 Requested convergence on MAX density matrix=1.00D-06.
 Requested convergence on             energy=1.00D-06.
 No special actions if energy rises.
 Integral accuracy reduced to 1.0D-05 until final iterations.
 Initial convergence to 1.0D-05 achieved.  Increase integral accuracy.
 SCF Done:  E(RB3LYP) =  -347.933491036     A.U. after   13 cycles
            NFock= 13  Conv=0.22D-08     -V/T= 2.0078
 PrsmSu:  requested number of processors reduced to:  13 ShMem   1 Linda.
 Calling FoFJK, ICntrl=      2127 FMM=F ISym2X=0 I1Cent= 0 IOpClX= 0 NMat=1 NMatS=1 NMatT=0.
 ***** Axes restored to original set *****
 -------------------------------------------------------------------
 Center     Atomic                   Forces (Hartrees/Bohr)
 Number     Number              X              Y              Z
 -------------------------------------------------------------------
      1        6          -0.043896828    0.000777646    0.000902624
      2        6           0.048339772    0.000601693   -0.000124457
      3        6          -0.012423987   -0.002686704   -0.001183643
      4        6           0.006730576    0.000168465    0.001252477
      5        6          -0.002067098    0.001440393   -0.000197986
      6        6           0.000111736    0.001980557    0.002219579
      7        6          -0.000626697   -0.003910341   -0.002272274
      8        8          -0.001463974    0.002506917   -0.000600754
      9        1           0.001891059   -0.000368551   -0.000699793
     10        1           0.002358940    0.000296153    0.000308959
     11        1           0.002014460    0.000737063    0.001400905
     12        1          -0.001521040   -0.000713913   -0.000332476
     13        1           0.000325583    0.000233248   -0.000098974
     14        1           0.000059205   -0.001045152   -0.000325470
     15        1           0.000293246   -0.000304509   -0.000411715
     16        1          -0.000611851   -0.000001829    0.000120852
     17        1           0.000101745   -0.000548500   -0.000199092
     18        1           0.000385153    0.000837363    0.000241237
 -------------------------------------------------------------------
 Cartesian Forces:  Max     0.048339772 RMS     0.009172254

 GradGradGradGradGradGradGradGradGradGradGradGradGradGradGradGradGradGrad
 Berny optimization.
 Using GEDIIS/GDIIS optimizer.
 FormGI is forming the generalized inverse of G from B-inverse, IUseBI=4.
 Internal  Forces:  Max     0.042006064 RMS     0.004459609
 Search for a local minimum.
 Step number   2 out of a maximum of  105
 All quantities printed in internal units (Hartrees-Bohrs-Radians)
 Mixed Optimization -- RFO/linear search
 Update second derivatives using D2CorX and points    1    2
 DE= -2.02D-02 DEPred=-2.34D-02 R= 8.64D-01
 TightC=F SS=  1.41D+00  RLast= 2.82D-01 DXNew= 5.0454D-01 8.4646D-01
 Trust test= 8.64D-01 RLast= 2.82D-01 DXMaxT set to 5.05D-01
 ITU=  1  0
 Use linear search instead of GDIIS.
     Eigenvalues ---    0.00399   0.00501   0.00505   0.00555   0.00555
     Eigenvalues ---    0.00756   0.00892   0.02944   0.03389   0.04275
     Eigenvalues ---    0.04790   0.05121   0.05510   0.05534   0.05899
     Eigenvalues ---    0.06010   0.06255   0.06817   0.06851   0.07515
     Eigenvalues ---    0.08011   0.09807   0.11287   0.11754   0.15765
     Eigenvalues ---    0.15988   0.16006   0.19827   0.21397   0.22256
     Eigenvalues ---    0.28120   0.29383   0.29641   0.30207   0.30643
     Eigenvalues ---    0.33910   0.34106   0.34134   0.34191   0.34236
     Eigenvalues ---    0.34267   0.34305   0.34312   0.34389   0.37753
     Eigenvalues ---    0.38226   0.39223   0.88561
 RFO step:  Lambda=-2.41716744D-03 EMin= 3.98563293D-03
 Quartic linear search produced a step of -0.12679.
 Iteration  1 RMS(Cart)=  0.08305694 RMS(Int)=  0.00479349
 Iteration  2 RMS(Cart)=  0.00652043 RMS(Int)=  0.00007041
 Iteration  3 RMS(Cart)=  0.00003144 RMS(Int)=  0.00006847
 Iteration  4 RMS(Cart)=  0.00000000 RMS(Int)=  0.00006847
 Variable       Old X    -DE/DX   Delta X   Delta X   Delta X     New X
                                 (Linear)    (Quad)   (Total)
    R1        2.23582   0.04201   0.02892   0.00869   0.03761   2.27343
    R2        2.01017  -0.00191   0.00050  -0.00531  -0.00481   2.00536
    R3        2.78057  -0.00634   0.01164  -0.04154  -0.02990   2.75067
    R4        2.89608   0.00038  -0.00114   0.00342   0.00228   2.89836
    R5        2.06981   0.00071   0.00016   0.00151   0.00167   2.07148
    R6        2.07071  -0.00005   0.00010  -0.00034  -0.00024   2.07047
    R7        2.89543   0.00084  -0.00249   0.00679   0.00430   2.89972
    R8        2.71299  -0.00272   0.00057  -0.00659  -0.00600   2.70699
    R9        2.07723   0.00070  -0.00031   0.00240   0.00209   2.07931
   R10        2.89418   0.00103  -0.00625   0.01607   0.00979   2.90397
   R11        2.06387  -0.00026   0.00069  -0.00199  -0.00130   2.06257
   R12        2.07215  -0.00007  -0.00026   0.00033   0.00007   2.07222
   R13        2.89283   0.00197  -0.00417   0.01299   0.00881   2.90163
   R14        2.07105  -0.00045  -0.00028  -0.00060  -0.00088   2.07017
   R15        2.06573  -0.00020   0.00030  -0.00108  -0.00078   2.06495
   R16        2.71049  -0.00253  -0.00042  -0.00452  -0.00492   2.70557
   R17        2.07054   0.00002  -0.00030   0.00062   0.00033   2.07086
   R18        2.07662   0.00030  -0.00125   0.00317   0.00192   2.07853
    A1        1.94006   0.00241  -0.00312   0.01989   0.01685   1.95691
    A2        1.90934   0.00056   0.00152   0.00319   0.00477   1.91412
    A3        1.89992   0.00147   0.00066   0.01608   0.01681   1.91673
    A4        1.92335  -0.00226   0.00195  -0.02017  -0.01837   1.90498
    A5        1.92036  -0.00336   0.00036  -0.01882  -0.01862   1.90174
    A6        1.86930   0.00118  -0.00129  -0.00046  -0.00217   1.86713
    A7        2.00632   0.00134  -0.00463   0.01521   0.01059   2.01691
    A8        1.89925  -0.00171   0.00298  -0.02071  -0.01771   1.88154
    A9        1.90103  -0.00078   0.00325  -0.01933  -0.01602   1.88501
   A10        1.84753   0.00047   0.00151  -0.00393  -0.00247   1.84507
   A11        1.91738  -0.00035   0.00023   0.00072   0.00091   1.91828
   A12        1.88861   0.00107  -0.00340   0.03006   0.02662   1.91523
   A13        1.78501  -0.00077   0.00043  -0.00696  -0.00660   1.77841
   A14        1.95843   0.00037   0.00093   0.00131   0.00229   1.96071
   A15        1.92849  -0.00030   0.00122  -0.01434  -0.01306   1.91543
   A16        1.98497   0.00024  -0.00150   0.00578   0.00429   1.98926
   A17        1.92684   0.00047  -0.00166   0.01374   0.01204   1.93888
   A18        1.87985  -0.00003   0.00054  -0.00008   0.00040   1.88025
   A19        1.78508  -0.00116   0.00110  -0.00845  -0.00742   1.77765
   A20        1.92742   0.00042  -0.00097   0.00700   0.00604   1.93346
   A21        1.98169   0.00009  -0.00086   0.00026  -0.00055   1.98113
   A22        1.93114   0.00030  -0.00091   0.00016  -0.00072   1.93042
   A23        1.95934   0.00054   0.00063   0.00356   0.00422   1.96355
   A24        1.87913  -0.00019   0.00091  -0.00239  -0.00150   1.87763
   A25        1.86066   0.00023   0.00211  -0.00685  -0.00482   1.85583
   A26        1.96879   0.00032  -0.00149   0.00490   0.00339   1.97218
   A27        1.94776  -0.00045  -0.00036   0.00023  -0.00013   1.94764
   A28        1.90494  -0.00066   0.00105  -0.01239  -0.01131   1.89363
   A29        1.89580   0.00068  -0.00265   0.02015   0.01752   1.91332
   A30        1.88450  -0.00010   0.00127  -0.00548  -0.00418   1.88031
   A31        1.92769   0.00080  -0.00380   0.00882   0.00497   1.93266
   A32        3.13900   0.00131   0.00071   0.12169   0.12240   3.26140
   A33        3.09966   0.00219   0.00532   0.08524   0.09055   3.19022
   A34        3.14683  -0.00063  -0.00065  -0.04909  -0.04974   3.09709
   A35        3.11796   0.00096   0.00300   0.01581   0.01881   3.13677
    D1       -1.26187   0.00061  -0.00133   0.09623   0.09490  -1.16697
    D2        2.95334   0.00037  -0.00233   0.10630   0.10400   3.05734
    D3        0.89798   0.00050  -0.00187   0.09293   0.09102   0.98900
    D4        0.85795   0.00140  -0.00020   0.09986   0.09952   0.95747
    D5       -1.21003   0.00116  -0.00120   0.10992   0.10863  -1.10140
    D6        3.01780   0.00129  -0.00074   0.09655   0.09564   3.11344
    D7        2.91538  -0.00057  -0.00037   0.07558   0.07534   2.99072
    D8        0.84740  -0.00081  -0.00138   0.08565   0.08444   0.93185
    D9       -1.20796  -0.00068  -0.00092   0.07228   0.07146  -1.13650
   D10       -2.63286   0.00039  -0.00099   0.00356   0.00256  -2.63030
   D11        1.51659   0.00039   0.00006   0.00028   0.00035   1.51694
   D12       -0.58167   0.00038  -0.00213   0.00939   0.00728  -0.57439
   D13       -0.53613  -0.00063   0.00099  -0.01609  -0.01511  -0.55124
   D14       -2.66986  -0.00063   0.00203  -0.01937  -0.01733  -2.68718
   D15        1.51507  -0.00063  -0.00015  -0.01026  -0.01040   1.50467
   D16        1.49916   0.00071  -0.00207   0.01743   0.01533   1.51450
   D17       -0.63457   0.00071  -0.00102   0.01415   0.01312  -0.62145
   D18       -2.73282   0.00071  -0.00321   0.02326   0.02005  -2.71278
   D19        2.41354   0.00122  -0.00320   0.00677   0.00367   2.41721
   D20        0.24819   0.00030  -0.00026   0.00274   0.00249   0.25068
   D21       -1.80644  -0.00006   0.00038  -0.01089  -0.01066  -1.81709
   D22        0.60412   0.00004  -0.00186   0.02241   0.02051   0.62463
   D23       -1.45162   0.00013  -0.00097   0.02365   0.02268  -1.42894
   D24        2.71910  -0.00001  -0.00084   0.02144   0.02057   2.73967
   D25        2.71966   0.00011  -0.00124   0.02252   0.02124   2.74089
   D26        0.66392   0.00020  -0.00035   0.02376   0.02340   0.68732
   D27       -1.44855   0.00007  -0.00022   0.02154   0.02130  -1.42725
   D28       -1.44826   0.00059  -0.00277   0.03663   0.03388  -1.41438
   D29        2.77919   0.00068  -0.00188   0.03787   0.03605   2.81524
   D30        0.66672   0.00055  -0.00175   0.03565   0.03394   0.70067
   D31       -0.47691  -0.00049   0.00141  -0.02216  -0.02072  -0.49764
   D32       -2.56744  -0.00001  -0.00039  -0.00527  -0.00565  -2.57308
   D33        1.59051   0.00022  -0.00071  -0.00184  -0.00255   1.58796
   D34        1.57617  -0.00050   0.00048  -0.01854  -0.01805   1.55812
   D35       -0.51436  -0.00002  -0.00132  -0.00165  -0.00297  -0.51733
   D36       -2.63959   0.00021  -0.00164   0.00178   0.00012  -2.63947
   D37       -2.60723  -0.00016   0.00143  -0.01906  -0.01761  -2.62485
   D38        1.58543   0.00031  -0.00037  -0.00218  -0.00254   1.58289
   D39       -0.53981   0.00055  -0.00069   0.00125   0.00056  -0.53925
   D40        0.14755   0.00027  -0.00115   0.01365   0.01249   0.16005
   D41        2.27891   0.00041  -0.00106   0.00839   0.00738   2.28629
   D42       -1.95361   0.00031  -0.00046   0.00630   0.00582  -1.94778
         Item               Value     Threshold  Converged?
 Maximum Force            0.042006     0.000450     NO 
 RMS     Force            0.004460     0.000300     NO 
 Maximum Displacement     0.521607     0.001800     NO 
 RMS     Displacement     0.085098     0.001200     NO 
 Predicted change in Energy=-1.622199D-03
 GradGradGradGradGradGradGradGradGradGradGradGradGradGradGradGradGradGrad

                          Input orientation:                          
 ---------------------------------------------------------------------
 Center     Atomic      Atomic             Coordinates (Angstroms)
 Number     Number       Type             X           Y           Z
 ---------------------------------------------------------------------
      1          6           0        1.021838   -0.008623   -0.052424
      2          6           0        2.221182   -0.012132    0.041833
      3          6           0        3.673012   -0.079007    0.122251
      4          6           0        4.217349    0.650830    1.356520
      5          6           0        4.032081    2.174069    1.360232
      6          6           0        5.236087    2.637566    2.195116
      7          6           0        6.318466    1.634117    1.771744
      8          8           0        5.632131    0.431946    1.406275
      9          1           0       -0.020350   -0.092314   -0.233986
     10          1           0        4.113232    0.362133   -0.779529
     11          1           0        3.995371   -1.125597    0.156552
     12          1           0        3.742157    0.213399    2.247341
     13          1           0        3.066088    2.473513    1.770707
     14          1           0        4.092283    2.557101    0.334496
     15          1           0        5.024274    2.547152    3.266119
     16          1           0        5.527384    3.672994    2.002547
     17          1           0        7.024182    1.400494    2.576903
     18          1           0        6.899313    2.003298    0.913764
 ---------------------------------------------------------------------
                    Distance matrix (angstroms):
                    1          2          3          4          5
     1  C    0.000000
     2  C    1.203048   0.000000
     3  C    2.657855   1.455592   0.000000
     4  C    3.554053   2.480445   1.533749   0.000000
     5  C    3.977600   3.130016   2.595742   1.534468   0.000000
     6  C    5.460188   4.554907   3.757624   2.384992   1.536715
     7  C    5.837846   4.742411   3.557252   2.356683   2.385047
     8  O    4.855585   3.700470   2.397485   1.432478   2.365856
     9  H    1.061190   2.259861   3.710527   4.586946   4.909197
    10  H    3.197321   2.096321   1.096178   2.157984   2.805044
    11  H    3.183269   2.097787   1.095647   2.155201   3.512547
    12  H    3.569082   2.688586   2.146226   1.100325   2.171462
    13  H    3.696453   3.143454   3.098568   2.195251   1.091466
    14  H    4.019984   3.191806   2.677667   2.166574   1.096573
    15  H    5.793462   4.980289   4.313528   2.809578   2.180836
    16  H    6.170669   5.324990   4.588215   3.356637   2.212528
    17  H    6.702769   5.611676   4.409601   3.151134   3.321352
    18  H    6.286976   5.167895   3.920651   3.036138   2.906806
                    6          7          8          9         10
     6  C    0.000000
     7  C    1.535479   0.000000
     8  O    2.375685   1.431726   0.000000
     9  H    6.401790   6.869069   5.908964   0.000000
    10  H    3.909848   3.604164   2.662643   4.194120   0.000000
    11  H    4.456065   3.952421   2.582001   4.164878   1.761669
    12  H    2.848006   2.980268   2.080182   4.517401   3.053156
    13  H    2.217191   3.358951   3.299301   4.486464   3.472483
    14  H    2.185560   2.805971   2.834807   4.925070   2.461580
    15  H    1.095485   2.177549   2.881425   6.683244   4.687385
    16  H    1.092725   2.199113   3.297106   7.068025   4.549898
    17  H    2.207576   1.095854   2.060646   7.730137   4.562616
    18  H    2.193280   1.099913   2.077851   7.320565   3.650057
                   11         12         13         14         15
    11  H    0.000000
    12  H    2.495682   0.000000
    13  H    4.052488   2.406734   0.000000
    14  H    3.688268   3.045407   1.767135   0.000000
    15  H    4.921091   2.850989   2.464990   3.076219   0.000000
    16  H    5.364814   3.900738   2.747814   2.467211   1.765575
    17  H    4.627411   3.505638   4.179454   3.868096   2.406133
    18  H    4.335463   3.866498   3.955891   2.919190   3.056979
                   16         17         18
    16  H    0.000000
    17  H    2.781105   0.000000
    18  H    2.419818   1.773414   0.000000
 Stoichiometry    C7H10O
 Framework group  C1[X(C7H10O)]
 Deg. of freedom    48
 Full point group                 C1      NOp   1
 Largest Abelian subgroup         C1      NOp   1
 Largest concise Abelian subgroup C1      NOp   1
                         Standard orientation:                         
 ---------------------------------------------------------------------
 Center     Atomic      Atomic             Coordinates (Angstroms)
 Number     Number       Type             X           Y           Z
 ---------------------------------------------------------------------
      1          6           0        3.428830    0.509845   -0.116593
      2          6           0        2.400779   -0.087763    0.065885
      3          6           0        1.194616   -0.870960    0.290661
      4          6           0       -0.034963   -0.242341   -0.376693
      5          6           0       -0.491182    1.101117    0.207753
      6          6           0       -2.002291    1.070559   -0.069937
      7          6           0       -2.329808   -0.416106    0.130696
      8          8           0       -1.137678   -1.138619   -0.195859
      9          1           0        4.396191    0.932955   -0.222971
     10          1           0        1.010841   -0.964742    1.367247
     11          1           0        1.332136   -1.885317   -0.099992
     12          1           0        0.180597   -0.130256   -1.449859
     13          1           0        0.026163    1.948179   -0.246271
     14          1           0       -0.288380    1.124435    1.285158
     15          1           0       -2.214366    1.376419   -1.100258
     16          1           0       -2.580452    1.719297    0.592572
     17          1           0       -3.138677   -0.767868   -0.519605
     18          1           0       -2.618514   -0.630256    1.170214
 ---------------------------------------------------------------------
 Rotational constants (GHZ):           5.3894851           1.1798237           1.0199719
 Standard basis: 6-31G(2df,p) (6D, 7F)
 There are   298 symmetry adapted cartesian basis functions of A   symmetry.
 There are   274 symmetry adapted basis functions of A   symmetry.
   274 basis functions,   422 primitive gaussians,   298 cartesian basis functions
    30 alpha electrons       30 beta electrons
       nuclear repulsion energy       358.8682132275 Hartrees.
 NAtoms=   18 NActive=   18 NUniq=   18 SFac= 1.00D+00 NAtFMM=   60 NAOKFM=F Big=F
 Integral buffers will be    131072 words long.
 Raffenetti 2 integral format.
 Two-electron integral symmetry is turned on.
 One-electron integrals computed using PRISM.
 PrsmSu:  requested number of processors reduced to:  13 ShMem   1 Linda.
 NBasis=   274 RedAO= T EigKep=  1.83D-04  NBF=   274
 NBsUse=   274 1.00D-06 EigRej= -1.00D+00 NBFU=   274
 Initial guess from the checkpoint file:  "CtCCC1CCCO1.chk"
 B after Tr=    -0.000000   -0.000000    0.000000
         Rot=    0.999992    0.003816   -0.000747    0.000715 Ang=   0.45 deg.
 ExpMin= 1.61D-01 ExpMax= 5.48D+03 ExpMxC= 8.25D+02 IAcc=2 IRadAn=         4 AccDes= 0.00D+00
 Harris functional with IExCor=  402 and IRadAn=       4 diagonalized for initial guess.
 HarFok:  IExCor=  402 AccDes= 0.00D+00 IRadAn=         4 IDoV= 1 UseB2=F ITyADJ=14
 ICtDFT=  3500011 ScaDFX=  1.000000  1.000000  1.000000  1.000000
 FoFCou: FMM=F IPFlag=           0 FMFlag=      100000 FMFlg1=           0
         NFxFlg=           0 DoJE=T BraDBF=F KetDBF=T FulRan=T
         wScrn=  0.000000 ICntrl=       500 IOpCl=  0 I1Cent=   200000004 NGrid=           0
         NMat0=    1 NMatS0=      1 NMatT0=    0 NMatD0=    1 NMtDS0=    0 NMtDT0=    0
 Petite list used in FoFCou.
 Requested convergence on RMS density matrix=1.00D-08 within 128 cycles.
 Requested convergence on MAX density matrix=1.00D-06.
 Requested convergence on             energy=1.00D-06.
 No special actions if energy rises.
 Integral accuracy reduced to 1.0D-05 until final iterations.
 Initial convergence to 1.0D-05 achieved.  Increase integral accuracy.
 SCF Done:  E(RB3LYP) =  -347.934018145     A.U. after   12 cycles
            NFock= 12  Conv=0.39D-08     -V/T= 2.0080
 PrsmSu:  requested number of processors reduced to:  13 ShMem   1 Linda.
 Calling FoFJK, ICntrl=      2127 FMM=F ISym2X=0 I1Cent= 0 IOpClX= 0 NMat=1 NMatS=1 NMatT=0.
 ***** Axes restored to original set *****
 -------------------------------------------------------------------
 Center     Atomic                   Forces (Hartrees/Bohr)
 Number     Number              X              Y              Z
 -------------------------------------------------------------------
      1        6           0.002614354   -0.001985126   -0.002383452
      2        6          -0.003651764   -0.004224308   -0.003274942
      3        6          -0.002007563    0.003815014    0.001800583
      4        6           0.004316345    0.000815985   -0.001113690
      5        6          -0.000626909   -0.000985931    0.000739622
      6        6           0.000372201    0.000646182   -0.001432943
      7        6          -0.001456484   -0.001984011    0.001356848
      8        8          -0.000932756    0.000909618    0.000472430
      9        1          -0.001258938    0.002664036    0.002634750
     10        1           0.001451782    0.000034268   -0.000025200
     11        1           0.000304590   -0.000018659    0.000383921
     12        1           0.001254756   -0.000215414    0.001099473
     13        1           0.000106522    0.000308452    0.000320158
     14        1           0.000901074    0.000522854    0.000363417
     15        1          -0.000484666   -0.000662785   -0.000493522
     16        1          -0.000220836    0.000096786   -0.000212223
     17        1           0.000195350    0.000597137    0.000067251
     18        1          -0.000877060   -0.000334098   -0.000302481
 -------------------------------------------------------------------
 Cartesian Forces:  Max     0.004316345 RMS     0.001608363

 GradGradGradGradGradGradGradGradGradGradGradGradGradGradGradGradGradGrad
 Berny optimization.
 Using GEDIIS/GDIIS optimizer.
 FormGI is forming the generalized inverse of G from B-inverse, IUseBI=4.
 Internal  Forces:  Max     0.009103878 RMS     0.001410683
 Search for a local minimum.
 Step number   3 out of a maximum of  105
 All quantities printed in internal units (Hartrees-Bohrs-Radians)
 Mixed Optimization -- RFO/linear search
 Update second derivatives using D2CorX and points    1    2    3
 DE= -5.27D-04 DEPred=-1.62D-03 R= 3.25D-01
 Trust test= 3.25D-01 RLast= 3.44D-01 DXMaxT set to 5.05D-01
 ITU=  0  1  0
 Use linear search instead of GDIIS.
     Eigenvalues ---    0.00220   0.00502   0.00527   0.00554   0.00748
     Eigenvalues ---    0.00886   0.01808   0.03358   0.03433   0.04343
     Eigenvalues ---    0.05050   0.05148   0.05512   0.05554   0.05881
     Eigenvalues ---    0.06021   0.06365   0.06791   0.06885   0.07477
     Eigenvalues ---    0.08022   0.09754   0.11267   0.11553   0.14453
     Eigenvalues ---    0.16004   0.16049   0.19634   0.21145   0.21417
     Eigenvalues ---    0.27534   0.28078   0.29828   0.30199   0.30628
     Eigenvalues ---    0.33907   0.34106   0.34138   0.34192   0.34234
     Eigenvalues ---    0.34269   0.34304   0.34312   0.34389   0.37710
     Eigenvalues ---    0.38198   0.39212   0.92584
 RFO step:  Lambda=-3.77525847D-03 EMin= 2.20403224D-03
 Quartic linear search produced a step of -0.39915.
 Iteration  1 RMS(Cart)=  0.10514326 RMS(Int)=  0.02017872
 Iteration  2 RMS(Cart)=  0.07425389 RMS(Int)=  0.00454850
 Iteration  3 RMS(Cart)=  0.00573807 RMS(Int)=  0.00023929
 Iteration  4 RMS(Cart)=  0.00002240 RMS(Int)=  0.00023890
 Iteration  5 RMS(Cart)=  0.00000000 RMS(Int)=  0.00023890
 Variable       Old X    -DE/DX   Delta X   Delta X   Delta X     New X
                                 (Linear)    (Quad)   (Total)
    R1        2.27343  -0.00136  -0.01501   0.05583   0.04082   2.31425
    R2        2.00536   0.00058   0.00192  -0.01046  -0.00853   1.99683
    R3        2.75067   0.00230   0.01194  -0.07215  -0.06022   2.69045
    R4        2.89836   0.00146  -0.00091   0.00817   0.00726   2.90563
    R5        2.07148   0.00062  -0.00066   0.00440   0.00373   2.07521
    R6        2.07047   0.00012   0.00009  -0.00045  -0.00036   2.07012
    R7        2.89972  -0.00043  -0.00171   0.01122   0.00947   2.90920
    R8        2.70699  -0.00184   0.00239  -0.01682  -0.01442   2.69257
    R9        2.07931   0.00043  -0.00083   0.00547   0.00464   2.08395
   R10        2.90397  -0.00186  -0.00391   0.02442   0.02050   2.92447
   R11        2.06257   0.00010   0.00052  -0.00332  -0.00280   2.05977
   R12        2.07222  -0.00011  -0.00003   0.00023   0.00020   2.07242
   R13        2.90163  -0.00077  -0.00352   0.02271   0.01921   2.92084
   R14        2.07017  -0.00033   0.00035  -0.00218  -0.00182   2.06834
   R15        2.06495   0.00007   0.00031  -0.00189  -0.00158   2.06337
   R16        2.70557  -0.00149   0.00196  -0.01278  -0.01078   2.69479
   R17        2.07086   0.00005  -0.00013   0.00103   0.00090   2.07177
   R18        2.07853  -0.00034  -0.00077   0.00485   0.00408   2.08262
    A1        1.95691   0.00294  -0.00672   0.04565   0.03919   1.99610
    A2        1.91412   0.00005  -0.00191   0.01352   0.01190   1.92601
    A3        1.91673  -0.00078  -0.00671   0.03318   0.02670   1.94343
    A4        1.90498  -0.00139   0.00733  -0.04410  -0.03723   1.86775
    A5        1.90174  -0.00126   0.00743  -0.04611  -0.03916   1.86257
    A6        1.86713   0.00031   0.00087  -0.00527  -0.00595   1.86118
    A7        2.01691  -0.00081  -0.00423   0.02678   0.02267   2.03958
    A8        1.88154   0.00037   0.00707  -0.03662  -0.02948   1.85206
    A9        1.88501   0.00065   0.00640  -0.03271  -0.02623   1.85878
   A10        1.84507   0.00055   0.00098  -0.00308  -0.00208   1.84299
   A11        1.91828   0.00003  -0.00036   0.00038   0.00005   1.91834
   A12        1.91523  -0.00084  -0.01062   0.04859   0.03773   1.95296
   A13        1.77841  -0.00018   0.00263  -0.01326  -0.01079   1.76762
   A14        1.96071   0.00055  -0.00091   0.00485   0.00405   1.96477
[...]
 838056,-0.1262744,-0.3490219,0.2192033,0.0094226,0.0097099,0.0004503,0
 .2010813,-0.0003142,-0.0007893,0.0014183,0.2000458,-0.0648666,-0.03193
 72,0.0379145,-0.0491569,0.0338587,0.0665057,0.0302708,0.0295893,-0.039
 836,-0.0290395,0.0313025,-0.0192384,0.031853,-0.077925,-0.0172785,-0.0
 372556,-0.0051875,0.0548159,-0.0833244,-0.0591968,0.0421563,-0.0508049
 ,-0.0525544,0.0404222,0.0646163,0.057206,-0.1400415,-0.1019265,0.05396
 57,0.0269632,0.0237917,0.0446307,-0.0041259,0.0449623,-0.0144942,0.036
 8575,0.0253046,-0.0203403,0.0107064,-0.0004494,0.0068873,0.0291146,-0.
 0175979,0.057653,-0.1305874,-0.0084808,0.0074428,0.0340497,0.0051693,0
 .0334745,0.0264487,0.0143822,-0.0193009,-0.1463454,0.019798,-0.0700671
 ,-0.013236,-0.0595026,-0.1372589,-0.0123095,-0.0004771,0.0243305,0.038
 5935,-0.1289012,-0.0112331,-0.0965607,0.0103447,-0.0001899,0.0117365,-
 0.1403863,0.0109132,-0.0709302,-0.0863006,-0.0431653,0.0521357,-0.0970
 038,-0.0514974,0.0294971,0.1337186,0.0588921,-0.1224439\Polar=95.37827
 46,6.7597547,63.4167432,8.6646767,4.6805352,60.9579998\Quadrupole=1.15
 17099,-0.7786336,-0.3730764,1.4506304,-0.0934778,0.4359595\PG=C01 [X(C
 7H10O1)]\NImag=0\\1.53110956,-0.08233191,0.04416730,0.10686106,-0.0043
 6404,0.04886943,-1.10218083,0.06076466,-0.07481701,1.43123543,0.060038
 77,-0.03075119,0.00314420,-0.07151465,0.09637118,-0.07610035,0.0032308
 1,-0.03348535,0.10102094,-0.00314431,0.10151558,-0.00328208,0.00038910
 ,-0.00045650,-0.27197179,0.01043853,-0.01653646,0.52368167,0.00088619,
 0.00500924,0.00074135,0.01069863,-0.06777418,0.00078843,-0.01845949,0.
 53410489,0.00004147,0.00063089,0.00551363,-0.01653089,0.00068355,-0.07
 023985,-0.03629186,-0.04729710,0.48378366,0.00202852,0.00067119,0.0010
 9213,-0.02455605,-0.01552595,-0.02666725,-0.06578616,-0.01392905,-0.02
 000379,0.45254569,0.00443081,-0.00059256,-0.00080423,-0.00544741,0.001
 26069,0.00573160,-0.00493695,-0.09831526,-0.04054947,0.06385620,0.5109
 1602,0.00788898,-0.00145823,-0.00058887,-0.01222641,0.00416312,0.00119
 175,-0.00892808,-0.03842789,-0.14455777,-0.04481907,-0.02238241,0.5385
 6668,-0.00050966,0.00025907,0.00024410,0.00174013,-0.00044393,0.000375
 22,0.00464549,-0.01263131,0.00135436,-0.06997433,0.00230770,0.00315507
 ,0.57355214,0.00051122,-0.00029228,-0.00016903,-0.00055571,-0.00037543
 ,-0.00010813,-0.00060203,-0.01692356,-0.00232130,0.01088919,-0.1664714
 8,0.00761862,-0.05934726,0.43771316,-0.00032483,-0.00012129,-0.0002434
 8,0.00088532,-0.00069377,0.00022115,0.00434595,-0.02597556,0.00014320,
 0.00277552,0.01287747,-0.08131033,-0.05284539,-0.03969355,0.55773833,0
 .00005874,-0.00001168,-0.00004645,-0.00023626,-0.00007635,-0.00013600,
 -0.00150725,0.00081281,0.00030267,0.00005585,-0.01713727,-0.00544760,-
 0.13137853,-0.02610635,-0.04010639,0.41242258,-0.00057845,0.00030085,0
 .00007740,0.00110742,0.00022937,0.00036034,0.00227956,-0.00549831,0.00
 116737,-0.01959304,-0.02679439,-0.02212124,-0.02484275,-0.08039491,-0.
 01596034,0.05091745,0.59055832,0.00006231,0.00011602,0.00011962,0.0000
 7799,0.00014164,0.00007443,-0.00004271,0.00017521,-0.00041424,-0.00002
 337,-0.01075132,0.00146449,-0.04116143,-0.01289113,-0.11048172,-0.0373
 8680,-0.01692392,0.56153245,0.00059869,-0.00008116,0.00001080,-0.00066
 645,-0.00027112,-0.00072281,-0.00308784,0.00082147,0.00124080,-0.03918
 655,-0.02977032,-0.01173455,-0.04018013,0.01177125,-0.00045738,-0.1287
 6473,0.04000711,0.02622121,0.58041821,0.00149755,-0.00029382,-0.000036
 51,-0.00007196,0.00111874,0.00155060,0.00369741,-0.00165106,0.00122079
 ,-0.02813996,0.00288463,-0.00389027,0.01139823,0.00313460,0.00505164,0
 .05114245,-0.10439914,-0.01548504,-0.00836105,0.40582548,-0.00020820,-
 0.00000420,0.00008772,-0.00033037,-0.00051768,-0.00112935,-0.00428474,
 -0.00021056,-0.00040622,-0.01195524,-0.00036068,-0.00977237,-0.0144243
 3,0.00711125,0.00829452,0.02627590,-0.01366116,-0.09091107,0.02361861,
 -0.06072331,0.57033749,-0.00155329,0.00013445,-0.00016336,-0.00052806,
 -0.00265382,-0.00506267,-0.03241343,0.00107339,-0.00871026,-0.17519969
 ,0.03750956,0.00945384,-0.03065515,0.02035935,0.00202052,0.00251546,0.
 00513426,-0.00122557,-0.10634021,-0.05620149,-0.01267653,0.40586362,-0
 .00193434,0.00048148,0.00012178,-0.00159645,-0.00129747,-0.00507645,-0
 .01996353,0.00375632,-0.00054956,0.00140480,-0.09300343,-0.00713100,0.
 02987008,-0.01473206,-0.00518812,-0.00324358,-0.04647543,-0.00751397,-
 0.01977309,-0.16497761,-0.01641263,0.04248148,0.33985936,-0.00150001,0
 .00026642,0.00001629,-0.00264973,-0.00357437,-0.00277176,-0.02887653,0
 .00188128,0.00108339,0.00054000,-0.00237758,-0.05775296,-0.00666004,-0
 .00000429,0.00276337,-0.00557615,-0.01855957,0.00045853,-0.00332413,-0
 .02316583,-0.05809310,0.02736695,0.05627776,0.08018008,-0.42410155,0.0
 2094890,-0.03146830,0.00660694,-0.00049278,0.00055192,0.00091837,0.000
 30388,-0.00042428,-0.00027769,-0.00015377,-0.00034400,0.00000968,-0.00
 003030,0.00004359,-0.00001479,0.00001382,-0.00004135,-0.00009026,-0.00
 015302,-0.00001187,0.00025045,0.00014549,0.00011454,0.41636445,0.02032
 249,-0.01893504,0.00087488,0.00009351,-0.00137697,0.00071667,0.0003873
 8,0.00665219,-0.00028409,0.00052800,0.00006169,-0.00021265,-0.00005830
 ,0.00003749,0.00002638,0.00000531,-0.00004847,-0.00002081,0.00001884,-
 0.00004146,0.00004258,0.00017583,-0.00001376,0.00015837,-0.02065239,0.
 01376680,-0.03246066,0.00099356,-0.02138243,0.00150659,0.00060853,-0.0
 0044839,-0.00035739,-0.00029137,0.00644401,0.00063871,-0.00030776,-0.0
 0015747,-0.00006726,0.00001210,0.00002456,0.00001296,-0.00002271,-0.00
 001508,0.00001075,-0.00010424,0.00008679,0.00035197,0.00022108,0.00006
 850,0.03146554,-0.00135071,0.01558009,-0.00061835,0.00056747,-0.000965
 55,-0.02279569,-0.01306423,0.02638088,-0.09157574,-0.04387792,0.090738
 79,0.00393912,0.00343519,-0.00874892,-0.00001031,0.00043882,0.00034976
 ,0.00014984,0.00007563,-0.00019848,0.00000638,-0.00023799,-0.00012606,
 0.00134916,0.00044680,0.00081258,0.00024151,0.00061676,-0.00119619,0.1
 0532497,0.00091281,0.00054502,0.00032941,-0.00026943,0.00048491,-0.003
 56083,-0.04371635,-0.08616652,0.08360948,0.00657560,0.00485246,-0.0149
 7371,0.00076729,0.00183736,-0.00131835,-0.00005707,-0.00001719,-0.0000
 4283,0.00005991,0.00003935,0.00015375,0.00112050,0.00014579,0.00126166
 ,-0.00000215,0.00002079,0.00017936,0.04899441,0.09168558,-0.00216797,0
 .00059478,-0.00033581,0.00125834,-0.00357279,0.00597484,0.08778053,0.0
 8258687,-0.20986616,0.01265199,0.00989216,-0.02801304,-0.00002664,0.00
 195346,0.00096942,-0.00003491,-0.00005410,0.00028196,-0.00013632,-0.00
 016441,-0.00016887,0.00019508,0.00033059,0.00391423,0.00008595,0.00017
 335,-0.00024739,-0.09783204,-0.08831771,0.23204806,-0.00102541,-0.0010
 6600,-0.00005287,-0.01801699,0.03344331,-0.00286754,-0.06483186,0.0724
 8411,-0.00392933,0.00288022,-0.01041585,0.00095512,-0.00085989,-0.0008
 6307,-0.00183563,0.00019931,-0.00062031,-0.00013017,0.00000993,-0.0001
 6143,0.00005104,0.00092270,-0.00006064,0.00063187,0.00002598,-0.001427
 82,0.00006849,0.00436857,-0.01326600,0.00073490,0.07643730,-0.00233487
 ,0.00004609,-0.00012067,0.00532767,0.00246621,0.00042930,0.06922470,-0
 .27981671,0.01734367,0.00366273,-0.01781072,0.00036936,-0.00132489,0.0
 0026003,-0.00275861,0.00054140,-0.00059561,0.00005246,-0.00026358,-0.0
 0054110,0.00006386,0.00081645,0.00200164,0.00089805,0.00003967,-0.0001
 3069,0.00000095,0.00319584,-0.01234730,0.00097745,-0.07859944,0.305002
 10,-0.00012920,-0.00017665,0.00075713,-0.00143425,0.00271870,-0.001417
 31,-0.00422886,0.01871063,-0.04605061,0.00688939,-0.02925550,-0.000253
 12,-0.00312078,-0.00047993,-0.00408770,0.00030942,-0.00159909,0.000439
 36,0.00017072,-0.00039722,0.00012763,0.00207580,0.00170062,0.00094168,
 0.00001450,-0.00011613,0.00011727,-0.00731043,0.02495774,-0.00208724,0
 .00660863,-0.01661639,0.05017098,-0.00007374,-0.00002404,0.00014662,0.
 00132926,0.00054021,0.00013154,0.00561335,0.00287321,-0.00866937,-0.07
 943096,-0.03978780,0.07720690,0.00344873,0.00277667,-0.00394495,-0.000
 07460,0.00018111,-0.00001118,-0.00035322,0.00424056,0.00507647,-0.0383
 8059,-0.01151864,0.02013920,-0.00001544,-0.00001537,-0.00002909,-0.000
 38571,-0.00110029,-0.00245343,0.00012792,0.00004377,0.00057983,0.10742
 206,-0.00031365,0.00000482,0.00010644,0.00131755,0.00031857,0.00023697
 ,0.00373576,0.00553106,-0.01623541,-0.04026549,-0.09307694,0.08024308,
 -0.00992252,-0.01478494,0.02804189,0.00020388,0.00103116,0.00063824,0.
 00000861,-0.00095009,-0.00089206,0.00282513,0.00750034,-0.00388108,0.0
 0000741,-0.00002150,0.00000503,-0.00102030,-0.00082898,-0.00331172,0.0
 0049330,0.00108971,0.00058585,0.04320395,0.09885576,-0.00136119,0.0000
 3717,0.00049153,0.00244986,0.00006409,0.00042471,0.00837228,0.01000710
 ,-0.02669431,0.07674132,0.07957219,-0.21324795,-0.00025600,0.00008485,
 -0.00032972,0.00054791,0.00006381,0.00010451,-0.00091997,-0.00084971,-
 0.00047206,0.00282703,-0.00299772,0.01094091,0.00001113,0.00002574,-0.
 00001975,-0.00196684,-0.00293213,-0.00371590,0.00037025,-0.00006616,0.
 00131089,-0.08648825,-0.08393912,0.22921893,0.00010349,-0.00031106,-0.
 00019974,-0.00039897,-0.00018443,-0.00009635,-0.00018413,0.00041377,-0
 .00001960,-0.00170484,-0.00172980,0.00015478,-0.25583202,0.06543340,0.
 09341307,-0.01780385,0.00730976,0.00935619,-0.00249369,-0.00110863,-0.
 00293467,0.00013921,-0.00052298,-0.00057182,0.00000601,0.00000610,-0.0
 0000318,0.00004646,-0.00001860,-0.00004733,0.00000428,0.00001515,0.000
 10087,0.00071553,0.00028652,-0.00030607,0.27773928,-0.00047963,0.00014
 418,0.00016011,0.00023937,-0.00017339,-0.00019682,0.00011019,-0.000841
 17,0.00017162,0.02738298,-0.00257145,-0.01247222,0.06271666,-0.0659408
 8,-0.02639994,-0.01236434,0.00414980,0.00593319,-0.00275591,-0.0042958
 3,-0.00262718,0.00544546,-0.00525333,0.00084142,-0.00002592,0.00000142
 ,-0.00002198,-0.00000558,-0.00004456,0.00013832,-0.00026839,-0.0003355
 1,-0.00007818,-0.00040062,0.00137346,0.00056919,-0.07055187,0.06932019
 ,-0.00043769,0.00029994,0.00005616,0.00050821,-0.00001185,0.00008288,0
 .00039380,-0.00038661,-0.00026937,-0.00023423,0.00144427,-0.00171607,0
 .09568627,-0.02827854,-0.08783660,-0.01655851,0.00635857,0.00663728,-0
 .00351459,-0.00057416,-0.00162461,-0.00185620,-0.00001032,0.00065450,-
 0.00003220,-0.00004304,-0.00000617,-0.00011651,-0.00001195,0.00031264,
 -0.00023419,-0.00022539,0.00006811,-0.00046598,-0.00009697,0.00060825,
 -0.09958001,0.02901097,0.09274160,-0.00013904,0.00012281,-0.00012442,0
 .00011355,0.00002944,0.00009516,0.00032159,-0.00017082,0.00000696,-0.0
 0092101,-0.00066137,-0.00229505,-0.05124732,-0.00327628,0.01718637,0.0
 0163128,0.00798646,-0.02478580,0.00097754,-0.00015598,-0.00052638,0.00
 031429,0.00048881,0.00073159,-0.00001023,-0.00001314,0.00002349,0.0000
 3793,-0.00005664,0.00001359,-0.00002951,0.00001773,-0.00004339,0.00103
 402,-0.00028215,-0.00034612,-0.00091755,-0.01013493,0.02658406,0.05137
 374,0.00001499,0.00004164,-0.00004937,-0.00017662,-0.00002332,-0.00014
 452,-0.00039087,0.00180989,0.00191819,-0.00548043,-0.01458451,0.032581
 99,-0.00284075,-0.07587152,0.08128532,0.00021317,0.00329214,-0.0139513
 6,0.00002941,-0.00019939,0.00008165,0.00071353,0.00079236,-0.00145331,
 -0.00001640,0.00001230,0.00002181,0.00038770,-0.00018069,-0.00124235,0
 .00030850,0.00051041,-0.00007027,0.00159711,-0.00604951,-0.00013412,0.
 00023962,0.00317490,-0.00842031,0.00701520,0.08613376,0.00006172,-0.00
 006200,0.00007616,0.00003840,0.00003654,0.00012909,-0.00062668,-0.0012
 6809,0.00115419,0.00135847,-0.00008762,-0.00074916,0.01719547,0.082311
 30,-0.27097327,0.00109128,0.00430206,-0.01775074,0.00063011,0.00019033
 ,-0.00020117,-0.00085215,0.00032660,0.00031945,0.00000016,0.00001404,-
 0.00002846,0.00020098,0.00053446,0.00072699,-0.00017239,-0.00017742,0.
 00023789,-0.00055934,-0.00040570,0.00103377,0.00034829,0.00438293,-0.0
 1152184,-0.01493120,-0.08885908,0.29616028,0.00001686,-0.00003619,0.00
 001869,0.00001058,0.00002439,0.00002795,-0.00000644,-0.00005230,0.0000
 4857,-0.00008924,0.00094428,-0.00033805,0.00352943,0.00351294,-0.02874
 841,-0.05430836,-0.00597065,0.04859183,-0.00922881,-0.00331262,0.02625
 416,0.00123567,0.00019717,-0.00060586,0.00000695,0.00000057,-0.0000077
 1,-0.00009147,0.00004535,0.00016477,-0.00006503,-0.00012936,0.00002482
 ,0.00027151,-0.00040214,0.00022344,0.00157829,0.00104625,0.00057421,-0
 .00369684,-0.00297836,-0.00350136,0.06417468,0.00001378,-0.00000245,0.
 00000994,-0.00001724,-0.00001884,-0.00001344,-0.00008775,-0.00000995,-
 0.00002039,0.00020724,0.00071082,-0.00038575,0.00235802,0.00073774,-0.
 00837040,-0.00662307,-0.05427005,0.02492784,0.00484253,0.00245285,-0.0
 2110203,0.00002997,-0.00009613,0.00138236,-0.00000338,0.00000201,-0.00
 000176,-0.00001514,-0.00006014,0.00008344,-0.00001292,-0.00001828,0.00
 002652,-0.00034431,-0.00017599,-0.00000966,0.00023300,0.00046044,0.000
 42163,-0.00089840,0.00022511,-0.00099172,0.00424124,0.05282418,-0.0000
 5466,-0.00003856,0.00001784,0.00003781,-0.00000883,-0.00000819,-0.0001
 1971,-0.00026485,0.00023581,0.00052383,0.00080142,-0.00034394,0.001962
 91,0.00267677,-0.01736295,0.04918342,0.02383681,-0.29368412,0.00185484
 ,0.00229341,-0.00721335,-0.00036876,-0.00105448,0.00037690,0.00001924,
 0.00000425,-0.00001108,0.00000636,0.00013282,0.00019336,-0.00005213,-0
 .00009003,-0.00003526,-0.00019248,-0.00065703,0.00027914,-0.00005136,0
 .00022209,0.00129156,-0.00283853,-0.00180191,-0.00042329,-0.05168381,-
 0.02502734,0.31990504,-0.00011341,0.00001993,-0.00001504,0.00031259,0.
 00003710,0.00012647,0.00079767,-0.00135549,0.00035774,-0.00646249,0.00
 039862,-0.00319924,-0.00488650,-0.02564212,0.00578857,-0.06239437,-0.0
 6315213,0.01434816,0.00866914,0.02062627,-0.00582850,-0.00096348,0.005
 70226,0.00211019,0.00002122,-0.00000993,-0.00000098,-0.00001907,0.0000
 0585,-0.00008444,-0.00020927,-0.00029310,-0.00051826,0.00016930,0.0001
 5481,0.00005263,-0.00038336,-0.00002894,0.00017924,0.00156336,0.001078
 03,0.00038124,-0.00159409,-0.00566518,0.00113089,0.06532778,-0.0001616
 7,0.00001633,-0.00001688,0.00011269,-0.00001410,-0.00003859,-0.0000031
 7,-0.00035646,0.00019542,0.00146048,-0.00031838,-0.00079153,-0.0001085
 1,-0.00478629,0.00162019,-0.06210135,-0.28639147,0.04943527,-0.0084834
 7,-0.01460914,0.00498931,0.00041676,-0.00299770,-0.00193942,0.00002635
 ,-0.00000474,0.00000779,0.00001387,-0.00001005,-0.00001931,-0.00008696
 ,0.00001337,-0.00013653,-0.00009868,-0.00004346,0.00017173,-0.00035981
 ,-0.00012209,-0.00023088,0.00015984,0.00065089,-0.00037291,-0.00051134
 ,-0.00211754,0.00054052,0.06888329,0.31028303,-0.00009643,0.00002254,-
 0.00000308,0.00016515,-0.00001357,-0.00000826,0.00009093,-0.00092652,0
 .00027601,-0.00165864,-0.00190857,-0.00162281,-0.00317027,-0.01702242,
 0.00242963,0.01518269,0.05297166,-0.05757529,-0.00317541,-0.00714382,0
 .00023561,-0.00071668,-0.00332100,-0.00038262,0.00000893,-0.00000531,0
 .00000114,0.00004179,0.00006579,-0.00000102,-0.00014581,-0.00010498,-0
 .00030630,-0.00011814,-0.00041423,0.00011157,-0.00011135,0.00024884,0.
 00006320,0.00067184,-0.00008887,0.00109053,0.00778320,0.03030696,-0.00
 578197,-0.01459937,-0.05262071,0.06080934,-0.00023673,-0.00001836,-0.0
 0002101,-0.00002425,-0.00029481,-0.00038008,-0.00121916,0.00004704,0.0
 0014739,0.00100877,-0.00105889,-0.00264358,-0.00230002,0.00129903,0.00
 112505,-0.01188225,0.00473423,-0.01412686,-0.15640672,0.03363879,-0.11
 777661,-0.01508982,-0.00527824,-0.01082419,0.00003970,0.00002286,0.000
 02633,0.00001560,0.00004814,0.00004123,0.00002033,0.00001835,0.0000140
 7,-0.00029827,-0.00004479,0.00013993,-0.00062902,-0.00022437,-0.000568
 09,-0.00000527,0.00007011,-0.00016621,0.00108818,-0.00074393,0.0000142
 2,-0.00112532,0.00088427,0.00019143,0.17658279,-0.00033101,0.00009616,
 0.00004014,-0.00006566,-0.00036877,-0.00061698,-0.00190783,0.00038303,
 -0.00001505,0.00173243,-0.00346026,-0.00442907,0.00245754,-0.00342501,
 -0.00207934,0.01353390,-0.00068826,0.01598717,0.04010303,-0.05821359,0
 .04365329,-0.03102774,-0.00285378,-0.02127694,0.00001658,0.00001530,0.
 00003515,0.00003999,0.00002240,0.00003469,0.00005119,0.00012989,0.0001
 4779,-0.00019817,-0.00006282,0.00019309,0.00089136,0.00089835,0.000634
 42,-0.00025494,-0.00004801,-0.00009564,-0.00105339,0.00108655,-0.00029
 942,0.00006107,-0.00047533,-0.00003438,-0.03074199,0.06596274,-0.00014
 417,0.00003189,0.00001847,0.00000227,-0.00010406,-0.00016499,-0.000436
 15,0.00021563,-0.00005115,0.00317726,-0.00053965,-0.00153321,0.0017650
 3,-0.00127856,-0.00012415,0.00946557,-0.00170412,0.00802325,-0.1219223
 1,0.04106092,-0.18702492,-0.00827728,-0.00805376,0.00163604,0.00001998
 ,0.00000463,0.00000605,0.00000698,0.00000253,0.00005564,0.00000533,0.0
 0003226,0.00006240,-0.00005115,-0.00003723,0.00003153,0.00039977,0.000
 23412,0.00034966,0.00028911,0.00007924,0.00029447,-0.00038542,0.000234
 42,0.00151856,-0.00028509,-0.00023428,0.00008241,0.13373169,-0.0384534
 2,0.19727865,-0.00008176,0.00000281,-0.00004316,0.00002688,-0.00002969
 ,-0.00014059,-0.00011226,0.00006188,0.00034061,0.00113083,-0.00178292,
 0.00190986,0.00090823,-0.00056875,0.00032925,-0.00866806,-0.00498948,0
 .02047602,-0.10388130,-0.02833713,0.08980732,-0.01146682,-0.01684540,0
 .00814152,0.00001870,-0.00000069,0.00001762,0.00001680,-0.00004332,-0.
 00014330,0.00004141,0.00004175,-0.00000285,-0.00111914,0.00001414,-0.0
 0009136,0.00001488,0.00029958,-0.00032759,-0.00040052,0.00021607,-0.00
 049680,-0.00283186,0.00248555,0.00062789,0.00129032,-0.00004258,-0.000
 34384,0.01046146,0.00669363,-0.01736142,0.11465222,-0.00016308,0.00001
 421,-0.00004491,0.00005361,-0.00007604,-0.00014464,-0.00019468,0.00010
 654,0.00033138,0.00456309,-0.00368693,0.00369980,-0.00061437,0.0002779
 8,-0.00034362,0.01035070,0.00601158,-0.01982665,-0.02790246,-0.0652834
 5,0.06041581,-0.02835307,-0.02283661,0.01326507,0.00002802,0.00000264,
 0.00001517,0.00000868,0.00002177,-0.00008271,0.00006842,0.00007645,0.0
 0007805,-0.00196866,0.00028934,0.00013967,-0.00004149,0.00005546,0.000
 12023,0.00008436,0.00031353,0.00022190,0.00443415,-0.00173034,-0.00126
 564,-0.00082033,0.00128312,-0.00001138,-0.00235744,0.00100138,0.008509
 44,0.04282455,0.08415935,0.00006980,0.00000097,0.00001505,0.00003776,0
 .00008086,0.00005903,0.00020219,-0.00005794,-0.00008422,-0.00102703,-0
 .00099430,0.00039617,-0.00000629,0.00047855,0.00016575,0.00292099,0.00
 146823,-0.00830360,0.09214962,0.06116683,-0.22215267,-0.00438173,-0.00
 166943,0.01564657,-0.00001351,-0.00000814,-0.00001220,-0.00007710,-0.0
 0006950,-0.00004169,-0.00000557,-0.00000771,0.00000420,-0.00029721,0.0
 0001306,-0.00007605,0.00014850,-0.00011647,0.00010882,0.00028872,0.000
 24727,0.00042512,0.00155899,-0.00147061,0.00104593,0.00005579,-0.00055
 920,0.00058191,0.01107528,0.00657451,-0.02045871,-0.10269920,-0.065076
 97,0.23268059\\0.00002337,-0.00000236,0.00000187,-0.00001556,0.0000029
 1,-0.00000313,0.00000968,0.00000796,0.00000903,-0.00000314,0.00000514,
 0.00000275,-0.00000138,-0.00000813,-0.00000068,0.00000321,0.00000378,0
 .00000491,-0.00000894,-0.00000203,-0.00000795,0.00000696,-0.00000657,-
 0.00000538,-0.00000333,0.00000034,0.00000195,-0.00000500,0.00000057,-0
 .00000884,0.00000116,0.00000246,0.00000195,-0.00000167,-0.00000236,0.0
 0000328,0.00000098,-0.00000064,0.00000384,0.00000215,0.00000420,0.0000
 0137,-0.00000251,-0.00000244,0.00000064,-0.00000226,-0.00000025,0.0000
 0044,-0.00000417,-0.00000408,-0.00000363,0.00000044,0.00000151,-0.0000
 0243\\\@


 THEREFORE SHALL EVIL COME UPON THEE...
 THOU SHALT NOT KNOW FROM WHENCE IT RISETH...
 AND MISCHIEF SHALL FALL UPON THEE...
 THOU SHALT NOT BE ABLE TO PUT IT OFF...
 AND DESOLATION SHALL COME UPON THEE SUDDENLY...
 WHICH THOU SHALT NOT KNOW...

                                         ISAIAH 47.11
 Job cpu time:       0 days  1 hours 24 minutes 29.4 seconds.
 Elapsed time:       0 days  0 hours 21 minutes  7.9 seconds.
 File lengths (MBytes):  RWF=    109 Int=      0 D2E=      0 Chk=      7 Scr=      1
 Normal termination of Gaussian 16 at Thu Aug  4 14:19:08 2022.
### All Done ###
