### Starting Gaussian ###
 Entering Gaussian System, Link 0=g16
 Initial command:
 /cluster/software/gaussian/gaussian-16-A.03/avx2/g16/l1.exe "/local/scratch/ks29c/Gau-26948.inp" -scrdir="/local/scratch/ks29c/"
 Entering Link 1 = /cluster/software/gaussian/gaussian-16-A.03/avx2/g16/l1.exe PID=     26949.
  
 Copyright (c) 1988,1990,1992,1993,1995,1998,2003,2009,2016,
            Gaussian, Inc.  All Rights Reserved.
  
 This is part of the Gaussian(R) 16 program.  It is based on
 the Gaussian(R) 09 system (copyright 2009, Gaussian, Inc.),
 the Gaussian(R) 03 system (copyright 2003, Gaussian, Inc.),
 the Gaussian(R) 98 system (copyright 1998, Gaussian, Inc.),
 the Gaussian(R) 94 system (copyright 1995, Gaussian, Inc.),
 the Gaussian 92(TM) system (copyright 1992, Gaussian, Inc.),
 the Gaussian 90(TM) system (copyright 1990, Gaussian, Inc.),
 the Gaussian 88(TM) system (copyright 1988, Gaussian, Inc.),
 the Gaussian 86(TM) system (copyright 1986, Carnegie Mellon
 University), and the Gaussian 82(TM) system (copyright 1983,
 Carnegie Mellon University). Gaussian is a federally registered
 trademark of Gaussian, Inc.
  
 This software contains proprietary and confidential information,
 including trade secrets, belonging to Gaussian, Inc.
  
 This software is provided under written license and may be
 used, copied, transmitted, or stored only in accord with that
 written license.
  
 The following legend is applicable only to US Government
 contracts under FAR:
  
                    RESTRICTED RIGHTS LEGEND
  
 Use, reproduction and disclosure by the US Government is
 subject to restrictions as set forth in subparagraphs (a)
 and (c) of the Commercial Computer Software - Restricted
 Rights clause in FAR 52.227-19.
  
 Gaussian, Inc.
 340 Quinnipiac St., Bldg. 40, Wallingford CT 06492
  
  
 ---------------------------------------------------------------
 Warning -- This program may not be used in any manner that
 competes with the business of Gaussian, Inc. or will provide
 assistance to any competitor of Gaussian, Inc.  The licensee
 of this program is prohibited from giving any competitor of
 Gaussian, Inc. access to this program.  By using this program,
 the user acknowledges that Gaussian, Inc. is engaged in the
 business of creating and licensing software in the field of
 computational chemistry and represents and warrants to the
 licensee that it is not a competitor of Gaussian, Inc. and that
 it will not use this program in any manner prohibited above.
 ---------------------------------------------------------------
  

 Cite this work as:
 Gaussian 16, Revision A.03,
 M. J. Frisch, G. W. Trucks, H. B. Schlegel, G. E. Scuseria, 
 M. A. Robb, J. R. Cheeseman, G. Scalmani, V. Barone, 
 G. A. Petersson, H. Nakatsuji, X. Li, M. Caricato, A. V. Marenich, 
 J. Bloino, B. G. Janesko, R. Gomperts, B. Mennucci, H. P. Hratchian, 
 J. V. Ortiz, A. F. Izmaylov, J. L. Sonnenberg, D. Williams-Young, 
 F. Ding, F. Lipparini, F. Egidi, J. Goings, B. Peng, A. Petrone, 
 T. Henderson, D. Ranasinghe, V. G. Zakrzewski, J. Gao, N. Rega, 
 G. Zheng, W. Liang, M. Hada, M. Ehara, K. Toyota, R. Fukuda, 
 J. Hasegawa, M. Ishida, T. Nakajima, Y. Honda, O. Kitao, H. Nakai, 
 T. Vreven, K. Throssell, J. A. Montgomery, Jr., J. E. Peralta, 
 F. Ogliaro, M. J. Bearpark, J. J. Heyd, E. N. Brothers, K. N. Kudin, 
 V. N. Staroverov, T. A. Keith, R. Kobayashi, J. Normand, 
 K. Raghavachari, A. P. Rendell, J. C. Burant, S. S. Iyengar, 
 J. Tomasi, M. Cossi, J. M. Millam, M. Klene, C. Adamo, R. Cammi, 
 J. W. Ochterski, R. L. Martin, K. Morokuma, O. Farkas, 
 J. B. Foresman, and D. J. Fox, Gaussian, Inc., Wallingford CT, 2016.
 
 ******************************************
 Gaussian 16:  ES64L-G16RevA.03 25-Dec-2016
                 3-Jul-2022 
 ******************************************
 %chk=CtCC1dCCpdOpCdN1.chk
 %NProcShared=20
 Will use up to   20 processors via shared memory.
 -----------------------------
 # opt freq b3lyp/6-31g(2df,p)
 -----------------------------
 1/18=20,19=15,26=3,38=1/1,3;
 2/9=110,12=2,17=6,18=5,40=1/2;
 3/5=1,6=6,7=104,11=2,25=1,30=1,71=1,74=-5/1,2,3;
 4//1;
 5/5=2,38=5/2;
 6/7=2,8=2,9=2,10=2,28=1/1;
 7//1,2,3,16;
 1/18=20,19=15,26=3/3(2);
 2/9=110/2;
 99//99;
 2/9=110/2;
 3/5=1,6=6,7=104,11=2,25=1,30=1,71=1,74=-5/1,2,3;
 4/5=5,16=3,69=1/1;
 5/5=2,38=5/2;
 7//1,2,3,16;
 1/18=20,19=15,26=3/3(-5);
 2/9=110/2;
 6/7=2,8=2,9=2,10=2,19=2,28=1/1;
 99/9=1/99;
 -------------------
 Title Card Required
 -------------------
 Symbolic Z-matrix:
 Charge =  0 Multiplicity = 1
 C                     1.07144  -0.05109   0.0478 
 C                     2.3753   -0.05109   0.0478 
 C                     3.8953   -0.05109   0.0478 
 C                     4.56929  -1.21163   0.04829 
 C                     5.94949  -0.76191   0.04891 
 O                     6.96816  -1.41353   0.04649 
 C                     5.86159   0.73017   0.05185 
 N                     4.63061   1.11984   0.05024 
 H                     0.00638  -0.04548   0.0478 
 H                     4.23767  -2.23033   0.04842 
 H                     6.78856   1.32036   0.05514 
 

 GradGradGradGradGradGradGradGradGradGradGradGradGradGradGradGradGradGrad
 Berny optimization.
 Initialization pass.
                           ----------------------------
                           !    Initial Parameters    !
                           ! (Angstroms and Degrees)  !
 --------------------------                            --------------------------
 ! Name  Definition              Value          Derivative Info.                !
 --------------------------------------------------------------------------------
 ! R1    R(1,2)                  1.3039         estimate D2E/DX2                !
 ! R2    R(1,9)                  1.0651         estimate D2E/DX2                !
 ! R3    R(2,3)                  1.52           estimate D2E/DX2                !
 ! R4    R(3,4)                  1.3421         estimate D2E/DX2                !
 ! R5    R(3,8)                  1.3827         estimate D2E/DX2                !
 ! R6    R(4,5)                  1.4516         estimate D2E/DX2                !
 ! R7    R(4,10)                 1.0713         estimate D2E/DX2                !
 ! R8    R(5,6)                  1.2093         estimate D2E/DX2                !
 ! R9    R(5,7)                  1.4947         estimate D2E/DX2                !
 ! R10   R(7,8)                  1.2912         estimate D2E/DX2                !
 ! R11   R(7,11)                 1.0989         estimate D2E/DX2                !
 ! A1    A(2,3,4)              120.1461         estimate D2E/DX2                !
 ! A2    A(2,3,8)              122.1276         estimate D2E/DX2                !
 ! A3    A(4,3,8)              117.7262         estimate D2E/DX2                !
 ! A4    A(3,4,5)              102.0986         estimate D2E/DX2                !
 ! A5    A(3,4,10)             131.8221         estimate D2E/DX2                !
 ! A6    A(5,4,10)             126.0793         estimate D2E/DX2                !
 ! A7    A(4,5,6)              129.3462         estimate D2E/DX2                !
 ! A8    A(4,5,7)              104.6761         estimate D2E/DX2                !
 ! A9    A(6,5,7)              125.9777         estimate D2E/DX2                !
 ! A10   A(5,7,8)              110.9366         estimate D2E/DX2                !
 ! A11   A(5,7,11)             119.1131         estimate D2E/DX2                !
 ! A12   A(8,7,11)             129.9503         estimate D2E/DX2                !
 ! A13   A(3,8,7)              104.5624         estimate D2E/DX2                !
 ! A14   L(2,1,9,10,-1)        180.3018         estimate D2E/DX2                !
 ! A15   L(1,2,3,10,-1)        180.0            estimate D2E/DX2                !
 ! A16   L(2,1,9,10,-2)        179.9998         estimate D2E/DX2                !
 ! A17   L(1,2,3,10,-2)        180.0            estimate D2E/DX2                !
 ! D1    D(2,3,4,5)           -179.9673         estimate D2E/DX2                !
 ! D2    D(2,3,4,10)             0.0215         estimate D2E/DX2                !
 ! D3    D(8,3,4,5)             -0.1047         estimate D2E/DX2                !
 ! D4    D(8,3,4,10)           179.8842         estimate D2E/DX2                !
 ! D5    D(2,3,8,7)            179.889          estimate D2E/DX2                !
 ! D6    D(4,3,8,7)              0.0292         estimate D2E/DX2                !
 ! D7    D(3,4,5,6)           -179.8155         estimate D2E/DX2                !
 ! D8    D(3,4,5,7)              0.1262         estimate D2E/DX2                !
 ! D9    D(10,4,5,6)             0.1948         estimate D2E/DX2                !
 ! D10   D(10,4,5,7)          -179.8635         estimate D2E/DX2                !
 ! D11   D(4,5,7,8)             -0.1238         estimate D2E/DX2                !
 ! D12   D(4,5,7,11)           179.8622         estimate D2E/DX2                !
 ! D13   D(6,5,7,8)            179.8205         estimate D2E/DX2                !
 ! D14   D(6,5,7,11)            -0.1935         estimate D2E/DX2                !
 ! D15   D(5,7,8,3)              0.0621         estimate D2E/DX2                !
 ! D16   D(11,7,8,3)          -179.922          estimate D2E/DX2                !
 --------------------------------------------------------------------------------
 Trust Radius=3.00D-01 FncErr=1.00D-07 GrdErr=1.00D-06 EigMax=2.50D+02 EigMin=1.00D-04
 Number of steps in this run=     54 maximum allowed number of steps=    100.
 GradGradGradGradGradGradGradGradGradGradGradGradGradGradGradGradGradGrad

                          Input orientation:                          
 ---------------------------------------------------------------------
 Center     Atomic      Atomic             Coordinates (Angstroms)
 Number     Number       Type             X           Y           Z
 ---------------------------------------------------------------------
      1          6           0        1.071440   -0.051090    0.047800
      2          6           0        2.375300   -0.051090    0.047800
      3          6           0        3.895300   -0.051090    0.047800
      4          6           0        4.569290   -1.211630    0.048290
      5          6           0        5.949490   -0.761910    0.048910
      6          8           0        6.968160   -1.413530    0.046490
      7          6           0        5.861590    0.730170    0.051850
      8          7           0        4.630610    1.119840    0.050240
      9          1           0        0.006380   -0.045480    0.047800
     10          1           0        4.237670   -2.230330    0.048420
     11          1           0        6.788560    1.320360    0.055140
 ---------------------------------------------------------------------
                    Distance matrix (angstroms):
                    1          2          3          4          5
     1  C    0.000000
     2  C    1.303860   0.000000
     3  C    2.823860   1.520000   0.000000
     4  C    3.685350   2.482024   1.342057   0.000000
     5  C    4.929568   3.644187   2.173698   1.451620   0.000000
     6  O    6.052070   4.790679   3.361356   2.407352   1.209257
     7  C    4.853444   3.572758   2.115817   2.332518   1.494670
     8  N    3.746835   2.541162   1.382665   2.332277   2.297918
     9  H    1.065075   2.368927   3.888924   4.709570   5.986136
    10  H    3.843709   2.866620   2.205970   1.071318   2.255346
    11  H    5.879319   4.621449   3.201856   3.366924   2.244978
                    6          7          8          9         10
     6  O    0.000000
     7  C    2.412463   0.000000
     8  N    3.447045   1.291184   0.000000
     9  H    7.094924   5.906364   4.768803   0.000000
    10  H    2.850042   3.376639   3.373136   4.762078   0.000000
    11  H    2.739797   1.098912   2.167252   6.918348   4.372011
                   11
    11  H    0.000000
 Stoichiometry    C6H3NO
 Framework group  C1[X(C6H3NO)]
 Deg. of freedom    27
 Full point group                 C1      NOp   1
 Largest Abelian subgroup         C1      NOp   1
 Largest concise Abelian subgroup C1      NOp   1
                         Standard orientation:                         
 ---------------------------------------------------------------------
 Center     Atomic      Atomic             Coordinates (Angstroms)
 Number     Number       Type             X           Y           Z
 ---------------------------------------------------------------------
      1          6           0       -3.392936   -0.302101    0.000074
      2          6           0       -2.102468   -0.115710   -0.000414
      3          6           0       -0.598079    0.101578   -0.000983
      4          6           0        0.234892   -0.950692    0.001137
      5          6           0        1.536627   -0.308287    0.000511
      6          8           0        2.637986   -0.807596   -0.001233
      7          6           0        1.236333    1.155906    0.001063
      8          7           0       -0.037709    1.365599   -0.000718
      9          1           0       -4.447860   -0.448802    0.000464
     10          1           0        0.052304   -2.006334    0.003044
     11          1           0        2.069414    1.872552    0.003049
 ---------------------------------------------------------------------
 Rotational constants (GHZ):           6.8639258           1.3353474           1.1178710
 Standard basis: 6-31G(2df,p) (6D, 7F)
 There are   263 symmetry adapted cartesian basis functions of A   symmetry.
 There are   239 symmetry adapted basis functions of A   symmetry.
   239 basis functions,   373 primitive gaussians,   263 cartesian basis functions
    27 alpha electrons       27 beta electrons
       nuclear repulsion energy       296.5378991030 Hartrees.
 NAtoms=   11 NActive=   11 NUniq=   11 SFac= 1.00D+00 NAtFMM=   60 NAOKFM=F Big=F
 Integral buffers will be    131072 words long.
 Raffenetti 2 integral format.
 Two-electron integral symmetry is turned on.
 One-electron integrals computed using PRISM.
 PrsmSu:  requested number of processors reduced to:  13 ShMem   1 Linda.
 NBasis=   239 RedAO= T EigKep=  1.77D-04  NBF=   239
 NBsUse=   239 1.00D-06 EigRej= -1.00D+00 NBFU=   239
 ExpMin= 1.61D-01 ExpMax= 5.48D+03 ExpMxC= 8.25D+02 IAcc=3 IRadAn=         5 AccDes= 0.00D+00
 Harris functional with IExCor=  402 and IRadAn=       5 diagonalized for initial guess.
 HarFok:  IExCor=  402 AccDes= 0.00D+00 IRadAn=         5 IDoV= 1 UseB2=F ITyADJ=14
 ICtDFT=  3500011 ScaDFX=  1.000000  1.000000  1.000000  1.000000
 FoFCou: FMM=F IPFlag=           0 FMFlag=      100000 FMFlg1=           0
         NFxFlg=           0 DoJE=T BraDBF=F KetDBF=T FulRan=T
         wScrn=  0.000000 ICntrl=       500 IOpCl=  0 I1Cent=   200000004 NGrid=           0
         NMat0=    1 NMatS0=      1 NMatT0=    0 NMatD0=    1 NMtDS0=    0 NMtDT0=    0
 Petite list used in FoFCou.
 Requested convergence on RMS density matrix=1.00D-08 within 128 cycles.
 Requested convergence on MAX density matrix=1.00D-06.
 Requested convergence on             energy=1.00D-06.
 No special actions if energy rises.
 Integral accuracy reduced to 1.0D-05 until final iterations.
 Initial convergence to 1.0D-05 achieved.  Increase integral accuracy.
 SCF Done:  E(RB3LYP) =  -360.278405338     A.U. after   17 cycles
            NFock= 17  Conv=0.36D-08     -V/T= 2.0081

 **********************************************************************

            Population analysis using the SCF density.

 **********************************************************************

 Orbital symmetries:
       Occupied  (A) (A) (A) (A) (A) (A) (A) (A) (A) (A) (A) (A)
                 (A) (A) (A) (A) (A) (A) (A) (A) (A) (A) (A) (A)
                 (A) (A) (A)
       Virtual   (A) (A) (A) (A) (A) (A) (A) (A) (A) (A) (A) (A)
                 (A) (A) (A) (A) (A) (A) (A) (A) (A) (A) (A) (A)
                 (A) (A) (A) (A) (A) (A) (A) (A) (A) (A) (A) (A)
                 (A) (A) (A) (A) (A) (A) (A) (A) (A) (A) (A) (A)
                 (A) (A) (A) (A) (A) (A) (A) (A) (A) (A) (A) (A)
                 (A) (A) (A) (A) (A) (A) (A) (A) (A) (A) (A) (A)
                 (A) (A) (A) (A) (A) (A) (A) (A) (A) (A) (A) (A)
                 (A) (A) (A) (A) (A) (A) (A) (A) (A) (A) (A) (A)
                 (A) (A) (A) (A) (A) (A) (A) (A) (A) (A) (A) (A)
                 (A) (A) (A) (A) (A) (A) (A) (A) (A) (A) (A) (A)
                 (A) (A) (A) (A) (A) (A) (A) (A) (A) (A) (A) (A)
                 (A) (A) (A) (A) (A) (A) (A) (A) (A) (A) (A) (A)
                 (A) (A) (A) (A) (A) (A) (A) (A) (A) (A) (A) (A)
                 (A) (A) (A) (A) (A) (A) (A) (A) (A) (A) (A) (A)
                 (A) (A) (A) (A) (A) (A) (A) (A) (A) (A) (A) (A)
                 (A) (A) (A) (A) (A) (A) (A) (A) (A) (A) (A) (A)
                 (A) (A) (A) (A) (A) (A) (A) (A) (A) (A) (A) (A)
                 (A) (A) (A) (A) (A) (A) (A) (A)
 The electronic state is 1-A.
 Alpha  occ. eigenvalues --  -19.16722 -14.36726 -10.28612 -10.27866 -10.25799
 Alpha  occ. eigenvalues --  -10.23589 -10.22901 -10.20313  -1.07162  -0.99936
 Alpha  occ. eigenvalues --   -0.80066  -0.75677  -0.71263  -0.61518  -0.58559
 Alpha  occ. eigenvalues --   -0.54434  -0.51466  -0.46464  -0.46016  -0.44850
 Alpha  occ. eigenvalues --   -0.43468  -0.38462  -0.33358  -0.30931  -0.28652
 Alpha  occ. eigenvalues --   -0.26249  -0.25499
 Alpha virt. eigenvalues --   -0.13764  -0.01438   0.00602   0.06616   0.08761
 Alpha virt. eigenvalues --    0.09721   0.11555   0.13473   0.18433   0.19832
 Alpha virt. eigenvalues --    0.23977   0.25068   0.29080   0.34629   0.38085
 Alpha virt. eigenvalues --    0.41113   0.44837   0.46163   0.46820   0.49116
 Alpha virt. eigenvalues --    0.49888   0.50155   0.52801   0.53844   0.55044
 Alpha virt. eigenvalues --    0.55832   0.58242   0.58538   0.62440   0.65556
 Alpha virt. eigenvalues --    0.65951   0.66376   0.68349   0.68799   0.70521
 Alpha virt. eigenvalues --    0.72721   0.73975   0.73994   0.74721   0.77675
 Alpha virt. eigenvalues --    0.80261   0.81183   0.82243   0.83148   0.89308
 Alpha virt. eigenvalues --    0.92877   0.93240   0.95312   0.96005   0.98461
 Alpha virt. eigenvalues --    0.98825   0.99990   1.00243   1.05288   1.07652
 Alpha virt. eigenvalues --    1.08235   1.10848   1.14859   1.16060   1.19544
 Alpha virt. eigenvalues --    1.21288   1.23881   1.30942   1.32032   1.33238
 Alpha virt. eigenvalues --    1.37101   1.37148   1.41183   1.41844   1.43749
 Alpha virt. eigenvalues --    1.46273   1.51046   1.54023   1.57693   1.57981
 Alpha virt. eigenvalues --    1.60932   1.66707   1.68291   1.73517   1.76313
 Alpha virt. eigenvalues --    1.77492   1.80705   1.84746   1.86598   1.96570
 Alpha virt. eigenvalues --    2.04538   2.11793   2.16798   2.18711   2.24658
 Alpha virt. eigenvalues --    2.29840   2.30786   2.35346   2.39430   2.43920
 Alpha virt. eigenvalues --    2.48601   2.55107   2.59959   2.60121   2.64025
 Alpha virt. eigenvalues --    2.66959   2.68176   2.72802   2.73563   2.77837
 Alpha virt. eigenvalues --    2.78475   2.84042   2.93425   2.93592   2.98449
 Alpha virt. eigenvalues --    2.98926   3.00585   3.03386   3.05158   3.06564
 Alpha virt. eigenvalues --    3.07137   3.09798   3.13584   3.15053   3.15202
 Alpha virt. eigenvalues --    3.21385   3.24189   3.27285   3.31489   3.36455
 Alpha virt. eigenvalues --    3.38190   3.41092   3.43017   3.46472   3.47271
 Alpha virt. eigenvalues --    3.49761   3.55013   3.60490   3.61355   3.61938
 Alpha virt. eigenvalues --    3.68303   3.70581   3.74281   3.80648   3.84243
 Alpha virt. eigenvalues --    3.88172   3.90250   3.93093   4.00469   4.00989
 Alpha virt. eigenvalues --    4.02092   4.06551   4.14406   4.16389   4.18260
 Alpha virt. eigenvalues --    4.20121   4.21293   4.21879   4.25890   4.26665
 Alpha virt. eigenvalues --    4.30215   4.31115   4.33330   4.33797   4.36096
 Alpha virt. eigenvalues --    4.37190   4.44538   4.45590   4.46022   4.49163
 Alpha virt. eigenvalues --    4.52021   4.56521   4.57390   4.62295   4.63884
 Alpha virt. eigenvalues --    4.65882   4.70774   4.72988   4.76803   4.83656
 Alpha virt. eigenvalues --    4.87046   4.92512   4.93827   4.96736   5.00201
 Alpha virt. eigenvalues --    5.03706   5.06353   5.06588   5.11619   5.17588
 Alpha virt. eigenvalues --    5.20652   5.29301   5.33984   5.35246   5.44221
 Alpha virt. eigenvalues --    5.47283   5.55124   5.56279   5.60111   5.73482
 Alpha virt. eigenvalues --    5.87563   5.95619   5.98777   6.03976   6.27752
 Alpha virt. eigenvalues --    6.54043   6.54786   6.86146   9.51856  10.14978
 Alpha virt. eigenvalues --   10.58595  10.91009  11.30516  11.59062  11.97704
 Alpha virt. eigenvalues --   13.12772  18.14664
          Condensed to atoms (all electrons):
               1          2          3          4          5          6
     1  C    5.055508   0.885186  -0.014525  -0.000992  -0.000119  -0.000001
     2  C    0.885186   4.783197   0.346363  -0.026967  -0.003234  -0.000270
     3  C   -0.014525   0.346363   4.604639   0.488004  -0.006043  -0.002601
     4  C   -0.000992  -0.026967   0.488004   5.372104   0.327646  -0.056899
     5  C   -0.000119  -0.003234  -0.006043   0.327646   4.254088   0.768319
     6  O   -0.000001  -0.000270  -0.002601  -0.056899   0.768319   7.636418
     7  C    0.000290   0.008153  -0.077100  -0.147555   0.357716  -0.062124
     8  N   -0.003191  -0.049804   0.441128  -0.034744  -0.030584   0.004942
     9  H    0.383165  -0.019453  -0.000875   0.000007  -0.000001  -0.000000
    10  H    0.000043  -0.004155  -0.028285   0.373072  -0.020970  -0.001174
    11  H   -0.000003  -0.000225   0.003272   0.006998  -0.036284   0.003310
               7          8          9         10         11
     1  C    0.000290  -0.003191   0.383165   0.000043  -0.000003
     2  C    0.008153  -0.049804  -0.019453  -0.004155  -0.000225
     3  C   -0.077100   0.441128  -0.000875  -0.028285   0.003272
     4  C   -0.147555  -0.034744   0.000007   0.373072   0.006998
     5  C    0.357716  -0.030584  -0.000001  -0.020970  -0.036284
     6  O   -0.062124   0.004942  -0.000000  -0.001174   0.003310
     7  C    5.132390   0.535653   0.000001   0.004145   0.347028
     8  N    0.535653   6.391094  -0.000001   0.003703  -0.016623
     9  H    0.000001  -0.000001   0.418759   0.000005  -0.000000
    10  H    0.004145   0.003703   0.000005   0.527313  -0.000071
    11  H    0.347028  -0.016623  -0.000000  -0.000071   0.537938
 Mulliken charges:
               1
     1  C   -0.305360
     2  C    0.081209
     3  C    0.246024
     4  C   -0.300673
     5  C    0.389466
     6  O   -0.289920
     7  C   -0.098598
     8  N   -0.241574
     9  H    0.218393
    10  H    0.146373
    11  H    0.154659
 Sum of Mulliken charges =  -0.00000
 Mulliken charges with hydrogens summed into heavy atoms:
               1
     1  C   -0.086967
     2  C    0.081209
     3  C    0.246024
     4  C   -0.154300
     5  C    0.389466
     6  O   -0.289920
     7  C    0.056061
     8  N   -0.241574
 Electronic spatial extent (au):  <R**2>=            960.2260
 Charge=             -0.0000 electrons
 Dipole moment (field-independent basis, Debye):
    X=             -1.4540    Y=             -0.2932    Z=              0.0065  Tot=              1.4833
 Quadrupole moment (field-independent basis, Debye-Ang):
   XX=            -40.3780   YY=            -45.0789   ZZ=            -44.3524
   XY=              6.9263   XZ=              0.0097   YZ=             -0.0011
 Traceless Quadrupole moment (field-independent basis, Debye-Ang):
   XX=              2.8917   YY=             -1.8092   ZZ=             -1.0826
   XY=              6.9263   XZ=              0.0097   YZ=             -0.0011
 Octapole moment (field-independent basis, Debye-Ang**2):
  XXX=            -57.5974  YYY=             -8.5586  ZZZ=             -0.0050  XYY=             10.6772
  XXY=              6.5471  XXZ=              0.0395  XZZ=              8.9204  YZZ=             -0.0583
  YYZ=              0.0249  XYZ=              0.0033
 Hexadecapole moment (field-independent basis, Debye-Ang**3):
 XXXX=           -763.2212 YYYY=           -229.7022 ZZZZ=            -42.0014 XXXY=             61.2599
 XXXZ=              0.0057 YYYX=              5.5072 YYYZ=              0.0007 ZZZX=             -0.0141
 ZZZY=              0.0037 XXYY=           -207.4274 XXZZ=           -178.0264 YYZZ=            -46.8734
 XXYZ=              0.0022 YYXZ=              0.0187 ZZXY=             -4.2173
 N-N= 2.965378991030D+02 E-N=-1.431971734648D+03  KE= 3.573734930284D+02
 PrsmSu:  requested number of processors reduced to:  13 ShMem   1 Linda.
 Calling FoFJK, ICntrl=      2127 FMM=F ISym2X=0 I1Cent= 0 IOpClX= 0 NMat=1 NMatS=1 NMatT=0.
 ***** Axes restored to original set *****
 -------------------------------------------------------------------
 Center     Atomic                   Forces (Hartrees/Bohr)
 Number     Number              X              Y              Z
 -------------------------------------------------------------------
      1        6           0.155626948    0.000582349   -0.000008373
      2        6          -0.097905370    0.010859910   -0.000050259
      3        6          -0.108589055   -0.042586662    0.000115793
      4        6           0.004619877    0.001731107   -0.000066453
      5        6           0.015270210   -0.022691203    0.000017260
      6        8           0.007281483   -0.000095121    0.000040007
      7        6           0.001382008    0.017583093   -0.000000760
      8        7           0.039770854    0.032547547    0.000096811
      9        1           0.000448563   -0.000782567    0.000004865
     10        1          -0.003914295   -0.001940012   -0.000068014
     11        1          -0.013991223    0.004791559   -0.000080878
 -------------------------------------------------------------------
 Cartesian Forces:  Max     0.155626948 RMS     0.039521733

 GradGradGradGradGradGradGradGradGradGradGradGradGradGradGradGradGradGrad
 Berny optimization.
 FormGI is forming the generalized inverse of G from B-inverse, IUseBI=4.
 Internal  Forces:  Max     0.156075527 RMS     0.027032011
 Search for a local minimum.
 Step number   1 out of a maximum of   54
 All quantities printed in internal units (Hartrees-Bohrs-Radians)
 Mixed Optimization -- RFO/linear search
 Second derivative matrix not updated -- first step.
 ITU=  0
     Eigenvalues ---    0.00501   0.00501   0.00565   0.00565   0.01119
     Eigenvalues ---    0.01596   0.01755   0.02134   0.02414   0.02585
     Eigenvalues ---    0.16000   0.16000   0.23327   0.24095   0.25000
     Eigenvalues ---    0.25000   0.30367   0.31846   0.33803   0.36746
     Eigenvalues ---    0.37064   0.37860   0.46451   0.53492   0.66132
     Eigenvalues ---    0.66578   1.00306
 RFO step:  Lambda=-5.44765246D-02 EMin= 5.01385868D-03
 Linear search not attempted -- first point.
 Maximum step size (   0.300) exceeded in Quadratic search.
    -- Step size scaled by   0.922
 Iteration  1 RMS(Cart)=  0.06488146 RMS(Int)=  0.00095228
 Iteration  2 RMS(Cart)=  0.00141777 RMS(Int)=  0.00008128
 Iteration  3 RMS(Cart)=  0.00000143 RMS(Int)=  0.00008128
 Iteration  4 RMS(Cart)=  0.00000000 RMS(Int)=  0.00008128
 Variable       Old X    -DE/DX   Delta X   Delta X   Delta X     New X
                                 (Linear)    (Quad)   (Total)
    R1        2.46394  -0.15608   0.00000  -0.20105  -0.20105   2.26289
    R2        2.01270  -0.00045   0.00000  -0.00096  -0.00096   2.01174
    R3        2.87238  -0.05817   0.00000  -0.14977  -0.14977   2.72262
    R4        2.53612   0.01161   0.00000   0.01963   0.01979   2.55591
    R5        2.61286   0.04156   0.00000   0.07296   0.07301   2.68587
    R6        2.74316   0.02137   0.00000   0.04496   0.04502   2.78819
    R7        2.02450   0.00306   0.00000   0.00663   0.00663   2.03113
    R8        2.28516   0.00619   0.00000   0.00539   0.00539   2.29056
    R9        2.82452   0.02296   0.00000   0.05109   0.05096   2.87548
   R10        2.43998  -0.01170   0.00000  -0.01540  -0.01554   2.42445
   R11        2.07664  -0.00923   0.00000  -0.02168  -0.02168   2.05496
    A1        2.09695   0.02178   0.00000   0.06280   0.06271   2.15965
    A2        2.13153  -0.00678   0.00000  -0.02368  -0.02377   2.10775
    A3        2.05471  -0.01499   0.00000  -0.03912  -0.03893   2.01578
    A4        1.78196   0.00717   0.00000   0.02812   0.02834   1.81030
    A5        2.30073  -0.00675   0.00000  -0.02764  -0.02775   2.27298
    A6        2.20050  -0.00043   0.00000  -0.00047  -0.00059   2.19991
    A7        2.25752   0.00656   0.00000   0.02278   0.02281   2.28033
    A8        1.82694  -0.00434   0.00000  -0.01897  -0.01902   1.80792
    A9        2.19873  -0.00222   0.00000  -0.00382  -0.00379   2.19494
   A10        1.93621   0.00431   0.00000   0.00631   0.00608   1.94229
   A11        2.07892   0.00984   0.00000   0.04843   0.04855   2.12746
   A12        2.26806  -0.01416   0.00000  -0.05474  -0.05462   2.21344
   A13        1.82496   0.00785   0.00000   0.02366   0.02353   1.84849
   A14        3.14686  -0.00157   0.00000  -0.02408  -0.02408   3.12278
   A15        3.14159  -0.00206   0.00000  -0.03197  -0.03197   3.10963
   A16        3.14159  -0.00001   0.00000  -0.00008  -0.00008   3.14151
   A17        3.14159   0.00000   0.00000   0.00001   0.00001   3.14160
    D1       -3.14102  -0.00001   0.00000  -0.00028  -0.00030  -3.14132
    D2        0.00038  -0.00003   0.00000  -0.00044  -0.00046  -0.00008
    D3       -0.00183   0.00008   0.00000   0.00096   0.00095  -0.00087
    D4        3.13957   0.00007   0.00000   0.00079   0.00079   3.14036
    D5        3.13965   0.00009   0.00000   0.00092   0.00088   3.14053
    D6        0.00051  -0.00004   0.00000  -0.00047  -0.00046   0.00005
    D7       -3.13837  -0.00002   0.00000  -0.00036  -0.00036  -3.13873
    D8        0.00220  -0.00007   0.00000  -0.00098  -0.00099   0.00122
    D9        0.00340  -0.00001   0.00000  -0.00020  -0.00020   0.00320
   D10       -3.13921  -0.00006   0.00000  -0.00082  -0.00083  -3.14004
   D11       -0.00216   0.00006   0.00000   0.00085   0.00085  -0.00131
   D12        3.13919   0.00006   0.00000   0.00087   0.00086   3.14005
   D13        3.13846   0.00002   0.00000   0.00028   0.00028   3.13874
   D14       -0.00338   0.00003   0.00000   0.00030   0.00029  -0.00308
   D15        0.00108  -0.00001   0.00000  -0.00027  -0.00028   0.00080
   D16       -3.14023  -0.00002   0.00000  -0.00031  -0.00031  -3.14055
         Item               Value     Threshold  Converged?
 Maximum Force            0.156076     0.000450     NO 
 RMS     Force            0.027032     0.000300     NO 
 Maximum Displacement     0.232747     0.001800     NO 
 RMS     Displacement     0.065092     0.001200     NO 
 Predicted change in Energy=-2.952200D-02
 GradGradGradGradGradGradGradGradGradGradGradGradGradGradGradGradGradGrad

                          Input orientation:                          
 ---------------------------------------------------------------------
 Center     Atomic      Atomic             Coordinates (Angstroms)
 Number     Number       Type             X           Y           Z
 ---------------------------------------------------------------------
      1          6           0        1.194017   -0.022642    0.047798
      2          6           0        2.391466   -0.029437    0.048112
      3          6           0        3.831193   -0.083658    0.048479
      4          6           0        4.539542   -1.235862    0.048208
      5          6           0        5.943884   -0.783356    0.049162
      6          8           0        6.977522   -1.416444    0.046705
      7          6           0        5.830494    0.734047    0.051732
      8          7           0        4.603667    1.109393    0.050642
      9          1           0        0.129544   -0.036625    0.047565
     10          1           0        4.204089   -2.256999    0.047772
     11          1           0        6.708371    1.375803    0.054364
 ---------------------------------------------------------------------
                    Distance matrix (angstroms):
                    1          2          3          4          5
     1  C    0.000000
     2  C    1.197468   0.000000
     3  C    2.637881   1.440748   0.000000
     4  C    3.558713   2.463675   1.352528   0.000000
     5  C    4.810398   3.631539   2.225544   1.475445   0.000000
     6  O    5.949085   4.791211   3.416974   2.444659   1.212111
     7  C    4.697820   3.522760   2.160060   2.355230   1.521636
     8  N    3.592662   2.488127   1.421299   2.346133   2.319199
     9  H    1.064565   2.261933   3.701947   4.570148   5.862095
    10  H    3.748718   2.871870   2.205100   1.074826   2.280025
    11  H    5.688918   4.539869   3.226176   3.394797   2.290510
                    6          7          8          9         10
     6  O    0.000000
     7  C    2.437275   0.000000
     8  N    3.466274   1.282962   0.000000
     9  H    6.985607   5.752807   4.618565   0.000000
    10  H    2.898010   3.404639   3.390025   4.640256   0.000000
    11  H    2.805199   1.087439   2.121501   6.728741   4.412337
                   11
    11  H    0.000000
 Stoichiometry    C6H3NO
 Framework group  C1[X(C6H3NO)]
 Deg. of freedom    27
 Full point group                 C1      NOp   1
 Largest Abelian subgroup         C1      NOp   1
 Largest concise Abelian subgroup C1      NOp   1
                         Standard orientation:                         
 ---------------------------------------------------------------------
 Center     Atomic      Atomic             Coordinates (Angstroms)
 Number     Number       Type             X           Y           Z
 ---------------------------------------------------------------------
      1          6           0       -3.271444   -0.297412   -0.000167
      2          6           0       -2.087689   -0.116711   -0.000303
      3          6           0       -0.657219    0.055068   -0.000401
      4          6           0        0.222733   -0.972072    0.000967
      5          6           0        1.538947   -0.305350    0.000629
      6          8           0        2.658931   -0.768865   -0.001176
      7          6           0        1.189466    1.175609    0.000723
      8          7           0       -0.080988    1.354318   -0.000517
      9          1           0       -4.320610   -0.477824    0.000033
     10          1           0        0.051232   -2.033126    0.002357
     11          1           0        1.956083    1.946856    0.001951
 ---------------------------------------------------------------------
 Rotational constants (GHZ):           6.8716996           1.3740020           1.1450489
 Standard basis: 6-31G(2df,p) (6D, 7F)
 There are   263 symmetry adapted cartesian basis functions of A   symmetry.
 There are   239 symmetry adapted basis functions of A   symmetry.
   239 basis functions,   373 primitive gaussians,   263 cartesian basis functions
    27 alpha electrons       27 beta electrons
       nuclear repulsion energy       298.2658126192 Hartrees.
 NAtoms=   11 NActive=   11 NUniq=   11 SFac= 1.00D+00 NAtFMM=   60 NAOKFM=F Big=F
 Integral buffers will be    131072 words long.
 Raffenetti 2 integral format.
 Two-electron integral symmetry is turned on.
 One-electron integrals computed using PRISM.
 PrsmSu:  requested number of processors reduced to:  13 ShMem   1 Linda.
 NBasis=   239 RedAO= T EigKep=  9.92D-05  NBF=   239
 NBsUse=   239 1.00D-06 EigRej= -1.00D+00 NBFU=   239
 Initial guess from the checkpoint file:  "CtCC1dCCpdOpCdN1.chk"
 B after Tr=    -0.000000   -0.000000   -0.000000
         Rot=    0.999984   -0.000001    0.000002   -0.005594 Ang=  -0.64 deg.
 ExpMin= 1.61D-01 ExpMax= 5.48D+03 ExpMxC= 8.25D+02 IAcc=2 IRadAn=         4 AccDes= 0.00D+00
 Harris functional with IExCor=  402 and IRadAn=       4 diagonalized for initial guess.
 HarFok:  IExCor=  402 AccDes= 0.00D+00 IRadAn=         4 IDoV= 1 UseB2=F ITyADJ=14
 ICtDFT=  3500011 ScaDFX=  1.000000  1.000000  1.000000  1.000000
 FoFCou: FMM=F IPFlag=           0 FMFlag=      100000 FMFlg1=           0
         NFxFlg=           0 DoJE=T BraDBF=F KetDBF=T FulRan=T
         wScrn=  0.000000 ICntrl=       500 IOpCl=  0 I1Cent=   200000004 NGrid=           0
         NMat0=    1 NMatS0=      1 NMatT0=    0 NMatD0=    1 NMtDS0=    0 NMtDT0=    0
 Petite list used in FoFCou.
 Requested convergence on RMS density matrix=1.00D-08 within 128 cycles.
 Requested convergence on MAX density matrix=1.00D-06.
 Requested convergence on             energy=1.00D-06.
 No special actions if energy rises.
 Integral accuracy reduced to 1.0D-05 until final iterations.
 Initial convergence to 1.0D-05 achieved.  Increase integral accuracy.
 SCF Done:  E(RB3LYP) =  -360.307676606     A.U. after   13 cycles
            NFock= 13  Conv=0.70D-08     -V/T= 2.0072
 PrsmSu:  requested number of processors reduced to:  13 ShMem   1 Linda.
 Calling FoFJK, ICntrl=      2127 FMM=F ISym2X=0 I1Cent= 0 IOpClX= 0 NMat=1 NMatS=1 NMatT=0.
 ***** Axes restored to original set *****
 -------------------------------------------------------------------
 Center     Atomic                   Forces (Hartrees/Bohr)
 Number     Number              X              Y              Z
 -------------------------------------------------------------------
      1        6          -0.016424467   -0.000248451   -0.000005133
      2        6           0.034011762    0.004194091   -0.000018607
      3        6          -0.042028643   -0.028275677    0.000046033
      4        6           0.006441163    0.009337651    0.000013741
      5        6           0.010928414   -0.011793460   -0.000091156
      6        8          -0.004675295    0.002625951    0.000075535
      7        6          -0.005417722    0.002622579    0.000024315
      8        7           0.022270876    0.018028060    0.000050418
      9        1           0.001656043    0.000653751    0.000001414
     10        1          -0.001886574   -0.000665388   -0.000045798
     11        1          -0.004875555    0.003520894   -0.000050763
 -------------------------------------------------------------------
 Cartesian Forces:  Max     0.042028643 RMS     0.012704906

 GradGradGradGradGradGradGradGradGradGradGradGradGradGradGradGradGradGrad
 Berny optimization.
 Using GEDIIS/GDIIS optimizer.
 FormGI is forming the generalized inverse of G from B-inverse, IUseBI=4.
 Internal  Forces:  Max     0.021534830 RMS     0.006016182
 Search for a local minimum.
 Step number   2 out of a maximum of   54
 All quantities printed in internal units (Hartrees-Bohrs-Radians)
 Mixed Optimization -- RFO/linear search
 Update second derivatives using D2CorX and points    1    2
 DE= -2.93D-02 DEPred=-2.95D-02 R= 9.92D-01
 TightC=F SS=  1.41D+00  RLast= 3.00D-01 DXNew= 5.0454D-01 9.0003D-01
 Trust test= 9.92D-01 RLast= 3.00D-01 DXMaxT set to 5.05D-01
 ITU=  1  0
 Use linear search instead of GDIIS.
     Eigenvalues ---    0.00501   0.00504   0.00565   0.00566   0.01123
     Eigenvalues ---    0.01609   0.01679   0.02115   0.02404   0.02606
     Eigenvalues ---    0.15728   0.16000   0.22626   0.23700   0.24619
     Eigenvalues ---    0.25025   0.28795   0.31853   0.33793   0.36771
     Eigenvalues ---    0.37058   0.37859   0.44305   0.53593   0.66268
     Eigenvalues ---    0.87161   1.01013
 RFO step:  Lambda=-5.15878056D-03 EMin= 5.01385868D-03
 Quartic linear search produced a step of  0.07053.
 Iteration  1 RMS(Cart)=  0.13283887 RMS(Int)=  0.01822387
 Iteration  2 RMS(Cart)=  0.05011920 RMS(Int)=  0.00152249
 Iteration  3 RMS(Cart)=  0.00217941 RMS(Int)=  0.00005218
 Iteration  4 RMS(Cart)=  0.00000350 RMS(Int)=  0.00005213
 Iteration  5 RMS(Cart)=  0.00000000 RMS(Int)=  0.00005213
 Variable       Old X    -DE/DX   Delta X   Delta X   Delta X     New X
                                 (Linear)    (Quad)   (Total)
    R1        2.26289   0.01477  -0.01418   0.02232   0.00814   2.27102
    R2        2.01174  -0.00166  -0.00007  -0.00463  -0.00470   2.00704
    R3        2.72262  -0.01906  -0.01056  -0.06311  -0.07367   2.64895
    R4        2.55591  -0.00063   0.00140   0.00006   0.00155   2.55746
    R5        2.68587   0.02153   0.00515   0.04829   0.05346   2.73932
    R6        2.78819   0.00410   0.00318   0.01012   0.01334   2.80153
    R7        2.03113   0.00122   0.00047   0.00340   0.00387   2.03500
    R8        2.29056  -0.00536   0.00038  -0.00561  -0.00523   2.28533
    R9        2.87548   0.00717   0.00359   0.01968   0.02320   2.89868
   R10        2.42445  -0.00834  -0.00110  -0.01309  -0.01428   2.41017
   R11        2.05496  -0.00186  -0.00153  -0.00548  -0.00701   2.04795
    A1        2.15965   0.01210   0.00442   0.04702   0.05139   2.21105
    A2        2.10775  -0.00439  -0.00168  -0.01952  -0.02125   2.08650
    A3        2.01578  -0.00771  -0.00275  -0.02750  -0.03014   1.98564
    A4        1.81030   0.00545   0.00200   0.02526   0.02741   1.83771
    A5        2.27298  -0.00433  -0.00196  -0.02221  -0.02425   2.24873
    A6        2.19991  -0.00112  -0.00004  -0.00305  -0.00316   2.19675
    A7        2.28033   0.00091   0.00161   0.00572   0.00733   2.28766
    A8        1.80792  -0.00228  -0.00134  -0.01417  -0.01552   1.79240
    A9        2.19494   0.00137  -0.00027   0.00845   0.00819   2.20313
   A10        1.94229   0.00291   0.00043   0.00884   0.00913   1.95141
   A11        2.12746   0.00442   0.00342   0.03045   0.03395   2.16141
   A12        2.21344  -0.00733  -0.00385  -0.03929  -0.04307   2.17036
   A13        1.84849   0.00163   0.00166   0.00757   0.00913   1.85762
   A14        3.12278   0.00127  -0.00170   0.15879   0.15709   3.27987
   A15        3.10963   0.00200  -0.00225   0.25669   0.25443   3.36406
   A16        3.14151  -0.00000  -0.00001   0.00001   0.00000   3.14151
   A17        3.14160   0.00000   0.00000   0.00014   0.00014   3.14173
    D1       -3.14132  -0.00002  -0.00002  -0.00055  -0.00059   3.14128
    D2       -0.00008  -0.00001  -0.00003  -0.00041  -0.00046  -0.00054
    D3       -0.00087   0.00003   0.00007   0.00064   0.00070  -0.00017
    D4        3.14036   0.00003   0.00006   0.00078   0.00084   3.14120
    D5        3.14053   0.00004   0.00006   0.00084   0.00087   3.14140
    D6        0.00005  -0.00002  -0.00003  -0.00036  -0.00038  -0.00032
    D7       -3.13873  -0.00003  -0.00003  -0.00152  -0.00154  -3.14027
    D8        0.00122  -0.00002  -0.00007  -0.00062  -0.00070   0.00052
    D9        0.00320  -0.00003  -0.00001  -0.00165  -0.00167   0.00153
   D10       -3.14004  -0.00003  -0.00006  -0.00075  -0.00082  -3.14087
   D11       -0.00131   0.00002   0.00006   0.00048   0.00054  -0.00077
   D12        3.14005   0.00003   0.00006   0.00111   0.00118   3.14123
   D13        3.13874   0.00002   0.00002   0.00132   0.00133   3.14007
   D14       -0.00308   0.00004   0.00002   0.00194   0.00197  -0.00112
   D15        0.00080  -0.00000  -0.00002  -0.00011  -0.00014   0.00067
   D16       -3.14055  -0.00002  -0.00002  -0.00078  -0.00079  -3.14133
         Item               Value     Threshold  Converged?
 Maximum Force            0.021535     0.000450     NO 
 RMS     Force            0.006016     0.000300     NO 
 Maximum Displacement     0.792548     0.001800     NO 
 RMS     Displacement     0.176024     0.001200     NO 
 Predicted change in Energy=-3.125463D-03
 GradGradGradGradGradGradGradGradGradGradGradGradGradGradGradGradGradGrad

                          Input orientation:                          
 ---------------------------------------------------------------------
 Center     Atomic      Atomic             Coordinates (Angstroms)
 Number     Number       Type             X           Y           Z
 ---------------------------------------------------------------------
      1          6           0        1.213217    0.012500    0.047892
      2          6           0        2.386590   -0.247222    0.048187
      3          6           0        3.788337   -0.240734    0.049028
      4          6           0        4.601837   -1.322292    0.048010
      5          6           0        5.979701   -0.775199    0.049134
      6          8           0        7.054629   -1.329313    0.047633
      7          6           0        5.740826    0.740000    0.051638
      8          7           0        4.497354    1.023622    0.051015
      9          1           0        0.217773    0.382774    0.047830
     10          1           0        4.337517   -2.366224    0.046853
     11          1           0        6.536010    1.476310    0.053320
 ---------------------------------------------------------------------
                    Distance matrix (angstroms):
                    1          2          3          4          5
     1  C    0.000000
     2  C    1.201773   0.000000
     3  C    2.587541   1.401763   0.000000
     4  C    3.642034   2.462335   1.353348   0.000000
     5  C    4.831132   3.631695   2.255600   1.482505   0.000000
     6  O    5.993543   4.791818   3.442917   2.452803   1.209346
     7  C    4.585685   3.496501   2.184962   2.355920   1.533914
     8  N    3.436267   2.463814   1.449588   2.348242   2.330904
     9  H    1.062079   2.258464   3.624595   4.703962   5.877135
    10  H    3.926777   2.880328   2.195293   1.076875   2.286511
    11  H    5.520407   4.493137   3.240056   3.401945   2.319221
                    6          7          8          9         10
     6  O    0.000000
     7  C    2.451153   0.000000
     8  N    3.475050   1.275408   0.000000
     9  H    7.047967   5.534594   4.327298   0.000000
    10  H    2.908244   3.408507   3.393615   4.952704   0.000000
    11  H    2.853160   1.083731   2.088312   6.412173   4.427017
                   11
    11  H    0.000000
 Stoichiometry    C6H3NO
 Framework group  C1[X(C6H3NO)]
 Deg. of freedom    27
 Full point group                 C1      NOp   1
 Largest Abelian subgroup         C1      NOp   1
 Largest concise Abelian subgroup C1      NOp   1
                         Standard orientation:                         
 ---------------------------------------------------------------------
 Center     Atomic      Atomic             Coordinates (Angstroms)
 Number     Number       Type             X           Y           Z
 ---------------------------------------------------------------------
      1          6           0       -3.259969   -0.224273   -0.000321
      2          6           0       -2.060384   -0.296749   -0.000080
      3          6           0       -0.677002   -0.070491    0.000180
      4          6           0        0.296061   -1.011076    0.000598
      5          6           0        1.571067   -0.254649    0.000268
      6          8           0        2.719600   -0.633316   -0.000766
      7          6           0        1.097506    1.204335    0.000393
      8          7           0       -0.175060    1.289421   -0.000188
      9          1           0       -4.301167   -0.014707   -0.000583
     10          1           0        0.198743   -2.083544    0.001255
     11          1           0        1.767366    2.056250    0.000547
 ---------------------------------------------------------------------
 Rotational constants (GHZ):           7.1716807           1.3672024           1.1482930
 Standard basis: 6-31G(2df,p) (6D, 7F)
 There are   263 symmetry adapted cartesian basis functions of A   symmetry.
 There are   239 symmetry adapted basis functions of A   symmetry.
   239 basis functions,   373 primitive gaussians,   263 cartesian basis functions
    27 alpha electrons       27 beta electrons
       nuclear repulsion energy       298.3233150859 Hartrees.
 NAtoms=   11 NActive=   11 NUniq=   11 SFac= 1.00D+00 NAtFMM=   60 NAOKFM=F Big=F
 Integral buffers will be    131072 words long.
 Raffenetti 2 integral format.
 Two-electron integral symmetry is turned on.
 One-electron integrals computed using PRISM.
 PrsmSu:  requested number of processors reduced to:  13 ShMem   1 Linda.
 NBasis=   239 RedAO= T EigKep=  1.26D-04  NBF=   239
 NBsUse=   239 1.00D-06 EigRej= -1.00D+00 NBFU=   239
 Initial guess from the checkpoint file:  "CtCC1dCCpdOpCdN1.chk"
 B after Tr=     0.000000    0.000000    0.000000
         Rot=    0.999913   -0.000019    0.000001   -0.013164 Ang=  -1.51 deg.
 ExpMin= 1.61D-01 ExpMax= 5.48D+03 ExpMxC= 8.25D+02 IAcc=2 IRadAn=         4 AccDes= 0.00D+00
 Harris functional with IExCor=  402 and IRadAn=       4 diagonalized for initial guess.
 HarFok:  IExCor=  402 AccDes= 0.00D+00 IRadAn=         4 IDoV= 1 UseB2=F ITyADJ=14
 ICtDFT=  3500011 ScaDFX=  1.000000  1.000000  1.000000  1.000000
 FoFCou: FMM=F IPFlag=           0 FMFlag=      100000 FMFlg1=           0
         NFxFlg=           0 DoJE=T BraDBF=F KetDBF=T FulRan=T
         wScrn=  0.000000 ICntrl=       500 IOpCl=  0 I1Cent=   200000004 NGrid=           0
         NMat0=    1 NMatS0=      1 NMatT0=    0 NMatD0=    1 NMtDS0=    0 NMtDT0=    0
 Petite list used in FoFCou.
 Requested convergence on RMS density matrix=1.00D-08 within 128 cycles.
 Requested convergence on MAX density matrix=1.00D-06.
 Requested convergence on             energy=1.00D-06.
 No special actions if energy rises.
 Integral accuracy reduced to 1.0D-05 until final iterations.
 Initial convergence to 1.0D-05 achieved.  Increase integral accuracy.
 SCF Done:  E(RB3LYP) =  -360.307461341     A.U. after   15 cycles
            NFock= 15  Conv=0.79D-08     -V/T= 2.0071
 PrsmSu:  requested number of processors reduced to:  13 ShMem   1 Linda.
 Calling FoFJK, ICntrl=      2127 FMM=F ISym2X=0 I1Cent= 0 IOpClX= 0 NMat=1 NMatS=1 NMatT=0.
 ***** Axes restored to original set *****
 -------------------------------------------------------------------
 Center     Atomic                   Forces (Hartrees/Bohr)
 Number     Number              X              Y              Z
 -------------------------------------------------------------------
      1        6          -0.006626294    0.004682038    0.000000675
      2        6           0.003550326    0.014329355    0.000031867
      3        6          -0.000440588   -0.028465029   -0.000057615
      4        6           0.004459890    0.006806584    0.000029424
      5        6           0.004565367   -0.003654511   -0.000019611
      6        8          -0.004302514    0.001094203    0.000029814
      7        6          -0.003244473   -0.002459268   -0.000026300
      8        7           0.005840146    0.012098946    0.000052593
      9        1          -0.002928658   -0.005871013   -0.000009706
     10        1          -0.000482932   -0.000362608   -0.000020724
     11        1          -0.000390271    0.001801303   -0.000010416
 -------------------------------------------------------------------
 Cartesian Forces:  Max     0.028465029 RMS     0.006647461

 GradGradGradGradGradGradGradGradGradGradGradGradGradGradGradGradGradGrad
 Berny optimization.
 Using GEDIIS/GDIIS optimizer.
 FormGI is forming the generalized inverse of G from B-inverse, IUseBI=4.
 Internal  Forces:  Max     0.020419972 RMS     0.004729868
 Search for a local minimum.
 Step number   3 out of a maximum of   54
 All quantities printed in internal units (Hartrees-Bohrs-Radians)
 Mixed Optimization -- RFO/linear search
 Update second derivatives using D2CorX and points    1    3    2
 DE=  2.15D-04 DEPred=-3.13D-03 R=-6.89D-02
 Trust test=-6.89D-02 RLast= 3.28D-01 DXMaxT set to 2.52D-01
 ITU= -1  1  0
 Use linear search instead of GDIIS.
     Eigenvalues ---    0.00501   0.00545   0.00565   0.01121   0.01604
     Eigenvalues ---    0.01640   0.02101   0.02396   0.02497   0.02625
     Eigenvalues ---    0.11219   0.16000   0.17819   0.23557   0.24463
     Eigenvalues ---    0.25031   0.30320   0.31869   0.33802   0.36843
     Eigenvalues ---    0.37063   0.37847   0.41195   0.53672   0.65894
     Eigenvalues ---    0.82097   1.00167
 RFO step:  Lambda=-1.41574743D-02 EMin= 5.01385859D-03
 Quartic linear search produced a step of -0.51508.
 Maximum step size (   0.252) exceeded in Quadratic search.
    -- Step size scaled by   0.437
 Iteration  1 RMS(Cart)=  0.10391534 RMS(Int)=  0.01831894
 Iteration  2 RMS(Cart)=  0.05005203 RMS(Int)=  0.00163114
 Iteration  3 RMS(Cart)=  0.00247271 RMS(Int)=  0.00001168
 Iteration  4 RMS(Cart)=  0.00000302 RMS(Int)=  0.00001150
 Iteration  5 RMS(Cart)=  0.00000000 RMS(Int)=  0.00001150
 Variable       Old X    -DE/DX   Delta X   Delta X   Delta X     New X
                                 (Linear)    (Quad)   (Total)
    R1        2.27102   0.00907  -0.00419   0.02592   0.02173   2.29275
    R2        2.00704   0.00070   0.00242  -0.00611  -0.00369   2.00334
    R3        2.64895   0.00594   0.03795  -0.09063  -0.05268   2.59626
    R4        2.55746  -0.00223  -0.00080   0.00026  -0.00051   2.55694
    R5        2.73932   0.01044  -0.02753   0.07698   0.04945   2.78877
    R6        2.80153  -0.00120  -0.00687   0.01556   0.00870   2.81023
    R7        2.03500   0.00047  -0.00199   0.00539   0.00340   2.03840
    R8        2.28533  -0.00433   0.00269  -0.00884  -0.00615   2.27919
    R9        2.89868   0.00145  -0.01195   0.03068   0.01872   2.91739
   R10        2.41017  -0.00207   0.00735  -0.02020  -0.01287   2.39730
   R11        2.04795   0.00094   0.00361  -0.00806  -0.00445   2.04351
    A1        2.21105   0.00831  -0.02647   0.07546   0.04898   2.26002
    A2        2.08650  -0.00616   0.01095  -0.03408  -0.02314   2.06336
    A3        1.98564  -0.00215   0.01552  -0.04138  -0.02583   1.95980
    A4        1.83771   0.00242  -0.01412   0.03877   0.02468   1.86239
    A5        2.24873  -0.00160   0.01249  -0.03352  -0.02105   2.22768
    A6        2.19675  -0.00083   0.00163  -0.00524  -0.00363   2.19312
    A7        2.28766  -0.00103  -0.00378   0.00835   0.00457   2.29223
    A8        1.79240  -0.00022   0.00800  -0.02125  -0.01325   1.77915
    A9        2.20313   0.00125  -0.00422   0.01290   0.00868   2.21181
   A10        1.95141   0.00173  -0.00470   0.01372   0.00899   1.96040
   A11        2.16141   0.00076  -0.01748   0.04502   0.02755   2.18896
   A12        2.17036  -0.00249   0.02219  -0.05873  -0.03653   2.13383
   A13        1.85762  -0.00178  -0.00470   0.01014   0.00541   1.86303
   A14        3.27987  -0.01309  -0.08091  -0.08724  -0.16815   3.11172
   A15        3.36406  -0.02042  -0.13105  -0.14744  -0.27849   3.08557
   A16        3.14151   0.00000  -0.00000   0.00001   0.00001   3.14152
   A17        3.14173  -0.00001  -0.00007  -0.00001  -0.00008   3.14165
    D1        3.14128   0.00001   0.00030  -0.00056  -0.00026   3.14102
    D2       -0.00054   0.00001   0.00024  -0.00039  -0.00016  -0.00069
    D3       -0.00017   0.00000  -0.00036   0.00065   0.00030   0.00012
    D4        3.14120   0.00000  -0.00043   0.00082   0.00039   3.14159
    D5        3.14140   0.00000  -0.00045   0.00082   0.00038  -3.14141
    D6       -0.00032   0.00001   0.00019  -0.00029  -0.00010  -0.00042
    D7       -3.14027  -0.00001   0.00079  -0.00119  -0.00039  -3.14066
    D8        0.00052  -0.00001   0.00036  -0.00071  -0.00035   0.00017
    D9        0.00153  -0.00001   0.00086  -0.00134  -0.00048   0.00105
   D10       -3.14087  -0.00001   0.00042  -0.00087  -0.00044  -3.14131
   D11       -0.00077   0.00002  -0.00028   0.00060   0.00032  -0.00045
   D12        3.14123   0.00001  -0.00061   0.00106   0.00045  -3.14151
   D13        3.14007   0.00002  -0.00069   0.00104   0.00035   3.14042
   D14       -0.00112   0.00001  -0.00101   0.00150   0.00049  -0.00063
   D15        0.00067  -0.00002   0.00007  -0.00022  -0.00014   0.00052
   D16       -3.14133  -0.00001   0.00041  -0.00066  -0.00026  -3.14159
         Item               Value     Threshold  Converged?
 Maximum Force            0.020420     0.000450     NO 
 RMS     Force            0.004730     0.000300     NO 
 Maximum Displacement     0.691136     0.001800     NO 
 RMS     Displacement     0.147317     0.001200     NO 
 Predicted change in Energy=-6.709125D-03
 GradGradGradGradGradGradGradGradGradGradGradGradGradGradGradGradGradGrad

                          Input orientation:                          
 ---------------------------------------------------------------------
 Center     Atomic      Atomic             Coordinates (Angstroms)
 Number     Number       Type             X           Y           Z
 ---------------------------------------------------------------------
      1          6           0        1.207213    0.015152    0.047855
      2          6           0        2.419877   -0.023250    0.048647
      3          6           0        3.788481   -0.143563    0.049483
      4          6           0        4.554210   -1.259124    0.048043
      5          6           0        5.970456   -0.805540    0.049146
      6          8           0        7.005296   -1.425027    0.047688
      7          6           0        5.813878    0.730316    0.051646
      8          7           0        4.597533    1.090651    0.051407
      9          1           0        0.147091    0.017040    0.047162
     10          1           0        4.222717   -2.285596    0.046512
     11          1           0        6.627039    1.443160    0.052950
 ---------------------------------------------------------------------
                    Distance matrix (angstroms):
                    1          2          3          4          5
     1  C    0.000000
     2  C    1.213272   0.000000
     3  C    2.586144   1.373883   0.000000
     4  C    3.581364   2.466325   1.353077   0.000000
     5  C    4.833427   3.635738   2.280181   1.487109   0.000000
     6  O    5.974268   4.794898   3.462665   2.456694   1.206093
     7  C    4.661850   3.476653   2.205879   2.354708   1.543818
     8  N    3.556822   2.446011   1.475755   2.350177   2.341039
     9  H    1.060124   2.273143   3.644931   4.588168   5.881175
    10  H    3.792981   2.892826   2.185606   1.078673   2.290233
    11  H    5.604796   4.455400   3.251940   3.405728   2.342598
                    6          7          8          9         10
     6  O    0.000000
     7  C    2.462721   0.000000
     8  N    3.482237   1.268597   0.000000
     9  H    7.008176   5.711502   4.578110   0.000000
    10  H    2.912615   3.409919   3.396992   4.681117   0.000000
    11  H    2.893027   1.081378   2.059893   6.635026   4.436713
                   11
    11  H    0.000000
 Stoichiometry    C6H3NO
 Framework group  C1[X(C6H3NO)]
 Deg. of freedom    27
 Full point group                 C1      NOp   1
 Largest Abelian subgroup         C1      NOp   1
 Largest concise Abelian subgroup C1      NOp   1
                         Standard orientation:                         
 ---------------------------------------------------------------------
 Center     Atomic      Atomic             Coordinates (Angstroms)
 Number     Number       Type             X           Y           Z
 ---------------------------------------------------------------------
      1          6           0       -3.267610   -0.288498   -0.000379
      2          6           0       -2.065767   -0.122361   -0.000047
      3          6           0       -0.696426   -0.010735    0.000399
      4          6           0        0.246047   -0.981591    0.000506
      5          6           0        1.565811   -0.296232    0.000233
      6          8           0        2.690113   -0.732816   -0.000629
      7          6           0        1.153107    1.191400    0.000215
      8          7           0       -0.106520    1.341990   -0.000105
      9          1           0       -4.312943   -0.464969   -0.000617
     10          1           0        0.091948   -2.049200    0.000847
     11          1           0        1.834767    2.030875   -0.000032
 ---------------------------------------------------------------------
 Rotational constants (GHZ):           6.9098610           1.3682308           1.1420851
 Standard basis: 6-31G(2df,p) (6D, 7F)
 There are   263 symmetry adapted cartesian basis functions of A   symmetry.
 There are   239 symmetry adapted basis functions of A   symmetry.
   239 basis functions,   373 primitive gaussians,   263 cartesian basis functions
    27 alpha electrons       27 beta electrons
       nuclear repulsion energy       297.7183751690 Hartrees.
 NAtoms=   11 NActive=   11 NUniq=   11 SFac= 1.00D+00 NAtFMM=   60 NAOKFM=F Big=F
 Integral buffers will be    131072 words long.
 Raffenetti 2 integral format.
 Two-electron integral symmetry is turned on.
 One-electron integrals computed using PRISM.
 PrsmSu:  requested number of processors reduced to:  13 ShMem   1 Linda.
 NBasis=   239 RedAO= T EigKep=  8.91D-05  NBF=   239
 NBsUse=   239 1.00D-06 EigRej= -1.00D+00 NBFU=   239
 Lowest energy guess from the checkpoint file:  "CtCC1dCCpdOpCdN1.chk"
 B after Tr=     0.000000    0.000000    0.000000
         Rot=    0.999986   -0.000004    0.000001   -0.005197 Ang=  -0.60 deg.
 B after Tr=    -0.000000   -0.000000   -0.000000
         Rot=    0.999968    0.000025    0.000000    0.008002 Ang=   0.92 deg.
 Requested convergence on RMS density matrix=1.00D-08 within 128 cycles.
 Requested convergence on MAX density matrix=1.00D-06.
 Requested convergence on             energy=1.00D-06.
 No special actions if energy rises.
 Integral accuracy reduced to 1.0D-05 until final iterations.
 Initial convergence to 1.0D-05 achieved.  Increase integral accuracy.
 SCF Done:  E(RB3LYP) =  -360.309823188     A.U. after   13 cycles
            NFock= 13  Conv=0.50D-08     -V/T= 2.0072
 PrsmSu:  requested number of processors reduced to:  13 ShMem   1 Linda.
 Calling FoFJK, ICntrl=      2127 FMM=F ISym2X=0 I1Cent= 0 IOpClX= 0 NMat=1 NMatS=1 NMatT=0.
 ***** Axes restored to original set *****
 -------------------------------------------------------------------
 Center     Atomic                   Forces (Hartrees/Bohr)
 Number     Number              X              Y              Z
 -------------------------------------------------------------------
      1        6           0.017071405   -0.000514876    0.000013430
      2        6          -0.041550868   -0.002017332   -0.000008568
      3        6           0.030762837   -0.004228942   -0.000051092
      4        6          -0.000592057    0.000529998    0.000034388
      5        6          -0.001961125    0.004556126   -0.000020409
      6        8          -0.002971180   -0.000590673    0.000022232
      7        6           0.000820198   -0.004205089   -0.000022531
      8        7          -0.003937333    0.004599325    0.000042091
      9        1          -0.002109171    0.001500154   -0.000001800
     10        1           0.000780429    0.000067103   -0.000008309
     11        1           0.003686865    0.000304207    0.000000567
 -------------------------------------------------------------------
 Cartesian Forces:  Max     0.041550868 RMS     0.009687399

 GradGradGradGradGradGradGradGradGradGradGradGradGradGradGradGradGradGrad
 Berny optimization.
 Using GEDIIS/GDIIS optimizer.
 FormGI is forming the generalized inverse of G from B-inverse, IUseBI=4.
 Internal  Forces:  Max     0.026396099 RMS     0.005012520
 Search for a local minimum.
 Step number   4 out of a maximum of   54
 All quantities printed in internal units (Hartrees-Bohrs-Radians)
 Mixed Optimization -- RFO/linear search
 Update second derivatives using D2CorX and points    1    3    2    4
 DE= -2.15D-03 DEPred=-6.71D-03 R= 3.20D-01
 Trust test= 3.20D-01 RLast= 2.52D-01 DXMaxT set to 2.52D-01
 ITU=  0 -1  1  0
 Use linear search instead of GDIIS.
     Eigenvalues ---    0.00501   0.00546   0.00565   0.01119   0.01570
     Eigenvalues ---    0.01639   0.02091   0.02390   0.02642   0.08264
     Eigenvalues ---    0.13824   0.16000   0.18840   0.23527   0.24408
     Eigenvalues ---    0.25041   0.31659   0.33568   0.34067   0.36699
     Eigenvalues ---    0.37091   0.37864   0.42194   0.51389   0.55711
     Eigenvalues ---    0.66189   0.99973
 RFO step:  Lambda=-1.04085359D-03 EMin= 5.01385859D-03
 Quartic linear search produced a step of -0.34505.
 Iteration  1 RMS(Cart)=  0.03535291 RMS(Int)=  0.00092924
 Iteration  2 RMS(Cart)=  0.00147674 RMS(Int)=  0.00005356
 Iteration  3 RMS(Cart)=  0.00000022 RMS(Int)=  0.00005356
 Variable       Old X    -DE/DX   Delta X   Delta X   Delta X     New X
                                 (Linear)    (Quad)   (Total)
    R1        2.29275  -0.01492  -0.01031  -0.00528  -0.01558   2.27717
    R2        2.00334   0.00211   0.00290   0.00144   0.00434   2.00768
    R3        2.59626   0.02640   0.04360   0.02046   0.06406   2.66032
    R4        2.55694  -0.00382  -0.00036  -0.00408  -0.00453   2.55241
    R5        2.78877   0.00292  -0.03551   0.02958  -0.00594   2.78283
    R6        2.81023  -0.00380  -0.00761  -0.00134  -0.00899   2.80123
    R7        2.03840  -0.00030  -0.00251   0.00139  -0.00112   2.03727
    R8        2.27919  -0.00225   0.00392  -0.00422  -0.00029   2.27889
    R9        2.91739  -0.00284  -0.01446   0.00560  -0.00880   2.90860
   R10        2.39730   0.00409   0.00937  -0.00275   0.00671   2.40401
   R11        2.04351   0.00297   0.00395   0.00244   0.00639   2.04990
    A1        2.26002  -0.00225  -0.03463   0.02287  -0.01171   2.24831
    A2        2.06336   0.00012   0.01532  -0.01337   0.00200   2.06536
    A3        1.95980   0.00213   0.01931  -0.00949   0.00971   1.96952
    A4        1.86239  -0.00075  -0.01798   0.01017  -0.00796   1.85443
    A5        2.22768   0.00111   0.01563  -0.00770   0.00800   2.23568
    A6        2.19312  -0.00036   0.00234  -0.00246  -0.00004   2.19308
    A7        2.29223  -0.00370  -0.00411  -0.00498  -0.00909   2.28314
    A8        1.77915   0.00277   0.00993  -0.00223   0.00771   1.78686
    A9        2.21181   0.00093  -0.00582   0.00721   0.00138   2.21319
   A10        1.96040  -0.00082  -0.00625   0.00396  -0.00215   1.95825
   A11        2.18896  -0.00184  -0.02122   0.00937  -0.01192   2.17704
   A12        2.13383   0.00266   0.02747  -0.01333   0.01407   2.14790
   A13        1.86303  -0.00333  -0.00502  -0.00240  -0.00731   1.85573
   A14        3.11172   0.00300   0.00382  -0.03630  -0.03248   3.07924
   A15        3.08557   0.00634   0.00830   0.08555   0.09386   3.17942
   A16        3.14152   0.00000  -0.00000   0.00026   0.00026   3.14177
   A17        3.14165  -0.00000  -0.00002  -0.00051  -0.00053   3.14112
    D1        3.14102   0.00002   0.00029   0.00009   0.00040   3.14142
    D2       -0.00069   0.00002   0.00021   0.00008   0.00031  -0.00039
    D3        0.00012  -0.00001  -0.00034   0.00034  -0.00000   0.00012
    D4        3.14159  -0.00001  -0.00042   0.00033  -0.00010   3.14150
    D5       -3.14141  -0.00001  -0.00043   0.00042   0.00002  -3.14138
    D6       -0.00042   0.00002   0.00016   0.00022   0.00037  -0.00005
    D7       -3.14066  -0.00001   0.00067  -0.00175  -0.00108   3.14144
    D8        0.00017   0.00000   0.00036  -0.00067  -0.00030  -0.00013
    D9        0.00105  -0.00001   0.00074  -0.00173  -0.00099   0.00006
   D10       -3.14131   0.00000   0.00044  -0.00065  -0.00021  -3.14152
   D11       -0.00045   0.00001  -0.00030   0.00086   0.00057   0.00011
   D12       -3.14151  -0.00001  -0.00056   0.00084   0.00027  -3.14124
   D13        3.14042   0.00002  -0.00058   0.00187   0.00130  -3.14146
   D14       -0.00063   0.00000  -0.00085   0.00184   0.00100   0.00037
   D15        0.00052  -0.00001   0.00010  -0.00068  -0.00057  -0.00005
   D16       -3.14159  -0.00000   0.00036  -0.00064  -0.00029   3.14131
         Item               Value     Threshold  Converged?
 Maximum Force            0.026396     0.000450     NO 
 RMS     Force            0.005013     0.000300     NO 
 Maximum Displacement     0.131466     0.001800     NO 
 RMS     Displacement     0.034807     0.001200     NO 
 Predicted change in Energy=-1.389272D-03
 GradGradGradGradGradGradGradGradGradGradGradGradGradGradGradGradGradGrad

                          Input orientation:                          
 ---------------------------------------------------------------------
 Center     Atomic      Atomic             Coordinates (Angstroms)
 Number     Number       Type             X           Y           Z
 ---------------------------------------------------------------------
      1          6           0        1.194271    0.043898    0.048093
      2          6           0        2.392964   -0.079482    0.048860
      3          6           0        3.797796   -0.170555    0.049381
      4          6           0        4.574628   -1.275481    0.047752
      5          6           0        5.977402   -0.796333    0.049065
      6          8           0        7.018315   -1.405254    0.048516
      7          6           0        5.803715    0.732998    0.051435
      8          7           0        4.579151    1.077668    0.051638
      9          1           0        0.132712    0.086609    0.047172
     10          1           0        4.263112   -2.307570    0.046051
     11          1           0        6.619725    1.447723    0.052577
 ---------------------------------------------------------------------
                    Distance matrix (angstroms):
                    1          2          3          4          5
     1  C    0.000000
     2  C    1.205026   0.000000
     3  C    2.612342   1.407781   0.000000
     4  C    3.628715   2.487985   1.350678   0.000000
     5  C    4.856370   3.655417   2.267660   1.482350   0.000000
     6  O    6.001627   4.811605   3.449091   2.447131   1.205937
     7  C    4.660669   3.506187   2.200028   2.354709   1.539164
     8  N    3.539223   2.473543   1.472611   2.353157   2.338161
     9  H    1.062419   2.266347   3.674096   4.646063   5.911006
    10  H    3.866160   2.908924   2.187090   1.078078   2.285309
    11  H    5.604132   4.494205   3.253017   3.405626   2.334177
                    6          7          8          9         10
     6  O    0.000000
     7  C    2.459143   0.000000
     8  N    3.480580   1.272146   0.000000
     9  H    7.045367   5.707724   4.555550   0.000000
    10  H    2.899193   3.408598   3.399964   4.774129   0.000000
    11  H    2.880689   1.084761   2.073858   6.628273   4.433497
                   11
    11  H    0.000000
 Stoichiometry    C6H3NO
 Framework group  C1[X(C6H3NO)]
 Deg. of freedom    27
 Full point group                 C1      NOp   1
 Largest Abelian subgroup         C1      NOp   1
 Largest concise Abelian subgroup C1      NOp   1
                         Standard orientation:                         
 ---------------------------------------------------------------------
 Center     Atomic      Atomic             Coordinates (Angstroms)
 Number     Number       Type             X           Y           Z
 ---------------------------------------------------------------------
      1          6           0       -3.284597   -0.254828   -0.000215
      2          6           0       -2.082159   -0.175894    0.000208
      3          6           0       -0.681894   -0.030617    0.000239
      4          6           0        0.268869   -0.989982    0.000045
      5          6           0        1.571692   -0.282866   -0.000053
      6          8           0        2.699819   -0.709030   -0.000088
      7          6           0        1.144555    1.195843   -0.000078
      8          7           0       -0.120417    1.330752    0.000123
      9          1           0       -4.338337   -0.390349   -0.000724
     10          1           0        0.134442   -2.059646    0.000155
     11          1           0        1.829469    2.037033   -0.000462
 ---------------------------------------------------------------------
 Rotational constants (GHZ):           6.9799233           1.3567871           1.1359720
 Standard basis: 6-31G(2df,p) (6D, 7F)
 There are   263 symmetry adapted cartesian basis functions of A   symmetry.
 There are   239 symmetry adapted basis functions of A   symmetry.
   239 basis functions,   373 primitive gaussians,   263 cartesian basis functions
    27 alpha electrons       27 beta electrons
       nuclear repulsion energy       297.2781739892 Hartrees.
 NAtoms=   11 NActive=   11 NUniq=   11 SFac= 1.00D+00 NAtFMM=   60 NAOKFM=F Big=F
 Integral buffers will be    131072 words long.
 Raffenetti 2 integral format.
 Two-electron integral symmetry is turned on.
 One-electron integrals computed using PRISM.
 PrsmSu:  requested number of processors reduced to:  13 ShMem   1 Linda.
 NBasis=   239 RedAO= T EigKep=  1.02D-04  NBF=   239
 NBsUse=   239 1.00D-06 EigRej= -1.00D+00 NBFU=   239
 Initial guess from the checkpoint file:  "CtCC1dCCpdOpCdN1.chk"
 B after Tr=     0.000000    0.000000    0.000000
         Rot=    0.999998   -0.000006   -0.000001   -0.001852 Ang=  -0.21 deg.
 ExpMin= 1.61D-01 ExpMax= 5.48D+03 ExpMxC= 8.25D+02 IAcc=2 IRadAn=         4 AccDes= 0.00D+00
 Harris functional with IExCor=  402 and IRadAn=       4 diagonalized for initial guess.
 HarFok:  IExCor=  402 AccDes= 0.00D+00 IRadAn=         4 IDoV= 1 UseB2=F ITyADJ=14
 ICtDFT=  3500011 ScaDFX=  1.000000  1.000000  1.000000  1.000000
 FoFCou: FMM=F IPFlag=           0 FMFlag=      100000 FMFlg1=           0
         NFxFlg=           0 DoJE=T BraDBF=F KetDBF=T FulRan=T
         wScrn=  0.000000 ICntrl=       500 IOpCl=  0 I1Cent=   200000004 NGrid=           0
         NMat0=    1 NMatS0=      1 NMatT0=    0 NMatD0=    1 NMtDS0=    0 NMtDT0=    0
 Petite list used in FoFCou.
 Requested convergence on RMS density matrix=1.00D-08 within 128 cycles.
 Requested convergence on MAX density matrix=1.00D-06.
 Requested convergence on             energy=1.00D-06.
 No special actions if energy rises.
 Integral accuracy reduced to 1.0D-05 until final iterations.
 Initial convergence to 1.0D-05 achieved.  Increase integral accuracy.
 SCF Done:  E(RB3LYP) =  -360.311095232     A.U. after   12 cycles
            NFock= 12  Conv=0.74D-08     -V/T= 2.0073
 PrsmSu:  requested number of processors reduced to:  13 ShMem   1 Linda.
 Calling FoFJK, ICntrl=      2127 FMM=F ISym2X=0 I1Cent= 0 IOpClX= 0 NMat=1 NMatS=1 NMatT=0.
 ***** Axes restored to original set *****
 -------------------------------------------------------------------
 Center     Atomic                   Forces (Hartrees/Bohr)
 Number     Number              X              Y              Z
 -------------------------------------------------------------------
      1        6          -0.000166373   -0.002642232   -0.000004048
      2        6           0.001734785    0.001958240   -0.000004971
      3        6           0.001064778   -0.005243696   -0.000016302
      4        6          -0.001696821    0.001663677    0.000020273
      5        6          -0.000020071    0.001837891    0.000000439
      6        8          -0.001068973   -0.000278267   -0.000002542
      7        6          -0.000310708   -0.001522051   -0.000012702
      8        7          -0.000540354    0.003125264    0.000003883
      9        1          -0.000156674    0.001285984    0.000008350
     10        1           0.000378821   -0.000043240   -0.000003494
     11        1           0.000781591   -0.000141569    0.000011114
 -------------------------------------------------------------------
 Cartesian Forces:  Max     0.005243696 RMS     0.001431855

 GradGradGradGradGradGradGradGradGradGradGradGradGradGradGradGradGradGrad
 Berny optimization.
 Using GEDIIS/GDIIS optimizer.
 FormGI is forming the generalized inverse of G from B-inverse, IUseBI=4.
 Internal  Forces:  Max     0.003079826 RMS     0.000895488
 Search for a local minimum.
 Step number   5 out of a maximum of   54
 All quantities printed in internal units (Hartrees-Bohrs-Radians)
 Mixed Optimization -- En-DIIS/RFO-DIIS
 Update second derivatives using D2CorX and points    1    3    2    4    5
 DE= -1.27D-03 DEPred=-1.39D-03 R= 9.16D-01
 TightC=F SS=  1.41D+00  RLast= 1.24D-01 DXNew= 4.2426D-01 3.7279D-01
 Trust test= 9.16D-01 RLast= 1.24D-01 DXMaxT set to 3.73D-01
 ITU=  1  0 -1  1  0
 Use linear search instead of GDIIS.
     Eigenvalues ---    0.00501   0.00565   0.00728   0.01117   0.01586
     Eigenvalues ---    0.01636   0.02095   0.02390   0.02638   0.08753
     Eigenvalues ---    0.14249   0.15994   0.18742   0.23536   0.23737
     Eigenvalues ---    0.25024   0.31767   0.33740   0.35777   0.36970
     Eigenvalues ---    0.37567   0.37865   0.40248   0.53002   0.66066
     Eigenvalues ---    0.78043   0.99835
 RFO step:  Lambda=-8.73292616D-04 EMin= 5.01387777D-03
 Quartic linear search produced a step of -0.05130.
 Iteration  1 RMS(Cart)=  0.04133632 RMS(Int)=  0.01098354
 Iteration  2 RMS(Cart)=  0.01759924 RMS(Int)=  0.00063295
 Iteration  3 RMS(Cart)=  0.00061555 RMS(Int)=  0.00000347
 Iteration  4 RMS(Cart)=  0.00000001 RMS(Int)=  0.00000347
 Variable       Old X    -DE/DX   Delta X   Delta X   Delta X     New X
                                 (Linear)    (Quad)   (Total)
    R1        2.27717   0.00018   0.00080  -0.00977  -0.00898   2.26819
    R2        2.00768   0.00021  -0.00022   0.00263   0.00241   2.01009
    R3        2.66032  -0.00137  -0.00329   0.02501   0.02172   2.68204
    R4        2.55241  -0.00308   0.00023  -0.00813  -0.00790   2.54451
    R5        2.78283   0.00212   0.00030   0.01592   0.01622   2.79905
    R6        2.80123  -0.00087   0.00046  -0.00552  -0.00506   2.79617
    R7        2.03727  -0.00007   0.00006   0.00015   0.00021   2.03748
    R8        2.27889  -0.00078   0.00002  -0.00261  -0.00259   2.27630
    R9        2.90860  -0.00109   0.00045  -0.00274  -0.00229   2.90631
   R10        2.40401   0.00059  -0.00034   0.00184   0.00151   2.40551
   R11        2.04990   0.00049  -0.00033   0.00430   0.00397   2.05387
    A1        2.24831   0.00006   0.00060   0.00757   0.00818   2.25649
    A2        2.06536  -0.00120  -0.00010  -0.01012  -0.01022   2.05514
    A3        1.96952   0.00114  -0.00050   0.00254   0.00204   1.97156
    A4        1.85443  -0.00032   0.00041  -0.00024   0.00016   1.85459
    A5        2.23568   0.00054  -0.00041   0.00232   0.00191   2.23759
    A6        2.19308  -0.00022   0.00000  -0.00208  -0.00208   2.19100
    A7        2.28314  -0.00130   0.00047  -0.00935  -0.00889   2.27425
    A8        1.78686   0.00081  -0.00040   0.00384   0.00345   1.79030
    A9        2.21319   0.00048  -0.00007   0.00551   0.00544   2.21863
   A10        1.95825   0.00001   0.00011   0.00193   0.00204   1.96029
   A11        2.17704  -0.00064   0.00061  -0.00339  -0.00278   2.17426
   A12        2.14790   0.00063  -0.00072   0.00146   0.00074   2.14864
   A13        1.85573  -0.00164   0.00037  -0.00807  -0.00769   1.84804
   A14        3.07924   0.00257   0.00167   0.26757   0.26924   3.34847
   A15        3.17942  -0.00058  -0.00481  -0.14878  -0.15360   3.02582
   A16        3.14177  -0.00001  -0.00001  -0.00076  -0.00077   3.14100
   A17        3.14112   0.00002   0.00003   0.00274   0.00276   3.14388
    D1        3.14142   0.00000  -0.00002   0.00032   0.00030  -3.14146
    D2       -0.00039   0.00001  -0.00002   0.00042   0.00040   0.00001
    D3        0.00012  -0.00000   0.00000  -0.00008  -0.00008   0.00004
    D4        3.14150  -0.00000   0.00000   0.00002   0.00002   3.14152
    D5       -3.14138  -0.00001  -0.00000  -0.00004  -0.00004  -3.14142
    D6       -0.00005   0.00000  -0.00002   0.00032   0.00030   0.00025
    D7        3.14144   0.00000   0.00006  -0.00087  -0.00082   3.14063
    D8       -0.00013   0.00000   0.00002  -0.00015  -0.00013  -0.00027
    D9        0.00006  -0.00000   0.00005  -0.00097  -0.00091  -0.00085
   D10       -3.14152   0.00000   0.00001  -0.00024  -0.00023   3.14144
   D11        0.00011  -0.00000  -0.00003   0.00037   0.00034   0.00046
   D12       -3.14124  -0.00001  -0.00001  -0.00006  -0.00007  -3.14131
[...]
    R7        2.03699   0.00000   0.00000   0.00000   0.00000   2.03699
    R8        2.27853  -0.00001   0.00000  -0.00001  -0.00001   2.27852
    R9        2.90146  -0.00002   0.00000  -0.00011  -0.00011   2.90135
   R10        2.40523  -0.00002   0.00000  -0.00001  -0.00001   2.40522
   R11        2.05134   0.00001   0.00000   0.00004   0.00004   2.05138
    A1        2.25495  -0.00003   0.00000  -0.00018  -0.00018   2.25477
    A2        2.05715   0.00001   0.00000   0.00010   0.00010   2.05725
    A3        1.97108   0.00002   0.00000   0.00008   0.00008   1.97116
    A4        1.85327  -0.00002   0.00000  -0.00009  -0.00009   1.85318
    A5        2.24130   0.00001   0.00000   0.00001   0.00001   2.24131
    A6        2.18861   0.00001   0.00000   0.00008   0.00008   2.18870
    A7        2.27653  -0.00001   0.00000  -0.00003  -0.00003   2.27651
    A8        1.79041   0.00000   0.00000   0.00001   0.00001   1.79042
    A9        2.21625   0.00001   0.00000   0.00001   0.00001   2.21626
   A10        1.96055   0.00002   0.00000   0.00005   0.00005   1.96060
   A11        2.16969   0.00001   0.00000   0.00017   0.00017   2.16986
   A12        2.15294  -0.00003   0.00000  -0.00022  -0.00022   2.15272
   A13        1.84946  -0.00002   0.00000  -0.00005  -0.00005   1.84941
   A14        3.13680   0.00001   0.00000   0.00017   0.00017   3.13697
   A15        3.15631   0.00000   0.00000  -0.00007  -0.00007   3.15624
   A16        3.14141   0.00000   0.00000   0.00018   0.00018   3.14159
   A17        3.14147   0.00000   0.00000   0.00012   0.00012   3.14159
    D1       -3.14158  -0.00000   0.00000  -0.00002  -0.00002  -3.14159
    D2        0.00003  -0.00000   0.00000  -0.00003  -0.00003   0.00000
    D3       -0.00002   0.00000   0.00000   0.00002   0.00002   0.00000
    D4        3.14159   0.00000   0.00000   0.00001   0.00001   3.14159
    D5        3.14158   0.00000   0.00000   0.00001   0.00001   3.14159
    D6        0.00002  -0.00000   0.00000  -0.00002  -0.00002   0.00000
    D7       -3.14158  -0.00000   0.00000  -0.00002  -0.00002   3.14159
    D8        0.00002  -0.00000   0.00000  -0.00002  -0.00002  -0.00000
    D9        0.00000  -0.00000   0.00000  -0.00000  -0.00000  -0.00000
   D10       -3.14159  -0.00000   0.00000  -0.00000  -0.00000  -3.14159
   D11       -0.00001  -0.00000   0.00000   0.00001   0.00001   0.00000
   D12        3.14157   0.00000   0.00000   0.00003   0.00003   3.14159
   D13        3.14159  -0.00000   0.00000   0.00001   0.00001  -3.14159
   D14       -0.00003   0.00000   0.00000   0.00003   0.00003   0.00000
   D15       -0.00001   0.00000   0.00000   0.00001   0.00001   0.00000
   D16       -3.14158  -0.00000   0.00000  -0.00002  -0.00002  -3.14159
         Item               Value     Threshold  Converged?
 Maximum Force            0.000246     0.000450     YES
 RMS     Force            0.000039     0.000300     YES
 Maximum Displacement     0.000354     0.001800     YES
 RMS     Displacement     0.000119     0.001200     YES
 Predicted change in Energy=-4.396976D-08
 Optimization completed.
    -- Stationary point found.
                           ----------------------------
                           !   Optimized Parameters   !
                           ! (Angstroms and Degrees)  !
 --------------------------                            --------------------------
 ! Name  Definition              Value          Derivative Info.                !
 --------------------------------------------------------------------------------
 ! R1    R(1,2)                  1.2051         -DE/DX =   -0.0002              !
 ! R2    R(1,9)                  1.0626         -DE/DX =    0.0                 !
 ! R3    R(2,3)                  1.4061         -DE/DX =    0.0                 !
 ! R4    R(3,4)                  1.3469         -DE/DX =    0.0                 !
 ! R5    R(3,8)                  1.4795         -DE/DX =    0.0                 !
 ! R6    R(4,5)                  1.4816         -DE/DX =    0.0                 !
 ! R7    R(4,10)                 1.0779         -DE/DX =    0.0                 !
 ! R8    R(5,6)                  1.2057         -DE/DX =    0.0                 !
 ! R9    R(5,7)                  1.5354         -DE/DX =    0.0                 !
 ! R10   R(7,8)                  1.2728         -DE/DX =    0.0                 !
 ! R11   R(7,11)                 1.0855         -DE/DX =    0.0                 !
 ! A1    A(2,3,4)              129.1991         -DE/DX =    0.0                 !
 ! A2    A(2,3,8)              117.8663         -DE/DX =    0.0                 !
 ! A3    A(4,3,8)              112.9346         -DE/DX =    0.0                 !
 ! A4    A(3,4,5)              106.1847         -DE/DX =    0.0                 !
 ! A5    A(3,4,10)             128.4171         -DE/DX =    0.0                 !
 ! A6    A(5,4,10)             125.3982         -DE/DX =    0.0                 !
 ! A7    A(4,5,6)              130.4356         -DE/DX =    0.0                 !
 ! A8    A(4,5,7)              102.5827         -DE/DX =    0.0                 !
 ! A9    A(6,5,7)              126.9817         -DE/DX =    0.0                 !
 ! A10   A(5,7,8)              112.3315         -DE/DX =    0.0                 !
 ! A11   A(5,7,11)             124.3141         -DE/DX =    0.0                 !
 ! A12   A(8,7,11)             123.3544         -DE/DX =    0.0                 !
 ! A13   A(3,8,7)              105.9664         -DE/DX =    0.0                 !
 ! A14   L(2,1,9,10,-1)        179.7256         -DE/DX =    0.0                 !
 ! A15   L(1,2,3,10,-1)        180.843          -DE/DX =    0.0                 !
 ! A16   L(2,1,9,10,-2)        179.9894         -DE/DX =    0.0                 !
 ! A17   L(1,2,3,10,-2)        179.993          -DE/DX =    0.0                 !
 ! D1    D(2,3,4,5)           -179.9991         -DE/DX =    0.0                 !
 ! D2    D(2,3,4,10)             0.0017         -DE/DX =    0.0                 !
 ! D3    D(8,3,4,5)             -0.0012         -DE/DX =    0.0                 !
 ! D4    D(8,3,4,10)           179.9996         -DE/DX =    0.0                 !
 ! D5    D(2,3,8,7)            179.9992         -DE/DX =    0.0                 !
 ! D6    D(4,3,8,7)              0.001          -DE/DX =    0.0                 !
 ! D7    D(3,4,5,6)            180.0009         -DE/DX =    0.0                 !
 ! D8    D(3,4,5,7)              0.0009         -DE/DX =    0.0                 !
 ! D9    D(10,4,5,6)             0.0001         -DE/DX =    0.0                 !
 ! D10   D(10,4,5,7)          -179.9999         -DE/DX =    0.0                 !
 ! D11   D(4,5,7,8)             -0.0003         -DE/DX =    0.0                 !
 ! D12   D(4,5,7,11)           179.9984         -DE/DX =    0.0                 !
 ! D13   D(6,5,7,8)           -180.0004         -DE/DX =    0.0                 !
 ! D14   D(6,5,7,11)            -0.0016         -DE/DX =    0.0                 !
 ! D15   D(5,7,8,3)             -0.0004         -DE/DX =    0.0                 !
 ! D16   D(11,7,8,3)          -179.9991         -DE/DX =    0.0                 !
 --------------------------------------------------------------------------------
 GradGradGradGradGradGradGradGradGradGradGradGradGradGradGradGradGradGrad


 ----------------------------------------------------------------------

 Electric dipole moment (input orientation):
 (Debye = 10**-18 statcoulomb cm , SI units = C m)
                  (au)            (Debye)         (10**-30 SI)
   Tot        0.802611D+00      0.204003D+01      0.680482D+01
   x         -0.801674D+00     -0.203765D+01     -0.679688D+01
   y         -0.387651D-01     -0.985312D-01     -0.328665D+00
   z         -0.430715D-03     -0.109477D-02     -0.365175D-02

 Dipole polarizability, Alpha (input orientation).
 (esu units = cm**3 , SI units = C**2 m**2 J**-1)
 Alpha(0;0):
               (au)            (10**-24 esu)      (10**-40 SI)
   iso        0.711841D+02      0.105484D+02      0.117367D+02
   aniso      0.870460D+02      0.128989D+02      0.143520D+02
   xx         0.124477D+03      0.184456D+02      0.205235D+02
   yx        -0.139798D+02     -0.207159D+01     -0.230496D+01
   yy         0.586839D+02      0.869606D+01      0.967567D+01
   zx         0.250695D-01      0.371492D-02      0.413341D-02
   zy         0.364449D-01      0.540057D-02      0.600895D-02
   zz         0.303912D+02      0.450351D+01      0.501083D+01

 ----------------------------------------------------------------------

 Dipole orientation:
     6          0.09268487         -0.06228835         -2.25457199
     6          0.10690902         -0.36172730         -4.51202505
     6          0.12145966         -0.67237940         -7.15092238
     6          0.22197287         -2.81723758         -8.51768095
     6          0.18523396         -2.03259384        -11.20509081
     8          0.24373076         -3.28123368        -13.11012846
     6          0.04975786          0.85961165        -11.01732771
     7          0.01379852          1.62678061         -8.73800604
     1          0.08078736          0.19222853         -0.26279980
     1          0.31203263         -4.73991799         -7.85097215
     1         -0.00931162          2.12185228        -12.63326336

 Electric dipole moment (dipole orientation):
 (Debye = 10**-18 statcoulomb cm , SI units = C m)
                  (au)            (Debye)         (10**-30 SI)
   Tot        0.802611D+00      0.204003D+01      0.680482D+01
   x          0.000000D+00      0.000000D+00      0.000000D+00
   y          0.000000D+00      0.000000D+00      0.000000D+00
   z          0.802611D+00      0.204003D+01      0.680482D+01

 Dipole polarizability, Alpha (dipole orientation).
 (esu units = cm**3 , SI units = C**2 m**2 J**-1)
 Alpha(0;0):
               (au)            (10**-24 esu)      (10**-40 SI)
   iso        0.711841D+02      0.105484D+02      0.117367D+02
   aniso      0.870460D+02      0.128989D+02      0.143520D+02
   xx         0.304564D+02      0.451318D+01      0.502159D+01
   yx        -0.139323D+01     -0.206456D+00     -0.229713D+00
   yy         0.601210D+02      0.890902D+01      0.991262D+01
   zx        -0.802502D+00     -0.118918D+00     -0.132315D+00
   zy         0.170698D+02      0.252948D+01      0.281442D+01
   zz         0.122975D+03      0.182230D+02      0.202758D+02

 ----------------------------------------------------------------------
 1\1\GINC-LEWIS4-R630-HPC4-NODE303\Freq\RB3LYP\6-31G(2df,p)\C6H3N1O1\KS
 29C\03-Jul-2022\0\\#N Geom=AllCheck Guess=TCheck SCRF=Check GenChk RB3
 LYP/6-31G(2df,p) Freq\\Title Card Required\\0,1\C,1.193354707,0.022371
 7153,0.0480377208\C,2.3942150309,-0.0783806363,0.048543848\C,3.7969780
 816,-0.1753120301,0.0490442832\C,4.5742720149,-1.2753078453,0.04774000
 16\C,5.9746514507,-0.7914364749,0.0491388852\O,7.0135263156,-1.4034500
 211,0.0486853959\C,5.8014044572,0.734141987,0.0513991733\N,4.577017608
 ,1.0818249395,0.0513530254\H,0.1340721843,0.1061388217,0.0476886555\H,
 4.2710724362,-2.3097122836,0.0460115495\H,6.6232257136,1.4433418275,0.
 0528974616\\Version=ES64L-G16RevA.03\State=1-A\HF=-360.3112314\RMSD=1.
 626e-09\RMSF=6.278e-05\ZeroPoint=0.0712847\Thermal=0.0779195\Dipole=-0
 .8016741,-0.0387651,-0.0004307\DipoleDeriv=-0.174634,0.0077654,0.00001
 35,-0.0153402,-0.1700129,-0.0000197,-0.0001389,0.0000158,-0.1616456,-0
 .588124,0.0714474,-0.0001609,-0.0698407,-0.0734549,-0.0001041,-0.00035
 2,-0.0000393,-0.0299382,1.0318159,-0.0469611,0.0003528,0.0002319,0.336
 0648,0.0002888,0.0004283,0.0002734,0.1473626,-0.9987454,0.1950785,-0.0
 000971,-0.0995962,-0.1607329,-0.0000007,-0.0005331,0.0001463,-0.193728
 2,1.6589521,-0.3690221,0.0000797,0.1329311,0.4589507,0.0002848,0.00082
 94,0.0000341,0.3203788,-1.1263147,0.299027,0.000069,0.2976277,-0.49667
 64,-0.0001367,0.0000766,-0.0001352,-0.3163819,0.3782948,0.0141556,0.00
 01688,0.0073991,0.1025797,0.0000381,0.0001619,0.0000437,0.0814819,-0.5
 479587,-0.0733358,-0.0002384,-0.1117533,-0.2552093,-0.0000109,-0.00029
 43,0.0000008,-0.2830228,0.2998495,-0.0171525,0.0000218,-0.006581,0.205
 3522,0.0000186,0.0001166,-0.0000037,0.1911628,0.0661519,-0.0342555,-0.
 0000914,-0.0471836,0.0357455,-0.0001955,-0.0001081,-0.0001919,0.148552
 ,0.0007124,-0.0467469,-0.0001178,-0.0878947,0.0173933,-0.0001627,-0.00
 01863,-0.0001439,0.0957787\Polar=124.4771997,-13.9798098,58.6839387,0.
 0250695,0.0364449,30.3912137\Quadrupole=3.1622875,-2.386898,-0.7753895
 ,3.9579916,0.0080249,-0.0006097\PG=C01 [X(C6H3N1O1)]\NImag=0\\1.507232
 18,-0.11948179,0.05275876,0.00056712,-0.00004957,0.04436624,-1.0617334
 4,0.08417896,-0.00042333,1.44205821,0.08485394,-0.03449515,0.00003809,
 -0.10478614,0.10613132,-0.00042443,0.00003827,-0.02927936,0.00055380,0
 .00000153,0.06850531,-0.02737034,0.00397017,-0.00000806,-0.31746833,0.
 02143959,-0.00008708,0.75194558,0.01191913,0.00436260,0.00000922,0.012
 70937,-0.07430196,-0.00001311,-0.17649353,0.54124069,-0.00000266,0.000
 00480,0.00260226,-0.00009446,-0.00000818,-0.06208377,0.00001049,0.0004
 9776,0.16017734,0.00770498,-0.00056857,0.00000235,-0.04539013,0.031651
 82,0.00002033,-0.21860703,0.15788621,0.00016406,0.51813389,-0.01143113
 ,0.00028587,-0.00000790,0.01723683,0.00641199,0.00000085,0.17122391,-0
 .33889973,-0.00034758,-0.02846540,0.88321342,-0.00001383,-0.00000163,0
 .00118215,-0.00000098,0.00000651,0.01177364,0.00018442,-0.00035410,-0.
 05740632,0.00015663,0.00118898,0.09678948,-0.00169851,-0.00013960,-0.0
 0000005,0.00798610,-0.00101117,-0.00000347,-0.04603519,0.06214584,0.00
 007934,-0.12282573,-0.05508037,-0.00011012,0.85820898,0.00228986,0.000
 16287,0.00000240,0.00230828,-0.00786235,-0.00002889,0.03455435,0.01959
 661,0.00006322,-0.05175317,-0.13070217,-0.00011906,-0.25153346,0.53930
 845,0.00000351,0.00000027,-0.00032869,0.00000121,-0.00003022,0.0117169
 6,0.00003567,0.00007595,-0.01083288,-0.00010435,-0.00012077,-0.0687685
 5,-0.00006717,0.00043548,0.17871029,0.00079576,-0.00006292,0.00000013,
 -0.00646912,0.00336895,0.00000299,-0.00189583,-0.02362056,-0.00003988,
 -0.07265157,0.03197289,0.00000708,-0.57219721,0.29148960,0.00020568,0.
 64862505,-0.00152542,0.00007556,-0.00000069,0.00306356,0.00153832,0.00
 000783,-0.01066255,0.00039291,-0.00001417,0.01300216,0.02387556,0.0000
 1705,0.28349336,-0.27222478,-0.00019962,-0.34124638,0.27484997,-0.0000
 0211,0.00000031,-0.00008230,0.00000300,0.00000771,-0.00250195,-0.00002
 001,-0.00002002,0.00619918,-0.00002218,0.00002591,0.01675009,0.0001936
 6,-0.00019579,-0.05568767,-0.00023089,0.00022729,0.02267886,-0.0020769
 4,0.00041997,-0.00000091,0.00357736,-0.00435481,-0.00000308,-0.0698799
 7,-0.03199095,-0.00008211,-0.00641560,-0.02092750,-0.00004876,-0.07845
 173,-0.03221733,-0.00004310,-0.00843434,0.04778483,0.00005922,0.928220
 71,-0.00358324,0.00094424,-0.00000127,0.00286778,-0.00601809,-0.000002
 71,-0.04707859,-0.01189514,-0.00003903,-0.01863457,-0.04177903,-0.0001
 1777,-0.06010169,-0.13913593,-0.00009831,0.03353707,-0.01500618,-0.000
 04096,0.07206919,0.54677308,-0.00000685,0.00000105,0.00053990,0.000007
 38,-0.00000667,-0.00318521,-0.00010535,-0.00003142,-0.00096549,-0.0000
 4510,-0.00011860,0.02924809,-0.00008523,-0.00008621,-0.09328461,0.0000
 3705,-0.00003404,0.02183103,0.00050143,0.00070225,0.11448781,0.0010726
 4,-0.00026374,-0.00000009,-0.03076285,-0.02850479,-0.00006180,-0.07629
 929,-0.03405016,-0.00005949,0.01716734,-0.02158642,-0.00002592,-0.0538
 0752,0.02477090,-0.00000230,0.01092270,0.00458033,0.00001477,-0.555321
 54,0.16250862,0.00000271,0.71352140,0.00539220,-0.00164037,-0.00000134
 ,-0.01725394,0.00670834,-0.00000906,0.01214337,-0.13452549,-0.00010816
 ,-0.01845264,-0.05988780,-0.00010387,0.03998029,-0.00865992,-0.0000440
 9,0.00108381,-0.01417298,-0.00001243,0.11291064,-0.14373851,-0.0001123
 9,-0.12009689,0.34461340,0.00000861,-0.00000427,0.00107131,-0.00004433
 ,-0.00001362,0.00686571,0.00001154,-0.00013113,-0.06023433,-0.00002110
 ,-0.00010488,0.00198206,0.00001995,-0.00005156,0.03242113,0.00000987,-
 0.00001072,-0.00575392,-0.00007291,-0.00008881,-0.03633655,0.00012558,
 0.00038172,0.05961963,-0.42350979,0.03204244,-0.00013685,0.00764636,-0
 .00059814,0.00000403,-0.00017658,0.00050281,-0.00000242,0.00071038,0.0
 0018425,0.00000088,-0.00094801,-0.00030303,-0.00000053,0.00053365,-0.0
 0010331,-0.00000001,-0.00003980,0.00004743,0.00000003,0.00016820,-0.00
 000852,0.00000022,0.41556072,0.03118920,-0.02250251,0.00001084,0.00023
 156,0.00049202,-0.00000190,0.00019615,0.00653854,0.00000012,-0.0011995
 9,-0.00054656,-0.00000050,0.00025562,0.00047935,0.00000216,-0.00025511
 ,-0.00011069,-0.00000066,0.00012778,0.00028065,0.00000041,0.00111718,-
 0.00040662,0.00000044,-0.03183552,0.01586354,-0.00012960,0.00001061,-0
 .02000425,-0.00000341,-0.00000151,0.00157895,-0.00000259,0.00000009,0.
 00644692,-0.00000082,0.00000039,-0.00057426,-0.00000039,0.00000132,-0.
 00071493,0.,-0.00000049,0.00021461,0.00000021,0.00000046,-0.00001968,0
 .00000179,0.00000001,-0.00032004,0.00013460,-0.00001057,0.01321091,-0.
 00012716,-0.00016432,-0.00000048,0.00093836,-0.00076780,0.00000125,0.0
 0953592,0.01920544,0.00003293,-0.07780960,-0.08585841,-0.00015510,0.00
 335131,-0.02489123,-0.00003683,0.00098298,0.00368338,0.00000680,-0.006
 41985,-0.00308417,-0.00000835,-0.00126268,0.00426654,0.00000226,0.0000
 0948,0.00010564,0.00000011,0.06995388,0.00017536,0.00012826,-0.0000001
 6,-0.00042353,0.00045286,0.00000688,-0.01161036,-0.01081936,-0.0000255
 5,-0.08214903,-0.33711819,-0.00051241,0.00358270,-0.00012570,0.0000007
 7,-0.00092342,0.00034978,0.00000233,0.00167142,-0.00053061,-0.00000181
 ,0.00060915,-0.00206432,-0.00001452,0.00004538,-0.00002968,-0.00000025
 ,0.08905111,0.34959759,-0.00000009,-0.00000022,0.00027120,0.00000180,0
 .00000666,-0.00414490,-0.00001418,-0.00000996,0.00213191,-0.00014924,-
 0.00051500,-0.02784876,0.00000681,-0.00001268,0.00045089,-0.00000025,0
 .00000451,-0.00145195,-0.00000100,-0.00000413,0.00116531,-0.00000352,-
 0.00001290,0.00765107,-0.00000001,-0.00000028,0.00016052,0.00015980,0.
 00054597,0.02065191,-0.00028939,0.00006939,0.00000017,-0.00038252,-0.0
 0129146,-0.00000255,-0.00374893,0.00178639,-0.00000580,-0.00001693,0.0
 0273134,0.00000570,0.00641752,0.00528524,0.00000820,-0.00021206,-0.002
 06997,-0.00000225,-0.20475830,-0.13854783,-0.00029772,-0.02539839,-0.0
 1996485,-0.00003969,0.00004538,0.00006709,0.00000009,0.00084735,-0.000
 02879,-0.00000012,0.22749626,0.00020189,-0.00008012,0.00000039,-0.0001
 3273,0.00094269,0.00000031,0.00231749,-0.00168967,-0.00002322,-0.00131
 722,-0.00485338,-0.00000320,-0.02159154,-0.00083643,-0.00002161,0.0046
 5606,0.00043253,0.00000630,-0.14549324,-0.18989447,-0.00031257,0.01091
 582,0.01377426,0.00003735,0.00002621,-0.00005804,-0.00000005,-0.001546
 19,0.00015937,-0.00000197,0.15196344,0.18210327,0.00000033,0.00000039,
 -0.00033845,-0.00000068,-0.00000031,0.00075461,-0.00000485,-0.00002328
 ,0.01396519,-0.00000059,-0.00000139,-0.00312762,-0.00003333,-0.0000082
 4,0.00631805,0.00000821,0.00000305,-0.00219599,-0.00030898,-0.00030969
 ,-0.03348061,0.00000825,0.00002252,-0.00696607,0.00000006,-0.00000007,
 0.00002125,-0.00000240,-0.00000124,0.00096280,0.00033397,0.00031827,0.
 02408684\\-0.00026968,0.00002964,-0.00000532,0.00021143,-0.00000822,0.
 00000665,-0.00000980,-0.00005081,-0.00000502,0.00001371,0.00003494,0.0
 0000153,-0.00001074,-0.00003213,0.00000032,0.00001549,-0.00000235,-0.0
 0000028,0.00002553,0.00006356,-0.00000108,-0.00000850,-0.00000605,0.00
 000094,0.00002498,-0.00000639,0.00000161,0.00000343,0.00000220,-0.0000
 0006,0.00000415,-0.00002438,0.00000070\\\@


 NEVER TEACH A PIG TO SING.
 IT WASTES YOUR TIME AND ANNOYS THE PIG.
     -- SEEN ON A GREETING CARD
 Job cpu time:       0 days  0 hours 53 minutes  3.3 seconds.
 Elapsed time:       0 days  0 hours 13 minutes 21.6 seconds.
 File lengths (MBytes):  RWF=     63 Int=      0 D2E=      0 Chk=      6 Scr=      1
 Normal termination of Gaussian 16 at Sun Jul  3 16:07:56 2022.
### All Done ###
