### Starting Gaussian ###
 Entering Gaussian System, Link 0=g16
 Initial command:
 /cluster/software/gaussian/gaussian-16-A.03/avx2/g16/l1.exe "/local/scratch/ks29c/Gau-4902.inp" -scrdir="/local/scratch/ks29c/"
 Entering Link 1 = /cluster/software/gaussian/gaussian-16-A.03/avx2/g16/l1.exe PID=      4903.
  
 Copyright (c) 1988,1990,1992,1993,1995,1998,2003,2009,2016,
            Gaussian, Inc.  All Rights Reserved.
  
 This is part of the Gaussian(R) 16 program.  It is based on
 the Gaussian(R) 09 system (copyright 2009, Gaussian, Inc.),
 the Gaussian(R) 03 system (copyright 2003, Gaussian, Inc.),
 the Gaussian(R) 98 system (copyright 1998, Gaussian, Inc.),
 the Gaussian(R) 94 system (copyright 1995, Gaussian, Inc.),
 the Gaussian 92(TM) system (copyright 1992, Gaussian, Inc.),
 the Gaussian 90(TM) system (copyright 1990, Gaussian, Inc.),
 the Gaussian 88(TM) system (copyright 1988, Gaussian, Inc.),
 the Gaussian 86(TM) system (copyright 1986, Carnegie Mellon
 University), and the Gaussian 82(TM) system (copyright 1983,
 Carnegie Mellon University). Gaussian is a federally registered
 trademark of Gaussian, Inc.
  
 This software contains proprietary and confidential information,
 including trade secrets, belonging to Gaussian, Inc.
  
 This software is provided under written license and may be
 used, copied, transmitted, or stored only in accord with that
 written license.
  
 The following legend is applicable only to US Government
 contracts under FAR:
  
                    RESTRICTED RIGHTS LEGEND
  
 Use, reproduction and disclosure by the US Government is
 subject to restrictions as set forth in subparagraphs (a)
 and (c) of the Commercial Computer Software - Restricted
 Rights clause in FAR 52.227-19.
  
 Gaussian, Inc.
 340 Quinnipiac St., Bldg. 40, Wallingford CT 06492
  
  
 ---------------------------------------------------------------
 Warning -- This program may not be used in any manner that
 competes with the business of Gaussian, Inc. or will provide
 assistance to any competitor of Gaussian, Inc.  The licensee
 of this program is prohibited from giving any competitor of
 Gaussian, Inc. access to this program.  By using this program,
 the user acknowledges that Gaussian, Inc. is engaged in the
 business of creating and licensing software in the field of
 computational chemistry and represents and warrants to the
 licensee that it is not a competitor of Gaussian, Inc. and that
 it will not use this program in any manner prohibited above.
 ---------------------------------------------------------------
  

 Cite this work as:
 Gaussian 16, Revision A.03,
 M. J. Frisch, G. W. Trucks, H. B. Schlegel, G. E. Scuseria, 
 M. A. Robb, J. R. Cheeseman, G. Scalmani, V. Barone, 
 G. A. Petersson, H. Nakatsuji, X. Li, M. Caricato, A. V. Marenich, 
 J. Bloino, B. G. Janesko, R. Gomperts, B. Mennucci, H. P. Hratchian, 
 J. V. Ortiz, A. F. Izmaylov, J. L. Sonnenberg, D. Williams-Young, 
 F. Ding, F. Lipparini, F. Egidi, J. Goings, B. Peng, A. Petrone, 
 T. Henderson, D. Ranasinghe, V. G. Zakrzewski, J. Gao, N. Rega, 
 G. Zheng, W. Liang, M. Hada, M. Ehara, K. Toyota, R. Fukuda, 
 J. Hasegawa, M. Ishida, T. Nakajima, Y. Honda, O. Kitao, H. Nakai, 
 T. Vreven, K. Throssell, J. A. Montgomery, Jr., J. E. Peralta, 
 F. Ogliaro, M. J. Bearpark, J. J. Heyd, E. N. Brothers, K. N. Kudin, 
 V. N. Staroverov, T. A. Keith, R. Kobayashi, J. Normand, 
 K. Raghavachari, A. P. Rendell, J. C. Burant, S. S. Iyengar, 
 J. Tomasi, M. Cossi, J. M. Millam, M. Klene, C. Adamo, R. Cammi, 
 J. W. Ochterski, R. L. Martin, K. Morokuma, O. Farkas, 
 J. B. Foresman, and D. J. Fox, Gaussian, Inc., Wallingford CT, 2016.
 
 ******************************************
 Gaussian 16:  ES64L-G16RevA.03 25-Dec-2016
                 3-Jul-2022 
 ******************************************
 %chk=NC1CdNC2dCCC2dC1.chk
 %NProcShared=20
 Will use up to   20 processors via shared memory.
 -----------------------------
 # opt freq b3lyp/6-31g(2df,p)
 -----------------------------
 1/18=20,19=15,26=3,38=1/1,3;
 2/9=110,12=2,17=6,18=5,40=1/2;
 3/5=1,6=6,7=104,11=2,25=1,30=1,71=1,74=-5/1,2,3;
 4//1;
 5/5=2,38=5/2;
 6/7=2,8=2,9=2,10=2,28=1/1;
 7//1,2,3,16;
 1/18=20,19=15,26=3/3(2);
 2/9=110/2;
 99//99;
 2/9=110/2;
 3/5=1,6=6,7=104,11=2,25=1,30=1,71=1,74=-5/1,2,3;
 4/5=5,16=3,69=1/1;
 5/5=2,38=5/2;
 7//1,2,3,16;
 1/18=20,19=15,26=3/3(-5);
 2/9=110/2;
 6/7=2,8=2,9=2,10=2,19=2,28=1/1;
 99/9=1/99;
 -------------------
 Title Card Required
 -------------------
 Symbolic Z-matrix:
 Charge =  0 Multiplicity = 1
 N                     0.93089  -0.00865  -0.23347 
 C                     2.40003  -0.01487  -0.25983 
 C                     2.88087   1.20958   0.57861 
 N                     3.25851   1.20028   1.83191 
 C                     3.40762  -0.06678   2.36575 
 C                     3.647    -0.73988   3.50532 
 C                     3.66985  -2.09905   2.75546 
 C                     3.26445  -1.25308   1.60061 
 C                     2.84152  -1.30991   0.3452 
 H                     0.58534   0.89791  -0.538 
 H                     0.64614  -0.08574   0.74872 
 H                     2.78363   0.08459  -1.27772 
 H                     2.82132   2.18518   0.06689 
 H                     3.79179  -0.38584   4.51739 
 H                     2.92865  -2.85372   3.04264 
 H                     4.63724  -2.60115   2.63726 
 H                     2.72048  -2.25522  -0.16571 
 

 GradGradGradGradGradGradGradGradGradGradGradGradGradGradGradGradGradGrad
 Berny optimization.
 Initialization pass.
                           ----------------------------
                           !    Initial Parameters    !
                           ! (Angstroms and Degrees)  !
 --------------------------                            --------------------------
 ! Name  Definition              Value          Derivative Info.                !
 --------------------------------------------------------------------------------
 ! R1    R(1,2)                  1.4694         estimate D2E/DX2                !
 ! R2    R(1,10)                 1.0169         estimate D2E/DX2                !
 ! R3    R(1,11)                 1.0255         estimate D2E/DX2                !
 ! R4    R(2,3)                  1.56           estimate D2E/DX2                !
 ! R5    R(2,9)                  1.496          estimate D2E/DX2                !
 ! R6    R(2,12)                 1.0923         estimate D2E/DX2                !
 ! R7    R(3,4)                  1.309          estimate D2E/DX2                !
 ! R8    R(3,13)                 1.1033         estimate D2E/DX2                !
 ! R9    R(4,5)                  1.383          estimate D2E/DX2                !
 ! R10   R(5,6)                  1.345          estimate D2E/DX2                !
 ! R11   R(5,8)                  1.4189         estimate D2E/DX2                !
 ! R12   R(6,7)                  1.5525         estimate D2E/DX2                !
 ! R13   R(6,14)                 1.0819         estimate D2E/DX2                !
 ! R14   R(7,8)                  1.4878         estimate D2E/DX2                !
 ! R15   R(7,15)                 1.0961         estimate D2E/DX2                !
 ! R16   R(7,16)                 1.0963         estimate D2E/DX2                !
 ! R17   R(8,9)                  1.326          estimate D2E/DX2                !
 ! R18   R(9,17)                 1.0813         estimate D2E/DX2                !
 ! A1    A(2,1,10)             109.7652         estimate D2E/DX2                !
 ! A2    A(2,1,11)             107.1261         estimate D2E/DX2                !
 ! A3    A(10,1,11)            105.0396         estimate D2E/DX2                !
 ! A4    A(1,2,3)              107.1709         estimate D2E/DX2                !
 ! A5    A(1,2,9)              106.9458         estimate D2E/DX2                !
 ! A6    A(1,2,12)             111.5587         estimate D2E/DX2                !
 ! A7    A(3,2,9)              111.7859         estimate D2E/DX2                !
 ! A8    A(3,2,12)             108.7318         estimate D2E/DX2                !
 ! A9    A(9,2,12)             110.6131         estimate D2E/DX2                !
 ! A10   A(2,3,4)              126.7238         estimate D2E/DX2                !
 ! A11   A(2,3,13)             115.3511         estimate D2E/DX2                !
 ! A12   A(4,3,13)             117.7713         estimate D2E/DX2                !
 ! A13   A(3,4,5)              114.0288         estimate D2E/DX2                !
 ! A14   A(4,5,6)              143.5853         estimate D2E/DX2                !
 ! A15   A(4,5,8)              123.1587         estimate D2E/DX2                !
 ! A16   A(6,5,8)               93.2353         estimate D2E/DX2                !
 ! A17   A(5,6,7)               91.8061         estimate D2E/DX2                !
 ! A18   A(5,6,14)             130.739          estimate D2E/DX2                !
 ! A19   A(7,6,14)             137.4201         estimate D2E/DX2                !
 ! A20   A(6,7,8)               82.7098         estimate D2E/DX2                !
 ! A21   A(6,7,15)             117.7936         estimate D2E/DX2                !
 ! A22   A(6,7,16)             117.7767         estimate D2E/DX2                !
 ! A23   A(8,7,15)             114.2423         estimate D2E/DX2                !
 ! A24   A(8,7,16)             114.6548         estimate D2E/DX2                !
 ! A25   A(15,7,16)            108.0363         estimate D2E/DX2                !
 ! A26   A(5,8,7)               91.6805         estimate D2E/DX2                !
 ! A27   A(5,8,9)              125.3509         estimate D2E/DX2                !
 ! A28   A(7,8,9)              142.8856         estimate D2E/DX2                !
 ! A29   A(2,9,8)              116.0997         estimate D2E/DX2                !
 ! A30   A(2,9,17)             122.1841         estimate D2E/DX2                !
 ! A31   A(8,9,17)             121.3667         estimate D2E/DX2                !
 ! D1    D(10,1,2,3)            53.5729         estimate D2E/DX2                !
 ! D2    D(10,1,2,9)           173.5884         estimate D2E/DX2                !
 ! D3    D(10,1,2,12)          -65.3404         estimate D2E/DX2                !
 ! D4    D(11,1,2,3)           -59.9584         estimate D2E/DX2                !
 ! D5    D(11,1,2,9)            60.0572         estimate D2E/DX2                !
 ! D6    D(11,1,2,12)         -178.8716         estimate D2E/DX2                !
 ! D7    D(1,2,3,4)             97.1088         estimate D2E/DX2                !
 ! D8    D(1,2,3,13)           -78.2524         estimate D2E/DX2                !
 ! D9    D(9,2,3,4)            -19.7652         estimate D2E/DX2                !
 ! D10   D(9,2,3,13)           164.8736         estimate D2E/DX2                !
 ! D11   D(12,2,3,4)          -142.1683         estimate D2E/DX2                !
 ! D12   D(12,2,3,13)           42.4705         estimate D2E/DX2                !
 ! D13   D(1,2,9,8)           -101.6533         estimate D2E/DX2                !
 ! D14   D(1,2,9,17)            71.6418         estimate D2E/DX2                !
 ! D15   D(3,2,9,8)             15.3566         estimate D2E/DX2                !
 ! D16   D(3,2,9,17)          -171.3484         estimate D2E/DX2                !
 ! D17   D(12,2,9,8)           136.6775         estimate D2E/DX2                !
 ! D18   D(12,2,9,17)          -50.0275         estimate D2E/DX2                !
 ! D19   D(2,3,4,5)              9.5541         estimate D2E/DX2                !
 ! D20   D(13,3,4,5)          -175.1839         estimate D2E/DX2                !
 ! D21   D(3,4,5,6)           -173.2643         estimate D2E/DX2                !
 ! D22   D(3,4,5,8)              4.552          estimate D2E/DX2                !
 ! D23   D(4,5,6,7)           -175.994          estimate D2E/DX2                !
 ! D24   D(4,5,6,14)             2.1172         estimate D2E/DX2                !
 ! D25   D(8,5,6,7)              5.8369         estimate D2E/DX2                !
 ! D26   D(8,5,6,14)          -176.0519         estimate D2E/DX2                !
 ! D27   D(4,5,8,7)            175.2072         estimate D2E/DX2                !
 ! D28   D(4,5,8,9)             -7.4447         estimate D2E/DX2                !
 ! D29   D(6,5,8,7)             -6.091          estimate D2E/DX2                !
 ! D30   D(6,5,8,9)            171.2571         estimate D2E/DX2                !
 ! D31   D(5,6,7,8)             -5.6021         estimate D2E/DX2                !
 ! D32   D(5,6,7,15)          -119.2111         estimate D2E/DX2                !
 ! D33   D(5,6,7,16)           108.4733         estimate D2E/DX2                !
 ! D34   D(14,6,7,8)           176.5132         estimate D2E/DX2                !
 ! D35   D(14,6,7,15)           62.9041         estimate D2E/DX2                !
 ! D36   D(14,6,7,16)          -69.4114         estimate D2E/DX2                !
 ! D37   D(6,7,8,5)              5.3091         estimate D2E/DX2                !
 ! D38   D(6,7,8,9)           -171.1053         estimate D2E/DX2                !
 ! D39   D(15,7,8,5)           122.5635         estimate D2E/DX2                !
 ! D40   D(15,7,8,9)           -53.8508         estimate D2E/DX2                !
 ! D41   D(16,7,8,5)          -111.964          estimate D2E/DX2                !
 ! D42   D(16,7,8,9)            71.6216         estimate D2E/DX2                !
 ! D43   D(5,8,9,2)             -4.2664         estimate D2E/DX2                !
 ! D44   D(5,8,9,17)          -177.6207         estimate D2E/DX2                !
 ! D45   D(7,8,9,2)            171.3378         estimate D2E/DX2                !
 ! D46   D(7,8,9,17)            -2.0165         estimate D2E/DX2                !
 --------------------------------------------------------------------------------
 Trust Radius=3.00D-01 FncErr=1.00D-07 GrdErr=1.00D-06 EigMax=2.50D+02 EigMin=1.00D-04
 Number of steps in this run=    102 maximum allowed number of steps=    102.
 GradGradGradGradGradGradGradGradGradGradGradGradGradGradGradGradGradGrad

                          Input orientation:                          
 ---------------------------------------------------------------------
 Center     Atomic      Atomic             Coordinates (Angstroms)
 Number     Number       Type             X           Y           Z
 ---------------------------------------------------------------------
      1          7           0        0.930890   -0.008650   -0.233470
      2          6           0        2.400030   -0.014870   -0.259830
      3          6           0        2.880870    1.209580    0.578610
      4          7           0        3.258510    1.200280    1.831910
      5          6           0        3.407620   -0.066780    2.365750
      6          6           0        3.647000   -0.739880    3.505320
      7          6           0        3.669850   -2.099050    2.755460
      8          6           0        3.264450   -1.253080    1.600610
      9          6           0        2.841520   -1.309910    0.345200
     10          1           0        0.585340    0.897910   -0.538000
     11          1           0        0.646140   -0.085740    0.748720
     12          1           0        2.783630    0.084590   -1.277720
     13          1           0        2.821320    2.185180    0.066890
     14          1           0        3.791790   -0.385840    4.517390
     15          1           0        2.928650   -2.853720    3.042640
     16          1           0        4.637240   -2.601150    2.637260
     17          1           0        2.720480   -2.255220   -0.165710
 ---------------------------------------------------------------------
                    Distance matrix (angstroms):
                    1          2          3          4          5
     1  N    0.000000
     2  C    1.469390   0.000000
     3  C    2.438438   1.559957   0.000000
     4  N    3.338431   2.566896   1.308992   0.000000
     5  C    3.590754   2.812757   2.258413   1.382990   0.000000
     6  C    4.678729   4.031988   3.599025   2.591418   1.344986
     7  C    4.561291   3.879204   4.038341   3.450757   2.085848
     8  C    3.218378   2.396168   2.693754   2.464246   1.418888
     9  C    2.382990   1.496029   2.530585   2.947073   2.438947
    10  H    1.016855   2.050279   2.571656   3.585211   4.162650
    11  H    1.025535   2.024432   2.588592   3.106706   3.200143
    12  H    2.128802   1.092310   2.172791   3.337675   3.699615
    13  H    2.911500   2.263725   1.103267   2.067960   3.271059
    14  H    5.558569   4.989634   4.346162   3.164169   2.208832
    15  H    4.776857   4.386891   4.752277   4.243771   2.907684
    16  H    5.357161   4.481862   4.673814   4.123149   2.829967
    17  H    2.873030   2.265108   3.547475   4.027461   3.416097
                    6          7          8          9         10
     6  C    0.000000
     7  C    1.552467   0.000000
     8  C    2.009388   1.487848   0.000000
     9  C    3.310603   2.668000   1.325954   0.000000
    10  H    5.329592   5.416904   4.046979   3.277935   0.000000
    11  H    4.126973   4.150090   2.990643   2.545803   1.620775
    12  H    4.929770   4.671211   3.210192   2.140526   2.457876
    13  H    4.589175   5.128649   3.790817   3.506211   2.650012
    14  H    1.081940   2.460560   3.088333   4.377681   6.122606
    15  H    2.280004   1.096073   2.180427   3.109200   5.690941
    16  H    2.280006   1.096321   2.185518   3.185192   6.224435
    17  H    4.078131   3.075537   2.102397   1.081337   3.826180
                   11         12         13         14         15
    11  H    0.000000
    12  H    2.950311   0.000000
    13  H    3.217667   2.494369   0.000000
    14  H    4.918135   5.900931   5.230574   0.000000
    15  H    4.258360   5.226874   5.852958   3.001721   0.000000
    16  H    5.081609   5.096679   5.728291   3.026099   1.774093
    17  H    3.137788   2.591383   4.447631   5.154970   3.270328
                   16         17
    16  H    0.000000
    17  H    3.413250   0.000000
 Stoichiometry    C7H8N2
 Framework group  C1[X(C7H8N2)]
 Deg. of freedom    45
 Full point group                 C1      NOp   1
 Largest Abelian subgroup         C1      NOp   1
 Largest concise Abelian subgroup C1      NOp   1
                         Standard orientation:                         
 ---------------------------------------------------------------------
 Center     Atomic      Atomic             Coordinates (Angstroms)
 Number     Number       Type             X           Y           Z
 ---------------------------------------------------------------------
      1          7           0       -2.260529   -0.653428    0.870947
      2          6           0       -1.602957   -0.364231   -0.410876
      3          6           0       -1.230814    1.150679   -0.406106
      4          7           0       -0.069039    1.670318   -0.099978
      5          6           0        0.943877    0.739705    0.043616
      6          6           0        2.227846    0.585771    0.413367
      7          6           0        2.212757   -0.915614    0.018689
      8          6           0        0.768790   -0.644229   -0.215836
      9          6           0       -0.388066   -1.234191   -0.483762
     10          1           0       -3.034312   -0.009277    1.013511
     11          1           0       -1.588217   -0.430007    1.612434
     12          1           0       -2.267112   -0.559632   -1.255777
     13          1           0       -2.064379    1.842532   -0.615169
     14          1           0        2.942507    1.301255    0.797991
     15          1           0        2.410143   -1.652872    0.805370
     16          1           0        2.772945   -1.214607   -0.875018
     17          1           0       -0.453197   -2.302964   -0.634670
 ---------------------------------------------------------------------
 Rotational constants (GHZ):           3.3720101           1.5279661           1.1918075
 Standard basis: 6-31G(2df,p) (6D, 7F)
 There are   319 symmetry adapted cartesian basis functions of A   symmetry.
 There are   292 symmetry adapted basis functions of A   symmetry.
   292 basis functions,   452 primitive gaussians,   319 cartesian basis functions
    32 alpha electrons       32 beta electrons
       nuclear repulsion energy       421.0988853895 Hartrees.
 NAtoms=   17 NActive=   17 NUniq=   17 SFac= 1.00D+00 NAtFMM=   60 NAOKFM=F Big=F
 Integral buffers will be    131072 words long.
 Raffenetti 2 integral format.
 Two-electron integral symmetry is turned on.
 One-electron integrals computed using PRISM.
 PrsmSu:  requested number of processors reduced to:  13 ShMem   1 Linda.
 NBasis=   292 RedAO= T EigKep=  1.59D-04  NBF=   292
 NBsUse=   292 1.00D-06 EigRej= -1.00D+00 NBFU=   292
 ExpMin= 1.61D-01 ExpMax= 4.17D+03 ExpMxC= 6.27D+02 IAcc=3 IRadAn=         5 AccDes= 0.00D+00
 Harris functional with IExCor=  402 and IRadAn=       5 diagonalized for initial guess.
 HarFok:  IExCor=  402 AccDes= 0.00D+00 IRadAn=         5 IDoV= 1 UseB2=F ITyADJ=14
 ICtDFT=  3500011 ScaDFX=  1.000000  1.000000  1.000000  1.000000
 FoFCou: FMM=F IPFlag=           0 FMFlag=      100000 FMFlg1=           0
         NFxFlg=           0 DoJE=T BraDBF=F KetDBF=T FulRan=T
         wScrn=  0.000000 ICntrl=       500 IOpCl=  0 I1Cent=   200000004 NGrid=           0
         NMat0=    1 NMatS0=      1 NMatT0=    0 NMatD0=    1 NMtDS0=    0 NMtDT0=    0
 Petite list used in FoFCou.
 Requested convergence on RMS density matrix=1.00D-08 within 128 cycles.
 Requested convergence on MAX density matrix=1.00D-06.
 Requested convergence on             energy=1.00D-06.
 No special actions if energy rises.
 Integral accuracy reduced to 1.0D-05 until final iterations.
 Initial convergence to 1.0D-05 achieved.  Increase integral accuracy.
 SCF Done:  E(RB3LYP) =  -380.973482085     A.U. after   14 cycles
            NFock= 14  Conv=0.80D-08     -V/T= 2.0075

 **********************************************************************

            Population analysis using the SCF density.

 **********************************************************************

 Orbital symmetries:
       Occupied  (A) (A) (A) (A) (A) (A) (A) (A) (A) (A) (A) (A)
                 (A) (A) (A) (A) (A) (A) (A) (A) (A) (A) (A) (A)
                 (A) (A) (A) (A) (A) (A) (A) (A)
       Virtual   (A) (A) (A) (A) (A) (A) (A) (A) (A) (A) (A) (A)
                 (A) (A) (A) (A) (A) (A) (A) (A) (A) (A) (A) (A)
                 (A) (A) (A) (A) (A) (A) (A) (A) (A) (A) (A) (A)
                 (A) (A) (A) (A) (A) (A) (A) (A) (A) (A) (A) (A)
                 (A) (A) (A) (A) (A) (A) (A) (A) (A) (A) (A) (A)
                 (A) (A) (A) (A) (A) (A) (A) (A) (A) (A) (A) (A)
                 (A) (A) (A) (A) (A) (A) (A) (A) (A) (A) (A) (A)
                 (A) (A) (A) (A) (A) (A) (A) (A) (A) (A) (A) (A)
                 (A) (A) (A) (A) (A) (A) (A) (A) (A) (A) (A) (A)
                 (A) (A) (A) (A) (A) (A) (A) (A) (A) (A) (A) (A)
                 (A) (A) (A) (A) (A) (A) (A) (A) (A) (A) (A) (A)
                 (A) (A) (A) (A) (A) (A) (A) (A) (A) (A) (A) (A)
                 (A) (A) (A) (A) (A) (A) (A) (A) (A) (A) (A) (A)
                 (A) (A) (A) (A) (A) (A) (A) (A) (A) (A) (A) (A)
                 (A) (A) (A) (A) (A) (A) (A) (A) (A) (A) (A) (A)
                 (A) (A) (A) (A) (A) (A) (A) (A) (A) (A) (A) (A)
                 (A) (A) (A) (A) (A) (A) (A) (A) (A) (A) (A) (A)
                 (A) (A) (A) (A) (A) (A) (A) (A) (A) (A) (A) (A)
                 (A) (A) (A) (A) (A) (A) (A) (A) (A) (A) (A) (A)
                 (A) (A) (A) (A) (A) (A) (A) (A) (A) (A) (A) (A)
                 (A) (A) (A) (A) (A) (A) (A) (A) (A) (A) (A) (A)
                 (A) (A) (A) (A) (A) (A) (A) (A)
 The electronic state is 1-A.
 Alpha  occ. eigenvalues --  -14.33059 -14.32407 -10.23944 -10.22887 -10.20368
 Alpha  occ. eigenvalues --  -10.19724 -10.19702 -10.17891 -10.17602  -0.94544
 Alpha  occ. eigenvalues --   -0.89331  -0.86341  -0.75891  -0.68407  -0.66017
 Alpha  occ. eigenvalues --   -0.59742  -0.57688  -0.51026  -0.50670  -0.47064
 Alpha  occ. eigenvalues --   -0.45368  -0.43866  -0.41559  -0.40546  -0.38293
 Alpha  occ. eigenvalues --   -0.36101  -0.35963  -0.33971  -0.28643  -0.26235
 Alpha  occ. eigenvalues --   -0.23075  -0.21998
 Alpha virt. eigenvalues --   -0.04861   0.00786   0.08480   0.10891   0.11625
 Alpha virt. eigenvalues --    0.12242   0.14012   0.14352   0.15496   0.17110
 Alpha virt. eigenvalues --    0.18393   0.18754   0.19660   0.22687   0.23859
 Alpha virt. eigenvalues --    0.25739   0.28317   0.33917   0.36343   0.39665
 Alpha virt. eigenvalues --    0.40471   0.42490   0.44056   0.46350   0.49949
 Alpha virt. eigenvalues --    0.50958   0.51193   0.53036   0.53500   0.54252
 Alpha virt. eigenvalues --    0.55740   0.56548   0.58582   0.59387   0.61140
 Alpha virt. eigenvalues --    0.62467   0.62958   0.65008   0.66079   0.68587
 Alpha virt. eigenvalues --    0.70031   0.71244   0.72500   0.73814   0.73977
 Alpha virt. eigenvalues --    0.75808   0.77074   0.77489   0.78859   0.79885
 Alpha virt. eigenvalues --    0.81701   0.82823   0.83756   0.85371   0.86237
 Alpha virt. eigenvalues --    0.87897   0.89403   0.92110   0.92662   0.96054
 Alpha virt. eigenvalues --    0.97958   1.00253   1.02223   1.05800   1.08555
 Alpha virt. eigenvalues --    1.13601   1.15885   1.17294   1.19613   1.21609
 Alpha virt. eigenvalues --    1.22590   1.24377   1.28916   1.32956   1.33917
 Alpha virt. eigenvalues --    1.36296   1.39296   1.40226   1.40665   1.42917
 Alpha virt. eigenvalues --    1.45886   1.46448   1.48761   1.49404   1.52684
 Alpha virt. eigenvalues --    1.54139   1.56285   1.58600   1.61256   1.66844
 Alpha virt. eigenvalues --    1.67493   1.68501   1.70771   1.73515   1.77965
 Alpha virt. eigenvalues --    1.78611   1.80763   1.83007   1.85691   1.86565
 Alpha virt. eigenvalues --    1.87188   1.91581   1.94366   2.00318   2.05011
 Alpha virt. eigenvalues --    2.12111   2.13241   2.18000   2.19704   2.21664
 Alpha virt. eigenvalues --    2.23745   2.29239   2.30263   2.32252   2.36839
 Alpha virt. eigenvalues --    2.39713   2.41704   2.43410   2.48708   2.49653
 Alpha virt. eigenvalues --    2.53453   2.60879   2.65075   2.66758   2.67534
 Alpha virt. eigenvalues --    2.67938   2.73540   2.79313   2.80866   2.82202
 Alpha virt. eigenvalues --    2.85634   2.88211   2.88579   2.89038   2.91202
 Alpha virt. eigenvalues --    2.93651   2.94211   2.97719   2.97794   2.99315
 Alpha virt. eigenvalues --    2.99611   3.02532   3.06739   3.08215   3.09234
 Alpha virt. eigenvalues --    3.14274   3.16011   3.18235   3.20020   3.22086
 Alpha virt. eigenvalues --    3.23486   3.26477   3.28969   3.31188   3.32229
 Alpha virt. eigenvalues --    3.33048   3.33920   3.38173   3.41245   3.43361
 Alpha virt. eigenvalues --    3.45723   3.47353   3.50569   3.52269   3.56707
 Alpha virt. eigenvalues --    3.60003   3.61868   3.63303   3.66570   3.67682
 Alpha virt. eigenvalues --    3.72532   3.74270   3.80772   3.83708   3.87056
 Alpha virt. eigenvalues --    3.89422   3.92140   3.94482   3.99360   4.01861
 Alpha virt. eigenvalues --    4.04024   4.06574   4.09217   4.13175   4.14669
 Alpha virt. eigenvalues --    4.17125   4.19532   4.20173   4.25137   4.27084
 Alpha virt. eigenvalues --    4.27874   4.30322   4.30748   4.32272   4.34858
 Alpha virt. eigenvalues --    4.38621   4.40015   4.42821   4.43895   4.45061
 Alpha virt. eigenvalues --    4.46419   4.48966   4.51269   4.53526   4.54416
 Alpha virt. eigenvalues --    4.58623   4.60997   4.63417   4.63780   4.66358
 Alpha virt. eigenvalues --    4.67908   4.68726   4.72494   4.73275   4.74873
 Alpha virt. eigenvalues --    4.76056   4.79820   4.81396   4.82527   4.86658
 Alpha virt. eigenvalues --    4.88441   4.89848   4.92163   4.92515   4.96569
 Alpha virt. eigenvalues --    4.98976   5.03404   5.04240   5.08637   5.12422
 Alpha virt. eigenvalues --    5.14230   5.15836   5.17481   5.23174   5.30337
 Alpha virt. eigenvalues --    5.33927   5.38148   5.41484   5.45652   5.56198
 Alpha virt. eigenvalues --    5.59851   5.67166   5.73417   5.78680   5.91226
 Alpha virt. eigenvalues --    6.00008   6.08475   6.17669   7.06071   9.58494
 Alpha virt. eigenvalues --   10.16331  10.76728  10.99911  11.36422  11.42370
 Alpha virt. eigenvalues --   11.59772  11.86823  12.51987  12.97691  20.21625
          Condensed to atoms (all electrons):
               1          2          3          4          5          6
     1  N    6.587769   0.363601  -0.045761  -0.003628   0.002304   0.000143
     2  C    0.363601   4.908928   0.367564  -0.019455  -0.036123   0.002593
     3  C   -0.045761   0.367564   4.863406   0.664160  -0.099330  -0.001539
     4  N   -0.003628  -0.019455   0.664160   6.406316   0.447770  -0.050146
     5  C    0.002304  -0.036123  -0.099330   0.447770   4.477497   0.491168
     6  C    0.000143   0.002593  -0.001539  -0.050146   0.491168   5.214406
     7  C    0.000015   0.008263  -0.000012   0.022297   0.050981   0.216589
     8  C   -0.008557   0.043621  -0.002275  -0.086881   0.395485   0.000554
     9  C   -0.039863   0.321327  -0.024124  -0.044213  -0.029762   0.014172
    10  H    0.326240  -0.052458   0.001268   0.000146  -0.000351  -0.000016
    11  H    0.332977  -0.052611  -0.000206   0.001684   0.002181  -0.000246
    12  H   -0.030584   0.351427  -0.039545   0.003291   0.001140  -0.000025
    13  H    0.003013  -0.062528   0.354600  -0.024539  -0.000160  -0.000391
    14  H   -0.000001  -0.000019   0.000074  -0.004040  -0.031108   0.348562
    15  H    0.000006  -0.000177   0.000057  -0.000278  -0.010193  -0.008374
    16  H   -0.000001  -0.000074   0.000006  -0.000284  -0.016921  -0.002706
    17  H    0.001436  -0.054184   0.002995  -0.000601   0.005025   0.000264
               7          8          9         10         11         12
     1  N    0.000015  -0.008557  -0.039863   0.326240   0.332977  -0.030584
     2  C    0.008263   0.043621   0.321327  -0.052458  -0.052611   0.351427
     3  C   -0.000012  -0.002275  -0.024124   0.001268  -0.000206  -0.039545
     4  N    0.022297  -0.086881  -0.044213   0.000146   0.001684   0.003291
     5  C    0.050981   0.395485  -0.029762  -0.000351   0.002181   0.001140
     6  C    0.216589   0.000554   0.014172  -0.000016  -0.000246  -0.000025
     7  C    5.381553   0.226423  -0.105735   0.000018  -0.000230  -0.000180
     8  C    0.226423   4.476550   0.570496   0.000924   0.002275  -0.003066
     9  C   -0.105735   0.570496   5.272791   0.005679   0.000866  -0.025477
    10  H    0.000018   0.000924   0.005679   0.521369  -0.028669  -0.001659
    11  H   -0.000230   0.002275   0.000866  -0.028669   0.500246   0.006927
    12  H   -0.000180  -0.003066  -0.025477  -0.001659   0.006927   0.645983
    13  H    0.000060   0.001349   0.001318   0.003475   0.000156  -0.000645
    14  H   -0.044133   0.012126  -0.000531   0.000000   0.000001  -0.000001
    15  H    0.330318   0.001748   0.001247  -0.000000  -0.000004   0.000001
    16  H    0.335261   0.004257   0.001899  -0.000000   0.000004   0.000005
    17  H   -0.011031  -0.029326   0.367186  -0.000298   0.000091  -0.002172
              13         14         15         16         17
     1  N    0.003013  -0.000001   0.000006  -0.000001   0.001436
     2  C   -0.062528  -0.000019  -0.000177  -0.000074  -0.054184
     3  C    0.354600   0.000074   0.000057   0.000006   0.002995
     4  N   -0.024539  -0.004040  -0.000278  -0.000284  -0.000601
     5  C   -0.000160  -0.031108  -0.010193  -0.016921   0.005025
     6  C   -0.000391   0.348562  -0.008374  -0.002706   0.000264
     7  C    0.000060  -0.044133   0.330318   0.335261  -0.011031
     8  C    0.001349   0.012126   0.001748   0.004257  -0.029326
     9  C    0.001318  -0.000531   0.001247   0.001899   0.367186
    10  H    0.003475   0.000000  -0.000000  -0.000000  -0.000298
    11  H    0.000156   0.000001  -0.000004   0.000004   0.000091
    12  H   -0.000645  -0.000001   0.000001   0.000005  -0.002172
    13  H    0.611619  -0.000001  -0.000000  -0.000001  -0.000141
    14  H   -0.000001   0.605782   0.001588   0.001297   0.000017
    15  H   -0.000000   0.001588   0.614879  -0.046461   0.000908
    16  H   -0.000001   0.001297  -0.046461   0.599494   0.000545
    17  H   -0.000141   0.000017   0.000908   0.000545   0.624597
 Mulliken charges:
               1
     1  N   -0.489109
     2  C   -0.089694
     3  C   -0.041339
     4  N   -0.311598
     5  C    0.350398
     6  C   -0.225007
     7  C   -0.410456
     8  C    0.394298
     9  C   -0.287277
    10  H    0.224333
    11  H    0.234559
    12  H    0.094581
    13  H    0.112815
    14  H    0.110387
    15  H    0.114736
    16  H    0.123681
    17  H    0.094691
 Sum of Mulliken charges =  -0.00000
 Mulliken charges with hydrogens summed into heavy atoms:
               1
     1  N   -0.030217
     2  C    0.004887
     3  C    0.071476
     4  N   -0.311598
     5  C    0.350398
     6  C   -0.114620
     7  C   -0.172038
     8  C    0.394298
     9  C   -0.192586
 Electronic spatial extent (au):  <R**2>=           1040.8942
 Charge=             -0.0000 electrons
 Dipole moment (field-independent basis, Debye):
    X=             -0.4237    Y=             -0.5588    Z=              0.0349  Tot=              0.7021
 Quadrupole moment (field-independent basis, Debye-Ang):
   XX=            -46.6071   YY=            -57.1220   ZZ=            -51.0610
   XY=             -4.5370   XZ=              1.5222   YZ=              1.6206
 Traceless Quadrupole moment (field-independent basis, Debye-Ang):
   XX=              4.9897   YY=             -5.5253   ZZ=              0.5357
   XY=             -4.5370   XZ=              1.5222   YZ=              1.6206
 Octapole moment (field-independent basis, Debye-Ang**2):
  XXX=             -8.5883  YYY=            -11.4102  ZZZ=              5.3768  XYY=              3.0464
  XXY=             14.6853  XXZ=             -0.4438  XZZ=             -4.7367  YZZ=              0.7896
  YYZ=             -2.0590  XYZ=             -1.6390
 Hexadecapole moment (field-independent basis, Debye-Ang**3):
 XXXX=           -835.5144 YYYY=           -406.2342 ZZZZ=           -128.8470 XXXY=            -25.3856
 XXXZ=              0.7816 YYYX=             -8.7562 YYYZ=              4.3597 ZZZX=             -9.2170
 ZZZY=             -1.4625 XXYY=           -209.1726 XXZZ=           -159.9664 YYZZ=            -87.9863
 XXYZ=             14.6980 YYXZ=             10.1299 ZZXY=             -3.5479
 N-N= 4.210988853895D+02 E-N=-1.726995722524D+03  KE= 3.781463127729D+02
 PrsmSu:  requested number of processors reduced to:  13 ShMem   1 Linda.
 Calling FoFJK, ICntrl=      2127 FMM=F ISym2X=0 I1Cent= 0 IOpClX= 0 NMat=1 NMatS=1 NMatT=0.
 ***** Axes restored to original set *****
 -------------------------------------------------------------------
 Center     Atomic                   Forces (Hartrees/Bohr)
 Number     Number              X              Y              Z
 -------------------------------------------------------------------
      1        7          -0.009357520    0.003375502   -0.001946910
      2        6           0.008911813    0.010805238    0.016680076
      3        6           0.009178801   -0.010886358    0.017826578
      4        7          -0.005267318    0.015782227   -0.018129328
      5        6          -0.010078318    0.014732706   -0.012027747
      6        6           0.011282418    0.004640499    0.012527027
      7        6          -0.003159666   -0.011218255    0.017087040
      8        6          -0.000343733   -0.010547286   -0.034119187
      9        6           0.006809702   -0.010325321    0.006443606
     10        1          -0.002263160    0.001358865   -0.003211034
     11        1           0.001402540   -0.001357324   -0.006734893
     12        1          -0.005882855    0.002103556   -0.004519323
     13        1          -0.001276627   -0.005251600    0.005658095
     14        1           0.001515226   -0.006492811    0.003373033
     15        1           0.000601534    0.000004763    0.004064483
     16        1           0.001087320    0.002687001    0.003907957
     17        1          -0.003160157    0.000588597   -0.006879474
 -------------------------------------------------------------------
 Cartesian Forces:  Max     0.034119187 RMS     0.009611266

 GradGradGradGradGradGradGradGradGradGradGradGradGradGradGradGradGradGrad
 Berny optimization.
 FormGI is forming the generalized inverse of G from B-inverse, IUseBI=4.
 Internal  Forces:  Max     0.025210733 RMS     0.006214819
 Search for a local minimum.
 Step number   1 out of a maximum of  102
 All quantities printed in internal units (Hartrees-Bohrs-Radians)
 Mixed Optimization -- RFO/linear search
 Second derivative matrix not updated -- first step.
 ITU=  0
     Eigenvalues ---    0.00676   0.00774   0.00957   0.00989   0.01352
     Eigenvalues ---    0.01604   0.01869   0.02203   0.02513   0.04742
     Eigenvalues ---    0.05423   0.05485   0.06320   0.06408   0.06651
     Eigenvalues ---    0.06927   0.08406   0.15334   0.15934   0.15970
     Eigenvalues ---    0.16000   0.16000   0.16034   0.18830   0.23062
     Eigenvalues ---    0.23401   0.24723   0.26390   0.26558   0.31757
     Eigenvalues ---    0.32086   0.33323   0.34092   0.34120   0.34547
     Eigenvalues ---    0.35761   0.35813   0.35833   0.37803   0.43467
     Eigenvalues ---    0.44844   0.47024   0.51729   0.57643   0.63433
 RFO step:  Lambda=-1.56252456D-02 EMin= 6.76083223D-03
 Linear search not attempted -- first point.
 Iteration  1 RMS(Cart)=  0.08263898 RMS(Int)=  0.00294246
 Iteration  2 RMS(Cart)=  0.00410514 RMS(Int)=  0.00076105
 Iteration  3 RMS(Cart)=  0.00000952 RMS(Int)=  0.00076103
 Iteration  4 RMS(Cart)=  0.00000001 RMS(Int)=  0.00076103
 Variable       Old X    -DE/DX   Delta X   Delta X   Delta X     New X
                                 (Linear)    (Quad)   (Total)
    R1        2.77674   0.01002   0.00000   0.02680   0.02680   2.80355
    R2        1.92158   0.00294   0.00000   0.00634   0.00634   1.92792
    R3        1.93798  -0.00674   0.00000  -0.01496  -0.01496   1.92302
    R4        2.94789  -0.00391   0.00000  -0.02247  -0.02202   2.92587
    R5        2.82709   0.01198   0.00000   0.03260   0.03296   2.86004
    R6        2.06417   0.00234   0.00000   0.00647   0.00647   2.07064
    R7        2.47364  -0.02521   0.00000  -0.04085  -0.04076   2.43288
    R8        2.08487  -0.00720   0.00000  -0.02064  -0.02064   2.06424
    R9        2.61347   0.00160   0.00000   0.00496   0.00455   2.61802
   R10        2.54165   0.01606   0.00000   0.02915   0.02909   2.57075
   R11        2.68131   0.01831   0.00000   0.05228   0.05205   2.73336
   R12        2.93374   0.00164   0.00000  -0.00239  -0.00261   2.93113
   R13        2.04457   0.00123   0.00000   0.00331   0.00331   2.04788
   R14        2.81163   0.02462   0.00000   0.06882   0.06890   2.88052
   R15        2.07128   0.00065   0.00000   0.00183   0.00183   2.07311
   R16        2.07175  -0.00069   0.00000  -0.00194  -0.00194   2.06980
   R17        2.50569   0.00156   0.00000   0.00564   0.00554   2.51122
   R18        2.04343   0.00309   0.00000   0.00826   0.00826   2.05169
    A1        1.91576   0.00268   0.00000   0.02185   0.02161   1.93738
    A2        1.86970   0.00114   0.00000   0.01350   0.01324   1.88294
    A3        1.83329   0.00048   0.00000   0.01834   0.01781   1.85109
    A4        1.87048   0.00222   0.00000   0.03455   0.03293   1.90341
    A5        1.86656   0.00442   0.00000   0.04452   0.04313   1.90968
    A6        1.94707  -0.00821   0.00000  -0.09315  -0.09254   1.85453
    A7        1.95103   0.00082   0.00000   0.01485   0.01380   1.96483
    A8        1.89773   0.00024   0.00000  -0.00801  -0.00805   1.88968
    A9        1.93056   0.00045   0.00000   0.00700   0.00758   1.93815
   A10        2.21175   0.01282   0.00000   0.03750   0.03802   2.24977
   A11        2.01326  -0.00456   0.00000  -0.00853  -0.00886   2.00440
   A12        2.05550  -0.00831   0.00000  -0.03014  -0.03043   2.02506
   A13        1.99018  -0.00660   0.00000  -0.03167  -0.03200   1.95818
   A14        2.50604  -0.00703   0.00000  -0.03946  -0.03881   2.46723
   A15        2.14952   0.00554   0.00000   0.02643   0.02599   2.17551
   A16        1.62726   0.00155   0.00000   0.01420   0.01304   1.64030
   A17        1.60232   0.00190   0.00000   0.00853   0.00663   1.60895
   A18        2.28183   0.00659   0.00000   0.03949   0.03977   2.32160
   A19        2.39843  -0.00846   0.00000  -0.04629  -0.04592   2.35251
   A20        1.44356   0.00504   0.00000   0.01968   0.01848   1.46204
   A21        2.05589  -0.00166   0.00000  -0.01044  -0.01135   2.04454
   A22        2.05559  -0.00486   0.00000  -0.05065  -0.05068   2.00491
   A23        1.99390   0.00170   0.00000   0.03800   0.03893   2.03283
   A24        2.00110  -0.00099   0.00000   0.01020   0.01002   2.01112
   A25        1.88559   0.00143   0.00000   0.00213   0.00029   1.88588
   A26        1.60013  -0.00801   0.00000  -0.02790  -0.02893   1.57120
   A27        2.18779  -0.00654   0.00000  -0.01587  -0.01576   2.17203
   A28        2.49382   0.01452   0.00000   0.04214   0.04269   2.53651
   A29        2.02632  -0.00591   0.00000  -0.02093  -0.02051   2.00581
   A30        2.13251  -0.00442   0.00000  -0.03022  -0.03047   2.10204
   A31        2.11825   0.01033   0.00000   0.05258   0.05235   2.17060
    D1        0.93502  -0.00105   0.00000  -0.00483  -0.00554   0.92948
    D2        3.02969   0.00344   0.00000   0.05464   0.05588   3.08557
    D3       -1.14040   0.00197   0.00000   0.03663   0.03654  -1.10386
    D4       -1.04647  -0.00353   0.00000  -0.04418  -0.04518  -1.09165
    D5        1.04820   0.00096   0.00000   0.01529   0.01624   1.06443
    D6       -3.12190  -0.00051   0.00000  -0.00271  -0.00310  -3.12500
    D7        1.69487   0.00533   0.00000   0.10496   0.10514   1.80001
    D8       -1.36576   0.00648   0.00000   0.12420   0.12450  -1.24126
    D9       -0.34497  -0.00180   0.00000   0.02210   0.02201  -0.32296
   D10        2.87759  -0.00065   0.00000   0.04134   0.04137   2.91896
   D11       -2.48130  -0.00306   0.00000   0.00906   0.00893  -2.47238
   D12        0.74125  -0.00191   0.00000   0.02830   0.02829   0.76954
   D13       -1.77418  -0.00651   0.00000  -0.10969  -0.10978  -1.88397
   D14        1.25038  -0.00570   0.00000  -0.09242  -0.09274   1.15765
   D15        0.26802  -0.00071   0.00000  -0.03299  -0.03259   0.23543
   D16       -2.99059   0.00010   0.00000  -0.01571  -0.01554  -3.00614
   D17        2.38547   0.00046   0.00000  -0.02818  -0.02795   2.35753
   D18       -0.87314   0.00127   0.00000  -0.01090  -0.01090  -0.88404
   D19        0.16675   0.00076   0.00000  -0.00064  -0.00035   0.16640
   D20       -3.05754  -0.00023   0.00000  -0.01932  -0.01898  -3.07651
   D21       -3.02403  -0.00293   0.00000  -0.08119  -0.08056  -3.10459
   D22        0.07945   0.00029   0.00000  -0.01902  -0.01893   0.06051
   D23       -3.07167   0.00065   0.00000  -0.02045  -0.02309  -3.09476
   D24        0.03695   0.00123   0.00000   0.02490   0.02565   0.06260
   D25        0.10187  -0.00216   0.00000  -0.07310  -0.07443   0.02745
   D26       -3.07269  -0.00158   0.00000  -0.02775  -0.02569  -3.09838
   D27        3.05794   0.00146   0.00000   0.04340   0.04103   3.09897
   D28       -0.12993   0.00166   0.00000   0.01897   0.01843  -0.11150
   D29       -0.10631   0.00316   0.00000   0.07913   0.07840  -0.02791
   D30        2.98900   0.00336   0.00000   0.05469   0.05580   3.04480
   D31       -0.09777   0.00233   0.00000   0.07096   0.07164  -0.02614
   D32       -2.08063  -0.00206   0.00000   0.01859   0.01923  -2.06139
   D33        1.89322   0.00337   0.00000   0.08793   0.08707   1.98029
   D34        3.08074   0.00114   0.00000   0.01704   0.01847   3.09921
   D35        1.09788  -0.00325   0.00000  -0.03532  -0.03393   1.06395
   D36       -1.21146   0.00218   0.00000   0.03402   0.03391  -1.17755
   D37        0.09266  -0.00228   0.00000  -0.06807  -0.06810   0.02456
   D38       -2.98635  -0.00106   0.00000  -0.03082  -0.03073  -3.01708
   D39        2.13914  -0.00174   0.00000  -0.06754  -0.06768   2.07145
   D40       -0.93987  -0.00051   0.00000  -0.03028  -0.03032  -0.97019
   D41       -1.95414   0.00090   0.00000  -0.02195  -0.02144  -1.97558
   D42        1.25003   0.00213   0.00000   0.01530   0.01593   1.26596
   D43       -0.07446  -0.00142   0.00000   0.01108   0.01122  -0.06324
   D44       -3.10007  -0.00116   0.00000  -0.00009  -0.00033  -3.10040
   D45        2.99041  -0.00258   0.00000  -0.03381  -0.03336   2.95705
   D46       -0.03519  -0.00233   0.00000  -0.04499  -0.04491  -0.08010
         Item               Value     Threshold  Converged?
 Maximum Force            0.025211     0.000450     NO 
 RMS     Force            0.006215     0.000300     NO 
 Maximum Displacement     0.334965     0.001800     NO 
 RMS     Displacement     0.082739     0.001200     NO 
 Predicted change in Energy=-9.124232D-03
 GradGradGradGradGradGradGradGradGradGradGradGradGradGradGradGradGradGrad

                          Input orientation:                          
 ---------------------------------------------------------------------
 Center     Atomic      Atomic             Coordinates (Angstroms)
 Number     Number       Type             X           Y           Z
 ---------------------------------------------------------------------
      1          7           0        0.913650    0.025295   -0.347763
      2          6           0        2.392472   -0.001661   -0.232242
      3          6           0        2.853672    1.194882    0.635416
      4          7           0        3.238515    1.201862    1.863955
      5          6           0        3.416408   -0.077863    2.363938
      6          6           0        3.752443   -0.735033    3.506673
      7          6           0        3.676935   -2.116263    2.804978
      8          6           0        3.269425   -1.290928    1.589961
      9          6           0        2.828450   -1.334450    0.337133
     10          1           0        0.589327    0.933692   -0.680113
     11          1           0        0.525134   -0.087982    0.585922
     12          1           0        2.782010    0.139276   -1.246654
     13          1           0        2.754916    2.172642    0.158494
     14          1           0        3.969046   -0.401686    4.514812
     15          1           0        2.934229   -2.829723    3.182958
     16          1           0        4.634742   -2.639686    2.713873
     17          1           0        2.683957   -2.248724   -0.230309
 ---------------------------------------------------------------------
                    Distance matrix (angstroms):
                    1          2          3          4          5
     1  N    0.000000
     2  C    1.483572   0.000000
     3  C    2.469466   1.548305   0.000000
     4  N    3.417749   2.560917   1.287424   0.000000
     5  C    3.691580   2.791845   2.219085   1.385398   0.000000
     6  C    4.847012   4.045595   3.574420   2.591179   1.360380
     7  C    4.707631   3.917409   4.043321   3.476736   2.101777
     8  C    3.322182   2.398265   2.695042   2.507993   1.446433
     9  C    2.446313   1.513470   2.546984   2.988682   2.456144
    10  H    1.020210   2.080098   2.631747   3.682715   4.275731
    11  H    1.017617   2.040538   2.658999   3.264890   3.394246
    12  H    2.076479   1.095735   2.159080   3.318640   3.672327
    13  H    2.873614   2.238668   1.092347   2.021107   3.219678
    14  H    5.758680   5.017980   4.340830   3.183094   2.244221
    15  H    4.969895   4.467105   4.763812   4.252769   2.911361
    16  H    5.506566   4.546047   4.711274   4.174842   2.858274
    17  H    2.884258   2.265890   3.554814   4.074312   3.461104
                    6          7          8          9         10
     6  C    0.000000
     7  C    1.551087   0.000000
     8  C    2.053317   1.524307   0.000000
     9  C    3.355450   2.724228   1.328883   0.000000
    10  H    5.506280   5.566095   4.157534   3.345584   0.000000
    11  H    4.400567   4.355684   3.160112   2.630750   1.628122
    12  H    4.929531   4.722719   3.213945   2.163887   2.399984
    13  H    4.545320   5.123349   3.782873   3.512408   2.632115
    14  H    1.083689   2.438982   3.136076   4.429899   6.339793
    15  H    2.272002   1.097044   2.240064   3.216480   5.880916
    16  H    2.243810   1.095293   2.224054   3.258101   6.376014
    17  H    4.171086   3.196329   2.138581   1.085709   3.836348
                   11         12         13         14         15
    11  H    0.000000
    12  H    2.916071   0.000000
    13  H    3.203910   2.471791   0.000000
    14  H    5.234035   5.907299   5.203728   0.000000
    15  H    4.479451   5.334753   5.848349   2.956356   0.000000
    16  H    5.284718   5.180832   5.763870   2.948758   1.774232
    17  H    3.161575   2.597136   4.438995   5.251588   3.471396
                   16         17
    16  H    0.000000
    17  H    3.553396   0.000000
 Stoichiometry    C7H8N2
 Framework group  C1[X(C7H8N2)]
 Deg. of freedom    45
 Full point group                 C1      NOp   1
 Largest Abelian subgroup         C1      NOp   1
 Largest concise Abelian subgroup C1      NOp   1
                         Standard orientation:                         
 ---------------------------------------------------------------------
 Center     Atomic      Atomic             Coordinates (Angstroms)
 Number     Number       Type             X           Y           Z
 ---------------------------------------------------------------------
      1          7           0       -2.395976   -0.628557    0.799921
      2          6           0       -1.593203   -0.320579   -0.409084
      3          6           0       -1.175026    1.169728   -0.372136
      4          7           0       -0.032754    1.681705   -0.071216
      5          6           0        0.957120    0.719687    0.047095
      6          6           0        2.275652    0.583786    0.353102
      7          6           0        2.244593   -0.941406    0.072569
      8          6           0        0.768015   -0.690895   -0.211104
      9          6           0       -0.405242   -1.255924   -0.475947
     10          1           0       -3.174891    0.023065    0.897429
     11          1           0       -1.803259   -0.482646    1.614133
     12          1           0       -2.259788   -0.469180   -1.265949
     13          1           0       -1.988066    1.878907   -0.543170
     14          1           0        3.034420    1.284344    0.681539
     15          1           0        2.474880   -1.609436    0.911740
     16          1           0        2.837663   -1.263311   -0.790166
     17          1           0       -0.551306   -2.320170   -0.633461
 ---------------------------------------------------------------------
 Rotational constants (GHZ):           3.3971846           1.4785457           1.1482332
 Standard basis: 6-31G(2df,p) (6D, 7F)
 There are   319 symmetry adapted cartesian basis functions of A   symmetry.
 There are   292 symmetry adapted basis functions of A   symmetry.
   292 basis functions,   452 primitive gaussians,   319 cartesian basis functions
    32 alpha electrons       32 beta electrons
       nuclear repulsion energy       417.6793128940 Hartrees.
 NAtoms=   17 NActive=   17 NUniq=   17 SFac= 1.00D+00 NAtFMM=   60 NAOKFM=F Big=F
 Integral buffers will be    131072 words long.
 Raffenetti 2 integral format.
 Two-electron integral symmetry is turned on.
 One-electron integrals computed using PRISM.
 PrsmSu:  requested number of processors reduced to:  13 ShMem   1 Linda.
 NBasis=   292 RedAO= T EigKep=  1.60D-04  NBF=   292
 NBsUse=   292 1.00D-06 EigRej= -1.00D+00 NBFU=   292
 Initial guess from the checkpoint file:  "NC1CdNC2dCCC2dC1.chk"
 B after Tr=    -0.000000    0.000000    0.000000
         Rot=    0.999949   -0.000247    0.006176    0.008047 Ang=  -1.16 deg.
 ExpMin= 1.61D-01 ExpMax= 4.17D+03 ExpMxC= 6.27D+02 IAcc=2 IRadAn=         4 AccDes= 0.00D+00
 Harris functional with IExCor=  402 and IRadAn=       4 diagonalized for initial guess.
 HarFok:  IExCor=  402 AccDes= 0.00D+00 IRadAn=         4 IDoV= 1 UseB2=F ITyADJ=14
 ICtDFT=  3500011 ScaDFX=  1.000000  1.000000  1.000000  1.000000
 FoFCou: FMM=F IPFlag=           0 FMFlag=      100000 FMFlg1=           0
         NFxFlg=           0 DoJE=T BraDBF=F KetDBF=T FulRan=T
         wScrn=  0.000000 ICntrl=       500 IOpCl=  0 I1Cent=   200000004 NGrid=           0
         NMat0=    1 NMatS0=      1 NMatT0=    0 NMatD0=    1 NMtDS0=    0 NMtDT0=    0
 Petite list used in FoFCou.
 Requested convergence on RMS density matrix=1.00D-08 within 128 cycles.
 Requested convergence on MAX density matrix=1.00D-06.
 Requested convergence on             energy=1.00D-06.
 No special actions if energy rises.
 Integral accuracy reduced to 1.0D-05 until final iterations.
 Initial convergence to 1.0D-05 achieved.  Increase integral accuracy.
 SCF Done:  E(RB3LYP) =  -380.982343663     A.U. after   13 cycles
            NFock= 13  Conv=0.51D-08     -V/T= 2.0079
 PrsmSu:  requested number of processors reduced to:  13 ShMem   1 Linda.
 Calling FoFJK, ICntrl=      2127 FMM=F ISym2X=0 I1Cent= 0 IOpClX= 0 NMat=1 NMatS=1 NMatT=0.
 ***** Axes restored to original set *****
 -------------------------------------------------------------------
 Center     Atomic                   Forces (Hartrees/Bohr)
 Number     Number              X              Y              Z
 -------------------------------------------------------------------
      1        7          -0.000567466   -0.000364947    0.000154349
      2        6           0.002947851    0.005465411    0.004041740
      3        6          -0.001807127   -0.002259281   -0.001420182
      4        7           0.002217539    0.001043329    0.000486313
      5        6           0.000141747   -0.002695867    0.004171644
      6        6          -0.001956930    0.005582670   -0.005359852
      7        6           0.004435286   -0.000311097    0.007016136
      8        6          -0.004134803   -0.004480375   -0.006230518
      9        6          -0.000766742   -0.001434137    0.002747228
     10        1           0.002072628   -0.001364430   -0.000688276
     11        1          -0.000603219   -0.000255203   -0.000444104
     12        1           0.000773728    0.000692432   -0.001072145
     13        1          -0.002072485    0.000355239   -0.001283542
     14        1           0.000621704   -0.003314450   -0.000028583
     15        1          -0.000414800    0.001715089   -0.000243038
     16        1           0.000461678   -0.000282219   -0.000080614
     17        1          -0.001348589    0.001907837   -0.001766556
 -------------------------------------------------------------------
 Cartesian Forces:  Max     0.007016136 RMS     0.002636744

 GradGradGradGradGradGradGradGradGradGradGradGradGradGradGradGradGradGrad
 Berny optimization.
 Using GEDIIS/GDIIS optimizer.
 FormGI is forming the generalized inverse of G from B-inverse, IUseBI=4.
 Internal  Forces:  Max     0.005391817 RMS     0.001523936
 Search for a local minimum.
 Step number   2 out of a maximum of  102
 All quantities printed in internal units (Hartrees-Bohrs-Radians)
 Mixed Optimization -- RFO/linear search
 Update second derivatives using D2CorX and points    1    2
 DE= -8.86D-03 DEPred=-9.12D-03 R= 9.71D-01
 TightC=F SS=  1.41D+00  RLast= 4.04D-01 DXNew= 5.0454D-01 1.2115D+00
 Trust test= 9.71D-01 RLast= 4.04D-01 DXMaxT set to 5.05D-01
 ITU=  1  0
 Use linear search instead of GDIIS.
     Eigenvalues ---    0.00656   0.00773   0.00953   0.01047   0.01400
     Eigenvalues ---    0.01646   0.01932   0.02188   0.02501   0.04476
     Eigenvalues ---    0.05200   0.05755   0.06420   0.06561   0.06660
     Eigenvalues ---    0.06912   0.08259   0.14585   0.15834   0.15966
     Eigenvalues ---    0.16000   0.16229   0.16314   0.19584   0.22834
     Eigenvalues ---    0.23512   0.23638   0.26231   0.26638   0.30695
     Eigenvalues ---    0.32122   0.33461   0.34097   0.34140   0.34525
     Eigenvalues ---    0.35755   0.35830   0.36083   0.37475   0.43474
     Eigenvalues ---    0.44938   0.47083   0.53073   0.58001   0.63891
 RFO step:  Lambda=-2.34488348D-03 EMin= 6.56070576D-03
 Quartic linear search produced a step of  0.17234.
 Iteration  1 RMS(Cart)=  0.07530748 RMS(Int)=  0.00211004
 Iteration  2 RMS(Cart)=  0.00319994 RMS(Int)=  0.00051424
 Iteration  3 RMS(Cart)=  0.00000390 RMS(Int)=  0.00051424
 Iteration  4 RMS(Cart)=  0.00000000 RMS(Int)=  0.00051424
 Variable       Old X    -DE/DX   Delta X   Delta X   Delta X     New X
                                 (Linear)    (Quad)   (Total)
    R1        2.80355  -0.00086   0.00462  -0.00513  -0.00051   2.80304
    R2        1.92792  -0.00165   0.00109  -0.00480  -0.00371   1.92421
    R3        1.92302  -0.00015  -0.00258   0.00091  -0.00167   1.92135
    R4        2.92587  -0.00431  -0.00379  -0.01643  -0.02070   2.90517
    R5        2.86004   0.00081   0.00568  -0.00017   0.00519   2.86523
    R6        2.07064   0.00136   0.00112   0.00396   0.00507   2.07571
    R7        2.43288   0.00052  -0.00702   0.00455  -0.00259   2.43029
    R8        2.06424   0.00107  -0.00356   0.00551   0.00196   2.06619
    R9        2.61802   0.00153   0.00078   0.00329   0.00447   2.62249
   R10        2.57075  -0.00395   0.00501  -0.01175  -0.00675   2.56400
   R11        2.73336   0.00305   0.00897   0.00446   0.01379   2.74715
   R12        2.93113  -0.00205  -0.00045  -0.01001  -0.01037   2.92076
   R13        2.04788  -0.00092   0.00057  -0.00326  -0.00269   2.04518
   R14        2.88052   0.00407   0.01187   0.00984   0.02172   2.90224
   R15        2.07311  -0.00092   0.00032  -0.00326  -0.00295   2.07016
   R16        2.06980   0.00054  -0.00033   0.00201   0.00168   2.07148
   R17        2.51122  -0.00044   0.00095  -0.00143  -0.00033   2.51090
   R18        2.05169  -0.00050   0.00142  -0.00235  -0.00093   2.05077
    A1        1.93738  -0.00264   0.00372  -0.01902  -0.01531   1.92206
    A2        1.88294   0.00174   0.00228   0.01320   0.01547   1.89841
    A3        1.85109   0.00077   0.00307   0.00815   0.01119   1.86229
    A4        1.90341   0.00098   0.00567   0.00653   0.01188   1.91529
    A5        1.90968  -0.00204   0.00743  -0.01191  -0.00443   1.90525
    A6        1.85453  -0.00042  -0.01595  -0.00592  -0.02206   1.83247
    A7        1.96483   0.00202   0.00238   0.01965   0.02045   1.98528
    A8        1.88968  -0.00089  -0.00139  -0.00564  -0.00624   1.88343
    A9        1.93815   0.00025   0.00131  -0.00389  -0.00228   1.93586
   A10        2.24977  -0.00015   0.00655  -0.00033   0.00448   2.25425
   A11        2.00440  -0.00161  -0.00153  -0.01185  -0.01261   1.99179
   A12        2.02506   0.00177  -0.00524   0.01394   0.00949   2.03455
   A13        1.95818  -0.00043  -0.00552   0.00657  -0.00022   1.95795
   A14        2.46723  -0.00202  -0.00669  -0.00758  -0.01391   2.45332
   A15        2.17551   0.00093   0.00448   0.00564   0.00988   2.18539
   A16        1.64030   0.00109   0.00225   0.00205   0.00401   1.64431
   A17        1.60895   0.00180   0.00114   0.00578   0.00658   1.61552
   A18        2.32160   0.00239   0.00685   0.01672   0.02362   2.34522
   A19        2.35251  -0.00419  -0.00791  -0.02240  -0.03024   2.32227
   A20        1.46204   0.00007   0.00318  -0.00048   0.00249   1.46453
   A21        2.04454  -0.00053  -0.00196  -0.00649  -0.00853   2.03601
   A22        2.00491   0.00010  -0.00873   0.00751  -0.00131   2.00360
   A23        2.03283  -0.00048   0.00671  -0.01216  -0.00530   2.02753
   A24        2.01112   0.00012   0.00173   0.00209   0.00377   2.01489
   A25        1.88588   0.00056   0.00005   0.00724   0.00697   1.89285
   A26        1.57120  -0.00297  -0.00498  -0.00748  -0.01265   1.55855
   A27        2.17203  -0.00238  -0.00272  -0.00861  -0.01178   2.16025
   A28        2.53651   0.00539   0.00736   0.01808   0.02583   2.56235
   A29        2.00581   0.00044  -0.00353   0.00879   0.00323   2.00904
   A30        2.10204  -0.00313  -0.00525  -0.01872  -0.02414   2.07790
   A31        2.17060   0.00277   0.00902   0.01621   0.02518   2.19578
    D1        0.92948  -0.00035  -0.00096   0.02343   0.02299   0.95248
    D2        3.08557   0.00149   0.00963   0.04439   0.05354   3.13911
    D3       -1.10386   0.00043   0.00630   0.02992   0.03620  -1.06767
    D4       -1.09165  -0.00085  -0.00779   0.01631   0.00902  -1.08263
    D5        1.06443   0.00098   0.00280   0.03726   0.03957   1.10400
    D6       -3.12500  -0.00007  -0.00053   0.02279   0.02222  -3.10278
    D7        1.80001   0.00093   0.01812   0.12991   0.14787   1.94788
    D8       -1.24126   0.00070   0.02146   0.10694   0.12854  -1.11273
    D9       -0.32296   0.00149   0.00379   0.12745   0.13095  -0.19201
   D10        2.91896   0.00126   0.00713   0.10448   0.11161   3.03057
   D11       -2.47238   0.00047   0.00154   0.12333   0.12466  -2.34772
   D12        0.76954   0.00024   0.00488   0.10035   0.10532   0.87486
   D13       -1.88397  -0.00222  -0.01892  -0.11398  -0.13269  -2.01666
   D14        1.15765  -0.00114  -0.01598  -0.04685  -0.06365   1.09400
   D15        0.23543  -0.00105  -0.00562  -0.10094  -0.10668   0.12874
   D16       -3.00614   0.00002  -0.00268  -0.03381  -0.03765  -3.04379
   D17        2.35753  -0.00060  -0.00482  -0.09715  -0.10188   2.25565
   D18       -0.88404   0.00048  -0.00188  -0.03002  -0.03284  -0.91688
   D19        0.16640  -0.00076  -0.00006  -0.06519  -0.06499   0.10141
   D20       -3.07651  -0.00069  -0.00327  -0.04323  -0.04632  -3.12284
   D21       -3.10459  -0.00036  -0.01388  -0.00633  -0.02020  -3.12479
   D22        0.06051  -0.00034  -0.00326  -0.01556  -0.01871   0.04181
   D23       -3.09476   0.00018  -0.00398  -0.00501  -0.00925  -3.10401
   D24        0.06260   0.00012   0.00442  -0.01104  -0.00632   0.05628
   D25        0.02745   0.00018  -0.01283   0.00268  -0.01034   0.01711
   D26       -3.09838   0.00012  -0.00443  -0.00336  -0.00741  -3.10579
   D27        3.09897  -0.00017   0.00707   0.00311   0.00950   3.10847
   D28       -0.11150   0.00062   0.00318   0.02404   0.02660  -0.08491
   D29       -0.02791  -0.00012   0.01351  -0.00253   0.01071  -0.01720
   D30        3.04480   0.00067   0.00962   0.01841   0.02780   3.07261
   D31       -0.02614  -0.00016   0.01235  -0.00250   0.00990  -0.01624
   D32       -2.06139   0.00042   0.00331   0.01239   0.01573  -2.04566
   D33        1.98029   0.00002   0.01501   0.00030   0.01509   1.99538
   D34        3.09921   0.00001   0.00318   0.00433   0.00785   3.10706
   D35        1.06395   0.00059  -0.00585   0.01922   0.01368   1.07763
   D36       -1.17755   0.00018   0.00584   0.00714   0.01304  -1.16451
   D37        0.02456   0.00008  -0.01174   0.00219  -0.00942   0.01514
   D38       -3.01708  -0.00012  -0.00530  -0.02502  -0.03068  -3.04776
   D39        2.07145  -0.00055  -0.01166  -0.00698  -0.01845   2.05300
   D40       -0.97019  -0.00075  -0.00522  -0.03419  -0.03971  -1.00990
   D41       -1.97558  -0.00007  -0.00369  -0.00611  -0.00951  -1.98509
   D42        1.26596  -0.00027   0.00274  -0.03333  -0.03076   1.23519
   D43       -0.06324   0.00054   0.00193   0.04490   0.04652  -0.01673
   D44       -3.10040  -0.00019  -0.00006  -0.02293  -0.02458  -3.12497
   D45        2.95705   0.00099  -0.00575   0.07871   0.07311   3.03016
   D46       -0.08010   0.00026  -0.00774   0.01087   0.00202  -0.07808
         Item               Value     Threshold  Converged?
 Maximum Force            0.005392     0.000450     NO 
 RMS     Force            0.001524     0.000300     NO 
 Maximum Displacement     0.287861     0.001800     NO 
 RMS     Displacement     0.075233     0.001200     NO 
 Predicted change in Energy=-1.507810D-03
 GradGradGradGradGradGradGradGradGradGradGradGradGradGradGradGradGradGrad

                          Input orientation:                          
 ---------------------------------------------------------------------
 Center     Atomic      Atomic             Coordinates (Angstroms)
 Number     Number       Type             X           Y           Z
 ---------------------------------------------------------------------
      1          7           0        0.925719    0.044558   -0.445554
      2          6           0        2.388626    0.005905   -0.203483
      3          6           0        2.799933    1.193492    0.681906
      4          7           0        3.227732    1.192419    1.894722
      5          6           0        3.429543   -0.092727    2.378001
      6          6           0        3.826744   -0.738896    3.503003
      7          6           0        3.705981   -2.126100    2.832213
      8          6           0        3.242315   -1.314861    1.613369
      9          6           0        2.761862   -1.345033    0.374934
     10          1           0        0.658349    0.947696   -0.832442
     11          1           0        0.444184   -0.045781    0.445351
     12          1           0        2.844209    0.148327   -1.192767
     13          1           0        2.633598    2.171789    0.222829
     14          1           0        4.105164   -0.421802    4.499611
     15          1           0        2.971545   -2.816876    3.260602
     16          1           0        4.654679   -2.661178    2.708613
     17          1           0        2.595146   -2.237282   -0.219877
 ---------------------------------------------------------------------
                    Distance matrix (angstroms):
                    1          2          3          4          5
     1  N    0.000000
     2  C    1.483303   0.000000
     3  C    2.470606   1.537352   0.000000
     4  N    3.477605   2.552328   1.286054   0.000000
     5  C    3.776300   2.785192   2.219798   1.387763   0.000000
     6  C    4.961939   4.044867   3.570301   2.583671   1.356810
     7  C    4.815118   3.936537   4.057639   3.481405   2.101745
     8  C    3.384346   2.402948   2.712039   2.523058   1.453728
     9  C    2.444501   1.516215   2.557302   2.994237   2.454861
    10  H    1.018248   2.067950   2.634398   3.754870   4.366800
    11  H    1.016734   2.050490   2.672323   3.373715   3.556643
    12  H    2.061480   1.098418   2.146795   3.281738   3.626445
    13  H    2.808682   2.220992   1.093382   2.026670   3.225884
    14  H    5.897543   5.024792   4.345995   3.187639   2.250774
    15  H    5.109676   4.506414   4.770972   4.243313   2.899954
    16  H    5.583450   4.552871   4.733509   4.189129   2.864822
    17  H    2.836319   2.252733   3.553218   4.078547   3.470490
                    6          7          8          9         10
     6  C    0.000000
     7  C    1.545599   0.000000
     8  C    2.060098   1.535798   0.000000
     9  C    3.359492   2.745841   1.328709   0.000000
    10  H    5.628446   5.671506   4.216401   3.337534   0.000000
    11  H    4.612088   4.545784   3.287000   2.657940   1.632672
    12  H    4.878810   4.702779   3.189641   2.166701   2.355167
    13  H    4.544802   5.141084   3.802744   3.522446   2.552177
    14  H    1.082264   2.417477   3.142046   4.435062   6.495141
    15  H    2.260116   1.095484   2.245605   3.246130   6.022947
    16  H    2.238682   1.096182   2.237611   3.280404   6.444665
    17  H    4.197836   3.249857   2.151855   1.085220   3.777632
                   11         12         13         14         15
    11  H    0.000000
    12  H    2.912255   0.000000
    13  H    3.124206   2.478440   0.000000
    14  H    5.475508   5.858175   5.213740   0.000000
    15  H    4.689580   5.351741   5.850560   2.925169   0.000000
    16  H    5.448938   5.137304   5.798402   2.919665   1.778167
    17  H    3.141949   2.588374   4.431408   5.277280   3.548427
                   16         17
    16  H    0.000000
    17  H    3.605194   0.000000
 Stoichiometry    C7H8N2
 Framework group  C1[X(C7H8N2)]
 Deg. of freedom    45
 Full point group                 C1      NOp   1
 Largest Abelian subgroup         C1      NOp   1
 Largest concise Abelian subgroup C1      NOp   1
                         Standard orientation:                         
 ---------------------------------------------------------------------
 Center     Atomic      Atomic             Coordinates (Angstroms)
 Number     Number       Type             X           Y           Z
 ---------------------------------------------------------------------
      1          7           0       -2.492750   -0.621912    0.708077
      2          6           0       -1.579908   -0.289812   -0.412912
      3          6           0       -1.156715    1.185117   -0.318349
      4          7           0       -0.001603    1.682990   -0.050443
      5          6           0        0.979826    0.706726    0.047490
      6          6           0        2.305575    0.575660    0.304673
      7          6           0        2.269367   -0.952655    0.077034
      8          6           0        0.773105   -0.714968   -0.174720
      9          6           0       -0.415218   -1.260584   -0.410644
     10          1           0       -3.280180    0.023532    0.721685
     11          1           0       -1.994375   -0.493343    1.584913
     12          1           0       -2.188222   -0.409275   -1.319667
     13          1           0       -1.981209    1.894560   -0.429636
     14          1           0        3.094126    1.262795    0.582752
     15          1           0        2.520395   -1.583644    0.936640
     16          1           0        2.843004   -1.302178   -0.789215
     17          1           0       -0.609254   -2.316903   -0.566346
 ---------------------------------------------------------------------
 Rotational constants (GHZ):           3.4800479           1.4491825           1.1186404
 Standard basis: 6-31G(2df,p) (6D, 7F)
 There are   319 symmetry adapted cartesian basis functions of A   symmetry.
 There are   292 symmetry adapted basis functions of A   symmetry.
   292 basis functions,   452 primitive gaussians,   319 cartesian basis functions
    32 alpha electrons       32 beta electrons
       nuclear repulsion energy       416.5929584615 Hartrees.
 NAtoms=   17 NActive=   17 NUniq=   17 SFac= 1.00D+00 NAtFMM=   60 NAOKFM=F Big=F
 Integral buffers will be    131072 words long.
 Raffenetti 2 integral format.
 Two-electron integral symmetry is turned on.
 One-electron integrals computed using PRISM.
 PrsmSu:  requested number of processors reduced to:  13 ShMem   1 Linda.
 NBasis=   292 RedAO= T EigKep=  1.56D-04  NBF=   292
 NBsUse=   292 1.00D-06 EigRej= -1.00D+00 NBFU=   292
 Initial guess from the checkpoint file:  "NC1CdNC2dCCC2dC1.chk"
 B after Tr=    -0.000000   -0.000000    0.000000
         Rot=    0.999978   -0.001426    0.004383    0.004780 Ang=  -0.76 deg.
 ExpMin= 1.61D-01 ExpMax= 4.17D+03 ExpMxC= 6.27D+02 IAcc=2 IRadAn=         4 AccDes= 0.00D+00
 Harris functional with IExCor=  402 and IRadAn=       4 diagonalized for initial guess.
 HarFok:  IExCor=  402 AccDes= 0.00D+00 IRadAn=         4 IDoV= 1 UseB2=F ITyADJ=14
 ICtDFT=  3500011 ScaDFX=  1.000000  1.000000  1.000000  1.000000
 FoFCou: FMM=F IPFlag=           0 FMFlag=      100000 FMFlg1=           0
         NFxFlg=           0 DoJE=T BraDBF=F KetDBF=T FulRan=T
         wScrn=  0.000000 ICntrl=       500 IOpCl=  0 I1Cent=   200000004 NGrid=           0
         NMat0=    1 NMatS0=      1 NMatT0=    0 NMatD0=    1 NMtDS0=    0 NMtDT0=    0
 Petite list used in FoFCou.
 Requested convergence on RMS density matrix=1.00D-08 within 128 cycles.
 Requested convergence on MAX density matrix=1.00D-06.
 Requested convergence on             energy=1.00D-06.
 No special actions if energy rises.
 Integral accuracy reduced to 1.0D-05 until final iterations.
 Initial convergence to 1.0D-05 achieved.  Increase integral accuracy.
 SCF Done:  E(RB3LYP) =  -380.984070570     A.U. after   12 cycles
            NFock= 12  Conv=0.80D-08     -V/T= 2.0079
 PrsmSu:  requested number of processors reduced to:  13 ShMem   1 Linda.
 Calling FoFJK, ICntrl=      2127 FMM=F ISym2X=0 I1Cent= 0 IOpClX= 0 NMat=1 NMatS=1 NMatT=0.
 ***** Axes restored to original set *****
 -------------------------------------------------------------------
 Center     Atomic                   Forces (Hartrees/Bohr)
 Number     Number              X              Y              Z
 -------------------------------------------------------------------
      1        7           0.000252637   -0.000144048   -0.000626486
      2        6          -0.002153703    0.000517711    0.000700508
      3        6          -0.000137972   -0.001279958   -0.000583490
      4        7          -0.000218491   -0.000407740    0.001450779
      5        6           0.002223476   -0.001613883    0.001433032
      6        6          -0.002100931    0.002270584   -0.002870296
      7        6           0.002782435    0.000943790    0.001866751
      8        6          -0.002845082   -0.001450163   -0.000444812
      9        6           0.002962637    0.001285129    0.000438721
     10        1          -0.000212329   -0.000472224   -0.000212395
     11        1          -0.000216151    0.000387426    0.000302578
     12        1           0.001996884   -0.000225257    0.000097211
     13        1          -0.000497270    0.000322417   -0.000487354
     14        1           0.000566547   -0.000865858   -0.000067946
     15        1          -0.000585159    0.000424390   -0.000194472
     16        1          -0.000533633   -0.000381299   -0.000772399
     17        1          -0.001283893    0.000688983   -0.000029930
 -------------------------------------------------------------------
 Cartesian Forces:  Max     0.002962637 RMS     0.001258378

 GradGradGradGradGradGradGradGradGradGradGradGradGradGradGradGradGradGrad
 Berny optimization.
 Using GEDIIS/GDIIS optimizer.
 FormGI is forming the generalized inverse of G from B-inverse, IUseBI=4.
 Internal  Forces:  Max     0.002672492 RMS     0.000556341
 Search for a local minimum.
 Step number   3 out of a maximum of  102
 All quantities printed in internal units (Hartrees-Bohrs-Radians)
 Mixed Optimization -- En-DIIS/RFO-DIIS
 Update second derivatives using D2CorX and points    2    3
 DE= -1.73D-03 DEPred=-1.51D-03 R= 1.15D+00
 TightC=F SS=  1.41D+00  RLast= 4.21D-01 DXNew= 8.4853D-01 1.2625D+00
 Trust test= 1.15D+00 RLast= 4.21D-01 DXMaxT set to 8.49D-01
 ITU=  1  1  0
 Use linear search instead of GDIIS.
     Eigenvalues ---    0.00514   0.00769   0.00937   0.01069   0.01406
     Eigenvalues ---    0.01697   0.01961   0.02133   0.02521   0.04435
     Eigenvalues ---    0.05032   0.05764   0.06502   0.06585   0.06748
     Eigenvalues ---    0.07111   0.08256   0.13687   0.15984   0.16000
     Eigenvalues ---    0.16000   0.16451   0.16741   0.20169   0.22659
     Eigenvalues ---    0.23466   0.23704   0.26140   0.26669   0.30901
     Eigenvalues ---    0.32147   0.33428   0.34101   0.34162   0.34502
     Eigenvalues ---    0.35751   0.35835   0.36142   0.37631   0.43479
     Eigenvalues ---    0.44934   0.47175   0.52518   0.57983   0.63831
 RFO step:  Lambda=-5.46656220D-04 EMin= 5.13952289D-03
 Quartic linear search produced a step of  0.43499.
 Iteration  1 RMS(Cart)=  0.06273247 RMS(Int)=  0.00148276
 Iteration  2 RMS(Cart)=  0.00223184 RMS(Int)=  0.00040918
 Iteration  3 RMS(Cart)=  0.00000172 RMS(Int)=  0.00040918
 Iteration  4 RMS(Cart)=  0.00000000 RMS(Int)=  0.00040918
 Variable       Old X    -DE/DX   Delta X   Delta X   Delta X     New X
                                 (Linear)    (Quad)   (Total)
    R1        2.80304   0.00026  -0.00022   0.00166   0.00144   2.80447
    R2        1.92421  -0.00028  -0.00161   0.00014  -0.00147   1.92274
    R3        1.92135   0.00033  -0.00073   0.00121   0.00048   1.92183
    R4        2.90517  -0.00104  -0.00900   0.00005  -0.00934   2.89583
    R5        2.86523  -0.00093   0.00226  -0.00433  -0.00240   2.86283
    R6        2.07571   0.00071   0.00221   0.00180   0.00401   2.07972
    R7        2.43029   0.00102  -0.00113   0.00226   0.00106   2.43135
    R8        2.06619   0.00057   0.00085   0.00154   0.00239   2.06858
    R9        2.62249  -0.00025   0.00194  -0.00194   0.00036   2.62285
   R10        2.56400  -0.00267  -0.00294  -0.00518  -0.00811   2.55589
   R11        2.74715   0.00000   0.00600  -0.00291   0.00334   2.75048
   R12        2.92076  -0.00072  -0.00451  -0.00134  -0.00572   2.91504
   R13        2.04518  -0.00017  -0.00117   0.00005  -0.00112   2.04406
   R14        2.90224  -0.00014   0.00945  -0.00351   0.00592   2.90816
   R15        2.07016   0.00005  -0.00128   0.00096  -0.00032   2.06985
   R16        2.07148  -0.00019   0.00073  -0.00124  -0.00051   2.07098
   R17        2.51090  -0.00093  -0.00014  -0.00219  -0.00225   2.50864
   R18        2.05077  -0.00035  -0.00040  -0.00101  -0.00141   2.04936
    A1        1.92206   0.00057  -0.00666   0.00963   0.00298   1.92504
    A2        1.89841   0.00003   0.00673  -0.00294   0.00380   1.90220
    A3        1.86229  -0.00022   0.00487  -0.00357   0.00131   1.86360
    A4        1.91529   0.00058   0.00517   0.00813   0.01341   1.92870
    A5        1.90525  -0.00006  -0.00193   0.00655   0.00497   1.91022
    A6        1.83247   0.00041  -0.00959   0.01417   0.00436   1.83683
    A7        1.98528  -0.00025   0.00889  -0.00387   0.00357   1.98885
    A8        1.88343  -0.00011  -0.00272  -0.00578  -0.00800   1.87544
    A9        1.93586  -0.00050  -0.00099  -0.01769  -0.01848   1.91739
   A10        2.25425  -0.00006   0.00195   0.00291   0.00326   2.25750
   A11        1.99179  -0.00043  -0.00548  -0.00197  -0.00680   1.98499
   A12        2.03455   0.00049   0.00413   0.00006   0.00484   2.03939
   A13        1.95795  -0.00012  -0.00010   0.00137   0.00008   1.95803
   A14        2.45332  -0.00046  -0.00605   0.00040  -0.00533   2.44799
   A15        2.18539  -0.00002   0.00430  -0.00093   0.00307   2.18846
   A16        1.64431   0.00048   0.00175   0.00078   0.00241   1.64673
   A17        1.61552   0.00044   0.00286   0.00009   0.00287   1.61840
   A18        2.34522   0.00069   0.01028   0.00216   0.01246   2.35768
   A19        2.32227  -0.00113  -0.01316  -0.00234  -0.01547   2.30680
   A20        1.46453  -0.00021   0.00108  -0.00057   0.00046   1.46499
   A21        2.03601  -0.00002  -0.00371   0.00080  -0.00287   2.03314
   A22        2.00360   0.00057  -0.00057   0.01214   0.01152   2.01512
   A23        2.02753  -0.00027  -0.00231  -0.00661  -0.00889   2.01864
   A24        2.01489  -0.00028   0.00164  -0.00761  -0.00601   2.00888
   A25        1.89285   0.00014   0.00303   0.00138   0.00434   1.89719
   A26        1.55855  -0.00071  -0.00550   0.00008  -0.00548   1.55307
   A27        2.16025  -0.00047  -0.00512  -0.00029  -0.00604   2.15421
   A28        2.56235   0.00121   0.01124   0.00088   0.01254   2.57488
   A29        2.00904   0.00094   0.00140   0.00690   0.00657   2.01561
   A30        2.07790  -0.00137  -0.01050  -0.00628  -0.01649   2.06141
   A31        2.19578   0.00042   0.01095  -0.00096   0.01031   2.20609
    D1        0.95248   0.00037   0.01000   0.02849   0.03903   0.99150
    D2        3.13911   0.00040   0.02329   0.03362   0.05640  -3.08767
    D3       -1.06767   0.00001   0.01574   0.02391   0.03963  -1.02804
    D4       -1.08263   0.00030   0.00392   0.02906   0.03352  -1.04911
    D5        1.10400   0.00033   0.01721   0.03419   0.05090   1.15490
[...]
   yy         0.105407D+03      0.156197D+02      0.173792D+02
   zx         0.660846D+01      0.979273D+00      0.108959D+01
   zy        -0.285602D+02     -0.423219D+01     -0.470895D+01
   zz         0.105830D+03      0.156823D+02      0.174489D+02

 ----------------------------------------------------------------------
 1\1\GINC-LEWIS4-Z10PH-HPC3-NODE401\Freq\RB3LYP\6-31G(2df,p)\C7H8N2\KS2
 9C\03-Jul-2022\0\\#N Geom=AllCheck Guess=TCheck SCRF=Check GenChk RB3L
 YP/6-31G(2df,p) Freq\\Title Card Required\\0,1\N,0.949259895,0.0532331
 841,-0.5657387679\C,2.3727578685,0.0113392567,-0.1704172891\C,2.723972
 0234,1.191099556,0.7487991288\N,3.1888034087,1.1830113393,1.9479304386
 \C,3.4472968085,-0.102269315,2.403414343\C,3.924106986,-0.7448702763,3
 .4948701383\C,3.7333899717,-2.1334180454,2.8484500694\C,3.2019658507,-
 1.32412891,1.654360582\C,2.6995055689,-1.3430848506,0.4260225738\H,0.7
 369018202,0.9288871324,-1.037832797\H,0.369898741,0.0222544649,0.26944
 93413\H,2.941340159,0.1507297083,-1.1034838526\H,2.4917948904,2.169781
 4853,0.3173092335\H,4.296051309,-0.4349995317,4.4624028588\H,3.0057545
 486,-2.7933916053,3.3339362629\H,4.6490568569,-2.7036823196,2.65659283
 3\H,2.4834732934,-2.226841273,-0.1650350966\\Version=ES64L-G16RevA.03\
 State=1-A\HF=-380.9847346\RMSD=4.073e-09\RMSF=1.430e-05\ZeroPoint=0.13
 84376\Thermal=0.1458684\Dipole=-0.1687365,-0.11918,-0.2304838\DipoleDe
 riv=-0.5443007,-0.0011132,-0.2524047,-0.1681531,-0.2735617,-0.2343057,
 -0.2981048,-0.0632146,-0.5018501,0.5279397,-0.0641849,0.0126927,-0.080
 2054,0.063561,-0.1037739,-0.0050205,-0.0433696,0.219864,0.0191448,-0.0
 385616,0.2040863,0.0502534,0.3526234,0.0784073,0.2511992,-0.0227288,0.
 4896498,-0.2506657,0.0355336,-0.1026577,-0.0464575,-0.4584711,-0.09188
 2,-0.2257529,0.0394903,-0.5729067,0.0891959,-0.0475717,0.0406442,-0.09
 59314,0.3129899,-0.1578148,0.0481213,-0.0937486,0.16192,-0.1835389,-0.
 0124669,0.0717976,0.0185016,-0.0171229,0.065582,0.0740084,-0.0060007,-
 0.0149094,0.2066595,0.0219644,-0.1066123,0.0043633,0.11922,-0.0026695,
 -0.1134214,0.0302614,-0.0169595,-0.0408249,0.0087273,0.0481662,0.02934
 9,-0.0494363,0.0274192,0.0753809,0.0143887,0.1081722,-0.229702,0.03023
 94,0.0470546,0.0372155,0.0712413,0.0924728,0.0262823,0.0307456,-0.0784
 549,0.126992,0.0088248,0.0206846,0.1096484,0.008835,0.1711856,0.070582
 2,0.0353481,0.2473901,0.1495514,0.02228,0.0500617,0.0957154,0.1779608,
 0.018275,0.107989,0.0146539,0.0512445,-0.0495483,0.0151594,0.0040627,-
 0.0135631,0.0254362,0.0673277,0.0316881,0.0630621,-0.1631722,0.0431278
 ,0.0579755,-0.0243606,0.0333253,-0.1201583,0.0722146,-0.0278354,0.0749
 406,-0.0129001,0.1152755,-0.0099738,-0.0588173,-0.0193408,0.0247796,-0
 .0629197,-0.0619778,-0.0417975,-0.018987,-0.0144806,-0.1033778,0.07453
 96,-0.036647,-0.0955239,0.0932375,0.0415069,0.0473406,0.0197507,-0.074
 6677,0.1076936,0.0031479,0.0967764,-0.0761378,0.0311069,0.0399094,-0.0
 375108,0.0620025,0.1098423,-0.0311481,-0.0320853,-0.01485,-0.066235,-0
 .0638629,-0.0345551,-0.0418608,0.0201461\Polar=67.0469096,-9.5521962,8
 5.2800923,30.5840459,-16.4069845,111.5290873\Quadrupole=-0.1242711,-0.
 4806744,0.6049454,-3.0273579,-0.0851272,-4.6895789\PG=C01 [X(C7H8N2)]\
 NImag=0\\0.47715402,-0.08046792,0.41183832,-0.11093423,-0.20995748,0.4
 9995392,-0.17920660,0.01701711,-0.01180198,0.42728020,-0.02095350,-0.0
 6945779,0.01265391,-0.00958483,0.47287588,-0.02756421,0.02631796,-0.07
 976721,-0.04978277,-0.04582489,0.52786365,-0.02922942,-0.02439508,-0.0
 2819476,-0.06953131,0.00360246,0.00485528,0.26512999,-0.00302777,0.004
 05408,-0.00115430,-0.00693975,-0.14813382,-0.02533086,-0.05903850,0.57
 662869,-0.01673361,-0.00547149,-0.00689209,0.00390623,-0.02214908,-0.1
 0517236,0.21763558,-0.08493458,0.72367551,0.00436213,0.00332571,0.0040
 8161,0.02075025,-0.00622786,-0.02364538,-0.12135173,-0.00014628,-0.164
 37526,0.16937985,-0.00479919,-0.00196622,-0.00289329,-0.00127319,0.015
 55574,-0.01858314,0.00832764,-0.11013952,0.01439485,-0.04413053,0.4013
 3615,-0.00245575,-0.00571722,-0.00418437,-0.01833665,-0.00501425,-0.01
 617782,-0.16424718,-0.01439268,-0.48051643,0.21350591,-0.06397576,0.61
 586569,-0.00245007,-0.00007700,-0.00254198,-0.01443972,-0.00099096,0.0
 0971986,-0.00689770,0.02254760,-0.02454884,-0.07995914,0.01495569,-0.0
 1178381,0.24976843,-0.00051832,-0.00349884,-0.00182845,-0.00463625,0.0
 0033282,-0.00327299,0.01832489,-0.01954385,0.04427657,0.03126080,-0.25
 424693,0.04847846,-0.08693195,0.70646442,0.00023436,0.00077044,0.00088
 235,0.00599348,-0.00061431,-0.00296802,-0.02520394,0.05764350,-0.05283
 287,-0.00953138,0.00932557,-0.09456726,0.20183368,-0.14386896,0.640494
 69,0.00053167,0.00055965,0.00074334,0.00105233,-0.00040330,-0.00185102
 ,0.00403720,-0.00104170,0.00265377,0.00091711,0.00690001,-0.00494723,-
 0.11131532,0.05915833,-0.12208681,0.23686120,-0.00025117,0.00053046,0.
 00005746,0.00085098,-0.00107759,0.00118575,-0.00225091,-0.00389966,-0.
 00681965,0.01305678,-0.01317551,0.03021951,0.06814566,-0.15769051,0.15
 374284,-0.02391361,0.43518868,0.00091009,0.00165974,0.00081907,-0.0005
 7443,-0.00143777,-0.00230201,0.00193045,-0.00356832,0.00829238,-0.0041
 8226,0.01493073,-0.00449300,-0.12104986,0.13230699,-0.34036505,0.26453
 597,-0.01808772,0.78117883,0.00067214,-0.00221536,0.00144944,0.0102873
 1,0.00167666,-0.00582027,0.00068422,0.00076287,-0.00052059,0.01339774,
 0.00042124,-0.00613394,0.00837308,0.01429137,-0.00653031,-0.06624930,-
 0.01677309,-0.00230354,0.52640756,0.00001134,0.00088139,0.00022773,0.0
 0011968,0.00043673,-0.00267061,-0.00001524,-0.00225901,-0.00030944,0.0
 0067315,-0.00262382,-0.00017275,0.01454431,-0.09308917,0.02255189,-0.0
 0907848,-0.14407659,-0.03274175,-0.02961062,0.55543817,-0.00050026,0.0
 0053644,-0.00097997,-0.00399390,-0.00238136,0.00219249,-0.00009993,0.0
 0110081,0.00051316,-0.00647978,-0.00012247,0.00054661,-0.00698434,0.02
 165800,-0.00186450,-0.00130273,-0.05085051,-0.07688147,-0.07691792,-0.
 07275784,0.36132534,0.00037020,0.00068626,-0.00086807,-0.00260015,0.00
 567156,-0.01120278,-0.00160171,0.00075614,0.00111591,0.01202190,0.0056
 0989,-0.00008196,-0.07737962,-0.02195307,-0.00783324,-0.00365102,-0.00
 818083,-0.04151659,-0.09260202,0.01690151,-0.02142331,0.26837844,0.001
 14166,-0.00377876,0.00282923,0.01086460,0.00376196,0.03006839,-0.00320
 521,-0.00109314,-0.00763386,0.00220478,-0.03775759,-0.00120779,-0.0274
 2194,-0.19587195,-0.08161139,-0.01010515,0.00237282,-0.02550216,0.0257
 7807,-0.08697761,0.06234528,-0.00195005,0.45018280,0.00216585,-0.00191
 330,0.00078478,-0.01075573,0.01465324,-0.02323049,0.00088243,0.0028169
 1,0.00051296,-0.00064414,0.00590046,0.01129975,-0.00835390,-0.06769206
 ,-0.10312721,-0.04158303,-0.02149099,-0.09065238,-0.02122501,0.0412570
 6,-0.12724829,0.27126716,0.03176257,0.81878381,-0.01471443,0.03331225,
 -0.02214470,-0.06776037,0.00989784,-0.00698636,0.00411709,-0.00419523,
 0.00715153,-0.00246813,0.00365606,-0.00128742,0.00270702,-0.00621024,-
 0.01531663,0.00198070,-0.00171798,0.00061918,0.00085380,-0.00177537,-0
 .00326630,-0.11893317,-0.00039219,-0.17569754,0.24161408,0.00891253,-0
 .00172325,0.00617638,0.01793184,-0.17695652,0.03090088,0.00307374,-0.0
 2942574,0.00598067,0.00108803,0.00229623,0.00332821,-0.01026201,0.0072
 2433,-0.02633930,-0.00066876,-0.00539900,-0.00248461,0.00267187,0.0059
 0957,0.00994920,0.00122949,-0.11183532,-0.00590206,0.02228091,0.552907
 50,-0.00945017,0.01432201,-0.00737559,-0.01152160,0.03109367,-0.096790
 41,0.00721694,-0.01485797,0.01624137,-0.00143589,0.00894883,-0.0041712
 4,-0.01622711,-0.01576124,-0.03244550,0.00116445,-0.00512085,0.0030156
 1,-0.00194928,-0.00401897,-0.00458753,-0.17452814,-0.00861254,-0.47240
 426,0.25405672,0.09787099,0.74704489,-0.06944112,0.05851591,-0.0203562
 7,-0.00802898,0.03419466,-0.01788117,0.00039066,0.00130150,-0.00145673
 ,-0.00003430,-0.00062551,0.00116112,-0.00037411,0.00082326,0.00004197,
 -0.00009283,-0.00014634,-0.00049136,0.00073834,-0.00032513,-0.00025241
 ,-0.00034338,0.00168107,0.00017721,-0.00667693,-0.00167980,-0.00233810
 ,0.07764157,0.07445859,-0.31513906,0.18842445,-0.00669635,-0.00383996,
 -0.00526376,-0.00111870,0.00209321,-0.00137719,0.00014727,-0.00006683,
 0.00061189,0.00016280,-0.00007505,-0.00009591,0.00001157,0.00014203,0.
 00000826,-0.00040508,0.00007689,0.00000029,0.00018720,-0.00056780,-0.0
 0064202,0.00275883,0.00086673,0.00068823,-0.07107639,0.32054756,-0.017
 34382,0.13932578,-0.10626709,-0.00443601,0.00651924,-0.00615313,0.0008
 5760,0.00125062,-0.00147856,-0.00002602,-0.00033033,0.00146220,-0.0001
 8400,0.00074906,-0.00035409,-0.00007780,-0.00018457,-0.00034472,0.0001
 1945,-0.00025293,0.00014092,0.00016758,0.00018550,0.00148207,-0.001827
 18,-0.00015777,-0.00027977,0.03032719,-0.17608945,0.12840541,-0.160411
 42,-0.00049086,0.15930757,-0.02525366,-0.00123863,0.03125177,0.0015407
 9,0.00013653,0.00161905,-0.00037283,0.00006357,-0.00008604,0.00003545,
 0.00031361,-0.00023664,-0.00010693,-0.00002683,-0.00008742,-0.00007571
 ,-0.00002915,0.00004090,0.00013272,0.00004870,-0.00079083,0.00211447,-
 0.00047485,0.00075470,0.00536355,0.00138047,-0.00751916,0.18444440,0.0
 2449067,-0.02954726,0.00335040,-0.00471128,-0.00234928,-0.00431607,-0.
 00060744,-0.00014366,0.00179473,0.00039392,0.00045257,0.00034937,-0.00
 005262,0.00071434,-0.00009676,-0.00015882,-0.00010372,-0.00031040,0.00
 004027,-0.00016823,0.00016141,0.00005769,-0.00001036,0.00110853,-0.000
 03731,0.00057263,-0.00155382,-0.02146183,-0.00447442,0.03023739,0.0004
 5337,0.03485958,0.18547296,0.04101627,-0.30593507,-0.01237171,-0.00355
 618,0.00644669,-0.00104778,0.00037113,0.00246294,0.00040767,0.00041505
 ,-0.00063310,-0.00032525,-0.00015071,0.00010678,0.00000677,0.00004679,
 0.00000328,0.00004492,0.00007283,-0.00008620,0.00017499,-0.00030684,-0
 .00041263,0.00065289,-0.00072911,0.00141404,0.01054844,-0.00672692,-0.
 01675078,-0.18177383,-0.03039140,0.31199904,-0.03214041,-0.00649459,0.
 02836765,-0.09789115,-0.01437517,0.09840493,0.00532561,0.00081271,-0.0
 0675059,-0.00160543,-0.00096805,0.00061884,0.00033424,0.00053248,-0.00
 095379,-0.00036261,-0.00009601,-0.00022457,-0.00071329,-0.00040411,0.0
 0014275,0.00053370,0.00096578,-0.00002903,0.00504156,0.00162272,-0.007
 62820,0.00107160,0.00062243,0.00051274,-0.00704035,0.00152002,-0.00193
 396,0.12705999,0.00148367,0.00227451,0.00144598,-0.01499603,-0.0525253
 5,0.02162017,0.01121211,0.00514487,-0.02412875,-0.00417373,-0.00335303
 ,-0.00089719,0.00063574,-0.00152403,0.00045336,0.00036822,0.00023118,0
 .00069561,0.00185723,0.00071160,-0.00077505,-0.00133164,-0.00407649,-0
 .00049040,-0.01118753,-0.00498362,0.02782369,0.00009334,0.00032532,-0.
 00033363,0.00021352,0.00074460,-0.00013524,0.01632558,0.05588969,-0.00
 568995,-0.00125270,0.00850253,0.11053634,0.02258158,-0.22176318,0.0068
 2750,0.00117416,-0.02145080,-0.00096728,-0.00387761,0.00045711,0.00058
 495,0.00025675,-0.00158560,-0.00018563,-0.00034758,0.00032352,-0.00051
 191,-0.00052435,0.00014840,0.00121160,0.00270829,0.00180996,0.00207833
 ,0.00633420,-0.01250751,0.00080219,-0.00011661,0.00036133,-0.00238998,
 -0.00010566,0.00131030,-0.11160850,-0.02640878,0.24297815,0.00327934,0
 .00103447,0.00241048,0.00472680,-0.00549685,-0.00326355,-0.05260774,0.
 04694894,-0.01851817,-0.00972556,0.01117975,-0.00881655,0.01385877,0.0
 0043325,-0.00676584,-0.00007731,0.00041556,0.00040111,-0.00212014,0.00
 024024,0.00083782,-0.00065417,0.00019001,-0.00031558,0.00054767,-0.001
 32004,-0.00075817,-0.00015968,-0.00013036,-0.00052351,-0.00022697,-0.0
 0015983,0.00010381,-0.00000289,-0.00077285,-0.00058833,0.04243461,-0.0
 0028346,0.00248687,0.00054330,0.00842869,-0.01952556,0.01138915,0.0447
 9508,-0.27013640,0.08310347,0.00206644,0.00548742,0.00685965,0.0004888
 1,0.00258586,-0.00165275,0.00010094,0.00000320,0.00024799,-0.00023036,
 0.00015335,-0.00001358,-0.00033975,0.00056520,-0.00059917,-0.00160315,
 -0.00155998,-0.00479981,-0.00121401,-0.00010036,-0.00090780,-0.0002910
 9,-0.00009883,0.00011167,0.00026369,0.00019489,-0.00079756,-0.05256248
 ,0.28129573,0.00122668,0.00019712,0.00033781,0.00050012,-0.01674387,0.
 00866287,-0.01965077,0.07852230,-0.08149351,-0.01005496,0.03250299,-0.
 02607219,-0.00745421,-0.00136022,-0.00208428,0.00033869,0.00132453,0.0
 0084059,0.00072440,0.00057796,-0.00067768,-0.00010656,0.00019903,-0.00
 084155,-0.00170829,-0.00218472,-0.00227929,-0.00022139,0.00046477,-0.0
 0016916,-0.00007840,0.00009199,0.00009444,0.00057118,0.00143107,0.0009
 1582,0.03586184,-0.09443977,0.10200442,-0.00013635,0.00008520,-0.00025
 749,-0.00065681,-0.00023491,0.00070395,-0.00057775,-0.00009221,-0.0000
 7975,-0.00248399,0.00026681,0.00143269,0.00561771,-0.00646757,-0.00588
 468,-0.07186075,-0.02568590,-0.09769150,0.00050644,0.00155791,0.001050
 84,0.01050802,0.00155980,-0.00691990,-0.00028595,-0.00050755,-0.000378
 30,-0.00007830,0.00003324,-0.00001056,0.00001458,0.00001403,-0.0000139
 9,0.00015628,-0.00008979,0.00018176,0.00035783,0.00003381,-0.00016361,
 0.06089426,-0.00004013,0.00013057,-0.00006055,-0.00012231,-0.00011677,
 -0.00014531,-0.00004706,-0.00035548,-0.00009992,-0.00030810,0.00088768
 ,-0.00031612,0.00371518,0.01057447,0.00977102,-0.02779907,-0.08460382,
 -0.07569557,-0.00513795,0.00556311,-0.01237018,0.00022706,-0.00265370,
 -0.00158928,-0.00011981,0.00217030,-0.00003243,-0.00003483,0.00001322,
 0.00000283,-0.00000147,-0.00002304,-0.00000366,0.00003479,0.00006767,-
 0.00000293,0.00002467,0.00001284,0.00003956,0.02979969,0.06865649,-0.0
 0001002,0.00006979,0.00002941,0.00044623,-0.00017379,0.00018300,0.0001
 5770,-0.00010979,-0.00003568,0.00116434,0.00164974,-0.00005359,-0.0041
 0553,-0.01594643,-0.00482552,-0.09826170,-0.07024303,-0.28791790,0.000
 11513,0.00468506,0.00101655,-0.00742455,0.00132311,-0.00501120,0.00008
 826,-0.00157675,-0.00002834,0.00001770,0.00002162,0.00002020,0.0000125
 1,-0.00002849,0.00000498,-0.00000929,0.00008132,-0.00007375,-0.0002010
 7,0.00005537,-0.00001675,0.10758595,0.08068576,0.29783545,-0.00002311,
 0.00020537,-0.00004364,-0.00058139,-0.00037904,0.00038804,-0.00010934,
 -0.00018757,-0.00001821,-0.00065608,0.00092410,0.00052428,0.00015335,0
 .00009305,-0.00165520,-0.00053360,-0.00123776,0.00068658,-0.16439405,-
 0.10178810,0.07825984,0.00995374,0.00750424,-0.00472315,0.00007460,0.0
 0021760,0.00025987,-0.00006531,0.00003388,-0.00000445,-0.00002292,-0.0
 0002359,-0.00001960,0.00004447,0.00000955,0.00003280,0.00012613,0.0000
 3115,-0.00003357,-0.00023349,-0.00062835,0.00006160,0.17431083,0.00022
 211,0.00040287,0.00029431,0.00029059,-0.00013745,-0.00022295,-0.000224
 92,-0.00041662,-0.00116507,0.00359717,-0.00127603,0.00037283,-0.001621
 80,-0.00188830,-0.00045649,-0.01333604,-0.01534234,0.01174826,-0.10400
 604,-0.13196198,0.06833494,-0.00622312,-0.00850309,0.00366406,-0.00019
 920,0.00045699,-0.00023823,-0.00005100,-0.00002942,-0.00011736,-0.0000
 4419,-0.00011548,0.00000771,0.00005369,0.00006143,0.00009457,-0.000430
 87,-0.00006030,0.00040544,-0.00024128,-0.00014779,-0.00022943,0.111378
 62,0.14869646,-0.00021765,0.00043661,-0.00028416,-0.00093135,-0.000987
 67,0.00053602,0.00009746,-0.00051685,0.00031237,0.00069895,0.00164609,
 0.00028095,-0.00176853,-0.00109421,-0.00198997,-0.01147876,-0.00714763
 ,0.01008511,0.07807126,0.06683245,-0.09877222,0.01780434,0.01122601,-0
 .00853914,-0.00018664,0.00162640,0.00087331,-0.00014651,0.00011597,0.0
 0003730,-0.00000744,-0.00002632,0.00000089,0.00005252,0.00012428,0.000
 00039,-0.00001103,0.00007930,0.00005812,-0.00009148,0.00000361,-0.0001
 8812,-0.08626280,-0.07570625,0.10002002,0.00001029,0.00009459,-0.00005
 402,0.00029674,-0.00018668,-0.00026882,0.00003657,-0.00019088,0.000232
 50,-0.00054557,0.00037768,0.00038084,0.00079263,-0.00042246,-0.0010472
 2,0.00870575,-0.00200637,-0.00072553,-0.23173465,0.10878362,0.03903134
 ,-0.00674787,0.00278548,0.00215165,0.00036291,0.00081017,0.00019947,-0
 .00002164,0.00003666,-0.00000570,0.00002940,-0.00002674,0.00002516,-0.
 00000587,0.00015454,-0.00002429,0.00002851,0.00003529,-0.00000532,-0.0
 0024631,0.00041462,-0.00000631,-0.01828707,0.01096659,0.00391307,0.247
 60416,0.00007237,0.00025936,0.00021928,-0.00017830,-0.00031445,0.00021
 388,-0.00057877,-0.00054081,-0.00091373,-0.00236517,-0.00149016,0.0027
 8703,0.00102384,-0.00180484,-0.00168281,0.01947412,-0.01361578,-0.0016
 7376,0.11129034,-0.10859363,-0.02413089,0.00815645,-0.00798262,-0.0018
 8999,-0.00011677,0.00072373,-0.00039546,-0.00004615,-0.00000637,-0.000
 07721,-0.00006837,-0.00009363,-0.00001763,0.00001500,0.00013272,0.0000
 4821,0.00058345,0.00002852,-0.00001041,0.00002058,-0.00010827,-0.00032
 005,-0.01601220,0.01012074,0.00348682,-0.12163431,0.12314644,0.0002001
 1,0.00025773,0.00015426,0.00115808,-0.00026440,-0.00067940,-0.00007939
 ,-0.00043174,-0.00026325,0.00036688,0.00121229,0.00084598,-0.00090024,
 -0.00026756,-0.00286805,0.01267878,-0.00564947,-0.00088762,0.03935816,
 -0.02346911,-0.05463470,-0.02168824,0.01100836,0.00714497,0.00056370,0
 .00088821,0.00052240,-0.00003008,0.00001203,-0.00005661,0.00000916,-0.
 00006017,0.00002215,0.00003484,0.00034793,0.00003278,-0.00012388,0.000
 03624,0.00011524,0.00014475,-0.00046939,-0.00024033,0.01276166,-0.0071
 8094,-0.00192836,-0.04376654,0.02421696,0.05266546,0.00137316,-0.00069
 570,0.00083707,0.00155652,0.00502854,0.00294251,0.00064457,0.00159361,
 -0.00131283,-0.00162621,-0.00088596,0.00055286,0.01117498,0.00190883,-
 0.00505781,0.00016372,-0.00018220,-0.00023632,-0.00403148,0.00019444,0
 .00185739,0.00261440,-0.01164966,-0.00560646,-0.04857493,-0.04492587,-
 0.03743719,0.00011084,-0.00040608,-0.00002636,-0.00016458,0.00026950,0
 .00004851,0.00019456,0.00019804,-0.00028959,0.00021479,0.00028039,0.00
 025417,-0.00149542,0.00002307,0.00036902,0.00024324,-0.00013032,0.0004
 6458,-0.00027799,0.00036387,-0.00068774,0.03787984,-0.00045148,0.00225
 275,-0.00032836,-0.00636522,-0.01852859,-0.01606558,0.00214592,-0.0018
 3313,0.00545248,-0.00046237,0.00007984,-0.00131320,0.00113865,0.001337
 22,0.00216007,-0.00006793,0.00051614,-0.00009552,-0.00041141,0.0005792
 5,-0.00068449,0.00049521,0.00422564,0.00104643,-0.04435112,-0.24124458
 ,-0.12535610,0.00005124,0.00023430,0.00018062,0.00005566,-0.00021580,-
 0.00002375,-0.00043094,0.00068403,0.00023601,-0.00017707,-0.00133246,-
 0.00101777,-0.00005188,-0.00006749,0.00005602,-0.00014095,0.00014031,-
 0.00009861,0.00000818,0.00013906,-0.00018697,0.04901549,0.25303351,0.0
 0068963,-0.00059772,0.00022140,0.00196563,0.01164594,0.00911932,-0.001
 93716,0.00241766,-0.00187513,0.00111699,-0.00114399,0.00011070,-0.0059
 1090,0.00351700,0.00039410,-0.00034705,-0.00063487,-0.00071424,0.00203
 001,0.00071278,-0.00015090,-0.00506814,-0.02878118,-0.01035114,-0.0367
 8956,-0.12368082,-0.13624218,0.00009819,-0.00003564,-0.00005551,-0.000
 02593,-0.00020472,-0.00004775,0.00043248,-0.00085438,0.00054054,0.0002
 7063,0.00078430,0.00060508,0.00039132,0.00028257,-0.00069840,-0.000214
 05,0.00039460,-0.00050252,-0.00003029,0.00013977,0.00005508,0.04332819
 ,0.13603872,0.13959157\\0.00002257,0.00003310,0.00002006,-0.00004187,-
 0.00000624,-0.00000985,0.00001625,-0.00000481,0.00003441,-0.00000335,0
 .00002731,-0.00002025,0.00000063,-0.00001995,0.00001358,0.00000165,-0.
 00000051,0.00000098,-0.00001143,-0.00001541,-0.00000437,0.00001044,0.0
 0002612,-0.00001070,-0.00001206,-0.00003094,0.00000765,-0.00000002,-0.
 00001544,-0.00000226,0.00000979,-0.00000875,-0.00001249,-0.00000077,0.
 00000411,-0.00000296,-0.00000489,-0.00000253,-0.00000896,0.00000009,0.
 00000374,-0.00000171,0.00000180,0.00000275,-0.00000062,0.00000377,0.00
 000305,0.00000085,0.00000741,0.00000440,-0.00000336\\\@


 QUHEN THE CAUSS IS TAKEN AWAY THE EFFECT WANISHETH.
 -- PROVERBS AND REASONS OF THE YEAR 1585
           AS REPRINTED IN PAISLEY MAGAZINE 1828.
 Job cpu time:       0 days  1 hours 46 minutes 34.0 seconds.
 Elapsed time:       0 days  0 hours 26 minutes 38.9 seconds.
 File lengths (MBytes):  RWF=    115 Int=      0 D2E=      0 Chk=      8 Scr=      1
 Normal termination of Gaussian 16 at Sun Jul  3 12:58:37 2022.
### All Done ###
