### Starting Gaussian ###
 Entering Gaussian System, Link 0=g16
 Initial command:
 /cluster/software/gaussian/gaussian-16-A.03/avx2/g16/l1.exe "/local/scratch/ks29c/Gau-12527.inp" -scrdir="/local/scratch/ks29c/"
 Entering Link 1 = /cluster/software/gaussian/gaussian-16-A.03/avx2/g16/l1.exe PID=     12528.
  
 Copyright (c) 1988,1990,1992,1993,1995,1998,2003,2009,2016,
            Gaussian, Inc.  All Rights Reserved.
  
 This is part of the Gaussian(R) 16 program.  It is based on
 the Gaussian(R) 09 system (copyright 2009, Gaussian, Inc.),
 the Gaussian(R) 03 system (copyright 2003, Gaussian, Inc.),
 the Gaussian(R) 98 system (copyright 1998, Gaussian, Inc.),
 the Gaussian(R) 94 system (copyright 1995, Gaussian, Inc.),
 the Gaussian 92(TM) system (copyright 1992, Gaussian, Inc.),
 the Gaussian 90(TM) system (copyright 1990, Gaussian, Inc.),
 the Gaussian 88(TM) system (copyright 1988, Gaussian, Inc.),
 the Gaussian 86(TM) system (copyright 1986, Carnegie Mellon
 University), and the Gaussian 82(TM) system (copyright 1983,
 Carnegie Mellon University). Gaussian is a federally registered
 trademark of Gaussian, Inc.
  
 This software contains proprietary and confidential information,
 including trade secrets, belonging to Gaussian, Inc.
  
 This software is provided under written license and may be
 used, copied, transmitted, or stored only in accord with that
 written license.
  
 The following legend is applicable only to US Government
 contracts under FAR:
  
                    RESTRICTED RIGHTS LEGEND
  
 Use, reproduction and disclosure by the US Government is
 subject to restrictions as set forth in subparagraphs (a)
 and (c) of the Commercial Computer Software - Restricted
 Rights clause in FAR 52.227-19.
  
 Gaussian, Inc.
 340 Quinnipiac St., Bldg. 40, Wallingford CT 06492
  
  
 ---------------------------------------------------------------
 Warning -- This program may not be used in any manner that
 competes with the business of Gaussian, Inc. or will provide
 assistance to any competitor of Gaussian, Inc.  The licensee
 of this program is prohibited from giving any competitor of
 Gaussian, Inc. access to this program.  By using this program,
 the user acknowledges that Gaussian, Inc. is engaged in the
 business of creating and licensing software in the field of
 computational chemistry and represents and warrants to the
 licensee that it is not a competitor of Gaussian, Inc. and that
 it will not use this program in any manner prohibited above.
 ---------------------------------------------------------------
  

 Cite this work as:
 Gaussian 16, Revision A.03,
 M. J. Frisch, G. W. Trucks, H. B. Schlegel, G. E. Scuseria, 
 M. A. Robb, J. R. Cheeseman, G. Scalmani, V. Barone, 
 G. A. Petersson, H. Nakatsuji, X. Li, M. Caricato, A. V. Marenich, 
 J. Bloino, B. G. Janesko, R. Gomperts, B. Mennucci, H. P. Hratchian, 
 J. V. Ortiz, A. F. Izmaylov, J. L. Sonnenberg, D. Williams-Young, 
 F. Ding, F. Lipparini, F. Egidi, J. Goings, B. Peng, A. Petrone, 
 T. Henderson, D. Ranasinghe, V. G. Zakrzewski, J. Gao, N. Rega, 
 G. Zheng, W. Liang, M. Hada, M. Ehara, K. Toyota, R. Fukuda, 
 J. Hasegawa, M. Ishida, T. Nakajima, Y. Honda, O. Kitao, H. Nakai, 
 T. Vreven, K. Throssell, J. A. Montgomery, Jr., J. E. Peralta, 
 F. Ogliaro, M. J. Bearpark, J. J. Heyd, E. N. Brothers, K. N. Kudin, 
 V. N. Staroverov, T. A. Keith, R. Kobayashi, J. Normand, 
 K. Raghavachari, A. P. Rendell, J. C. Burant, S. S. Iyengar, 
 J. Tomasi, M. Cossi, J. M. Millam, M. Klene, C. Adamo, R. Cammi, 
 J. W. Ochterski, R. L. Martin, K. Morokuma, O. Farkas, 
 J. B. Foresman, and D. J. Fox, Gaussian, Inc., Wallingford CT, 2016.
 
 ******************************************
 Gaussian 16:  ES64L-G16RevA.03 25-Dec-2016
                 3-Jul-2022 
 ******************************************
 %chk=NC1CCCdCNC1.chk
 %NProcShared=20
 Will use up to   20 processors via shared memory.
 -----------------------------
 # opt freq b3lyp/6-31g(2df,p)
 -----------------------------
 1/18=20,19=15,26=3,38=1/1,3;
 2/9=110,12=2,17=6,18=5,40=1/2;
 3/5=1,6=6,7=104,11=2,25=1,30=1,71=1,74=-5/1,2,3;
 4//1;
 5/5=2,38=5/2;
 6/7=2,8=2,9=2,10=2,28=1/1;
 7//1,2,3,16;
 1/18=20,19=15,26=3/3(2);
 2/9=110/2;
 99//99;
 2/9=110/2;
 3/5=1,6=6,7=104,11=2,25=1,30=1,71=1,74=-5/1,2,3;
 4/5=5,16=3,69=1/1;
 5/5=2,38=5/2;
 7//1,2,3,16;
 1/18=20,19=15,26=3/3(-5);
 2/9=110/2;
 6/7=2,8=2,9=2,10=2,19=2,28=1/1;
 99/9=1/99;
 -------------------
 Title Card Required
 -------------------
 Symbolic Z-matrix:
 Charge =  0 Multiplicity = 1
 N                     0.90444  -0.10652   0.07289 
 C                     2.37736  -0.02464   0.00241 
 C                     2.83185   1.32305   0.58339 
 C                     2.40477   2.50566  -0.3023 
 C                     3.29602   2.74677  -1.4974 
 C                     4.07119   1.82787  -2.07439 
 N                     4.06317   0.48412  -1.7981 
 C                     2.8445   -0.23384  -1.45821 
 H                     0.58302  -0.02859   1.03448 
 H                     0.57147  -0.98883  -0.30671 
 H                     2.78983  -0.82773   0.62666 
 H                     3.92438   1.31899   0.71633 
 H                     2.4253    1.44779   1.59542 
 H                     2.41008   3.40902   0.31711 
 H                     1.37534   2.37747  -0.65459 
 H                     3.31712   3.76754  -1.87363 
 H                     4.75096   2.0942   -2.88369 
 H                     4.95493   0.00382  -1.75035 
 H                     2.96856  -1.30271  -1.66515 
 H                     2.05898   0.11109  -2.14405 
 

 GradGradGradGradGradGradGradGradGradGradGradGradGradGradGradGradGradGrad
 Berny optimization.
 Initialization pass.
                           ----------------------------
                           !    Initial Parameters    !
                           ! (Angstroms and Degrees)  !
 --------------------------                            --------------------------
 ! Name  Definition              Value          Derivative Info.                !
 --------------------------------------------------------------------------------
 ! R1    R(1,2)                  1.4769         estimate D2E/DX2                !
 ! R2    R(1,9)                  1.0169         estimate D2E/DX2                !
 ! R3    R(1,10)                 1.0166         estimate D2E/DX2                !
 ! R4    R(2,3)                  1.5363         estimate D2E/DX2                !
 ! R5    R(2,8)                  1.5477         estimate D2E/DX2                !
 ! R6    R(2,11)                 1.0976         estimate D2E/DX2                !
 ! R7    R(3,4)                  1.538          estimate D2E/DX2                !
 ! R8    R(3,12)                 1.1006         estimate D2E/DX2                !
 ! R9    R(3,13)                 1.0977         estimate D2E/DX2                !
 ! R10   R(4,5)                  1.5102         estimate D2E/DX2                !
 ! R11   R(4,14)                 1.0953         estimate D2E/DX2                !
 ! R12   R(4,15)                 1.0956         estimate D2E/DX2                !
 ! R13   R(5,6)                  1.3335         estimate D2E/DX2                !
 ! R14   R(5,16)                 1.0881         estimate D2E/DX2                !
 ! R15   R(6,7)                  1.3719         estimate D2E/DX2                !
 ! R16   R(6,17)                 1.0899         estimate D2E/DX2                !
 ! R17   R(7,8)                  1.4547         estimate D2E/DX2                !
 ! R18   R(7,18)                 1.014          estimate D2E/DX2                !
 ! R19   R(8,19)                 1.0958         estimate D2E/DX2                !
 ! R20   R(8,20)                 1.0984         estimate D2E/DX2                !
 ! A1    A(2,1,9)              110.8619         estimate D2E/DX2                !
 ! A2    A(2,1,10)             110.9136         estimate D2E/DX2                !
 ! A3    A(9,1,10)             108.4267         estimate D2E/DX2                !
 ! A4    A(1,2,3)              109.0031         estimate D2E/DX2                !
 ! A5    A(1,2,8)              109.7893         estimate D2E/DX2                !
 ! A6    A(1,2,11)             107.8829         estimate D2E/DX2                !
 ! A7    A(3,2,8)              112.7158         estimate D2E/DX2                !
 ! A8    A(3,2,11)             108.396          estimate D2E/DX2                !
 ! A9    A(8,2,11)             108.9298         estimate D2E/DX2                !
 ! A10   A(2,3,4)              111.9991         estimate D2E/DX2                !
 ! A11   A(2,3,12)             109.6393         estimate D2E/DX2                !
 ! A12   A(2,3,13)             109.8007         estimate D2E/DX2                !
 ! A13   A(4,3,12)             110.368          estimate D2E/DX2                !
 ! A14   A(4,3,13)             109.919          estimate D2E/DX2                !
 ! A15   A(12,3,13)            104.8742         estimate D2E/DX2                !
 ! A16   A(3,4,5)              114.4944         estimate D2E/DX2                !
 ! A17   A(3,4,14)             107.8883         estimate D2E/DX2                !
 ! A18   A(3,4,15)             110.8628         estimate D2E/DX2                !
 ! A19   A(5,4,14)             108.2385         estimate D2E/DX2                !
 ! A20   A(5,4,15)             108.5867         estimate D2E/DX2                !
 ! A21   A(14,4,15)            106.4332         estimate D2E/DX2                !
 ! A22   A(4,5,6)              125.1316         estimate D2E/DX2                !
 ! A23   A(4,5,16)             115.7752         estimate D2E/DX2                !
 ! A24   A(6,5,16)             119.0499         estimate D2E/DX2                !
 ! A25   A(5,6,7)              125.7623         estimate D2E/DX2                !
 ! A26   A(5,6,17)             121.0273         estimate D2E/DX2                !
 ! A27   A(7,6,17)             113.1117         estimate D2E/DX2                !
 ! A28   A(6,7,8)              122.3695         estimate D2E/DX2                !
 ! A29   A(6,7,18)             117.9237         estimate D2E/DX2                !
 ! A30   A(8,7,18)             119.4704         estimate D2E/DX2                !
 ! A31   A(2,8,7)              113.9943         estimate D2E/DX2                !
 ! A32   A(2,8,19)             110.1361         estimate D2E/DX2                !
 ! A33   A(2,8,20)             109.3282         estimate D2E/DX2                !
 ! A34   A(7,8,19)             110.0267         estimate D2E/DX2                !
 ! A35   A(7,8,20)             107.3523         estimate D2E/DX2                !
 ! A36   A(19,8,20)            105.6273         estimate D2E/DX2                !
 ! D1    D(9,1,2,3)            -59.586          estimate D2E/DX2                !
 ! D2    D(9,1,2,8)            176.4988         estimate D2E/DX2                !
 ! D3    D(9,1,2,11)            57.9198         estimate D2E/DX2                !
 ! D4    D(10,1,2,3)           179.8995         estimate D2E/DX2                !
 ! D5    D(10,1,2,8)            55.9843         estimate D2E/DX2                !
 ! D6    D(10,1,2,11)          -62.5947         estimate D2E/DX2                !
 ! D7    D(1,2,3,4)            -67.9716         estimate D2E/DX2                !
 ! D8    D(1,2,3,12)           169.1581         estimate D2E/DX2                !
 ! D9    D(1,2,3,13)            54.4396         estimate D2E/DX2                !
 ! D10   D(8,2,3,4)             54.1934         estimate D2E/DX2                !
 ! D11   D(8,2,3,12)           -68.6769         estimate D2E/DX2                !
 ! D12   D(8,2,3,13)           176.6046         estimate D2E/DX2                !
 ! D13   D(11,2,3,4)           174.8477         estimate D2E/DX2                !
 ! D14   D(11,2,3,12)           51.9774         estimate D2E/DX2                !
 ! D15   D(11,2,3,13)          -62.7411         estimate D2E/DX2                !
 ! D16   D(1,2,8,7)            148.9343         estimate D2E/DX2                !
 ! D17   D(1,2,8,19)           -86.8397         estimate D2E/DX2                !
 ! D18   D(1,2,8,20)            28.7967         estimate D2E/DX2                !
 ! D19   D(3,2,8,7)             27.2132         estimate D2E/DX2                !
 ! D20   D(3,2,8,19)           151.4393         estimate D2E/DX2                !
 ! D21   D(3,2,8,20)           -92.9243         estimate D2E/DX2                !
 ! D22   D(11,2,8,7)           -93.135          estimate D2E/DX2                !
 ! D23   D(11,2,8,19)           31.0911         estimate D2E/DX2                !
 ! D24   D(11,2,8,20)          146.7275         estimate D2E/DX2                !
 ! D25   D(2,3,4,5)            -80.4537         estimate D2E/DX2                !
 ! D26   D(2,3,4,14)           158.9856         estimate D2E/DX2                !
 ! D27   D(2,3,4,15)            42.8091         estimate D2E/DX2                !
 ! D28   D(12,3,4,5)            42.0028         estimate D2E/DX2                !
 ! D29   D(12,3,4,14)          -78.5579         estimate D2E/DX2                !
 ! D30   D(12,3,4,15)          165.2656         estimate D2E/DX2                !
 ! D31   D(13,3,4,5)           157.2025         estimate D2E/DX2                !
 ! D32   D(13,3,4,14)           36.6418         estimate D2E/DX2                !
 ! D33   D(13,3,4,15)          -79.5347         estimate D2E/DX2                !
 ! D34   D(3,4,5,6)             23.8457         estimate D2E/DX2                !
 ! D35   D(3,4,5,16)          -153.7253         estimate D2E/DX2                !
 ! D36   D(14,4,5,6)           144.2123         estimate D2E/DX2                !
 ! D37   D(14,4,5,16)          -33.3588         estimate D2E/DX2                !
 ! D38   D(15,4,5,6)          -100.6329         estimate D2E/DX2                !
 ! D39   D(15,4,5,16)           81.7961         estimate D2E/DX2                !
 ! D40   D(4,5,6,7)              8.9697         estimate D2E/DX2                !
 ! D41   D(4,5,6,17)          -174.8981         estimate D2E/DX2                !
 ! D42   D(16,5,6,7)          -173.5324         estimate D2E/DX2                !
 ! D43   D(16,5,6,17)            2.5999         estimate D2E/DX2                !
 ! D44   D(5,6,7,8)             35.078          estimate D2E/DX2                !
 ! D45   D(5,6,7,18)          -139.3015         estimate D2E/DX2                !
 ! D46   D(17,6,7,8)          -141.3188         estimate D2E/DX2                !
 ! D47   D(17,6,7,18)           44.3017         estimate D2E/DX2                !
 ! D48   D(6,7,8,2)            -78.1633         estimate D2E/DX2                !
 ! D49   D(6,7,8,19)           157.552          estimate D2E/DX2                !
 ! D50   D(6,7,8,20)            43.0779         estimate D2E/DX2                !
 ! D51   D(18,7,8,2)            96.1322         estimate D2E/DX2                !
 ! D52   D(18,7,8,19)          -28.1525         estimate D2E/DX2                !
 ! D53   D(18,7,8,20)         -142.6265         estimate D2E/DX2                !
 --------------------------------------------------------------------------------
 Trust Radius=3.00D-01 FncErr=1.00D-07 GrdErr=1.00D-06 EigMax=2.50D+02 EigMin=1.00D-04
 Number of steps in this run=    119 maximum allowed number of steps=    120.
 GradGradGradGradGradGradGradGradGradGradGradGradGradGradGradGradGradGrad

                          Input orientation:                          
 ---------------------------------------------------------------------
 Center     Atomic      Atomic             Coordinates (Angstroms)
 Number     Number       Type             X           Y           Z
 ---------------------------------------------------------------------
      1          7           0        0.904440   -0.106520    0.072890
      2          6           0        2.377360   -0.024640    0.002410
      3          6           0        2.831850    1.323050    0.583390
      4          6           0        2.404770    2.505660   -0.302300
      5          6           0        3.296020    2.746770   -1.497400
      6          6           0        4.071190    1.827870   -2.074390
      7          7           0        4.063170    0.484120   -1.798100
      8          6           0        2.844500   -0.233840   -1.458210
      9          1           0        0.583020   -0.028590    1.034480
     10          1           0        0.571470   -0.988830   -0.306710
     11          1           0        2.789830   -0.827730    0.626660
     12          1           0        3.924380    1.318990    0.716330
     13          1           0        2.425300    1.447790    1.595420
     14          1           0        2.410080    3.409020    0.317110
     15          1           0        1.375340    2.377470   -0.654590
     16          1           0        3.317120    3.767540   -1.873630
     17          1           0        4.750960    2.094200   -2.883690
     18          1           0        4.954930    0.003820   -1.750350
     19          1           0        2.968560   -1.302710   -1.665150
     20          1           0        2.058980    0.111090   -2.144050
 ---------------------------------------------------------------------
                    Distance matrix (angstroms):
                    1          2          3          4          5
     1  N    0.000000
     2  C    1.476877   0.000000
     3  C    2.453404   1.536349   0.000000
     4  C    3.035662   2.548729   1.537989   0.000000
     5  C    4.040635   3.282389   2.563615   1.510207   0.000000
     6  C    4.287305   3.257906   2.975668   2.525205   1.333485
     7  N    3.718472   2.518458   2.809172   3.012363   2.408013
     8  C    2.474734   1.547706   2.567527   3.005720   3.014870
     9  H    1.016877   2.069986   2.662264   3.395317   4.633941
    10  H    1.016581   2.070376   3.353563   3.946197   4.774476
    11  H    2.093203   1.097622   2.151626   3.481771   4.188664
    12  H    3.400902   2.169860   1.100596   2.180598   2.708135
    13  H    2.654617   2.169799   1.097747   2.172752   3.465694
    14  H    3.832182   3.448206   2.144776   1.095334   2.125067
    15  H    2.630814   2.684367   2.183075   1.095567   2.129724
    16  H    4.961684   4.333971   3.499709   2.212194   1.088102
    17  H    5.327312   4.295699   4.037115   3.512475   2.112936
    18  H    4.443293   3.117185   3.419675   3.854785   3.215547
    19  H    2.951651   2.182599   3.459659   4.083981   4.066160
    20  H    2.509012   2.174185   3.083035   3.040654   2.982488
                    6          7          8          9         10
     6  C    0.000000
     7  N    1.371884   0.000000
     8  C    2.476912   1.454699   0.000000
     9  H    5.027807   4.516395   3.371932   0.000000
    10  H    4.827684   4.072566   2.657560   1.649541   0.000000
    11  H    3.998721   3.036743   2.168496   2.382216   2.412106
    12  H    2.840533   2.653041   2.882021   3.616888   4.196981
    13  H    4.039916   3.889377   3.511163   2.426592   3.604428
    14  H    3.313396   3.970121   4.075649   3.958526   4.807361
    15  H    3.096046   3.480922   3.102124   3.044643   3.478391
    16  H    2.090752   3.367958   4.050554   5.508449   5.711120
    17  H    1.089947   2.060077   3.329618   6.101641   5.797761
    18  H    2.052598   1.014004   2.143768   5.183621   4.720611
    19  H    3.344219   2.099669   1.095764   3.821281   2.773071
    20  H    2.645973   2.067755   1.098360   3.507281   2.607360
                   11         12         13         14         15
    11  H    0.000000
    12  H    2.429743   0.000000
    13  H    2.499874   1.742593   0.000000
    14  H    4.264983   2.611648   2.341096   0.000000
    15  H    3.730374   3.081786   2.651276   1.754703   0.000000
    16  H    5.257946   3.615530   4.267422   2.398041   2.681205
    17  H    4.970540   3.774166   5.088120   4.177750   4.055113
    18  H    3.321040   2.979298   4.436018   4.727160   4.432648
    19  H    2.347327   3.668562   4.300197   5.142145   4.135614
    20  H    3.015354   3.622225   3.988056   4.130003   2.796843
                   16         17         18         19         20
    16  H    0.000000
    17  H    2.424084   0.000000
    18  H    4.106484   2.386577   0.000000
    19  H    5.086491   4.025020   2.379064   0.000000
    20  H    3.876296   3.424405   2.924557   1.748002   0.000000
 Stoichiometry    C6H12N2
 Framework group  C1[X(C6H12N2)]
 Deg. of freedom    54
 Full point group                 C1      NOp   1
 Largest Abelian subgroup         C1      NOp   1
 Largest concise Abelian subgroup C1      NOp   1
                         Standard orientation:                         
 ---------------------------------------------------------------------
 Center     Atomic      Atomic             Coordinates (Angstroms)
 Number     Number       Type             X           Y           Z
 ---------------------------------------------------------------------
      1          7           0       -2.276099    0.092787   -0.617513
      2          6           0       -1.266610   -0.331098    0.373657
      3          6           0       -0.530028    0.910283    0.899763
      4          6           0        0.343405    1.564373   -0.184070
      5          6           0        1.678601    0.893094   -0.401691
      6          6           0        1.954881   -0.378378   -0.109782
      7          7           0        1.042772   -1.330364    0.269487
      8          6           0       -0.310436   -1.368307   -0.262995
      9          1           0       -2.948104    0.731362   -0.199576
     10          1           0       -2.780991   -0.708595   -0.986711
     11          1           0       -1.794986   -0.801866    1.212686
     12          1           0        0.083121    0.634917    1.771275
     13          1           0       -1.256038    1.638160    1.284668
     14          1           0        0.526096    2.602859    0.112455
     15          1           0       -0.187563    1.604274   -1.141539
     16          1           0        2.469840    1.529296   -0.793041
     17          1           0        2.965191   -0.772845   -0.217748
     18          1           0        1.306179   -1.972538    1.008698
     19          1           0       -0.725875   -2.377072   -0.160512
     20          1           0       -0.242457   -1.184709   -1.343765
 ---------------------------------------------------------------------
 Rotational constants (GHZ):           3.1439648           1.9078658           1.4073166
 Standard basis: 6-31G(2df,p) (6D, 7F)
 There are   308 symmetry adapted cartesian basis functions of A   symmetry.
 There are   284 symmetry adapted basis functions of A   symmetry.
   284 basis functions,   436 primitive gaussians,   308 cartesian basis functions
    31 alpha electrons       31 beta electrons
       nuclear repulsion energy       396.7900000544 Hartrees.
 NAtoms=   20 NActive=   20 NUniq=   20 SFac= 1.00D+00 NAtFMM=   60 NAOKFM=F Big=F
 Integral buffers will be    131072 words long.
 Raffenetti 2 integral format.
 Two-electron integral symmetry is turned on.
 One-electron integrals computed using PRISM.
 PrsmSu:  requested number of processors reduced to:  13 ShMem   1 Linda.
 NBasis=   284 RedAO= T EigKep=  3.17D-04  NBF=   284
 NBsUse=   284 1.00D-06 EigRej= -1.00D+00 NBFU=   284
 ExpMin= 1.61D-01 ExpMax= 4.17D+03 ExpMxC= 6.27D+02 IAcc=3 IRadAn=         5 AccDes= 0.00D+00
 Harris functional with IExCor=  402 and IRadAn=       5 diagonalized for initial guess.
 HarFok:  IExCor=  402 AccDes= 0.00D+00 IRadAn=         5 IDoV= 1 UseB2=F ITyADJ=14
 ICtDFT=  3500011 ScaDFX=  1.000000  1.000000  1.000000  1.000000
 FoFCou: FMM=F IPFlag=           0 FMFlag=      100000 FMFlg1=           0
         NFxFlg=           0 DoJE=T BraDBF=F KetDBF=T FulRan=T
         wScrn=  0.000000 ICntrl=       500 IOpCl=  0 I1Cent=   200000004 NGrid=           0
         NMat0=    1 NMatS0=      1 NMatT0=    0 NMatD0=    1 NMtDS0=    0 NMtDT0=    0
 Petite list used in FoFCou.
 Requested convergence on RMS density matrix=1.00D-08 within 128 cycles.
 Requested convergence on MAX density matrix=1.00D-06.
 Requested convergence on             energy=1.00D-06.
 No special actions if energy rises.
 Integral accuracy reduced to 1.0D-05 until final iterations.
 Initial convergence to 1.0D-05 achieved.  Increase integral accuracy.
 SCF Done:  E(RB3LYP) =  -345.352710888     A.U. after   13 cycles
            NFock= 13  Conv=0.53D-08     -V/T= 2.0082

 **********************************************************************

            Population analysis using the SCF density.

 **********************************************************************

 Orbital symmetries:
       Occupied  (A) (A) (A) (A) (A) (A) (A) (A) (A) (A) (A) (A)
                 (A) (A) (A) (A) (A) (A) (A) (A) (A) (A) (A) (A)
                 (A) (A) (A) (A) (A) (A) (A)
       Virtual   (A) (A) (A) (A) (A) (A) (A) (A) (A) (A) (A) (A)
                 (A) (A) (A) (A) (A) (A) (A) (A) (A) (A) (A) (A)
                 (A) (A) (A) (A) (A) (A) (A) (A) (A) (A) (A) (A)
                 (A) (A) (A) (A) (A) (A) (A) (A) (A) (A) (A) (A)
                 (A) (A) (A) (A) (A) (A) (A) (A) (A) (A) (A) (A)
                 (A) (A) (A) (A) (A) (A) (A) (A) (A) (A) (A) (A)
                 (A) (A) (A) (A) (A) (A) (A) (A) (A) (A) (A) (A)
                 (A) (A) (A) (A) (A) (A) (A) (A) (A) (A) (A) (A)
                 (A) (A) (A) (A) (A) (A) (A) (A) (A) (A) (A) (A)
                 (A) (A) (A) (A) (A) (A) (A) (A) (A) (A) (A) (A)
                 (A) (A) (A) (A) (A) (A) (A) (A) (A) (A) (A) (A)
                 (A) (A) (A) (A) (A) (A) (A) (A) (A) (A) (A) (A)
                 (A) (A) (A) (A) (A) (A) (A) (A) (A) (A) (A) (A)
                 (A) (A) (A) (A) (A) (A) (A) (A) (A) (A) (A) (A)
                 (A) (A) (A) (A) (A) (A) (A) (A) (A) (A) (A) (A)
                 (A) (A) (A) (A) (A) (A) (A) (A) (A) (A) (A) (A)
                 (A) (A) (A) (A) (A) (A) (A) (A) (A) (A) (A) (A)
                 (A) (A) (A) (A) (A) (A) (A) (A) (A) (A) (A) (A)
                 (A) (A) (A) (A) (A) (A) (A) (A) (A) (A) (A) (A)
                 (A) (A) (A) (A) (A) (A) (A) (A) (A) (A) (A) (A)
                 (A) (A) (A) (A) (A) (A) (A) (A) (A) (A) (A) (A)
                 (A)
 The electronic state is 1-A.
 Alpha  occ. eigenvalues --  -14.31659 -14.30033 -10.20511 -10.19945 -10.18765
 Alpha  occ. eigenvalues --  -10.16873 -10.16394 -10.15023  -0.91261  -0.86951
 Alpha  occ. eigenvalues --   -0.77025  -0.73855  -0.66738  -0.64129  -0.55295
 Alpha  occ. eigenvalues --   -0.53582  -0.50518  -0.48035  -0.45539  -0.43531
 Alpha  occ. eigenvalues --   -0.42176  -0.41210  -0.39507  -0.36917  -0.35386
 Alpha  occ. eigenvalues --   -0.33529  -0.31534  -0.31306  -0.27338  -0.22654
 Alpha  occ. eigenvalues --   -0.17814
 Alpha virt. eigenvalues --    0.05141   0.07960   0.09228   0.12629   0.13601
 Alpha virt. eigenvalues --    0.14124   0.14735   0.15925   0.17771   0.18667
 Alpha virt. eigenvalues --    0.19250   0.19875   0.21337   0.22011   0.23784
 Alpha virt. eigenvalues --    0.25450   0.27457   0.29614   0.30122   0.36594
 Alpha virt. eigenvalues --    0.39900   0.45364   0.46745   0.48490   0.49166
 Alpha virt. eigenvalues --    0.51495   0.52402   0.53559   0.54945   0.55827
 Alpha virt. eigenvalues --    0.56824   0.57313   0.60026   0.60417   0.61261
 Alpha virt. eigenvalues --    0.64563   0.66930   0.69110   0.70459   0.70893
 Alpha virt. eigenvalues --    0.71791   0.74438   0.74734   0.75274   0.77015
 Alpha virt. eigenvalues --    0.78735   0.79081   0.80442   0.81330   0.82094
 Alpha virt. eigenvalues --    0.82558   0.83521   0.85073   0.85229   0.88295
 Alpha virt. eigenvalues --    0.89500   0.90590   0.94052   0.96771   0.98307
 Alpha virt. eigenvalues --    1.02462   1.06090   1.07669   1.10333   1.15046
 Alpha virt. eigenvalues --    1.17000   1.20615   1.22997   1.24367   1.26292
 Alpha virt. eigenvalues --    1.29386   1.32135   1.36855   1.37085   1.39120
 Alpha virt. eigenvalues --    1.40676   1.42132   1.44514   1.45923   1.48380
 Alpha virt. eigenvalues --    1.50632   1.53966   1.55209   1.56218   1.60201
 Alpha virt. eigenvalues --    1.63644   1.65248   1.67988   1.70289   1.72412
 Alpha virt. eigenvalues --    1.76837   1.78729   1.81605   1.83447   1.85228
 Alpha virt. eigenvalues --    1.86726   1.88973   1.92507   1.94069   1.95980
 Alpha virt. eigenvalues --    1.96730   2.03071   2.06355   2.08771   2.17237
 Alpha virt. eigenvalues --    2.18766   2.22167   2.24334   2.28025   2.31513
 Alpha virt. eigenvalues --    2.32526   2.38332   2.41090   2.42335   2.44608
 Alpha virt. eigenvalues --    2.46005   2.46789   2.49481   2.51414   2.55862
 Alpha virt. eigenvalues --    2.57416   2.65801   2.68776   2.70809   2.72643
 Alpha virt. eigenvalues --    2.75273   2.76799   2.79141   2.83167   2.86184
 Alpha virt. eigenvalues --    2.87391   2.89335   2.90064   2.91020   2.92479
 Alpha virt. eigenvalues --    2.95102   2.95934   2.98813   3.00905   3.02213
 Alpha virt. eigenvalues --    3.07081   3.07922   3.09564   3.11806   3.12437
 Alpha virt. eigenvalues --    3.18338   3.19081   3.21374   3.24782   3.28328
 Alpha virt. eigenvalues --    3.31245   3.33383   3.33617   3.36585   3.37643
 Alpha virt. eigenvalues --    3.38832   3.41075   3.43882   3.45979   3.47733
 Alpha virt. eigenvalues --    3.51139   3.52636   3.54701   3.60299   3.61681
 Alpha virt. eigenvalues --    3.64828   3.66519   3.70140   3.71894   3.74080
 Alpha virt. eigenvalues --    3.76342   3.78743   3.81085   3.87905   3.92106
 Alpha virt. eigenvalues --    3.94675   3.97314   4.01139   4.04510   4.08051
 Alpha virt. eigenvalues --    4.11183   4.14579   4.16628   4.19587   4.22271
 Alpha virt. eigenvalues --    4.25148   4.29079   4.31022   4.32002   4.35107
 Alpha virt. eigenvalues --    4.36566   4.41473   4.43547   4.46544   4.49025
 Alpha virt. eigenvalues --    4.49131   4.50469   4.52580   4.54971   4.56437
 Alpha virt. eigenvalues --    4.58993   4.62181   4.63190   4.65073   4.67423
 Alpha virt. eigenvalues --    4.67969   4.71703   4.73370   4.73908   4.75597
 Alpha virt. eigenvalues --    4.79072   4.80022   4.81496   4.83078   4.84141
 Alpha virt. eigenvalues --    4.84864   4.87365   4.90450   4.91987   4.93625
 Alpha virt. eigenvalues --    4.96936   4.98718   5.02165   5.04002   5.07455
 Alpha virt. eigenvalues --    5.10781   5.13394   5.14719   5.18239   5.24162
 Alpha virt. eigenvalues --    5.25033   5.30417   5.38663   5.42372   5.47573
 Alpha virt. eigenvalues --    5.53089   5.55490   5.57535   5.65098   5.78304
 Alpha virt. eigenvalues --    5.90954   6.21975   6.49959   9.97302  10.29722
 Alpha virt. eigenvalues --   11.21414  11.38805  11.46066  11.74262  12.00142
 Alpha virt. eigenvalues --   12.56069  13.06426  16.47836
          Condensed to atoms (all electrons):
               1          2          3          4          5          6
     1  N    6.611519   0.343545  -0.032338  -0.010746   0.000374   0.000432
     2  C    0.343545   4.802848   0.398581  -0.018498  -0.001220  -0.001962
     3  C   -0.032338   0.398581   4.901258   0.393092  -0.021245  -0.012087
     4  C   -0.010746  -0.018498   0.393092   4.913943   0.382991   0.001003
     5  C    0.000374  -0.001220  -0.021245   0.382991   4.824640   0.657022
     6  C    0.000432  -0.001962  -0.012087   0.001003   0.657022   4.725479
     7  N    0.002749  -0.063863  -0.007278  -0.020705  -0.013879   0.400455
     8  C   -0.039413   0.363957  -0.027507  -0.003023  -0.008316  -0.057638
     9  H    0.332852  -0.036873  -0.002085   0.000001   0.000016  -0.000019
    10  H    0.337623  -0.047100   0.006125   0.000243  -0.000021   0.000010
    11  H   -0.052001   0.360618  -0.057571   0.005574   0.000238  -0.000518
    12  H    0.002950  -0.025063   0.359159  -0.031232  -0.007469   0.002834
    13  H   -0.006026  -0.028318   0.356847  -0.028477   0.002887   0.000465
    14  H    0.000431   0.003165  -0.031568   0.357074  -0.027046   0.003231
    15  H    0.014514  -0.003699  -0.035861   0.354787  -0.021295  -0.006685
    16  H   -0.000004  -0.000017   0.004526  -0.057525   0.369851  -0.038104
    17  H    0.000007  -0.000356  -0.000251   0.007103  -0.063742   0.379341
    18  H   -0.000035   0.001909  -0.000294   0.000412   0.003318  -0.046036
    19  H    0.003012  -0.039917   0.005056  -0.000189   0.000180   0.004775
    20  H    0.007954  -0.048590  -0.004732   0.001130   0.004890  -0.001583
               7          8          9         10         11         12
     1  N    0.002749  -0.039413   0.332852   0.337623  -0.052001   0.002950
     2  C   -0.063863   0.363957  -0.036873  -0.047100   0.360618  -0.025063
     3  C   -0.007278  -0.027507  -0.002085   0.006125  -0.057571   0.359159
     4  C   -0.020705  -0.003023   0.000001   0.000243   0.005574  -0.031232
     5  C   -0.013879  -0.008316   0.000016  -0.000021   0.000238  -0.007469
     6  C    0.400455  -0.057638  -0.000019   0.000010  -0.000518   0.002834
     7  N    6.303930   0.415124  -0.000160   0.000034   0.004753   0.007228
     8  C    0.415124   4.925017   0.005208  -0.001465  -0.049066  -0.006836
     9  H   -0.000160   0.005208   0.510422  -0.031038  -0.004641  -0.000271
    10  H    0.000034  -0.001465  -0.031038   0.517299  -0.003868  -0.000252
    11  H    0.004753  -0.049066  -0.004641  -0.003868   0.758191  -0.000098
    12  H    0.007228  -0.006836  -0.000271  -0.000252  -0.000098   0.635024
    13  H    0.000010   0.005730   0.004901  -0.000027  -0.002686  -0.039884
    14  H    0.000406  -0.000002  -0.000062   0.000008  -0.000219   0.000015
    15  H    0.000759  -0.002123  -0.000323  -0.000656   0.000611   0.005558
    16  H    0.004866  -0.000444  -0.000000   0.000000   0.000007   0.000261
    17  H   -0.061828   0.004111  -0.000000  -0.000000   0.000011  -0.000057
    18  H    0.362071  -0.046005   0.000003   0.000002   0.000252   0.000061
    19  H   -0.018925   0.352439  -0.000314   0.001892  -0.009300  -0.000096
    20  H   -0.025293   0.338968  -0.000327  -0.000138   0.008303   0.000212
              13         14         15         16         17         18
     1  N   -0.006026   0.000431   0.014514  -0.000004   0.000007  -0.000035
     2  C   -0.028318   0.003165  -0.003699  -0.000017  -0.000356   0.001909
     3  C    0.356847  -0.031568  -0.035861   0.004526  -0.000251  -0.000294
     4  C   -0.028477   0.357074   0.354787  -0.057525   0.007103   0.000412
     5  C    0.002887  -0.027046  -0.021295   0.369851  -0.063742   0.003318
     6  C    0.000465   0.003231  -0.006685  -0.038104   0.379341  -0.046036
     7  N    0.000010   0.000406   0.000759   0.004866  -0.061828   0.362071
     8  C    0.005730  -0.000002  -0.002123  -0.000444   0.004111  -0.046005
     9  H    0.004901  -0.000062  -0.000323  -0.000000  -0.000000   0.000003
    10  H   -0.000027   0.000008  -0.000656   0.000000  -0.000000   0.000002
    11  H   -0.002686  -0.000219   0.000611   0.000007   0.000011   0.000252
    12  H   -0.039884   0.000015   0.005558   0.000261  -0.000057   0.000061
    13  H    0.662573  -0.007224   0.000352  -0.000196   0.000007  -0.000016
    14  H   -0.007224   0.661821  -0.040579  -0.006626  -0.000149   0.000030
    15  H    0.000352  -0.040579   0.609478   0.002877  -0.000279  -0.000041
    16  H   -0.000196  -0.006626   0.002877   0.656315  -0.008148  -0.000189
    17  H    0.000007  -0.000149  -0.000279  -0.008148   0.668942  -0.001749
    18  H   -0.000016   0.000030  -0.000041  -0.000189  -0.001749   0.494221
    19  H   -0.000143   0.000004  -0.000126   0.000005  -0.000159  -0.004541
    20  H   -0.000142   0.000073  -0.000080   0.000077   0.000978   0.005524
              19         20
     1  N    0.003012   0.007954
     2  C   -0.039917  -0.048590
     3  C    0.005056  -0.004732
     4  C   -0.000189   0.001130
     5  C    0.000180   0.004890
     6  C    0.004775  -0.001583
     7  N   -0.018925  -0.025293
     8  C    0.352439   0.338968
     9  H   -0.000314  -0.000327
    10  H    0.001892  -0.000138
    11  H   -0.009300   0.008303
    12  H   -0.000096   0.000212
    13  H   -0.000143  -0.000142
    14  H    0.000004   0.000073
    15  H   -0.000126  -0.000080
    16  H    0.000005   0.000077
    17  H   -0.000159   0.000978
    18  H   -0.004541   0.005524
    19  H    0.643298  -0.033416
    20  H   -0.033416   0.628155
 Mulliken charges:
               1
     1  N   -0.517398
     2  C    0.040854
     3  C   -0.191828
     4  C   -0.246958
     5  C   -0.082173
     6  C   -0.010417
     7  N   -0.290455
     8  C   -0.168717
     9  H    0.222710
    10  H    0.221329
    11  H    0.041409
    12  H    0.097957
    13  H    0.079367
    14  H    0.087218
    15  H    0.122810
    16  H    0.072469
    17  H    0.076219
    18  H    0.231104
    19  H    0.096466
    20  H    0.118037
 Sum of Mulliken charges =  -0.00000
 Mulliken charges with hydrogens summed into heavy atoms:
               1
     1  N   -0.073359
     2  C    0.082263
     3  C   -0.014505
     4  C   -0.036930
     5  C   -0.009704
     6  C    0.065802
     7  N   -0.059352
     8  C    0.045785
 Electronic spatial extent (au):  <R**2>=            946.7071
 Charge=             -0.0000 electrons
 Dipole moment (field-independent basis, Debye):
    X=             -1.1093    Y=             -1.3059    Z=              1.2134  Tot=              2.0995
 Quadrupole moment (field-independent basis, Debye-Ang):
   XX=            -45.6017   YY=            -46.4253   ZZ=            -51.0464
   XY=             -0.1293   XZ=              0.0535   YZ=             -0.6402
 Traceless Quadrupole moment (field-independent basis, Debye-Ang):
   XX=              2.0895   YY=              1.2658   ZZ=             -3.3553
   XY=             -0.1293   XZ=              0.0535   YZ=             -0.6402
 Octapole moment (field-independent basis, Debye-Ang**2):
  XXX=            -18.7703  YYY=             -7.6755  ZZZ=              2.6260  XYY=             -1.9655
  XXY=             -4.7800  XXZ=              0.2737  XZZ=             -0.0322  YZZ=             -4.7521
  YYZ=              3.7302  XYZ=             -7.0819
 Hexadecapole moment (field-independent basis, Debye-Ang**3):
 XXXX=           -607.3771 YYYY=           -402.4996 ZZZZ=           -159.3344 XXXY=            -12.6263
 XXXZ=              8.5850 YYYX=             -4.1409 YYYZ=            -10.0771 ZZZX=              6.7354
 ZZZY=             -2.1728 XXYY=           -168.9659 XXZZ=           -144.1074 YYZZ=            -91.5459
 XXYZ=              1.0229 YYXZ=              7.2391 ZZXY=             -1.0403
 N-N= 3.967900000544D+02 E-N=-1.595498253269D+03  KE= 3.425604727146D+02
 PrsmSu:  requested number of processors reduced to:  13 ShMem   1 Linda.
 Calling FoFJK, ICntrl=      2127 FMM=F ISym2X=0 I1Cent= 0 IOpClX= 0 NMat=1 NMatS=1 NMatT=0.
 ***** Axes restored to original set *****
 -------------------------------------------------------------------
 Center     Atomic                   Forces (Hartrees/Bohr)
 Number     Number              X              Y              Z
 -------------------------------------------------------------------
      1        7          -0.001150918    0.005312113   -0.007985304
      2        6          -0.010023975   -0.006520914    0.011199779
      3        6           0.000706445   -0.001176000   -0.004743620
      4        6           0.003093277    0.004934533   -0.001319485
      5        6          -0.000981988    0.005388315    0.004748894
      6        6           0.005747673    0.010177205   -0.006935886
      7        7           0.003353206   -0.026239178    0.000249094
      8        6           0.003760458    0.007671862    0.002477587
      9        1           0.001641949   -0.003408734   -0.002003205
     10        1           0.000329151    0.000675579    0.003072317
     11        1           0.009146909   -0.001011432    0.000835492
     12        1          -0.003651048    0.000229447   -0.002782791
     13        1          -0.003259053   -0.001956479   -0.001243531
     14        1          -0.000954349    0.002341050   -0.001187064
     15        1          -0.003051581   -0.001933080    0.005525281
     16        1           0.000700795   -0.002488349   -0.002199498
     17        1           0.001442814    0.004435758    0.001173825
     18        1          -0.008802898    0.001181316   -0.002495510
     19        1           0.003370012    0.000172158    0.000700418
     20        1          -0.001416880    0.002214828    0.002913207
 -------------------------------------------------------------------
 Cartesian Forces:  Max     0.026239178 RMS     0.005457810

 GradGradGradGradGradGradGradGradGradGradGradGradGradGradGradGradGradGrad
 Berny optimization.
 FormGI is forming the generalized inverse of G from B-inverse, IUseBI=4.
 Internal  Forces:  Max     0.017455197 RMS     0.003136851
 Search for a local minimum.
 Step number   1 out of a maximum of  119
 All quantities printed in internal units (Hartrees-Bohrs-Radians)
 Mixed Optimization -- RFO/linear search
 Second derivative matrix not updated -- first step.
 ITU=  0
     Eigenvalues ---    0.00355   0.00675   0.00690   0.01281   0.01403
     Eigenvalues ---    0.01632   0.02223   0.02558   0.03303   0.03514
     Eigenvalues ---    0.03918   0.03947   0.04427   0.04736   0.05205
     Eigenvalues ---    0.05688   0.05744   0.06300   0.08255   0.08433
     Eigenvalues ---    0.09672   0.09741   0.10230   0.12369   0.14339
     Eigenvalues ---    0.15916   0.15974   0.15989   0.16000   0.16000
     Eigenvalues ---    0.17290   0.18799   0.20627   0.21987   0.26593
     Eigenvalues ---    0.27729   0.28145   0.30516   0.33616   0.33864
     Eigenvalues ---    0.33933   0.33947   0.34155   0.34177   0.34203
     Eigenvalues ---    0.34819   0.34930   0.35033   0.36185   0.44840
     Eigenvalues ---    0.44888   0.45309   0.48567   0.56538
 RFO step:  Lambda=-7.31788424D-03 EMin= 3.55392793D-03
 Linear search not attempted -- first point.
 Iteration  1 RMS(Cart)=  0.05192261 RMS(Int)=  0.00135675
 Iteration  2 RMS(Cart)=  0.00173946 RMS(Int)=  0.00038116
 Iteration  3 RMS(Cart)=  0.00000168 RMS(Int)=  0.00038116
 Iteration  4 RMS(Cart)=  0.00000000 RMS(Int)=  0.00038116
 Variable       Old X    -DE/DX   Delta X   Delta X   Delta X     New X
                                 (Linear)    (Quad)   (Total)
    R1        2.79089  -0.00129   0.00000  -0.00362  -0.00362   2.78727
    R2        1.92162  -0.00267   0.00000  -0.00587  -0.00587   1.91575
    R3        1.92106  -0.00184   0.00000  -0.00404  -0.00404   1.91702
    R4        2.90328  -0.00120   0.00000  -0.00425  -0.00439   2.89889
    R5        2.92474  -0.00108   0.00000  -0.00365  -0.00377   2.92097
    R6        2.07420   0.00465   0.00000   0.01342   0.01342   2.08762
    R7        2.90638   0.00221   0.00000   0.00368   0.00398   2.91035
    R8        2.07982  -0.00396   0.00000  -0.01153  -0.01153   2.06829
    R9        2.07444  -0.00016   0.00000  -0.00047  -0.00047   2.07397
   R10        2.85388   0.00339   0.00000   0.01111   0.01108   2.86496
   R11        2.06988   0.00126   0.00000   0.00359   0.00359   2.07347
   R12        2.07032   0.00132   0.00000   0.00377   0.00377   2.07409
   R13        2.51992   0.00610   0.00000   0.01180   0.01164   2.53157
   R14        2.05621  -0.00156   0.00000  -0.00436  -0.00436   2.05185
   R15        2.59248   0.01746   0.00000   0.03546   0.03537   2.62785
   R16        2.05970   0.00111   0.00000   0.00313   0.00313   2.06283
   R17        2.74898  -0.00507   0.00000  -0.01457  -0.01434   2.73464
   R18        1.91619  -0.00842   0.00000  -0.01829  -0.01829   1.89790
   R19        2.07069   0.00008   0.00000   0.00023   0.00023   2.07093
   R20        2.07560  -0.00011   0.00000  -0.00032  -0.00032   2.07528
    A1        1.93491  -0.00191   0.00000  -0.02306  -0.02346   1.91145
    A2        1.93581   0.00021   0.00000  -0.01038  -0.01077   1.92503
    A3        1.89240  -0.00131   0.00000  -0.02980  -0.03061   1.86179
    A4        1.90246   0.00194   0.00000   0.00410   0.00334   1.90580
    A5        1.91618  -0.00211   0.00000  -0.03501  -0.03447   1.88172
    A6        1.88291   0.00323   0.00000   0.06422   0.06407   1.94699
    A7        1.96726  -0.00287   0.00000  -0.01676  -0.01816   1.94910
    A8        1.89187   0.00021   0.00000  -0.00542  -0.00569   1.88618
    A9        1.90118  -0.00009   0.00000  -0.00680  -0.00642   1.89477
   A10        1.95475   0.00677   0.00000   0.04156   0.04134   1.99610
   A11        1.91357  -0.00290   0.00000  -0.01518  -0.01521   1.89836
   A12        1.91638  -0.00281   0.00000  -0.02573  -0.02553   1.89085
   A13        1.92628  -0.00227   0.00000  -0.02517  -0.02464   1.90165
   A14        1.91845  -0.00178   0.00000   0.00235   0.00245   1.92090
   A15        1.83040   0.00263   0.00000   0.02012   0.01989   1.85029
   A16        1.99830  -0.00072   0.00000  -0.00886  -0.00882   1.98949
   A17        1.88301   0.00288   0.00000   0.01605   0.01586   1.89887
   A18        1.93492  -0.00475   0.00000  -0.03198  -0.03173   1.90319
   A19        1.88912  -0.00078   0.00000  -0.00944  -0.00908   1.88004
   A20        1.89520   0.00430   0.00000   0.04744   0.04717   1.94236
   A21        1.85761  -0.00092   0.00000  -0.01401  -0.01400   1.84361
   A22        2.18396   0.00169   0.00000   0.01839   0.01734   2.20130
   A23        2.02066   0.00195   0.00000   0.00764   0.00795   2.02861
   A24        2.07781  -0.00358   0.00000  -0.02491  -0.02459   2.05322
   A25        2.19497  -0.00323   0.00000  -0.00038  -0.00146   2.19350
   A26        2.11232  -0.00254   0.00000  -0.02469  -0.02418   2.08814
   A27        1.97417   0.00578   0.00000   0.02428   0.02476   1.99893
   A28        2.13575   0.00085   0.00000  -0.00023  -0.00067   2.13508
   A29        2.05816   0.00198   0.00000   0.01440   0.01453   2.07268
   A30        2.08515  -0.00299   0.00000  -0.01538  -0.01519   2.06996
   A31        1.98958   0.00578   0.00000   0.04461   0.04377   2.03335
   A32        1.92224   0.00076   0.00000  -0.00484  -0.00408   1.91816
   A33        1.90814  -0.00554   0.00000  -0.03285  -0.03305   1.87509
   A34        1.92033  -0.00575   0.00000  -0.03910  -0.03876   1.88157
   A35        1.87365   0.00196   0.00000   0.01050   0.01124   1.88489
   A36        1.84354   0.00257   0.00000   0.02031   0.02014   1.86368
    D1       -1.03997  -0.00388   0.00000  -0.07031  -0.07075  -1.11073
    D2        3.08048  -0.00019   0.00000  -0.02909  -0.02878   3.05170
    D3        1.01089  -0.00079   0.00000  -0.03880  -0.03799   0.97290
    D4        3.13984  -0.00109   0.00000  -0.01038  -0.01127   3.12856
    D5        0.97711   0.00259   0.00000   0.03083   0.03070   1.00781
    D6       -1.09248   0.00200   0.00000   0.02113   0.02149  -1.07100
    D7       -1.18633   0.00290   0.00000  -0.01833  -0.01815  -1.20447
    D8        2.95237   0.00322   0.00000  -0.00387  -0.00371   2.94866
    D9        0.95015   0.00327   0.00000  -0.00515  -0.00527   0.94488
   D10        0.94585  -0.00034   0.00000  -0.07127  -0.07093   0.87493
   D11       -1.19864  -0.00002   0.00000  -0.05681  -0.05649  -1.25513
   D12        3.08233   0.00002   0.00000  -0.05808  -0.05805   3.02428
   D13        3.05167  -0.00213   0.00000  -0.09415  -0.09385   2.95782
   D14        0.90718  -0.00181   0.00000  -0.07969  -0.07941   0.82776
   D15       -1.09504  -0.00177   0.00000  -0.08097  -0.08098  -1.17602
   D16        2.59939   0.00197   0.00000   0.05139   0.05146   2.65085
   D17       -1.51564  -0.00074   0.00000   0.02908   0.02922  -1.48642
   D18        0.50260  -0.00040   0.00000   0.03193   0.03242   0.53501
   D19        0.47496   0.00296   0.00000   0.08259   0.08227   0.55723
   D20        2.64311   0.00025   0.00000   0.06027   0.06003   2.70314
   D21       -1.62184   0.00059   0.00000   0.06312   0.06323  -1.55860
   D22       -1.62551   0.00460   0.00000   0.10485   0.10494  -1.52057
   D23        0.54264   0.00189   0.00000   0.08253   0.08270   0.62534
   D24        2.56088   0.00224   0.00000   0.08539   0.08590   2.64678
   D25       -1.40418   0.00094   0.00000   0.01271   0.01348  -1.39071
   D26        2.77482   0.00033   0.00000   0.01889   0.01940   2.79422
   D27        0.74716   0.00235   0.00000   0.04386   0.04436   0.79152
   D28        0.73309   0.00031   0.00000   0.00420   0.00446   0.73755
   D29       -1.37109  -0.00030   0.00000   0.01038   0.01038  -1.36071
   D30        2.88443   0.00172   0.00000   0.03534   0.03534   2.91977
   D31        2.74370   0.00116   0.00000   0.01547   0.01574   2.75944
   D32        0.63952   0.00054   0.00000   0.02165   0.02166   0.66118
   D33       -1.38814   0.00257   0.00000   0.04661   0.04662  -1.34153
   D34        0.41619  -0.00104   0.00000   0.02531   0.02565   0.44184
   D35       -2.68301  -0.00266   0.00000  -0.00551  -0.00557  -2.68858
   D36        2.51698   0.00160   0.00000   0.03323   0.03366   2.55064
   D37       -0.58222  -0.00002   0.00000   0.00242   0.00243  -0.57979
   D38       -1.75637   0.00235   0.00000   0.03654   0.03698  -1.71939
   D39        1.42761   0.00073   0.00000   0.00573   0.00576   1.43337
   D40        0.15655  -0.00161   0.00000   0.00955   0.00962   0.16617
   D41       -3.05255  -0.00138   0.00000  -0.00504  -0.00483  -3.05738
   D42       -3.02871   0.00019   0.00000   0.04206   0.04198  -2.98673
   D43        0.04538   0.00042   0.00000   0.02746   0.02753   0.07291
   D44        0.61223  -0.00391   0.00000  -0.09313  -0.09338   0.51885
   D45       -2.43127  -0.00192   0.00000  -0.07794  -0.07781  -2.50908
   D46       -2.46648  -0.00388   0.00000  -0.07795  -0.07798  -2.54445
   D47        0.77321  -0.00188   0.00000  -0.06275  -0.06240   0.71081
   D48       -1.36421   0.00300   0.00000   0.03083   0.03087  -1.33333
   D49        2.74980   0.00222   0.00000   0.03480   0.03526   2.78506
   D50        0.75185   0.00105   0.00000   0.02506   0.02546   0.77731
   D51        1.67782   0.00125   0.00000   0.01704   0.01694   1.69476
   D52       -0.49135   0.00047   0.00000   0.02101   0.02132  -0.47004
   D53       -2.48930  -0.00070   0.00000   0.01126   0.01152  -2.47778
         Item               Value     Threshold  Converged?
 Maximum Force            0.017455     0.000450     NO 
 RMS     Force            0.003137     0.000300     NO 
 Maximum Displacement     0.170194     0.001800     NO 
 RMS     Displacement     0.051686     0.001200     NO 
 Predicted change in Energy=-4.239891D-03
 GradGradGradGradGradGradGradGradGradGradGradGradGradGradGradGradGradGrad

                          Input orientation:                          
 ---------------------------------------------------------------------
 Center     Atomic      Atomic             Coordinates (Angstroms)
 Number     Number       Type             X           Y           Z
 ---------------------------------------------------------------------
      1          7           0        0.911035   -0.148508    0.074429
      2          6           0        2.380460   -0.029194    0.028985
      3          6           0        2.792456    1.341660    0.580571
      4          6           0        2.401496    2.531084   -0.316261
      5          6           0        3.337263    2.753100   -1.488234
      6          6           0        4.106034    1.824224   -2.072045
      7          7           0        4.048038    0.455709   -1.832109
      8          6           0        2.824381   -0.210197   -1.440501
      9          1           0        0.598441   -0.118653    1.038340
     10          1           0        0.619130   -1.045599   -0.298555
     11          1           0        2.869941   -0.806619    0.642522
     12          1           0        3.876748    1.349942    0.729435
     13          1           0        2.349064    1.460184    1.577497
     14          1           0        2.402199    3.445901    0.289573
     15          1           0        1.365114    2.400219   -0.653054
     16          1           0        3.388383    3.765858   -1.876377
     17          1           0        4.801557    2.116982   -2.860802
     18          1           0        4.902314   -0.072362   -1.837287
     19          1           0        2.935497   -1.276433   -1.668010
     20          1           0        2.013718    0.167232   -2.077996
 ---------------------------------------------------------------------
                    Distance matrix (angstroms):
                    1          2          3          4          5
     1  N    0.000000
     2  C    1.474961   0.000000
     3  C    2.452861   1.534024   0.000000
     4  C    3.091007   2.583537   1.540093   0.000000
     5  C    4.092411   3.310375   2.562992   1.516071   0.000000
     6  C    4.325164   3.290455   2.999121   2.547132   1.339647
     7  N    3.720316   2.545510   2.860493   3.052225   2.429291
     8  C    2.441252   1.545710   2.548335   2.992886   3.007732
     9  H    1.013771   2.049974   2.675028   3.479520   4.704433
    10  H    1.014445   2.059768   3.345926   3.996224   4.820134
    11  H    2.143163   1.104721   2.150569   3.504136   4.174938
    12  H    3.386714   2.152097   1.094494   2.159848   2.679170
    13  H    2.629645   2.148749   1.097500   2.176211   3.470861
    14  H    3.897388   3.484919   2.159817   1.097235   2.124833
    15  H    2.689131   2.719954   2.163257   1.097562   2.170581
    16  H    5.026445   4.364485   3.502635   2.220939   1.085793
    17  H    5.374401   4.338047   4.059637   3.522281   2.105408
    18  H    4.426145   3.137608   3.506707   3.917339   3.248762
    19  H    2.899440   2.177950   3.454127   4.075484   4.053501
    20  H    2.438962   2.147662   3.008936   2.973529   2.964169
                    6          7          8          9         10
     6  C    0.000000
     7  N    1.390599   0.000000
     8  C    2.486031   1.447109   0.000000
     9  H    5.074690   4.524278   3.332844   0.000000
    10  H    4.851768   4.045136   2.620128   1.626944   0.000000
    11  H    3.977202   3.017480   2.167206   2.406176   2.451303
    12  H    2.850580   2.718547   2.872304   3.605480   4.172224
    13  H    4.066771   3.939656   3.482012   2.418284   3.576478
    14  H    3.333186   4.018901   4.066749   4.064510   4.868142
    15  H    3.139737   3.517011   3.092540   3.129427   3.543420
    16  H    2.079243   3.375528   4.039443   5.600783   5.771343
    17  H    1.091603   2.094237   3.367824   6.153662   5.836071
    18  H    2.070317   1.004327   2.119962   5.176360   4.654090
    19  H    3.338784   2.065187   1.095887   3.758540   2.700787
    20  H    2.668978   2.069333   1.098193   3.434573   2.565589
                   11         12         13         14         15
    11  H    0.000000
    12  H    2.381589   0.000000
    13  H    2.506768   1.750765   0.000000
    14  H    4.292701   2.600157   2.367412   0.000000
    15  H    3.771847   3.053303   2.612887   1.748583   0.000000
    16  H    5.246063   3.586838   4.280836   2.401305   2.730404
    17  H    4.954984   3.785951   5.113179   4.177057   4.094327
    18  H    3.289244   3.108504   4.530842   4.811682   4.475248
    19  H    2.358725   3.678525   4.285591   5.139745   4.124804
    20  H    3.013756   3.570903   3.891890   4.062754   2.727155
                   16         17         18         19         20
    16  H    0.000000
    17  H    2.384313   0.000000
    18  H    4.126191   2.418876   0.000000
    19  H    5.066875   4.052185   2.312317   0.000000
    20  H    3.857520   3.490896   2.908493   1.761231   0.000000
 Stoichiometry    C6H12N2
 Framework group  C1[X(C6H12N2)]
 Deg. of freedom    54
 Full point group                 C1      NOp   1
 Largest Abelian subgroup         C1      NOp   1
 Largest concise Abelian subgroup C1      NOp   1
                         Standard orientation:                         
 ---------------------------------------------------------------------
 Center     Atomic      Atomic             Coordinates (Angstroms)
 Number     Number       Type             X           Y           Z
 ---------------------------------------------------------------------
      1          7           0       -2.295151    0.079822   -0.606886
      2          6           0       -1.284166   -0.306678    0.395129
      3          6           0       -0.532790    0.946322    0.862736
      4          6           0        0.379809    1.575940   -0.206203
      5          6           0        1.712773    0.872607   -0.370530
      6          6           0        1.969952   -0.409952   -0.081472
      7          7           0        1.021963   -1.373757    0.244356
      8          6           0       -0.332140   -1.330455   -0.264224
      9          1           0       -2.983969    0.686461   -0.176479
     10          1           0       -2.794420   -0.739216   -0.937045
     11          1           0       -1.748909   -0.777648    1.279781
     12          1           0        0.070879    0.688591    1.738564
     13          1           0       -1.270014    1.681932    1.208980
     14          1           0        0.583887    2.617482    0.072125
     15          1           0       -0.164661    1.625399   -1.157912
     16          1           0        2.530984    1.477392   -0.749625
     17          1           0        2.990333   -0.788387   -0.166364
     18          1           0        1.255919   -2.069132    0.930207
     19          1           0       -0.753522   -2.338716   -0.181675
     20          1           0       -0.284813   -1.093316   -1.335463
 ---------------------------------------------------------------------
 Rotational constants (GHZ):           3.1476178           1.8884071           1.3847210
 Standard basis: 6-31G(2df,p) (6D, 7F)
 There are   308 symmetry adapted cartesian basis functions of A   symmetry.
 There are   284 symmetry adapted basis functions of A   symmetry.
   284 basis functions,   436 primitive gaussians,   308 cartesian basis functions
    31 alpha electrons       31 beta electrons
       nuclear repulsion energy       395.7383718734 Hartrees.
 NAtoms=   20 NActive=   20 NUniq=   20 SFac= 1.00D+00 NAtFMM=   60 NAOKFM=F Big=F
 Integral buffers will be    131072 words long.
 Raffenetti 2 integral format.
 Two-electron integral symmetry is turned on.
 One-electron integrals computed using PRISM.
 PrsmSu:  requested number of processors reduced to:  13 ShMem   1 Linda.
 NBasis=   284 RedAO= T EigKep=  3.23D-04  NBF=   284
 NBsUse=   284 1.00D-06 EigRej= -1.00D+00 NBFU=   284
 Initial guess from the checkpoint file:  "NC1CCCdCNC1.chk"
 B after Tr=    -0.000000   -0.000000   -0.000000
         Rot=    0.999980    0.002306    0.000815    0.005877 Ang=   0.73 deg.
 ExpMin= 1.61D-01 ExpMax= 4.17D+03 ExpMxC= 6.27D+02 IAcc=2 IRadAn=         4 AccDes= 0.00D+00
 Harris functional with IExCor=  402 and IRadAn=       4 diagonalized for initial guess.
 HarFok:  IExCor=  402 AccDes= 0.00D+00 IRadAn=         4 IDoV= 1 UseB2=F ITyADJ=14
 ICtDFT=  3500011 ScaDFX=  1.000000  1.000000  1.000000  1.000000
 FoFCou: FMM=F IPFlag=           0 FMFlag=      100000 FMFlg1=           0
         NFxFlg=           0 DoJE=T BraDBF=F KetDBF=T FulRan=T
         wScrn=  0.000000 ICntrl=       500 IOpCl=  0 I1Cent=   200000004 NGrid=           0
         NMat0=    1 NMatS0=      1 NMatT0=    0 NMatD0=    1 NMtDS0=    0 NMtDT0=    0
 Petite list used in FoFCou.
 Requested convergence on RMS density matrix=1.00D-08 within 128 cycles.
 Requested convergence on MAX density matrix=1.00D-06.
 Requested convergence on             energy=1.00D-06.
 No special actions if energy rises.
 Integral accuracy reduced to 1.0D-05 until final iterations.
 Initial convergence to 1.0D-05 achieved.  Increase integral accuracy.
 SCF Done:  E(RB3LYP) =  -345.357045595     A.U. after   11 cycles
            NFock= 11  Conv=0.71D-08     -V/T= 2.0083
 PrsmSu:  requested number of processors reduced to:  13 ShMem   1 Linda.
 Calling FoFJK, ICntrl=      2127 FMM=F ISym2X=0 I1Cent= 0 IOpClX= 0 NMat=1 NMatS=1 NMatT=0.
 ***** Axes restored to original set *****
 -------------------------------------------------------------------
 Center     Atomic                   Forces (Hartrees/Bohr)
 Number     Number              X              Y              Z
 -------------------------------------------------------------------
      1        7           0.003048073    0.001869352   -0.001718983
      2        6          -0.003126550   -0.000631710    0.000488462
      3        6           0.001134604    0.000971473   -0.000167134
      4        6           0.001268433    0.000649790   -0.001722145
      5        6          -0.002852687   -0.001151905    0.001781352
      6        6           0.000318571    0.000090370   -0.000295728
      7        7          -0.000575340   -0.000973055   -0.000951140
      8        6           0.001912372    0.001348134   -0.000861033
      9        1          -0.000924516   -0.001137928    0.001602480
     10        1          -0.000574581   -0.001563366   -0.000004482
     11        1           0.001508235    0.001259852    0.000279948
     12        1           0.000323051   -0.000251302    0.000283817
     13        1          -0.001266927    0.000245531   -0.000282319
     14        1           0.000036115   -0.000156044   -0.000013541
     15        1          -0.000819214    0.000151150    0.000651411
     16        1           0.000808177   -0.000158915   -0.000587342
     17        1           0.000848293   -0.000470658    0.002303139
     18        1          -0.000450116   -0.000193270   -0.001721171
     19        1          -0.000467175   -0.000715416    0.000202018
     20        1          -0.000148817    0.000817917    0.000732391
 -------------------------------------------------------------------
 Cartesian Forces:  Max     0.003126550 RMS     0.001166775

 GradGradGradGradGradGradGradGradGradGradGradGradGradGradGradGradGradGrad
 Berny optimization.
 Using GEDIIS/GDIIS optimizer.
 FormGI is forming the generalized inverse of G from B-inverse, IUseBI=4.
 Internal  Forces:  Max     0.001774629 RMS     0.000654780
 Search for a local minimum.
 Step number   2 out of a maximum of  119
 All quantities printed in internal units (Hartrees-Bohrs-Radians)
 Mixed Optimization -- En-DIIS/RFO-DIIS
 Update second derivatives using D2CorX and points    1    2
 DE= -4.33D-03 DEPred=-4.24D-03 R= 1.02D+00
 TightC=F SS=  1.41D+00  RLast= 3.91D-01 DXNew= 5.0454D-01 1.1722D+00
 Trust test= 1.02D+00 RLast= 3.91D-01 DXMaxT set to 5.05D-01
 ITU=  1  0
 Use linear search instead of GDIIS.
     Eigenvalues ---    0.00349   0.00674   0.00690   0.01246   0.01399
     Eigenvalues ---    0.01581   0.02107   0.02475   0.03237   0.03496
     Eigenvalues ---    0.04114   0.04222   0.04413   0.04782   0.05276
     Eigenvalues ---    0.05515   0.05677   0.06467   0.08317   0.08596
     Eigenvalues ---    0.09545   0.09980   0.10492   0.12471   0.13819
     Eigenvalues ---    0.15851   0.15932   0.15990   0.16000   0.16121
     Eigenvalues ---    0.17455   0.18834   0.20645   0.21960   0.26733
     Eigenvalues ---    0.27742   0.28206   0.30737   0.33662   0.33864
     Eigenvalues ---    0.33918   0.33962   0.34163   0.34167   0.34218
     Eigenvalues ---    0.34869   0.34929   0.35072   0.36116   0.44859
     Eigenvalues ---    0.44878   0.45507   0.49999   0.56536
 RFO step:  Lambda=-1.55111476D-03 EMin= 3.49436386D-03
 Quartic linear search produced a step of  0.24130.
 Iteration  1 RMS(Cart)=  0.07236755 RMS(Int)=  0.00175105
 Iteration  2 RMS(Cart)=  0.00258878 RMS(Int)=  0.00052763
 Iteration  3 RMS(Cart)=  0.00000171 RMS(Int)=  0.00052762
 Iteration  4 RMS(Cart)=  0.00000000 RMS(Int)=  0.00052762
 Variable       Old X    -DE/DX   Delta X   Delta X   Delta X     New X
                                 (Linear)    (Quad)   (Total)
    R1        2.78727  -0.00148  -0.00087  -0.00452  -0.00539   2.78188
    R2        1.91575   0.00177  -0.00142   0.00572   0.00430   1.92005
    R3        1.91702   0.00155  -0.00097   0.00482   0.00384   1.92087
    R4        2.89889   0.00047  -0.00106   0.00359   0.00211   2.90099
    R5        2.92097   0.00072  -0.00091   0.00434   0.00294   2.92391
    R6        2.08762  -0.00006   0.00324  -0.00241   0.00083   2.08845
    R7        2.91035  -0.00013   0.00096  -0.00269  -0.00136   2.90899
    R8        2.06829   0.00036  -0.00278   0.00315   0.00037   2.06866
    R9        2.07397   0.00028  -0.00011   0.00108   0.00096   2.07494
   R10        2.86496  -0.00169   0.00267  -0.00808  -0.00524   2.85972
   R11        2.07347  -0.00014   0.00087  -0.00107  -0.00020   2.07327
   R12        2.07409   0.00056   0.00091   0.00135   0.00226   2.07635
   R13        2.53157   0.00032   0.00281  -0.00084   0.00208   2.53365
   R14        2.05185   0.00010  -0.00105   0.00105   0.00000   2.05185
   R15        2.62785  -0.00109   0.00853  -0.00810   0.00052   2.62837
   R16        2.06283  -0.00125   0.00075  -0.00483  -0.00408   2.05875
   R17        2.73464  -0.00143  -0.00346  -0.00328  -0.00650   2.72814
   R18        1.89790  -0.00027  -0.00441   0.00224  -0.00217   1.89573
   R19        2.07093   0.00061   0.00006   0.00210   0.00216   2.07308
   R20        2.07528  -0.00004  -0.00008  -0.00007  -0.00015   2.07513
    A1        1.91145   0.00058  -0.00566   0.00481  -0.00097   1.91048
    A2        1.92503  -0.00005  -0.00260  -0.00194  -0.00466   1.92038
    A3        1.86179  -0.00077  -0.00739  -0.00724  -0.01488   1.84691
    A4        1.90580   0.00074   0.00081   0.00824   0.00944   1.91524
    A5        1.88172  -0.00062  -0.00832   0.00119  -0.00625   1.87546
    A6        1.94699   0.00016   0.01546  -0.00801   0.00705   1.95404
    A7        1.94910  -0.00010  -0.00438   0.01029   0.00369   1.95279
    A8        1.88618  -0.00048  -0.00137  -0.01299  -0.01392   1.87226
    A9        1.89477   0.00031  -0.00155   0.00136   0.00027   1.89504
   A10        1.99610   0.00035   0.00998   0.00155   0.01045   2.00655
   A11        1.89836  -0.00041  -0.00367  -0.00022  -0.00396   1.89440
   A12        1.89085   0.00007  -0.00616   0.00015  -0.00526   1.88559
   A13        1.90165   0.00016  -0.00595   0.00261  -0.00280   1.89884
   A14        1.92090  -0.00050   0.00059  -0.00551  -0.00467   1.91623
   A15        1.85029   0.00033   0.00480   0.00147   0.00605   1.85634
   A16        1.98949  -0.00104  -0.00213  -0.00434  -0.00696   1.98253
   A17        1.89887  -0.00008   0.00383  -0.01018  -0.00652   1.89235
   A18        1.90319   0.00031  -0.00766   0.01118   0.00392   1.90711
   A19        1.88004   0.00048  -0.00219  -0.00152  -0.00318   1.87686
   A20        1.94236   0.00066   0.01138   0.00498   0.01607   1.95843
   A21        1.84361  -0.00029  -0.00338  -0.00052  -0.00394   1.83967
   A22        2.20130   0.00084   0.00418   0.00555   0.00842   2.20972
   A23        2.02861   0.00059   0.00192   0.00194   0.00444   2.03305
   A24        2.05322  -0.00143  -0.00593  -0.00767  -0.01301   2.04021
   A25        2.19350   0.00045  -0.00035   0.00609   0.00433   2.19784
   A26        2.08814   0.00018  -0.00584   0.00391  -0.00122   2.08692
   A27        1.99893  -0.00061   0.00598  -0.00992  -0.00328   1.99565
   A28        2.13508  -0.00015  -0.00016  -0.00438  -0.00551   2.12958
   A29        2.07268   0.00004   0.00351  -0.00039   0.00347   2.07615
   A30        2.06996   0.00007  -0.00366   0.00389   0.00071   2.07067
   A31        2.03335   0.00019   0.01056  -0.00388   0.00498   2.03832
   A32        1.91816   0.00018  -0.00098  -0.00236  -0.00235   1.91580
   A33        1.87509  -0.00120  -0.00797  -0.00422  -0.01222   1.86287
   A34        1.88157  -0.00032  -0.00935   0.00859  -0.00027   1.88130
   A35        1.88489   0.00085   0.00271   0.00123   0.00465   1.88954
   A36        1.86368   0.00036   0.00486   0.00096   0.00557   1.86926
    D1       -1.11073  -0.00050  -0.01707  -0.01244  -0.03037  -1.14110
    D2        3.05170  -0.00043  -0.00695  -0.03049  -0.03661   3.01509
    D3        0.97290  -0.00051  -0.00917  -0.02820  -0.03712   0.93578
    D4        3.12856   0.00013  -0.00272  -0.00535  -0.00907   3.11949
    D5        1.00781   0.00019   0.00741  -0.02340  -0.01531   0.99249
    D6       -1.07100   0.00011   0.00519  -0.02112  -0.01582  -1.08682
    D7       -1.20447   0.00019  -0.00438  -0.09283  -0.09722  -1.30170
    D8        2.94866   0.00005  -0.00089  -0.09709  -0.09777   2.85089
    D9        0.94488  -0.00016  -0.00127  -0.09879  -0.10007   0.84481
   D10        0.87493  -0.00016  -0.01712  -0.07963  -0.09652   0.77840
   D11       -1.25513  -0.00030  -0.01363  -0.08389  -0.09707  -1.35220
   D12        3.02428  -0.00051  -0.01401  -0.08559  -0.09937   2.92490
   D13        2.95782  -0.00016  -0.02265  -0.08010  -0.10286   2.85495
   D14        0.82776  -0.00029  -0.01916  -0.08437  -0.10341   0.72435
   D15       -1.17602  -0.00051  -0.01954  -0.08607  -0.10571  -1.28173
   D16        2.65085   0.00104   0.01242   0.10220   0.11449   2.76534
   D17       -1.48642   0.00089   0.00705   0.10890   0.11593  -1.37049
   D18        0.53501   0.00074   0.00782   0.10646   0.11460   0.64961
   D19        0.55723   0.00059   0.01985   0.08512   0.10469   0.66192
   D20        2.70314   0.00044   0.01449   0.09182   0.10613   2.80928
   D21       -1.55860   0.00029   0.01526   0.08938   0.10479  -1.45381
   D22       -1.52057   0.00105   0.02532   0.09405   0.11947  -1.40111
   D23        0.62534   0.00090   0.01996   0.10075   0.12091   0.74625
   D24        2.64678   0.00075   0.02073   0.09832   0.11957   2.76635
   D25       -1.39071   0.00015   0.00325   0.00657   0.01082  -1.37988
   D26        2.79422   0.00027   0.00468   0.01862   0.02389   2.81811
   D27        0.79152   0.00049   0.01070   0.01873   0.02998   0.82149
   D28        0.73755  -0.00003   0.00108   0.00930   0.01077   0.74832
   D29       -1.36071   0.00010   0.00251   0.02134   0.02384  -1.33687
   D30        2.91977   0.00032   0.00853   0.02146   0.02993   2.94970
   D31        2.75944   0.00019   0.00380   0.00948   0.01384   2.77328
   D32        0.66118   0.00031   0.00523   0.02152   0.02690   0.68808
   D33       -1.34153   0.00053   0.01125   0.02164   0.03299  -1.30854
   D34        0.44184   0.00036   0.00619   0.03932   0.04583   0.48767
   D35       -2.68858   0.00056  -0.00134   0.05832   0.05712  -2.63146
   D36        2.55064  -0.00006   0.00812   0.02258   0.03103   2.58167
   D37       -0.57979   0.00013   0.00059   0.04157   0.04233  -0.53746
   D38       -1.71939   0.00023   0.00892   0.02374   0.03309  -1.68630
   D39        1.43337   0.00042   0.00139   0.04274   0.04439   1.47776
   D40        0.16617   0.00041   0.00232   0.02328   0.02571   0.19188
   D41       -3.05738   0.00071  -0.00117   0.02392   0.02295  -3.03442
   D42       -2.98673   0.00023   0.01013   0.00410   0.01447  -2.97226
   D43        0.07291   0.00052   0.00664   0.00475   0.01171   0.08462
   D44        0.51885  -0.00126  -0.02253  -0.07355  -0.09596   0.42288
   D45       -2.50908  -0.00083  -0.01877  -0.06472  -0.08300  -2.59208
   D46       -2.54445  -0.00157  -0.01882  -0.07469  -0.09340  -2.63786
   D47        0.71081  -0.00114  -0.01506  -0.06586  -0.08044   0.63037
   D48       -1.33333   0.00105   0.00745   0.00744   0.01575  -1.31758
   D49        2.78506   0.00094   0.00851   0.00636   0.01550   2.80055
   D50        0.77731   0.00026   0.00614   0.00025   0.00675   0.78406
   D51        1.69476   0.00062   0.00409  -0.00165   0.00300   1.69776
   D52       -0.47004   0.00051   0.00514  -0.00273   0.00274  -0.46729
   D53       -2.47778  -0.00017   0.00278  -0.00883  -0.00600  -2.48379
         Item               Value     Threshold  Converged?
 Maximum Force            0.001775     0.000450     NO 
 RMS     Force            0.000655     0.000300     NO 
 Maximum Displacement     0.240467     0.001800     NO 
 RMS     Displacement     0.072333     0.001200     NO 
 Predicted change in Energy=-1.064362D-03
 GradGradGradGradGradGradGradGradGradGradGradGradGradGradGradGradGradGrad

                          Input orientation:                          
 ---------------------------------------------------------------------
 Center     Atomic      Atomic             Coordinates (Angstroms)
 Number     Number       Type             X           Y           Z
 ---------------------------------------------------------------------
      1          7           0        0.933150   -0.223841    0.127122
      2          6           0        2.387544   -0.016874    0.032222
      3          6           0        2.750059    1.372142    0.576161
      4          6           0        2.390929    2.547144   -0.351233
      5          6           0        3.377471    2.750757   -1.480547
      6          6           0        4.142574    1.810334   -2.053110
      7          7           0        4.023662    0.437050   -1.867432
      8          6           0        2.782771   -0.174952   -1.455340
      9          1           0        0.657424   -0.245902    1.104795
     10          1           0        0.685625   -1.134234   -0.251221
     11          1           0        2.950275   -0.759256    0.626851
     12          1           0        3.825862    1.397425    0.777042
     13          1           0        2.251254    1.498201    1.546176
     14          1           0        2.376652    3.467837    0.245264
     15          1           0        1.362393    2.419804   -0.716151
     16          1           0        3.488787    3.765992   -1.849133
     17          1           0        4.888446    2.100625   -2.792229
     18          1           0        4.847750   -0.132864   -1.916834
     19          1           0        2.831643   -1.239656   -1.715124
     20          1           0        1.969000    0.264799   -2.047160
 ---------------------------------------------------------------------
                    Distance matrix (angstroms):
                    1          2          3          4          5
     1  N    0.000000
     2  C    1.472108   0.000000
     3  C    2.459665   1.535139   0.000000
     4  C    3.167381   2.592535   1.539372   0.000000
     5  C    4.172234   3.305784   2.554266   1.513299   0.000000
     6  C    4.380831   3.281376   3.007354   2.550987   1.340748
     7  N    3.737150   2.547865   2.909916   3.068741   2.433204
     8  C    2.434682   1.547267   2.553736   2.963511   2.985645
     9  H    1.016049   2.048458   2.697525   3.595298   4.802356
    10  H    1.016478   2.055568   3.350876   4.058400   4.883691
    11  H    2.145971   1.105161   2.141381   3.493108   4.116287
    12  H    3.379153   2.150292   1.094689   2.157288   2.670069
    13  H    2.591628   2.146179   1.098010   2.172546   3.463859
    14  H    3.965620   3.491234   2.154267   1.097128   2.119969
    15  H    2.807884   2.747434   2.166398   1.098757   2.180452
    16  H    5.133773   4.366040   3.486874   2.221392   1.085794
    17  H    5.437842   4.326180   4.055791   3.520715   2.103860
    18  H    4.417027   3.140842   3.588925   3.958474   3.266089
    19  H    2.833731   2.178449   3.475361   4.048985   4.034396
    20  H    2.457490   2.139707   2.952639   2.874594   2.912873
                    6          7          8          9         10
     6  C    0.000000
     7  N    1.390872   0.000000
     8  C    2.479466   1.443668   0.000000
     9  H    5.132908   4.542259   3.328127   0.000000
    10  H    4.885466   4.027849   2.601566   1.621329   0.000000
    11  H    3.899559   2.967281   2.169099   2.397734   2.457693
    12  H    2.877596   2.820405   2.923001   3.584263   4.162656
    13  H    4.077914   3.990012   3.477219   2.403540   3.551273
    14  H    3.338911   4.044972   4.040656   4.181674   4.927995
    15  H    3.144570   3.512708   3.049037   3.304363   3.647651
    16  H    2.072111   3.371688   4.023005   5.730410   5.867133
    17  H    1.089446   2.090594   3.376298   6.212450   5.880879
    18  H    2.071681   1.003177   2.116338   5.167384   4.593505
    19  H    3.336946   2.062874   1.097028   3.696853   2.599908
    20  H    2.667046   2.069688   1.098113   3.451937   2.613378
                   11         12         13         14         15
    11  H    0.000000
    12  H    2.332484   0.000000
    13  H    2.535725   1.755310   0.000000
    14  H    4.282870   2.582558   2.363803   0.000000
    15  H    3.798874   3.056724   2.599529   1.746830   0.000000
    16  H    5.186363   3.552537   4.266437   2.390029   2.759968
    17  H    4.860610   3.789891   5.112676   4.171900   4.104270
    18  H    3.234673   3.262362   4.625430   4.872992   4.483912
    19  H    2.393680   3.762121   4.297533   5.119632   4.067959
    20  H    3.026867   3.564672   3.809595   3.959905   2.604535
                   16         17         18         19         20
    16  H    0.000000
    17  H    2.371060   0.000000
    18  H    4.129460   2.399259   0.000000
    19  H    5.050376   4.067931   2.308757   0.000000
    20  H    3.821952   3.528250   2.909007   1.765725   0.000000
 Stoichiometry    C6H12N2
 Framework group  C1[X(C6H12N2)]
 Deg. of freedom    54
 Full point group                 C1      NOp   1
 Largest Abelian subgroup         C1      NOp   1
 Largest concise Abelian subgroup C1      NOp   1
                         Standard orientation:                         
 ---------------------------------------------------------------------
 Center     Atomic      Atomic             Coordinates (Angstroms)
 Number     Number       Type             X           Y           Z
 ---------------------------------------------------------------------
      1          7           0       -2.348585    0.054470   -0.549457
      2          6           0       -1.275719   -0.278869    0.401829
      3          6           0       -0.530513    0.999238    0.811417
      4          6           0        0.417537    1.569846   -0.258758
      5          6           0        1.742963    0.844380   -0.342535
      6          6           0        1.973231   -0.438847   -0.029629
      7          7           0        1.004026   -1.402985    0.226502
      8          6           0       -0.338653   -1.295360   -0.292928
      9          1           0       -3.047521    0.626884   -0.084498
     10          1           0       -2.831670   -0.791435   -0.839804
     11          1           0       -1.670854   -0.738724    1.325833
     12          1           0        0.046056    0.790558    1.718261
     13          1           0       -1.277841    1.754959    1.087119
     14          1           0        0.629202    2.617552   -0.011374
     15          1           0       -0.102563    1.597710   -1.226222
     16          1           0        2.595848    1.430474   -0.671214
     17          1           0        2.994091   -0.819218   -0.037011
     18          1           0        1.210517   -2.138424    0.876774
     19          1           0       -0.789853   -2.294924   -0.265325
     20          1           0       -0.276573   -0.998140   -1.348229
 ---------------------------------------------------------------------
 Rotational constants (GHZ):           3.1815805           1.8680778           1.3632653
 Standard basis: 6-31G(2df,p) (6D, 7F)
 There are   308 symmetry adapted cartesian basis functions of A   symmetry.
 There are   284 symmetry adapted basis functions of A   symmetry.
   284 basis functions,   436 primitive gaussians,   308 cartesian basis functions
    31 alpha electrons       31 beta electrons
       nuclear repulsion energy       395.2391508770 Hartrees.
 NAtoms=   20 NActive=   20 NUniq=   20 SFac= 1.00D+00 NAtFMM=   60 NAOKFM=F Big=F
 Integral buffers will be    131072 words long.
 Raffenetti 2 integral format.
 Two-electron integral symmetry is turned on.
[...]
 ,0.32862975,-0.02256013,0.00179018,0.03822350,-0.07125995,0.00449053,0
 .01021066,0.00277144,0.00242695,-0.00309643,0.00206837,-0.00012031,-0.
 00280560,0.00229087,0.00800485,0.00127514,-0.00407395,-0.01717747,-0.0
 0362579,-0.19055337,-0.03894871,0.05322841,0.51143024,-0.00543485,0.00
 145106,0.00783453,0.00413491,-0.08110432,-0.01377573,0.01062199,-0.004
 71516,-0.03222398,0.00037087,0.00062470,-0.00165781,-0.00174141,0.0019
 6437,0.00103301,-0.03576772,-0.02469440,0.00896500,-0.03638455,-0.1097
 5870,0.00513031,-0.03448231,0.60450342,0.00646087,0.00173425,-0.004132
 55,0.01321690,-0.01064184,-0.17459023,0.00334294,-0.00916341,-0.014389
 70,0.00035169,-0.00082569,0.00294722,0.00149606,-0.00429514,0.00089978
 ,0.00598417,0.01715575,-0.00635102,0.01757159,-0.01686390,-0.06608676,
 0.02171283,0.00195104,0.47731625,-0.06522850,-0.01820037,0.08100857,-0
 .01553908,-0.00102700,0.04056670,0.00092467,0.00113597,0.00094803,0.00
 028486,-0.00000935,-0.00001200,-0.00007531,-0.00006270,-0.00009158,-0.
 00016952,0.00059637,0.00007416,-0.00077536,0.00024708,0.00226161,-0.00
 634487,-0.00201984,-0.00298493,0.08291350,-0.03043822,-0.03459599,0.02
 078154,0.00470102,-0.00181763,0.00692894,-0.00061400,0.00093234,0.0026
 8668,0.00014044,-0.00049001,0.00001260,0.00005573,-0.00018088,-0.00014
 271,0.00008819,0.00088583,-0.00022309,-0.00093501,0.00042688,0.0008183
 4,-0.00128472,-0.00069487,0.00009326,0.01789653,0.03860205,0.11406376,
 -0.01896362,-0.39419251,-0.00584512,0.00227083,-0.00332546,-0.00061351
 ,0.00029519,0.00084697,-0.00002826,0.00001727,-0.00010743,0.00002135,0
 .00005446,-0.00003158,0.00002866,-0.00042891,0.00001384,0.00032647,-0.
 00026356,-0.00008270,0.00096777,0.00079167,0.00085375,-0.11180554,0.01
 030168,0.40976449,-0.05629950,-0.05900193,-0.00439947,-0.01027337,-0.0
 3742425,-0.01527741,-0.00738910,0.00056376,0.00099131,-0.00010025,0.00
 020062,-0.00037232,0.00005693,0.00019715,0.00011503,0.00027376,-0.0005
 7572,-0.00012666,0.00005410,0.00110492,-0.00040377,0.00090757,-0.00157
 583,-0.00002934,0.00202094,0.01166073,0.00294822,0.06978989,-0.0900847
 3,-0.34649558,-0.15380245,0.00646424,-0.00853323,0.00070116,-0.0033668
 1,0.00109139,0.00000255,-0.00014397,0.00041272,-0.00030819,0.00000474,
 0.00016915,-0.00010419,0.00012803,-0.00060138,0.00005626,0.00035849,0.
 00055687,-0.00003588,-0.00051799,0.00090503,-0.00016557,0.00157674,-0.
 00293986,0.00638467,0.08549105,0.35441837,-0.00710791,-0.11137667,-0.0
 8880637,-0.00327111,0.00281273,-0.00012640,0.00081353,0.00030850,-0.00
 033079,-0.00002020,-0.00003154,0.00030801,0.00002537,-0.00017097,0.000
 05618,-0.00010789,0.00058255,-0.00010044,-0.00073656,-0.00062305,-0.00
 024809,0.00157653,0.00097692,0.00143648,-0.00868920,-0.03832418,-0.016
 36332,0.01669088,0.14623936,0.10350491,-0.03704276,0.01716424,-0.01709
 036,-0.10246798,0.07715533,-0.06275061,0.00288379,-0.00430854,0.002216
 46,0.00065749,-0.00164696,-0.00033339,0.00003878,0.00012255,-0.0002298
 5,0.00012770,-0.00000648,-0.00007843,0.00127652,0.00033871,-0.00107664
 ,0.00503601,-0.00435980,0.00564241,0.00147455,-0.00069860,-0.00051301,
 0.00110798,0.00037670,0.00072919,0.12571819,-0.00406171,0.00836742,-0.
 00467884,0.07533777,-0.15176012,0.08508079,0.01274197,-0.02471516,0.01
 839857,-0.00114436,-0.00406179,-0.00522124,0.00020274,0.00046859,-0.00
 033747,0.00003036,-0.00103885,0.00010488,-0.00080378,0.00089518,-0.000
 59524,-0.00042739,0.00133737,-0.00381477,0.00093551,0.00049543,-0.0006
 4861,0.00028213,0.00146301,-0.00050035,-0.08275571,0.16581528,0.001437
 39,-0.00311942,0.00529945,-0.06070474,0.08410073,-0.12102673,0.0038111
 2,-0.00915302,0.00682008,-0.00034892,-0.00185907,-0.00042372,0.0001946
 1,-0.00024859,-0.00016130,-0.00003959,-0.00024208,0.00033559,0.0011055
 6,-0.00087977,0.00167790,-0.01795652,0.02071874,-0.02227614,-0.0001513
 4,-0.00096889,0.00143742,-0.00067339,-0.00023960,-0.00023098,0.0714346
 5,-0.08832728,0.13204569,0.00054486,-0.00208049,-0.00091512,-0.0064213
 3,0.00185491,-0.00076104,-0.29201841,-0.01365508,-0.05917811,-0.007042
 66,0.00031056,-0.00230094,0.00091509,-0.00046952,0.00110437,0.00023754
 ,0.00080603,-0.00017837,0.00030779,-0.00031965,0.00121329,-0.00054736,
 -0.00036115,0.00005142,0.00011529,0.00045301,-0.00013619,-0.00019910,-
 0.00028701,0.00021162,0.00119472,-0.00052395,0.00036387,0.31766139,-0.
 00097461,-0.00585515,-0.00390073,-0.02970543,-0.00142517,-0.00533781,-
 0.01073941,-0.04743340,-0.00396007,0.02424298,-0.00012930,0.00854976,0
 .00080594,0.00067141,-0.00161040,-0.00051527,0.00071833,-0.00019286,0.
 00068815,0.00005588,0.00018476,-0.00057388,-0.00002796,0.00088022,0.00
 037593,-0.00004962,-0.00008593,-0.00205740,-0.00084416,0.00015356,-0.0
 0033770,0.00071561,0.00061414,0.01336640,0.05694400,0.00023840,-0.0019
 1001,-0.00082324,-0.01210437,0.00088634,-0.00348470,-0.05610181,-0.004
 74942,-0.06142148,-0.02147894,0.00063122,-0.00745372,-0.00105810,-0.00
 055509,0.00150034,0.00036321,0.00047497,-0.00072707,0.00052094,-0.0006
 6763,-0.00021351,-0.00105945,-0.00001217,0.00046373,-0.00026961,-0.000
 42667,0.00023989,-0.00061028,-0.00016645,0.00058736,0.00052724,0.00035
 476,0.00085423,0.06449871,0.00088634,0.06550778,0.00107885,-0.00023040
 ,-0.00137505,0.00171000,-0.00289951,-0.00662885,-0.11609739,0.01649834
 ,0.11145739,0.00431770,-0.00053646,-0.00767068,-0.00009886,0.00107706,
 -0.00003731,0.00026767,0.00006497,-0.00016825,0.00023324,-0.00010362,0
 .00019607,-0.00064958,-0.00193164,-0.00088817,0.00041708,-0.00017501,0
 .00024811,0.00011410,0.00016815,-0.00017098,-0.00004566,0.00047043,0.0
 0015337,-0.01589329,0.00455762,0.02693712,0.12316023,0.00169567,0.0021
 0497,0.00021422,0.01454423,-0.00558418,-0.02785529,0.01575026,-0.04886
 180,-0.02531043,-0.01416994,0.00053058,0.02157807,0.00179369,-0.002638
 21,0.00299740,0.00023692,-0.00239011,0.00062593,-0.00008793,0.00132988
 ,-0.00034328,-0.00197884,-0.00558497,0.00009033,-0.00083380,-0.0006243
 5,0.00040448,0.00029191,0.00038998,0.00014651,0.00005022,0.00062463,0.
 00080758,-0.00085405,-0.00022512,0.00149686,-0.01568072,0.05967607,0.0
 0041371,0.00189844,0.00154488,0.00707639,-0.00291484,-0.01364255,0.110
 00141,-0.02408897,-0.22590156,0.01186342,-0.00187094,-0.01693672,-0.00
 177343,0.00330722,-0.00096688,-0.00027448,0.00096867,0.00021935,-0.000
 27882,-0.00023990,0.00104561,-0.00048967,-0.00328519,0.00102355,-0.000
 94675,-0.00139796,0.00029032,-0.00011074,0.00039472,0.00043420,-0.0001
 6711,-0.00056304,0.00029216,-0.00349371,0.00114212,0.00662279,-0.12213
 976,0.02690111,0.24648010,0.00039925,-0.00016831,0.00013318,-0.0005825
 0,0.00026449,-0.00153910,-0.00031246,0.00729017,0.00422620,-0.04497489
 ,0.00364424,0.00090451,-0.00469311,0.02103944,0.01618678,-0.00119790,-
 0.00222302,0.00265492,0.00057306,0.00027271,-0.00000441,-0.00083306,-0
 .00034842,-0.00012391,0.00004411,-0.00006677,0.00006009,0.00006716,0.0
 0003120,-0.00000744,0.00014154,0.00043622,0.00016575,-0.00007712,-0.00
 012734,0.00043374,0.00059343,-0.00074058,0.00005851,0.05065345,-0.0000
 8674,0.00021020,-0.00015822,0.00275186,-0.00155170,0.00445874,-0.00129
 923,-0.02235814,-0.01203564,0.00445329,-0.22855868,-0.11402635,0.00003
 211,0.00321991,0.00280214,-0.00080623,0.00049480,0.00039833,-0.0002065
 3,0.00061529,-0.00045692,-0.00026612,0.00048197,0.00078293,0.00006453,
 -0.00013611,0.00000031,-0.00005525,-0.00003860,0.00007811,-0.00045824,
 -0.00166752,-0.00048064,0.00045623,0.00049291,-0.00007391,-0.00077702,
 0.00094581,0.00013308,-0.00359766,0.25099914,0.00016595,-0.00027442,0.
 00030009,-0.00225004,0.00283184,-0.00295953,0.00088188,0.02077494,0.01
 021894,0.00139305,-0.11470950,-0.11665751,0.00412690,-0.02098826,-0.01
 511428,0.00127486,0.00355666,-0.00330187,0.00001209,-0.00114879,0.0008
 8243,-0.00014292,0.00033770,-0.00124151,-0.00001730,-0.00002126,0.0000
 5177,0.00008885,0.00005266,-0.00009175,0.00019481,0.00139476,0.0003658
 6,0.00002528,-0.00068683,0.00034830,0.00023474,-0.00004495,0.00150256,
 -0.00617287,0.12133524,0.13110926,0.00053688,-0.00086774,0.00036010,-0
 .00056025,-0.00080833,-0.00016472,-0.00730942,0.00114108,-0.00422423,-
 0.25445986,-0.02932065,-0.08754943,-0.02047337,-0.00067267,-0.00000880
 ,0.00055248,-0.00470580,0.00050928,0.00024379,0.00235250,-0.00136208,-
 0.00208721,-0.00010106,-0.00038167,0.00000630,-0.00005258,0.00004419,0
 .00008476,0.00010824,-0.00000196,0.00000325,0.00004687,0.00014660,0.00
 088154,0.00077285,-0.00121935,0.00010923,0.00030809,-0.00036118,0.0000
 1443,-0.00082560,-0.00079575,0.28153399,-0.00002314,-0.00009363,-0.000
 07200,0.00102568,0.00106317,-0.00074487,0.02524130,0.00272928,0.011155
 45,-0.03288887,-0.05013998,-0.01366199,-0.00076617,0.00027287,0.000209
 55,0.00042664,-0.00040684,-0.00046099,0.00032378,0.00056433,-0.0000755
 2,-0.00063572,-0.00012113,-0.00012286,-0.00002439,0.00015472,-0.000001
 09,-0.00028136,0.00028429,-0.00028906,-0.00032025,0.00040514,-0.000062
 87,0.00140623,-0.00364909,0.00390039,-0.00049837,0.00048319,-0.0002651
 6,-0.02600284,-0.00459470,-0.01163886,0.03264301,0.05402514,0.00037304
 ,-0.00034091,0.00003196,-0.00037443,-0.00113813,0.00077954,-0.01965510
 ,-0.00182761,-0.00810749,-0.08290789,-0.01188680,-0.07926961,0.0256841
 2,0.00140348,0.00850400,0.00058738,0.00382124,-0.00115267,0.00088083,-
 0.00252336,0.00197362,0.00077263,0.00056543,-0.00061470,-0.00015721,0.
 00010871,-0.00010024,0.00032751,-0.00013716,0.00014205,0.00015085,-0.0
 0006781,-0.00008188,-0.00036698,0.00330380,-0.00232731,0.00021898,-0.0
 0042006,-0.00003079,-0.01629255,-0.00292897,-0.00729145,0.09235645,0.0
 1266474,0.08987579,-0.00006558,-0.00011824,-0.00010804,0.00001845,0.00
 023748,0.00053613,-0.00301081,0.00102763,0.00104600,-0.00023707,-0.019
 38137,0.00699355,-0.04773241,-0.04264018,0.02868622,0.00297531,0.01805
 646,-0.00714789,0.00152294,0.00190884,0.00622077,0.00024890,0.00058324
 ,0.00000469,0.00004301,0.00003801,-0.00002384,-0.00001487,-0.00007450,
 0.00004327,-0.00006158,-0.00014964,-0.00010412,0.00019036,0.00016182,-
 0.00001080,0.00039379,-0.00078010,0.00052625,0.00105680,0.00055283,-0.
 00014899,-0.00104804,0.00010283,-0.00007283,0.04669617,-0.00010702,-0.
 00001288,0.00005137,0.00004327,0.00023228,-0.00021537,-0.00044572,0.00
 116759,-0.00004140,0.00130757,-0.00078030,-0.00133733,-0.03718759,-0.2
 9726181,0.08548879,-0.00630375,-0.02228607,0.00934607,0.00364567,0.000
 37135,-0.00246406,0.00061110,0.00067247,-0.00008596,0.00000084,-0.0000
 0285,0.00001204,0.00002306,-0.00001859,0.00000035,-0.00002098,-0.00000
 301,0.00002935,0.00000059,-0.00004602,-0.00006355,0.00006122,-0.000215
 19,0.00006263,-0.00013726,0.00138648,0.00019243,-0.00015725,-0.0001033
 6,0.00049550,0.03884824,0.31727542,-0.00004967,0.00021810,0.00022178,-
 0.00019287,-0.00052915,-0.00013947,0.00361369,-0.00029129,-0.00235816,
 0.00285250,0.01859422,-0.00655443,0.02564064,0.08829087,-0.06583533,-0
 .00183957,-0.01500560,0.00281853,0.00469298,-0.00213530,0.00415001,0.0
 0171018,0.00086051,-0.00065129,-0.00009311,-0.00007937,0.00003642,0.00
 002747,0.00005936,-0.00002910,-0.00004934,0.00019049,0.00002569,-0.000
 07240,-0.00006404,0.00010406,-0.00009545,0.00096552,-0.00104599,-0.000
 67401,0.00031978,0.00095542,0.00046718,0.00042986,-0.00064911,-0.03326
 873,-0.09122860,0.07071201,-0.00011017,0.00000271,0.00003410,0.0000733
 4,0.00010102,0.00009621,-0.00016066,-0.00024990,0.00003015,0.00519855,
 0.00445234,0.00348771,-0.00931190,-0.00708493,0.01404250,-0.18677942,-
 0.04521966,0.13778446,0.00156181,-0.00046730,0.00202180,0.00124273,-0.
 00037527,0.00054374,-0.00000015,0.00000447,-0.00003718,0.00002429,0.00
 000078,0.00001200,0.00000400,-0.00003893,-0.00002450,-0.00003288,-0.00
 007192,0.00004075,0.00004353,-0.00013943,0.00010018,-0.00126468,-0.000
 04814,0.00117626,0.00068352,0.00001800,-0.00110352,-0.00230300,-0.0002
 5077,-0.00342324,0.19136181,-0.00019201,0.00025181,0.00046930,-0.00050
 215,-0.00055266,-0.00066574,-0.00005032,-0.00035414,0.00027110,0.00197
 234,-0.00234302,0.00047297,0.01677969,0.00702982,-0.01682019,-0.042399
 05,-0.07041082,0.04434153,-0.02716959,-0.01431395,0.02119394,0.0036716
 0,-0.00427954,0.00257038,-0.00012909,-0.00004797,0.00005732,0.00011460
 ,0.00008697,-0.00005420,0.00002719,0.00009316,0.00005569,-0.00006080,0
 .00006571,-0.00001673,-0.00002657,0.00018147,-0.00002246,0.00047354,-0
 .00004442,-0.00055456,0.00045135,-0.00005516,-0.00043344,-0.00013871,0
 .00067295,-0.00090780,0.04994972,0.08321047,-0.00002879,0.00007233,0.0
 0001878,-0.00014584,-0.00019005,0.00017673,-0.00039052,-0.00046735,0.0
 0088912,0.00622959,0.00021963,0.00597472,0.01069727,0.00310713,-0.0057
 4586,0.13689373,0.04716759,-0.16335722,0.00628104,0.00089191,-0.001919
 56,-0.00187675,0.00016274,0.00125548,-0.00001989,-0.00000758,-0.000043
 99,-0.00000833,0.00003470,0.00001371,0.00000267,0.00006751,-0.00002773
 ,-0.00014007,0.00004653,0.00001469,0.00002886,-0.00014181,0.00000307,-
 0.00029520,-0.00009454,0.00046631,0.00129825,-0.00012492,-0.00175963,-
 0.00421330,-0.00096435,-0.00325092,-0.15382355,-0.05003162,0.16623102,
 -0.00058945,0.00042455,0.00158000,-0.00281723,-0.00167604,-0.00283367,
 -0.00006083,-0.00035164,-0.00041336,-0.00008263,-0.00000869,0.00057414
 ,0.00191989,-0.00207172,-0.00003323,-0.00174347,0.00230045,-0.00362358
 ,-0.13400646,0.09030441,0.14561756,-0.01726087,0.01600910,0.02147028,-
 0.00033800,-0.00031990,0.00016495,0.00003363,0.00005425,0.00001292,0.0
 0002166,0.00009968,0.00006674,0.00009117,0.00003860,0.00006749,0.00005
 401,0.00004562,-0.00006560,0.00003971,0.00000966,-0.00007548,0.0003081
 0,0.00003159,-0.00028390,0.00076545,0.00011707,0.00075578,-0.00011502,
 -0.00166602,-0.00092772,0.15379339,-0.00055743,0.00019039,0.00132507,-
 0.00335188,-0.00060193,-0.00056021,0.00009353,-0.00010908,-0.00013448,
 -0.00060987,0.00025182,0.00010075,-0.00335453,-0.00444901,0.00370903,0
 .02189416,-0.02438633,-0.02818976,0.09909071,-0.16702464,-0.14115809,-
 0.00993100,0.00816479,0.01321187,-0.00038741,-0.00021084,0.00017328,0.
 00002067,0.00004492,-0.00003455,0.00013108,-0.00004567,0.00019806,0.00
 001849,0.00005644,0.00003194,-0.00000130,0.00006431,0.00000421,0.00001
 963,0.00004497,-0.00003783,-0.00002836,-0.00006159,0.00002484,0.001466
 96,-0.00105081,-0.00004900,-0.00028352,0.00115234,0.00049266,-0.102796
 59,0.18781969,0.00028629,-0.00002263,-0.00124892,0.00347222,0.00123117
 ,0.00080337,-0.00023039,0.00028114,0.00050589,-0.00057832,0.00024565,-
 0.00015598,0.00049528,0.00076252,0.00012719,-0.01045897,0.01365498,0.0
 0136680,0.17560651,-0.16493236,-0.20819237,-0.00454117,-0.00321893,-0.
 00776923,0.00041091,0.00012768,-0.00000305,0.00004259,0.00003735,-0.00
 001730,-0.00023185,0.00027758,-0.00035686,0.00009357,-0.00000309,0.000
 04004,0.00005730,-0.00002245,0.00001998,0.00000029,-0.00008600,0.00006
 780,0.00002869,0.00003297,0.00002561,0.00111074,0.00067632,0.00136447,
 -0.00114848,0.00002043,0.00111072,-0.16241942,0.15017855,0.21110062,0.
 00065565,0.00027999,0.00018776,0.00036314,0.00704948,-0.00017004,-0.00
 039877,-0.00029104,0.00090748,-0.00018643,-0.00024006,0.00007245,0.000
 09731,-0.00055363,0.00035323,-0.00526243,0.00116012,0.00010246,-0.0043
 2019,-0.03811760,-0.00421581,-0.05224470,0.02166714,0.00400773,0.00005
 874,-0.00030293,-0.00007806,-0.00038730,-0.00030837,0.00028558,0.00037
 165,-0.00051112,-0.00016845,0.00006015,0.00004827,0.00016271,0.0002395
 8,0.00045161,0.00012736,0.00013839,0.00003220,0.00001368,0.00025358,-0
 .00012671,-0.00019805,0.00036308,-0.00002391,0.00006221,-0.00009659,-0
 .00121776,0.00038377,0.00209787,-0.00084108,-0.00006100,0.05760817,0.0
 0046890,0.00056531,-0.00005495,0.00003906,-0.00438813,0.00030627,0.000
 39009,0.00119098,-0.00054380,-0.00017915,0.00062868,0.00023804,-0.0004
 5651,0.00010203,0.00019092,-0.00270351,0.00072424,0.00011607,-0.000372
 84,-0.01463207,-0.00165002,0.01086904,-0.29012872,-0.05177058,0.000216
 03,0.00029862,-0.00017711,0.00076286,0.00008831,-0.00051428,-0.0002229
 8,0.00150865,-0.00032315,-0.00005866,-0.00006475,-0.00006990,-0.000070
 19,-0.00017186,-0.00033134,0.00002088,-0.00001067,-0.00007617,0.000047
 42,0.00013889,0.00010493,-0.00000120,-0.00005161,-0.00001492,-0.000273
 99,-0.00067446,-0.00007888,-0.00010224,0.00059276,0.00101493,-0.009376
 75,0.31657920,-0.00154580,0.00008294,0.00074443,0.00156499,-0.03374627
 ,-0.01003761,0.00332247,0.00116924,-0.00548460,-0.00000336,0.00070781,
 -0.00037896,0.00054678,0.00034096,-0.00001048,0.00139280,0.00098916,0.
 00037289,0.00199737,0.00956093,0.00011118,0.00117855,-0.05379783,-0.05
 744738,-0.00009343,0.00028611,-0.00003300,0.00078047,0.00048772,0.0002
 5516,-0.00059675,0.00005127,0.00157045,-0.00011826,0.00005082,0.000011
 39,-0.00045234,-0.00188016,-0.00102926,0.00005207,-0.00005096,0.000142
 24,0.00006205,-0.00017604,0.00005388,-0.00010125,-0.00001946,0.0000775
 9,0.00013644,0.00033315,-0.00005208,-0.00014153,0.00081999,0.00115312,
 -0.00740961,0.05699145,0.06525202,0.00122392,-0.00001791,0.00156597,0.
 00322497,-0.00146459,0.00287066,0.00005357,-0.00034970,-0.00006751,-0.
 00060922,0.00013310,-0.00011974,0.00118301,-0.00190830,-0.00023467,0.0
 0079865,0.00849621,-0.00009277,-0.03742403,-0.00006088,-0.00816458,-0.
 15758109,0.07149661,-0.09744929,0.00016774,-0.00015039,0.00020716,0.00
 012839,0.00002076,-0.00028764,-0.00043987,-0.00016708,0.00129191,0.000
 03224,0.00004439,0.00012242,0.00005234,0.00009717,-0.00006599,0.000214
 39,0.00007408,0.00001501,0.00072630,0.00034876,0.00006070,0.00019910,-
 0.00002438,-0.00006425,-0.00001911,0.00011203,0.00005478,-0.00211092,-
 0.00059226,-0.00193479,0.00058911,0.00100375,-0.00057165,0.18959050,-0
 .00044856,0.00008282,0.00000027,-0.00201732,0.00252177,-0.00234151,-0.
 00031103,0.00046935,-0.00006971,0.00059517,-0.00076127,-0.00097448,0.0
 0207164,0.00060499,0.00072727,-0.00326192,0.00478520,-0.00177138,-0.01
 436731,0.00403146,-0.00539653,0.07448021,-0.09899540,0.05927969,-0.000
 35158,-0.00000490,-0.00019436,0.00025831,-0.00043961,0.00062026,-0.000
 22977,0.00110264,-0.00061991,-0.00000210,0.00002944,0.00004871,0.00003
 303,-0.00003511,0.00016760,-0.00008033,0.00006906,-0.00029479,-0.00033
 136,-0.00089555,-0.00078842,0.00029959,0.00005396,0.00037638,-0.000025
 27,0.00033145,-0.00016163,-0.00044212,-0.00044252,-0.00025581,0.021222
 15,-0.01229541,0.01779916,-0.07709140,0.09978759,-0.00100724,-0.000274
 64,0.00337649,-0.02259341,0.01740294,-0.02400808,0.00013189,0.00088829
 ,0.00091906,-0.00046355,-0.00027182,-0.00020378,-0.00123230,-0.0005302
 7,-0.00019529,0.00092692,-0.00139042,0.00117470,0.00690256,-0.00263576
 ,0.00797085,-0.09526187,0.05864404,-0.13064575,0.00006190,-0.00055382,
 0.00074839,-0.00000062,0.00050899,-0.00039353,0.00221906,-0.00116596,-
 0.00613917,0.00009907,0.00002970,0.00015643,0.00009493,-0.00020957,0.0
 0007520,0.00023343,0.00008351,0.00024692,0.00079638,-0.00069673,-0.000
 00160,0.00003215,0.00006523,0.00004783,0.00005414,-0.00027907,0.000002
 63,0.00050765,-0.00010631,0.00005810,0.00563460,-0.00335751,0.00472901
 ,0.10286429,-0.06615081,0.14208160\\-0.00000984,0.00000064,-0.00000358
 ,0.00001226,-0.00000135,0.00000456,-0.00000296,0.00000771,-0.00001388,
 0.00000261,-0.00001602,0.00001693,0.00000017,0.00000132,-0.00000788,0.
 00000627,0.00000164,-0.00000033,0.00001578,-0.00000246,0.00000429,-0.0
 0002797,-0.00000419,0.00000217,0.00000181,0.00000003,0.00000163,0.0000
 0008,-0.00000205,0.00000580,-0.00000154,0.00000335,-0.00000182,0.00000
 311,0.00000509,-0.00000219,0.00000031,0.00000020,0.00000141,-0.0000022
 4,0.00000303,-0.00000152,-0.00000276,0.00000604,-0.00000455,-0.0000017
 6,-0.00000099,-0.00000333,-0.00000266,0.00000337,-0.00000285,0.0000016
 2,-0.00000253,-0.00000082,0.00000208,-0.00000172,0.00000243,0.00000563
 ,-0.00000111,0.00000352\\\@


 SUCCESS IS NEVER CERTAIN,
 FAILURE IS NEVER FINAL.
 Job cpu time:       0 days  2 hours  3 minutes 44.6 seconds.
 Elapsed time:       0 days  0 hours 30 minutes 56.6 seconds.
 File lengths (MBytes):  RWF=    124 Int=      0 D2E=      0 Chk=      8 Scr=      1
 Normal termination of Gaussian 16 at Sun Jul  3 16:38:06 2022.
### All Done ###
