### Starting Gaussian ###
 Entering Gaussian System, Link 0=g16
 Initial command:
 /cluster/software/gaussian/gaussian-16-A.03/avx2/g16/l1.exe "/local/scratch/ks29c/Gau-10067.inp" -scrdir="/local/scratch/ks29c/"
 Entering Link 1 = /cluster/software/gaussian/gaussian-16-A.03/avx2/g16/l1.exe PID=     10076.
  
 Copyright (c) 1988,1990,1992,1993,1995,1998,2003,2009,2016,
            Gaussian, Inc.  All Rights Reserved.
  
 This is part of the Gaussian(R) 16 program.  It is based on
 the Gaussian(R) 09 system (copyright 2009, Gaussian, Inc.),
 the Gaussian(R) 03 system (copyright 2003, Gaussian, Inc.),
 the Gaussian(R) 98 system (copyright 1998, Gaussian, Inc.),
 the Gaussian(R) 94 system (copyright 1995, Gaussian, Inc.),
 the Gaussian 92(TM) system (copyright 1992, Gaussian, Inc.),
 the Gaussian 90(TM) system (copyright 1990, Gaussian, Inc.),
 the Gaussian 88(TM) system (copyright 1988, Gaussian, Inc.),
 the Gaussian 86(TM) system (copyright 1986, Carnegie Mellon
 University), and the Gaussian 82(TM) system (copyright 1983,
 Carnegie Mellon University). Gaussian is a federally registered
 trademark of Gaussian, Inc.
  
 This software contains proprietary and confidential information,
 including trade secrets, belonging to Gaussian, Inc.
  
 This software is provided under written license and may be
 used, copied, transmitted, or stored only in accord with that
 written license.
  
 The following legend is applicable only to US Government
 contracts under FAR:
  
                    RESTRICTED RIGHTS LEGEND
  
 Use, reproduction and disclosure by the US Government is
 subject to restrictions as set forth in subparagraphs (a)
 and (c) of the Commercial Computer Software - Restricted
 Rights clause in FAR 52.227-19.
  
 Gaussian, Inc.
 340 Quinnipiac St., Bldg. 40, Wallingford CT 06492
  
  
 ---------------------------------------------------------------
 Warning -- This program may not be used in any manner that
 competes with the business of Gaussian, Inc. or will provide
 assistance to any competitor of Gaussian, Inc.  The licensee
 of this program is prohibited from giving any competitor of
 Gaussian, Inc. access to this program.  By using this program,
 the user acknowledges that Gaussian, Inc. is engaged in the
 business of creating and licensing software in the field of
 computational chemistry and represents and warrants to the
 licensee that it is not a competitor of Gaussian, Inc. and that
 it will not use this program in any manner prohibited above.
 ---------------------------------------------------------------
  

 Cite this work as:
 Gaussian 16, Revision A.03,
 M. J. Frisch, G. W. Trucks, H. B. Schlegel, G. E. Scuseria, 
 M. A. Robb, J. R. Cheeseman, G. Scalmani, V. Barone, 
 G. A. Petersson, H. Nakatsuji, X. Li, M. Caricato, A. V. Marenich, 
 J. Bloino, B. G. Janesko, R. Gomperts, B. Mennucci, H. P. Hratchian, 
 J. V. Ortiz, A. F. Izmaylov, J. L. Sonnenberg, D. Williams-Young, 
 F. Ding, F. Lipparini, F. Egidi, J. Goings, B. Peng, A. Petrone, 
 T. Henderson, D. Ranasinghe, V. G. Zakrzewski, J. Gao, N. Rega, 
 G. Zheng, W. Liang, M. Hada, M. Ehara, K. Toyota, R. Fukuda, 
 J. Hasegawa, M. Ishida, T. Nakajima, Y. Honda, O. Kitao, H. Nakai, 
 T. Vreven, K. Throssell, J. A. Montgomery, Jr., J. E. Peralta, 
 F. Ogliaro, M. J. Bearpark, J. J. Heyd, E. N. Brothers, K. N. Kudin, 
 V. N. Staroverov, T. A. Keith, R. Kobayashi, J. Normand, 
 K. Raghavachari, A. P. Rendell, J. C. Burant, S. S. Iyengar, 
 J. Tomasi, M. Cossi, J. M. Millam, M. Klene, C. Adamo, R. Cammi, 
 J. W. Ochterski, R. L. Martin, K. Morokuma, O. Farkas, 
 J. B. Foresman, and D. J. Fox, Gaussian, Inc., Wallingford CT, 2016.
 
 ******************************************
 Gaussian 16:  ES64L-G16RevA.03 25-Dec-2016
                 3-Jul-2022 
 ******************************************
 %chk=NC1dNCpdOpCpdOpO1.chk
 %NProcShared=20
 Will use up to   20 processors via shared memory.
 -----------------------------
 # opt freq b3lyp/6-31g(2df,p)
 -----------------------------
 1/18=20,19=15,26=3,38=1/1,3;
 2/9=110,12=2,17=6,18=5,40=1/2;
 3/5=1,6=6,7=104,11=2,25=1,30=1,71=1,74=-5/1,2,3;
 4//1;
 5/5=2,38=5/2;
 6/7=2,8=2,9=2,10=2,28=1/1;
 7//1,2,3,16;
 1/18=20,19=15,26=3/3(2);
 2/9=110/2;
 99//99;
 2/9=110/2;
 3/5=1,6=6,7=104,11=2,25=1,30=1,71=1,74=-5/1,2,3;
 4/5=5,16=3,69=1/1;
 5/5=2,38=5/2;
 7//1,2,3,16;
 1/18=20,19=15,26=3/3(-5);
 2/9=110/2;
 6/7=2,8=2,9=2,10=2,19=2,28=1/1;
 99/9=1/99;
 -------------------
 Title Card Required
 -------------------
 Symbolic Z-matrix:
 Charge =  0 Multiplicity = 1
 N                     1.25464   0.11998  -0.02282 
 C                     2.59393   0.01121  -0.08315 
 N                     3.26087  -1.08874  -0.0557 
 C                     4.55528  -0.65335  -0.13747 
 O                     5.55973  -1.32324   0.02378 
 C                     4.58855   0.8528   -0.38378 
 O                     5.51276   1.55923  -0.71911 
 O                     3.27598   1.18051  -0.21179 
 H                     0.70417  -0.72826  -0.08064 
 H                     0.76921   1.00638  -0.03159 
 

 GradGradGradGradGradGradGradGradGradGradGradGradGradGradGradGradGradGrad
 Berny optimization.
 Initialization pass.
                           ----------------------------
                           !    Initial Parameters    !
                           ! (Angstroms and Degrees)  !
 --------------------------                            --------------------------
 ! Name  Definition              Value          Derivative Info.                !
 --------------------------------------------------------------------------------
 ! R1    R(1,2)                  1.3451         estimate D2E/DX2                !
 ! R2    R(1,9)                  1.0129         estimate D2E/DX2                !
 ! R3    R(1,10)                 1.0107         estimate D2E/DX2                !
 ! R4    R(2,3)                  1.2866         estimate D2E/DX2                !
 ! R5    R(2,8)                  1.3598         estimate D2E/DX2                !
 ! R6    R(3,4)                  1.3681         estimate D2E/DX2                !
 ! R7    R(4,5)                  1.2181         estimate D2E/DX2                !
 ! R8    R(4,6)                  1.5265         estimate D2E/DX2                !
 ! R9    R(6,7)                  1.2106         estimate D2E/DX2                !
 ! R10   R(6,8)                  1.3638         estimate D2E/DX2                !
 ! A1    A(2,1,9)              118.0909         estimate D2E/DX2                !
 ! A2    A(2,1,10)             123.284          estimate D2E/DX2                !
 ! A3    A(9,1,10)             118.2276         estimate D2E/DX2                !
 ! A4    A(1,2,3)              125.7543         estimate D2E/DX2                !
 ! A5    A(1,2,8)              115.7308         estimate D2E/DX2                !
 ! A6    A(3,2,8)              118.5001         estimate D2E/DX2                !
 ! A7    A(2,3,4)              102.5383         estimate D2E/DX2                !
 ! A8    A(3,4,5)              126.6746         estimate D2E/DX2                !
 ! A9    A(3,4,6)              110.1365         estimate D2E/DX2                !
 ! A10   A(5,4,6)              123.0939         estimate D2E/DX2                !
 ! A11   A(4,6,7)              129.573          estimate D2E/DX2                !
 ! A12   A(4,6,8)              101.2896         estimate D2E/DX2                !
 ! A13   A(7,6,8)              129.0109         estimate D2E/DX2                !
 ! A14   A(2,8,6)              106.7416         estimate D2E/DX2                !
 ! D1    D(9,1,2,3)             -8.453          estimate D2E/DX2                !
 ! D2    D(9,1,2,8)            170.1201         estimate D2E/DX2                !
 ! D3    D(10,1,2,3)           178.9228         estimate D2E/DX2                !
 ! D4    D(10,1,2,8)            -2.5041         estimate D2E/DX2                !
 ! D5    D(1,2,3,4)           -179.7324         estimate D2E/DX2                !
 ! D6    D(8,2,3,4)              1.7303         estimate D2E/DX2                !
 ! D7    D(1,2,8,6)           -174.289          estimate D2E/DX2                !
 ! D8    D(3,2,8,6)              4.3933         estimate D2E/DX2                !
 ! D9    D(2,3,4,5)            169.899          estimate D2E/DX2                !
 ! D10   D(2,3,4,6)             -6.6214         estimate D2E/DX2                !
 ! D11   D(3,4,6,7)           -167.0236         estimate D2E/DX2                !
 ! D12   D(3,4,6,8)              9.1172         estimate D2E/DX2                !
 ! D13   D(5,4,6,7)             16.3075         estimate D2E/DX2                !
 ! D14   D(5,4,6,8)           -167.5517         estimate D2E/DX2                !
 ! D15   D(4,6,8,2)             -7.5082         estimate D2E/DX2                !
 ! D16   D(7,6,8,2)            168.6634         estimate D2E/DX2                !
 --------------------------------------------------------------------------------
 Trust Radius=3.00D-01 FncErr=1.00D-07 GrdErr=1.00D-06 EigMax=2.50D+02 EigMin=1.00D-04
 Number of steps in this run=     50 maximum allowed number of steps=    100.
 GradGradGradGradGradGradGradGradGradGradGradGradGradGradGradGradGradGrad

                          Input orientation:                          
 ---------------------------------------------------------------------
 Center     Atomic      Atomic             Coordinates (Angstroms)
 Number     Number       Type             X           Y           Z
 ---------------------------------------------------------------------
      1          7           0        1.254640    0.119980   -0.022820
      2          6           0        2.593930    0.011210   -0.083150
      3          7           0        3.260870   -1.088740   -0.055700
      4          6           0        4.555280   -0.653350   -0.137470
      5          8           0        5.559730   -1.323240    0.023780
      6          6           0        4.588550    0.852800   -0.383780
      7          8           0        5.512760    1.559230   -0.719110
      8          8           0        3.275980    1.180510   -0.211790
      9          1           0        0.704170   -0.728260   -0.080640
     10          1           0        0.769210    1.006380   -0.031590
 ---------------------------------------------------------------------
                    Distance matrix (angstroms):
                    1          2          3          4          5
     1  N    0.000000
     2  C    1.345053   0.000000
     3  N    2.342444   1.286644   0.000000
     4  C    3.391962   2.071590   1.368118   0.000000
     5  O    4.540799   3.253945   2.312156   1.218062   0.000000
     6  C    3.432532   2.185672   2.374858   1.526520   2.417529
     7  O    4.548389   3.364577   3.538766   2.480037   2.977033
     8  O    2.290469   1.359780   2.274662   2.237225   3.397024
     9  H    1.012853   2.029289   2.582108   3.852258   4.892992
    10  H    1.010655   2.079092   3.255530   4.135244   5.327220
                    6          7          8          9         10
     6  C    0.000000
     7  O    1.210642   0.000000
     8  O    1.363750   2.324648   0.000000
     9  H    4.204765   5.363095   3.205434   0.000000
    10  H    3.838617   4.824893   2.519264   1.736552   0.000000
 Stoichiometry    C3H2N2O3
 Framework group  C1[X(C3H2N2O3)]
 Deg. of freedom    24
 Full point group                 C1      NOp   1
 Largest Abelian subgroup         C1      NOp   1
 Largest concise Abelian subgroup C1      NOp   1
                         Standard orientation:                         
 ---------------------------------------------------------------------
 Center     Atomic      Atomic             Coordinates (Angstroms)
 Number     Number       Type             X           Y           Z
 ---------------------------------------------------------------------
      1          7           0       -2.514737   -0.053153    0.009073
      2          6           0       -1.176475    0.080363   -0.010845
      3          7           0       -0.529356    1.185858    0.109866
      4          6           0        0.773557    0.778996    0.016963
      5          8           0        1.752899    1.494501   -0.095354
      6          6           0        0.847183   -0.745449   -0.013200
      7          8           0        1.804511   -1.474179    0.121439
      8          8           0       -0.469970   -1.073818   -0.143957
      9          1           0       -3.071081    0.755784    0.258020
     10          1           0       -2.985388   -0.940209   -0.105130
 ---------------------------------------------------------------------
 Rotational constants (GHZ):           4.0391696           2.0313764           1.3586430
 Standard basis: 6-31G(2df,p) (6D, 7F)
 There are   258 symmetry adapted cartesian basis functions of A   symmetry.
 There are   234 symmetry adapted basis functions of A   symmetry.
   234 basis functions,   366 primitive gaussians,   258 cartesian basis functions
    29 alpha electrons       29 beta electrons
       nuclear repulsion energy       359.3935059788 Hartrees.
 NAtoms=   10 NActive=   10 NUniq=   10 SFac= 1.00D+00 NAtFMM=   60 NAOKFM=F Big=F
 Integral buffers will be    131072 words long.
 Raffenetti 2 integral format.
 Two-electron integral symmetry is turned on.
 One-electron integrals computed using PRISM.
 PrsmSu:  requested number of processors reduced to:  13 ShMem   1 Linda.
 NBasis=   234 RedAO= T EigKep=  2.07D-04  NBF=   234
 NBsUse=   234 1.00D-06 EigRej= -1.00D+00 NBFU=   234
 ExpMin= 1.61D-01 ExpMax= 5.48D+03 ExpMxC= 8.25D+02 IAcc=3 IRadAn=         5 AccDes= 0.00D+00
 Harris functional with IExCor=  402 and IRadAn=       5 diagonalized for initial guess.
 HarFok:  IExCor=  402 AccDes= 0.00D+00 IRadAn=         5 IDoV= 1 UseB2=F ITyADJ=14
 ICtDFT=  3500011 ScaDFX=  1.000000  1.000000  1.000000  1.000000
 FoFCou: FMM=F IPFlag=           0 FMFlag=      100000 FMFlg1=           0
         NFxFlg=           0 DoJE=T BraDBF=F KetDBF=T FulRan=T
         wScrn=  0.000000 ICntrl=       500 IOpCl=  0 I1Cent=   200000004 NGrid=           0
         NMat0=    1 NMatS0=      1 NMatT0=    0 NMatD0=    1 NMtDS0=    0 NMtDT0=    0
 Petite list used in FoFCou.
 Requested convergence on RMS density matrix=1.00D-08 within 128 cycles.
 Requested convergence on MAX density matrix=1.00D-06.
 Requested convergence on             energy=1.00D-06.
 No special actions if energy rises.
 Integral accuracy reduced to 1.0D-05 until final iterations.
 Initial convergence to 1.0D-05 achieved.  Increase integral accuracy.
 SCF Done:  E(RB3LYP) =  -450.724593731     A.U. after   15 cycles
            NFock= 15  Conv=0.37D-08     -V/T= 2.0061

 **********************************************************************

            Population analysis using the SCF density.

 **********************************************************************

 Orbital symmetries:
       Occupied  (A) (A) (A) (A) (A) (A) (A) (A) (A) (A) (A) (A)
                 (A) (A) (A) (A) (A) (A) (A) (A) (A) (A) (A) (A)
                 (A) (A) (A) (A) (A)
       Virtual   (A) (A) (A) (A) (A) (A) (A) (A) (A) (A) (A) (A)
                 (A) (A) (A) (A) (A) (A) (A) (A) (A) (A) (A) (A)
                 (A) (A) (A) (A) (A) (A) (A) (A) (A) (A) (A) (A)
                 (A) (A) (A) (A) (A) (A) (A) (A) (A) (A) (A) (A)
                 (A) (A) (A) (A) (A) (A) (A) (A) (A) (A) (A) (A)
                 (A) (A) (A) (A) (A) (A) (A) (A) (A) (A) (A) (A)
                 (A) (A) (A) (A) (A) (A) (A) (A) (A) (A) (A) (A)
                 (A) (A) (A) (A) (A) (A) (A) (A) (A) (A) (A) (A)
                 (A) (A) (A) (A) (A) (A) (A) (A) (A) (A) (A) (A)
                 (A) (A) (A) (A) (A) (A) (A) (A) (A) (A) (A) (A)
                 (A) (A) (A) (A) (A) (A) (A) (A) (A) (A) (A) (A)
                 (A) (A) (A) (A) (A) (A) (A) (A) (A) (A) (A) (A)
                 (A) (A) (A) (A) (A) (A) (A) (A) (A) (A) (A) (A)
                 (A) (A) (A) (A) (A) (A) (A) (A) (A) (A) (A) (A)
                 (A) (A) (A) (A) (A) (A) (A) (A) (A) (A) (A) (A)
                 (A) (A) (A) (A) (A) (A) (A) (A) (A) (A) (A) (A)
                 (A) (A) (A) (A) (A) (A) (A) (A) (A) (A) (A) (A)
                 (A)
 The electronic state is 1-A.
 Alpha  occ. eigenvalues --  -19.24663 -19.17489 -19.13506 -14.41404 -14.34040
 Alpha  occ. eigenvalues --  -10.36463 -10.34314 -10.29639  -1.18572  -1.07157
 Alpha  occ. eigenvalues --   -1.04635  -0.98953  -0.94040  -0.73840  -0.65277
 Alpha  occ. eigenvalues --   -0.63314  -0.56960  -0.55081  -0.53450  -0.48831
 Alpha  occ. eigenvalues --   -0.46103  -0.42784  -0.42365  -0.40397  -0.35122
 Alpha  occ. eigenvalues --   -0.34913  -0.31345  -0.28706  -0.26067
 Alpha virt. eigenvalues --   -0.09143   0.01261   0.03937   0.07994   0.08319
 Alpha virt. eigenvalues --    0.13600   0.20178   0.23527   0.24124   0.26974
 Alpha virt. eigenvalues --    0.30537   0.34128   0.37371   0.41731   0.42885
 Alpha virt. eigenvalues --    0.44872   0.47385   0.48081   0.52172   0.52952
 Alpha virt. eigenvalues --    0.54530   0.56214   0.57416   0.60529   0.62094
 Alpha virt. eigenvalues --    0.64115   0.65145   0.68047   0.69274   0.69696
 Alpha virt. eigenvalues --    0.71119   0.72780   0.74879   0.78578   0.80605
 Alpha virt. eigenvalues --    0.83508   0.87218   0.88937   0.90538   0.93273
 Alpha virt. eigenvalues --    0.94838   0.96485   0.97138   0.98812   0.99981
 Alpha virt. eigenvalues --    1.01655   1.02114   1.05739   1.07503   1.08609
 Alpha virt. eigenvalues --    1.13476   1.17228   1.21168   1.24015   1.26358
 Alpha virt. eigenvalues --    1.28217   1.31038   1.31958   1.35285   1.35851
 Alpha virt. eigenvalues --    1.39688   1.42711   1.43552   1.46060   1.49518
 Alpha virt. eigenvalues --    1.53151   1.53344   1.56478   1.61210   1.62761
 Alpha virt. eigenvalues --    1.64865   1.70450   1.74928   1.76777   1.79498
 Alpha virt. eigenvalues --    1.82868   1.84212   1.89568   1.92338   1.98441
 Alpha virt. eigenvalues --    2.04582   2.05627   2.16191   2.22469   2.23792
 Alpha virt. eigenvalues --    2.30085   2.34358   2.42852   2.46465   2.61115
 Alpha virt. eigenvalues --    2.65819   2.68996   2.84055   2.84175   2.88821
 Alpha virt. eigenvalues --    2.89001   2.95851   2.99656   3.04450   3.04724
 Alpha virt. eigenvalues --    3.07264   3.07960   3.14058   3.15495   3.17198
 Alpha virt. eigenvalues --    3.20363   3.23398   3.29481   3.36012   3.38191
 Alpha virt. eigenvalues --    3.50180   3.56582   3.64594   3.69911   3.75376
 Alpha virt. eigenvalues --    3.77819   3.80483   3.85117   3.87262   3.97138
 Alpha virt. eigenvalues --    3.99031   3.99923   4.02193   4.06023   4.06462
 Alpha virt. eigenvalues --    4.07959   4.08383   4.09841   4.11828   4.12555
 Alpha virt. eigenvalues --    4.15869   4.17899   4.20632   4.23056   4.28060
 Alpha virt. eigenvalues --    4.29224   4.32558   4.35039   4.35986   4.40132
 Alpha virt. eigenvalues --    4.40702   4.42142   4.43645   4.45098   4.48239
 Alpha virt. eigenvalues --    4.49173   4.53180   4.55139   4.58772   4.59982
 Alpha virt. eigenvalues --    4.63985   4.68325   4.70331   4.72485   4.74892
 Alpha virt. eigenvalues --    4.78875   4.80847   4.83074   4.89627   4.94026
 Alpha virt. eigenvalues --    5.00668   5.03747   5.05512   5.08711   5.10512
 Alpha virt. eigenvalues --    5.14659   5.18047   5.21874   5.27835   5.32962
 Alpha virt. eigenvalues --    5.35412   5.38115   5.44740   5.49415   5.53861
 Alpha virt. eigenvalues --    5.59055   5.61650   5.70839   5.74341   5.77035
 Alpha virt. eigenvalues --    5.86487   5.92079   5.97313   6.00088   6.06935
 Alpha virt. eigenvalues --    6.07937   6.18373   6.43922   6.48844   6.50932
 Alpha virt. eigenvalues --    6.66524   6.80009   6.89315   6.98604   7.19605
 Alpha virt. eigenvalues --   10.24613  10.94272  11.22374  11.37212  11.81806
 Alpha virt. eigenvalues --   13.00349  13.17844  13.35288  14.49748  18.67795
          Condensed to atoms (all electrons):
               1          2          3          4          5          6
     1  N    6.537964   0.404312  -0.016802  -0.007014  -0.000044  -0.000760
     2  C    0.404312   4.269403   0.564833  -0.090785  -0.005995  -0.074926
     3  N   -0.016802   0.564833   6.633579   0.347103  -0.029283  -0.102578
     4  C   -0.007014  -0.090785   0.347103   4.531304   0.733949   0.355724
     5  O   -0.000044  -0.005995  -0.029283   0.733949   7.673467  -0.062797
     6  C   -0.000760  -0.074926  -0.102578   0.355724  -0.062797   4.498834
     7  O   -0.000036  -0.001615   0.001931  -0.044701   0.001750   0.752230
     8  O   -0.031419   0.439102  -0.045636  -0.092782   0.001805   0.275127
     9  H    0.343213  -0.016512   0.001161   0.000621  -0.000006  -0.000217
    10  H    0.346473  -0.023009   0.002339  -0.000107   0.000000   0.000554
               7          8          9         10
     1  N   -0.000036  -0.031419   0.343213   0.346473
     2  C   -0.001615   0.439102  -0.016512  -0.023009
     3  N    0.001931  -0.045636   0.001161   0.002339
     4  C   -0.044701  -0.092782   0.000621  -0.000107
     5  O    0.001750   0.001805  -0.000006   0.000000
     6  C    0.752230   0.275127  -0.000217   0.000554
     7  O    7.618829  -0.021917   0.000001  -0.000003
     8  O   -0.021917   7.675377   0.001791   0.003065
     9  H    0.000001   0.001791   0.390761  -0.021354
    10  H   -0.000003   0.003065  -0.021354   0.396914
 Mulliken charges:
               1
     1  N   -0.575887
     2  C    0.535192
     3  N   -0.356647
     4  C    0.266689
     5  O   -0.312846
     6  C    0.358809
     7  O   -0.306469
     8  O   -0.204512
     9  H    0.300542
    10  H    0.295129
 Sum of Mulliken charges =  -0.00000
 Mulliken charges with hydrogens summed into heavy atoms:
               1
     1  N    0.019784
     2  C    0.535192
     3  N   -0.356647
     4  C    0.266689
     5  O   -0.312846
     6  C    0.358809
     7  O   -0.306469
     8  O   -0.204512
 Electronic spatial extent (au):  <R**2>=            797.0679
 Charge=             -0.0000 electrons
 Dipole moment (field-independent basis, Debye):
    X=             -6.9353    Y=             -1.7863    Z=              0.0723  Tot=              7.1620
 Quadrupole moment (field-independent basis, Debye-Ang):
   XX=            -36.1650   YY=            -50.4070   ZZ=            -41.6511
   XY=              0.5902   XZ=             -0.6908   YZ=              0.6740
 Traceless Quadrupole moment (field-independent basis, Debye-Ang):
   XX=              6.5761   YY=             -7.6660   ZZ=              1.0899
   XY=              0.5902   XZ=             -0.6908   YZ=              0.6740
 Octapole moment (field-independent basis, Debye-Ang**2):
  XXX=            -62.9883  YYY=            -10.2454  ZZZ=             -0.4135  XYY=            -13.5043
  XXY=             -4.2738  XXZ=              2.3002  XZZ=              3.5471  YZZ=             -1.7717
  YYZ=             -0.3251  XYZ=             -0.3627
 Hexadecapole moment (field-independent basis, Debye-Ang**3):
 XXXX=           -464.6629 YYYY=           -325.5708 ZZZZ=            -35.8140 XXXY=              2.6429
 XXXZ=             -8.6148 YYYX=              5.9792 YYYZ=              0.4617 ZZZX=              0.0404
 ZZZY=             -0.4496 XXYY=           -149.3757 XXZZ=           -106.6658 YYZZ=            -54.9484
 XXYZ=              7.5364 YYXZ=             -0.1108 ZZXY=              0.5234
 N-N= 3.593935059788D+02 E-N=-1.775326613680D+03  KE= 4.479975868374D+02
 PrsmSu:  requested number of processors reduced to:  13 ShMem   1 Linda.
 Calling FoFJK, ICntrl=      2127 FMM=F ISym2X=0 I1Cent= 0 IOpClX= 0 NMat=1 NMatS=1 NMatT=0.
 ***** Axes restored to original set *****
 -------------------------------------------------------------------
 Center     Atomic                   Forces (Hartrees/Bohr)
 Number     Number              X              Y              Z
 -------------------------------------------------------------------
      1        7           0.003302629    0.000254678   -0.000882117
      2        6          -0.028946699   -0.000013580   -0.001891308
      3        7          -0.008041698   -0.002410609    0.001325216
      4        6           0.053169211   -0.034938644    0.009351400
      5        8          -0.014489706    0.011950782   -0.007008967
      6        6           0.044561939   -0.001109487   -0.015750174
      7        8          -0.042483976   -0.013845677    0.016578327
      8        8          -0.018696268    0.038654537   -0.003050119
      9        1           0.005092556    0.003472208    0.002624797
     10        1           0.006532012   -0.002014207   -0.001297054
 -------------------------------------------------------------------
 Cartesian Forces:  Max     0.053169211 RMS     0.019929297

 GradGradGradGradGradGradGradGradGradGradGradGradGradGradGradGradGradGrad
 Berny optimization.
 FormGI is forming the generalized inverse of G from B-inverse, IUseBI=4.
 Internal  Forces:  Max     0.045103634 RMS     0.012729493
 Search for a local minimum.
 Step number   1 out of a maximum of   50
 All quantities printed in internal units (Hartrees-Bohrs-Radians)
 Mixed Optimization -- RFO/linear search
 Second derivative matrix not updated -- first step.
 ITU=  0
     Eigenvalues ---    0.00868   0.01263   0.01544   0.02419   0.02471
     Eigenvalues ---    0.02491   0.02672   0.16000   0.16000   0.24840
     Eigenvalues ---    0.24941   0.24970   0.24983   0.24996   0.29161
     Eigenvalues ---    0.45498   0.45863   0.47319   0.50390   0.51931
     Eigenvalues ---    0.56087   0.67488   0.96247   0.99653
 RFO step:  Lambda=-1.61462759D-02 EMin= 8.68187827D-03
 Linear search not attempted -- first point.
 Iteration  1 RMS(Cart)=  0.05770641 RMS(Int)=  0.00242304
 Iteration  2 RMS(Cart)=  0.00252695 RMS(Int)=  0.00072181
 Iteration  3 RMS(Cart)=  0.00000207 RMS(Int)=  0.00072181
 Iteration  4 RMS(Cart)=  0.00000000 RMS(Int)=  0.00072181
 Variable       Old X    -DE/DX   Delta X   Delta X   Delta X     New X
                                 (Linear)    (Quad)   (Total)
    R1        2.54178  -0.01470   0.00000  -0.02548  -0.02548   2.51630
    R2        1.91402  -0.00583   0.00000  -0.01237  -0.01237   1.90165
    R3        1.90986  -0.00489   0.00000  -0.01031  -0.01031   1.89956
    R4        2.43140   0.01958   0.00000   0.02783   0.02758   2.45899
    R5        2.56961   0.00839   0.00000   0.01607   0.01586   2.58547
    R6        2.58537   0.01983   0.00000   0.03758   0.03760   2.62297
    R7        2.30180  -0.01945   0.00000  -0.01987  -0.01987   2.28193
    R8        2.88470   0.01246   0.00000   0.03769   0.03800   2.92271
    R9        2.28778  -0.04510   0.00000  -0.04454  -0.04454   2.24324
   R10        2.57711   0.02181   0.00000   0.03988   0.03995   2.61706
    A1        2.06107   0.00029   0.00000   0.00218   0.00215   2.06322
    A2        2.15171  -0.00476   0.00000  -0.02649  -0.02652   2.12519
    A3        2.06346   0.00451   0.00000   0.02613   0.02610   2.08956
    A4        2.19483   0.00570   0.00000   0.01976   0.01976   2.21459
    A5        2.01988  -0.00621   0.00000  -0.02501  -0.02500   1.99488
    A6        2.06822   0.00054   0.00000   0.00601   0.00544   2.07366
    A7        1.78963   0.01261   0.00000   0.05228   0.05195   1.84158
    A8        2.21089   0.01301   0.00000   0.05026   0.04994   2.26083
    A9        1.92224  -0.02035   0.00000  -0.07734  -0.07713   1.84511
   A10        2.14839   0.00734   0.00000   0.02873   0.02844   2.17684
   A11        2.26148   0.00686   0.00000   0.02831   0.02748   2.28896
   A12        1.76784   0.02025   0.00000   0.07431   0.07403   1.84187
   A13        2.25166  -0.02697   0.00000  -0.09847  -0.09933   2.15234
   A14        1.86299  -0.01283   0.00000  -0.04701  -0.04726   1.81574
    D1       -0.14753   0.00119   0.00000   0.02744   0.02746  -0.12007
    D2        2.96916   0.00252   0.00000   0.06422   0.06421   3.03336
    D3        3.12279   0.00042   0.00000   0.00861   0.00862   3.13141
    D4       -0.04371   0.00175   0.00000   0.04539   0.04537   0.00167
    D5       -3.13692   0.00072   0.00000   0.01685   0.01691  -3.12001
    D6        0.03020  -0.00055   0.00000  -0.02047  -0.02094   0.00926
    D7       -3.04192  -0.00205   0.00000  -0.04683  -0.04679  -3.08871
    D8        0.07668  -0.00074   0.00000  -0.01262  -0.01298   0.06370
    D9        2.96530   0.00219   0.00000   0.07610   0.07533   3.04062
   D10       -0.11556   0.00201   0.00000   0.04571   0.04476  -0.07081
   D11       -2.91511  -0.00271   0.00000  -0.10952  -0.11112  -3.02623
   D12        0.15912  -0.00155   0.00000  -0.05011  -0.05004   0.10909
   D13        0.28462  -0.00316   0.00000  -0.13970  -0.14095   0.14367
   D14       -2.92433  -0.00200   0.00000  -0.08030  -0.07987  -3.00420
   D15       -0.13104  -0.00010   0.00000   0.03093   0.03245  -0.09859
   D16        2.94373   0.00289   0.00000   0.09677   0.09361   3.03735
         Item               Value     Threshold  Converged?
 Maximum Force            0.045104     0.000450     NO 
 RMS     Force            0.012729     0.000300     NO 
 Maximum Displacement     0.149381     0.001800     NO 
 RMS     Displacement     0.058391     0.001200     NO 
 Predicted change in Energy=-8.966310D-03
 GradGradGradGradGradGradGradGradGradGradGradGradGradGradGradGradGradGrad

                          Input orientation:                          
 ---------------------------------------------------------------------
 Center     Atomic      Atomic             Coordinates (Angstroms)
 Number     Number       Type             X           Y           Z
 ---------------------------------------------------------------------
      1          7           0        1.256131    0.132094   -0.029273
      2          6           0        2.580251    0.013222   -0.104432
      3          7           0        3.271072   -1.087064   -0.031185
      4          6           0        4.599780   -0.698656   -0.132502
      5          8           0        5.604370   -1.359593   -0.022380
      6          6           0        4.572226    0.827033   -0.384652
      7          8           0        5.442958    1.592365   -0.640061
      8          8           0        3.243922    1.199211   -0.262124
      9          1           0        0.703415   -0.708580   -0.008543
     10          1           0        0.800996    1.026486   -0.087118
 ---------------------------------------------------------------------
                    Distance matrix (angstroms):
                    1          2          3          4          5
     1  N    0.000000
     2  C    1.331568   0.000000
     3  N    2.355066   1.301241   0.000000
     4  C    3.446852   2.141508   1.388017   0.000000
     5  O    4.596994   3.322145   2.349176   1.207545   0.000000
     6  C    3.406716   2.169971   2.341304   1.546630   2.444973
     7  O    4.476044   3.312956   3.502450   2.493460   3.020205
     8  O    2.268098   1.368172   2.298069   2.336033   3.489508
     9  H    1.006310   2.013134   2.595501   3.898349   4.944023
    10  H    1.005202   2.047622   3.251384   4.172402   5.363764
                    6          7          8          9         10
     6  C    0.000000
     7  O    1.187073   0.000000
     8  O    1.384890   2.265649   0.000000
     9  H    4.179385   5.306263   3.187184   0.000000
    10  H    3.788203   4.708904   2.455270   1.739584   0.000000
 Stoichiometry    C3H2N2O3
 Framework group  C1[X(C3H2N2O3)]
 Deg. of freedom    24
 Full point group                 C1      NOp   1
 Largest Abelian subgroup         C1      NOp   1
 Largest concise Abelian subgroup C1      NOp   1
                         Standard orientation:                         
 ---------------------------------------------------------------------
 Center     Atomic      Atomic             Coordinates (Angstroms)
 Number     Number       Type             X           Y           Z
 ---------------------------------------------------------------------
      1          7           0       -2.508867    0.040516   -0.001743
      2          6           0       -1.179883    0.123376    0.001088
      3          7           0       -0.465131    1.208845    0.065225
      4          6           0        0.856108    0.787257    0.008811
      5          8           0        1.869306    1.440789   -0.058191
      6          6           0        0.802830   -0.758448    0.004099
      7          8           0        1.666826   -1.569987    0.067796
      8          8           0       -0.540406   -1.082920   -0.087309
      9          1           0       -3.038315    0.881600    0.156122
     10          1           0       -2.983831   -0.843286   -0.062852
 ---------------------------------------------------------------------
 Rotational constants (GHZ):           3.9410988           2.0401928           1.3467150
 Standard basis: 6-31G(2df,p) (6D, 7F)
 There are   258 symmetry adapted cartesian basis functions of A   symmetry.
 There are   234 symmetry adapted basis functions of A   symmetry.
   234 basis functions,   366 primitive gaussians,   258 cartesian basis functions
    29 alpha electrons       29 beta electrons
       nuclear repulsion energy       358.2547743108 Hartrees.
 NAtoms=   10 NActive=   10 NUniq=   10 SFac= 1.00D+00 NAtFMM=   60 NAOKFM=F Big=F
 Integral buffers will be    131072 words long.
 Raffenetti 2 integral format.
 Two-electron integral symmetry is turned on.
 One-electron integrals computed using PRISM.
 PrsmSu:  requested number of processors reduced to:  13 ShMem   1 Linda.
 NBasis=   234 RedAO= T EigKep=  2.05D-04  NBF=   234
 NBsUse=   234 1.00D-06 EigRej= -1.00D+00 NBFU=   234
 Initial guess from the checkpoint file:  "NC1dNCpdOpCpdOpO1.chk"
 B after Tr=    -0.000000   -0.000000    0.000000
         Rot=    0.999702    0.000041    0.000425    0.024411 Ang=   2.80 deg.
 ExpMin= 1.61D-01 ExpMax= 5.48D+03 ExpMxC= 8.25D+02 IAcc=2 IRadAn=         4 AccDes= 0.00D+00
 Harris functional with IExCor=  402 and IRadAn=       4 diagonalized for initial guess.
 HarFok:  IExCor=  402 AccDes= 0.00D+00 IRadAn=         4 IDoV= 1 UseB2=F ITyADJ=14
 ICtDFT=  3500011 ScaDFX=  1.000000  1.000000  1.000000  1.000000
 FoFCou: FMM=F IPFlag=           0 FMFlag=      100000 FMFlg1=           0
         NFxFlg=           0 DoJE=T BraDBF=F KetDBF=T FulRan=T
         wScrn=  0.000000 ICntrl=       500 IOpCl=  0 I1Cent=   200000004 NGrid=           0
         NMat0=    1 NMatS0=      1 NMatT0=    0 NMatD0=    1 NMtDS0=    0 NMtDT0=    0
 Petite list used in FoFCou.
 Requested convergence on RMS density matrix=1.00D-08 within 128 cycles.
 Requested convergence on MAX density matrix=1.00D-06.
 Requested convergence on             energy=1.00D-06.
 No special actions if energy rises.
 Integral accuracy reduced to 1.0D-05 until final iterations.
 Initial convergence to 1.0D-05 achieved.  Increase integral accuracy.
 SCF Done:  E(RB3LYP) =  -450.733162168     A.U. after   13 cycles
            NFock= 13  Conv=0.79D-08     -V/T= 2.0061
 PrsmSu:  requested number of processors reduced to:  13 ShMem   1 Linda.
 Calling FoFJK, ICntrl=      2127 FMM=F ISym2X=0 I1Cent= 0 IOpClX= 0 NMat=1 NMatS=1 NMatT=0.
 ***** Axes restored to original set *****
 -------------------------------------------------------------------
 Center     Atomic                   Forces (Hartrees/Bohr)
 Number     Number              X              Y              Z
 -------------------------------------------------------------------
      1        7           0.000496067   -0.004413439   -0.000834516
      2        6          -0.001814605   -0.000830569    0.001983709
      3        7          -0.004657725   -0.002254253    0.000865584
      4        6           0.005576872   -0.007781602    0.002736767
      5        8          -0.011381845    0.007470132   -0.003471075
      6        6           0.023368962    0.005567733   -0.002084611
      7        8          -0.005284836   -0.000912429    0.002098993
      8        8          -0.008304306    0.002320314   -0.001841338
      9        1          -0.000015954   -0.000215108    0.001649263
     10        1           0.002017370    0.001049221   -0.001102777
 -------------------------------------------------------------------
 Cartesian Forces:  Max     0.023368962 RMS     0.005927104

 GradGradGradGradGradGradGradGradGradGradGradGradGradGradGradGradGradGrad
 Berny optimization.
 Using GEDIIS/GDIIS optimizer.
 FormGI is forming the generalized inverse of G from B-inverse, IUseBI=4.
 Internal  Forces:  Max     0.013874134 RMS     0.003697496
 Search for a local minimum.
 Step number   2 out of a maximum of   50
 All quantities printed in internal units (Hartrees-Bohrs-Radians)
 Mixed Optimization -- RFO/linear search
 Update second derivatives using D2CorX and points    1    2
 DE= -8.57D-03 DEPred=-8.97D-03 R= 9.56D-01
 TightC=F SS=  1.41D+00  RLast= 3.32D-01 DXNew= 5.0454D-01 9.9571D-01
 Trust test= 9.56D-01 RLast= 3.32D-01 DXMaxT set to 5.05D-01
 ITU=  1  0
 Use linear search instead of GDIIS.
     Eigenvalues ---    0.00865   0.01210   0.01463   0.02395   0.02458
     Eigenvalues ---    0.02511   0.02695   0.15670   0.16011   0.23467
     Eigenvalues ---    0.24952   0.24990   0.24998   0.28601   0.31488
     Eigenvalues ---    0.45394   0.45795   0.47544   0.48588   0.50765
     Eigenvalues ---    0.55841   0.68411   0.91541   1.00172
 RFO step:  Lambda=-2.49574987D-03 EMin= 8.64694625D-03
 Quartic linear search produced a step of  0.06902.
 Iteration  1 RMS(Cart)=  0.05192173 RMS(Int)=  0.00215431
 Iteration  2 RMS(Cart)=  0.00216898 RMS(Int)=  0.00054070
 Iteration  3 RMS(Cart)=  0.00000329 RMS(Int)=  0.00054069
 Iteration  4 RMS(Cart)=  0.00000000 RMS(Int)=  0.00054069
 Variable       Old X    -DE/DX   Delta X   Delta X   Delta X     New X
                                 (Linear)    (Quad)   (Total)
    R1        2.51630  -0.00282  -0.00176  -0.00617  -0.00793   2.50837
    R2        1.90165   0.00022  -0.00085   0.00010  -0.00076   1.90089
    R3        1.89956   0.00008  -0.00071  -0.00016  -0.00087   1.89869
    R4        2.45899  -0.00287   0.00190  -0.00427  -0.00212   2.45687
    R5        2.58547   0.00407   0.00109   0.00838   0.00959   2.59506
    R6        2.62297   0.00244   0.00260   0.00552   0.00819   2.63116
    R7        2.28193  -0.01387  -0.00137  -0.01592  -0.01729   2.26464
    R8        2.92271   0.00382   0.00262   0.01617   0.01859   2.94130
    R9        2.24324  -0.00492  -0.00307  -0.00677  -0.00984   2.23340
   R10        2.61706   0.01015   0.00276   0.02316   0.02573   2.64280
    A1        2.06322   0.00149   0.00015   0.01033   0.01041   2.07363
    A2        2.12519  -0.00299  -0.00183  -0.01971  -0.02161   2.10359
    A3        2.08956   0.00153   0.00180   0.01132   0.01306   2.10262
    A4        2.21459  -0.00259   0.00136  -0.00994  -0.00827   2.20632
    A5        1.99488   0.00140  -0.00173   0.00534   0.00392   1.99880
    A6        2.07366   0.00119   0.00038   0.00474   0.00441   2.07807
    A7        1.84158  -0.00111   0.00359  -0.00581  -0.00321   1.83837
    A8        2.26083  -0.00215   0.00345  -0.00783  -0.00421   2.25662
    A9        1.84511   0.00502  -0.00532   0.02078   0.01404   1.85915
   A10        2.17684  -0.00285   0.00196  -0.01172  -0.00956   2.16728
   A11        2.28896   0.00647   0.00190   0.02489   0.02702   2.31598
   A12        1.84187  -0.00674   0.00511  -0.02000  -0.01663   1.82524
   A13        2.15234   0.00026  -0.00686  -0.00520  -0.01177   2.14057
   A14        1.81574   0.00185  -0.00326   0.01305   0.00821   1.82394
    D1       -0.12007   0.00144   0.00190   0.05889   0.06085  -0.05922
    D2        3.03336   0.00118   0.00443   0.04463   0.04900   3.08237
    D3        3.13141   0.00090   0.00060   0.03777   0.03842  -3.11336
    D4        0.00167   0.00064   0.00313   0.02350   0.02657   0.02824
    D5       -3.12001  -0.00039   0.00117  -0.01991  -0.01880  -3.13881
    D6        0.00926  -0.00012  -0.00145  -0.00508  -0.00647   0.00279
    D7       -3.08871  -0.00074  -0.00323  -0.04929  -0.05270  -3.14141
    D8        0.06370  -0.00094  -0.00090  -0.06221  -0.06352   0.00018
    D9        3.04062   0.00114   0.00520   0.10804   0.11392  -3.12865
   D10       -0.07081   0.00077   0.00309   0.06294   0.06660  -0.00421
   D11       -3.02623  -0.00049  -0.00767  -0.04592  -0.05334  -3.07956
   D12        0.10909  -0.00178  -0.00345  -0.10155  -0.10468   0.00441
   D13        0.14367  -0.00084  -0.00973  -0.08828  -0.09768   0.04598
   D14       -3.00420  -0.00213  -0.00551  -0.14391  -0.14902   3.12996
   D15       -0.09859   0.00179   0.00224   0.09411   0.09585  -0.00274
   D16        3.03735   0.00067   0.00646   0.04412   0.05122   3.08857
         Item               Value     Threshold  Converged?
 Maximum Force            0.013874     0.000450     NO 
 RMS     Force            0.003697     0.000300     NO 
 Maximum Displacement     0.152886     0.001800     NO 
 RMS     Displacement     0.051954     0.001200     NO 
 Predicted change in Energy=-1.387495D-03
 GradGradGradGradGradGradGradGradGradGradGradGradGradGradGradGradGradGrad

                          Input orientation:                          
 ---------------------------------------------------------------------
 Center     Atomic      Atomic             Coordinates (Angstroms)
 Number     Number       Type             X           Y           Z
 ---------------------------------------------------------------------
      1          7           0        1.255799    0.124916   -0.035169
      2          6           0        2.576570    0.012084   -0.104077
      3          7           0        3.264469   -1.085071    0.011466
      4          6           0        4.595695   -0.701191   -0.126768
      5          8           0        5.586302   -1.375205   -0.103284
      6          6           0        4.590960    0.838442   -0.355031
      7          8           0        5.450654    1.618254   -0.577793
      8          8           0        3.239245    1.195414   -0.319477
      9          1           0        0.702842   -0.708853    0.069332
     10          1           0        0.812584    1.017730   -0.161470
 ---------------------------------------------------------------------
                    Distance matrix (angstroms):
                    1          2          3          4          5
     1  N    0.000000
     2  C    1.327371   0.000000
     3  N    2.345421   1.300117   0.000000
     4  C    3.441766   2.141529   1.392349   0.000000
     5  O    4.583477   3.314070   2.342702   1.198394   0.000000
     6  C    3.425599   2.191715   2.365121   1.556469   2.440147
     7  O    4.485678   3.326342   3.526272   2.512807   3.033868
     8  O    2.271751   1.373246   2.304510   2.339701   3.487620
     9  H    1.005909   2.015112   2.589754   3.897797   4.931735
    10  H    1.004743   2.031321   3.234721   4.155457   5.340216
                    6          7          8          9         10
     6  C    0.000000
     7  O    1.181864   0.000000
     8  O    1.398509   2.266242   0.000000
     9  H    4.206147   5.326905   3.195426   0.000000
    10  H    3.787576   4.695279   2.438282   1.745395   0.000000
 Stoichiometry    C3H2N2O3
 Framework group  C1[X(C3H2N2O3)]
 Deg. of freedom    24
 Full point group                 C1      NOp   1
 Largest Abelian subgroup         C1      NOp   1
 Largest concise Abelian subgroup C1      NOp   1
                         Standard orientation:                         
 ---------------------------------------------------------------------
 Center     Atomic      Atomic             Coordinates (Angstroms)
 Number     Number       Type             X           Y           Z
 ---------------------------------------------------------------------
      1          7           0       -2.507517    0.022109    0.001714
      2          6           0       -1.183318    0.113683   -0.003153
      3          7           0       -0.485563    1.210677    0.003566
      4          6           0        0.845002    0.800723   -0.009507
      5          8           0        1.843475    1.463331    0.002729
      6          6           0        0.828560   -0.755629   -0.019224
      7          8           0        1.687400   -1.566454    0.022729
      8          8           0       -0.528557   -1.093343   -0.016642
      9          1           0       -3.051563    0.865926    0.063686
     10          1           0       -2.956887   -0.876355    0.020124
 ---------------------------------------------------------------------
 Rotational constants (GHZ):           3.9054453           2.0441160           1.3419731
 Standard basis: 6-31G(2df,p) (6D, 7F)
 There are   258 symmetry adapted cartesian basis functions of A   symmetry.
 There are   234 symmetry adapted basis functions of A   symmetry.
   234 basis functions,   366 primitive gaussians,   258 cartesian basis functions
    29 alpha electrons       29 beta electrons
       nuclear repulsion energy       357.8618545727 Hartrees.
 NAtoms=   10 NActive=   10 NUniq=   10 SFac= 1.00D+00 NAtFMM=   60 NAOKFM=F Big=F
 Integral buffers will be    131072 words long.
 Raffenetti 2 integral format.
 Two-electron integral symmetry is turned on.
 One-electron integrals computed using PRISM.
 PrsmSu:  requested number of processors reduced to:  13 ShMem   1 Linda.
 NBasis=   234 RedAO= T EigKep=  2.06D-04  NBF=   234
 NBsUse=   234 1.00D-06 EigRej= -1.00D+00 NBFU=   234
 Initial guess from the checkpoint file:  "NC1dNCpdOpCpdOpO1.chk"
 B after Tr=     0.000000    0.000000   -0.000000
         Rot=    0.999986   -0.000001   -0.000001   -0.005262 Ang=  -0.60 deg.
 ExpMin= 1.61D-01 ExpMax= 5.48D+03 ExpMxC= 8.25D+02 IAcc=2 IRadAn=         4 AccDes= 0.00D+00
 Harris functional with IExCor=  402 and IRadAn=       4 diagonalized for initial guess.
 HarFok:  IExCor=  402 AccDes= 0.00D+00 IRadAn=         4 IDoV= 1 UseB2=F ITyADJ=14
 ICtDFT=  3500011 ScaDFX=  1.000000  1.000000  1.000000  1.000000
 FoFCou: FMM=F IPFlag=           0 FMFlag=      100000 FMFlg1=           0
         NFxFlg=           0 DoJE=T BraDBF=F KetDBF=T FulRan=T
         wScrn=  0.000000 ICntrl=       500 IOpCl=  0 I1Cent=   200000004 NGrid=           0
         NMat0=    1 NMatS0=      1 NMatT0=    0 NMatD0=    1 NMtDS0=    0 NMtDT0=    0
 Petite list used in FoFCou.
 Requested convergence on RMS density matrix=1.00D-08 within 128 cycles.
 Requested convergence on MAX density matrix=1.00D-06.
 Requested convergence on             energy=1.00D-06.
 No special actions if energy rises.
 Integral accuracy reduced to 1.0D-05 until final iterations.
 Initial convergence to 1.0D-05 achieved.  Increase integral accuracy.
 SCF Done:  E(RB3LYP) =  -450.734441528     A.U. after   13 cycles
            NFock= 13  Conv=0.78D-08     -V/T= 2.0061
 PrsmSu:  requested number of processors reduced to:  13 ShMem   1 Linda.
 Calling FoFJK, ICntrl=      2127 FMM=F ISym2X=0 I1Cent= 0 IOpClX= 0 NMat=1 NMatS=1 NMatT=0.
 ***** Axes restored to original set *****
 -------------------------------------------------------------------
 Center     Atomic                   Forces (Hartrees/Bohr)
 Number     Number              X              Y              Z
 -------------------------------------------------------------------
      1        7          -0.001639659   -0.000156124   -0.000276058
      2        6           0.004121192    0.001089038   -0.000252564
      3        7           0.001376695    0.001040322   -0.000035106
      4        6          -0.003844089   -0.001411174    0.000571109
      5        8           0.000918170   -0.000042255    0.000397548
      6        6           0.004855139   -0.000954730   -0.004645473
      7        8           0.001157356    0.001118111    0.002039987
      8        8          -0.006688677   -0.001225300    0.001883424
      9        1          -0.000003851   -0.000158516    0.000571161
     10        1          -0.000252277    0.000700629   -0.000254027
 -------------------------------------------------------------------
 Cartesian Forces:  Max     0.006688677 RMS     0.002203575

 GradGradGradGradGradGradGradGradGradGradGradGradGradGradGradGradGradGrad
 Berny optimization.
 Using GEDIIS/GDIIS optimizer.
 FormGI is forming the generalized inverse of G from B-inverse, IUseBI=4.
 Internal  Forces:  Max     0.004864928 RMS     0.001185718
 Search for a local minimum.
 Step number   3 out of a maximum of   50
 All quantities printed in internal units (Hartrees-Bohrs-Radians)
 Mixed Optimization -- RFO/linear search
 Update second derivatives using D2CorX and points    1    2    3
 DE= -1.28D-03 DEPred=-1.39D-03 R= 9.22D-01
 TightC=F SS=  1.41D+00  RLast= 3.07D-01 DXNew= 8.4853D-01 9.2115D-01
 Trust test= 9.22D-01 RLast= 3.07D-01 DXMaxT set to 8.49D-01
 ITU=  1  1  0
 Use linear search instead of GDIIS.
     Eigenvalues ---    0.00685   0.01289   0.01972   0.02334   0.02447
     Eigenvalues ---    0.02515   0.02696   0.15451   0.16016   0.22419
     Eigenvalues ---    0.24997   0.25000   0.25099   0.28205   0.31344
     Eigenvalues ---    0.43729   0.45641   0.45979   0.48583   0.52563
     Eigenvalues ---    0.56753   0.68467   0.93131   1.00162
 RFO step:  Lambda=-8.14903794D-04 EMin= 6.85220767D-03
 Quartic linear search produced a step of  0.01596.
 Iteration  1 RMS(Cart)=  0.03314441 RMS(Int)=  0.00229544
 Iteration  2 RMS(Cart)=  0.00166061 RMS(Int)=  0.00123635
 Iteration  3 RMS(Cart)=  0.00000225 RMS(Int)=  0.00123635
 Iteration  4 RMS(Cart)=  0.00000000 RMS(Int)=  0.00123635
 Variable       Old X    -DE/DX   Delta X   Delta X   Delta X     New X
                                 (Linear)    (Quad)   (Total)
    R1        2.50837   0.00192  -0.00013   0.00091   0.00078   2.50915
    R2        1.90089   0.00019  -0.00001   0.00010   0.00009   1.90098
    R3        1.89869   0.00077  -0.00001   0.00134   0.00133   1.90002
    R4        2.45687  -0.00049  -0.00003  -0.00123  -0.00208   2.45478
    R5        2.59506  -0.00251   0.00015  -0.00174  -0.00202   2.59304
    R6        2.63116  -0.00186   0.00013  -0.00115  -0.00120   2.62996
    R7        2.26464   0.00079  -0.00028  -0.00444  -0.00472   2.25992
    R8        2.94130   0.00089   0.00030   0.00890   0.00991   2.95121
    R9        2.23340   0.00120  -0.00016  -0.00206  -0.00222   2.23118
   R10        2.64280   0.00486   0.00041   0.01756   0.01853   2.66133
    A1        2.07363  -0.00003   0.00017   0.00315   0.00326   2.07689
    A2        2.10359  -0.00007  -0.00034  -0.00677  -0.00717   2.09642
    A3        2.10262   0.00013   0.00021   0.00511   0.00526   2.10788
    A4        2.20632  -0.00013  -0.00013  -0.00233  -0.00235   2.20397
    A5        1.99880  -0.00072   0.00006  -0.00147  -0.00129   1.99751
    A6        2.07807   0.00086   0.00007   0.00381   0.00356   2.08163
    A7        1.83837   0.00068  -0.00005  -0.00020  -0.00059   1.83778
    A8        2.25662   0.00024  -0.00007   0.00075   0.00004   2.25666
    A9        1.85915   0.00049   0.00022   0.00440   0.00575   1.86490
   A10        2.16728  -0.00072  -0.00015  -0.00486  -0.00566   2.16162
   A11        2.31598   0.00085   0.00043   0.01416   0.00955   2.32553
   A12        1.82524  -0.00172  -0.00027  -0.00862  -0.01090   1.81434
   A13        2.14057   0.00097  -0.00019   0.00270  -0.00239   2.13817
   A14        1.82394  -0.00031   0.00013   0.00060   0.00208   1.82603
    D1       -0.05922   0.00031   0.00097   0.02720   0.02823  -0.03100
    D2        3.08237   0.00060   0.00078   0.04145   0.04218   3.12455
    D3       -3.11336  -0.00002   0.00061   0.00739   0.00806  -3.10530
    D4        0.02824   0.00027   0.00042   0.02164   0.02201   0.05025
    D5       -3.13881   0.00020  -0.00030   0.00385   0.00355  -3.13525
    D6        0.00279  -0.00009  -0.00010  -0.01098  -0.01101  -0.00822
    D7       -3.14141   0.00013  -0.00084   0.00197   0.00100  -3.14041
    D8        0.00018   0.00039  -0.00101   0.01510   0.01390   0.01408
    D9       -3.12865  -0.00081   0.00182  -0.01671  -0.01510   3.13944
   D10       -0.00421  -0.00022   0.00106   0.00222   0.00333  -0.00088
   D11       -3.07956  -0.00158  -0.00085  -0.16287  -0.16408   3.03954
   D12        0.00441   0.00044  -0.00167   0.00608   0.00422   0.00863
   D13        0.04598  -0.00102  -0.00156  -0.14509  -0.14685  -0.10087
   D14        3.12996   0.00100  -0.00238   0.02385   0.02145  -3.13178
   D15       -0.00274  -0.00046   0.00153  -0.01135  -0.00958  -0.01232
   D16        3.08857   0.00131   0.00082   0.13663   0.13626  -3.05835
         Item               Value     Threshold  Converged?
 Maximum Force            0.004865     0.000450     NO 
 RMS     Force            0.001186     0.000300     NO 
 Maximum Displacement     0.135217     0.001800     NO 
 RMS     Displacement     0.032992     0.001200     NO 
 Predicted change in Energy=-4.392792D-04
 GradGradGradGradGradGradGradGradGradGradGradGradGradGradGradGradGradGrad

                          Input orientation:                          
 ---------------------------------------------------------------------
 Center     Atomic      Atomic             Coordinates (Angstroms)
 Number     Number       Type             X           Y           Z
 ---------------------------------------------------------------------
      1          7           0        1.255631    0.123088   -0.033623
      2          6           0        2.575893    0.009282   -0.117091
      3          7           0        3.262824   -1.085435    0.013919
      4          6           0        4.592339   -0.705843   -0.144731
      5          8           0        5.581602   -1.376539   -0.103492
      6          6           0        4.595846    0.834776   -0.400515
      7          8           0        5.457318    1.635226   -0.506240
      8          8           0        3.234177    1.190593   -0.349542
      9          1           0        0.703699   -0.703634    0.120819
     10          1           0        0.815790    1.015004   -0.181774
 ---------------------------------------------------------------------
                    Distance matrix (angstroms):
                    1          2          3          4          5
     1  N    0.000000
     2  C    1.327784   0.000000
     3  N    2.343419   1.299016   0.000000
     4  C    3.439927   2.139679   1.391715   0.000000
     5  O    4.579060   3.309830   2.339927   1.195899   0.000000
     6  C    3.434843   2.200450   2.374008   1.561713   2.439232
     7  O    4.490446   3.331327   3.533888   2.521801   3.041115
     8  O    2.270246   1.372176   2.305044   2.341586   3.487279
     9  H    1.005958   2.017415   2.589657   3.897698   4.929205
    10  H    1.005447   2.028207   3.230807   4.150303   5.332783
                    6          7          8          9         10
     6  C    0.000000
     7  O    1.180691   0.000000
     8  O    1.408313   2.272578   0.000000
     9  H    4.217500   5.334826   3.195725   0.000000
    10  H    3.790667   4.694011   2.430551   1.748669   0.000000
 Stoichiometry    C3H2N2O3
 Framework group  C1[X(C3H2N2O3)]
 Deg. of freedom    24
 Full point group                 C1      NOp   1
 Largest Abelian subgroup         C1      NOp   1
 Largest concise Abelian subgroup C1      NOp   1
                         Standard orientation:                         
 ---------------------------------------------------------------------
 Center     Atomic      Atomic             Coordinates (Angstroms)
 Number     Number       Type             X           Y           Z
 ---------------------------------------------------------------------
      1          7           0       -2.507371    0.015455   -0.015241
      2          6           0       -1.183102    0.110576    0.001359
      3          7           0       -0.491235    1.209939   -0.011437
      4          6           0        0.840425    0.805941    0.006963
      5          8           0        1.833986    1.471513    0.002186
      6          6           0        0.839452   -0.755521    0.034934
      7          8           0        1.695254   -1.566254   -0.031006
      8          8           0       -0.527314   -1.094637    0.017758
      9          1           0       -3.056874    0.858065   -0.012893
     10          1           0       -2.948936   -0.886777    0.028596
 ---------------------------------------------------------------------
 Rotational constants (GHZ):           3.8902637           2.0438124           1.3401803
 Standard basis: 6-31G(2df,p) (6D, 7F)
 There are   258 symmetry adapted cartesian basis functions of A   symmetry.
 There are   234 symmetry adapted basis functions of A   symmetry.
   234 basis functions,   366 primitive gaussians,   258 cartesian basis functions
    29 alpha electrons       29 beta electrons
       nuclear repulsion energy       357.6192688171 Hartrees.
 NAtoms=   10 NActive=   10 NUniq=   10 SFac= 1.00D+00 NAtFMM=   60 NAOKFM=F Big=F
 Integral buffers will be    131072 words long.
 Raffenetti 2 integral format.
 Two-electron integral symmetry is turned on.
 One-electron integrals computed using PRISM.
 PrsmSu:  requested number of processors reduced to:  13 ShMem   1 Linda.
 NBasis=   234 RedAO= T EigKep=  2.07D-04  NBF=   234
 NBsUse=   234 1.00D-06 EigRej= -1.00D+00 NBFU=   234
 Initial guess from the checkpoint file:  "NC1dNCpdOpCpdOpO1.chk"
 B after Tr=    -0.000000   -0.000000   -0.000000
         Rot=    0.999998    0.000000   -0.000002   -0.001773 Ang=   0.20 deg.
 ExpMin= 1.61D-01 ExpMax= 5.48D+03 ExpMxC= 8.25D+02 IAcc=2 IRadAn=         4 AccDes= 0.00D+00
 Harris functional with IExCor=  402 and IRadAn=       4 diagonalized for initial guess.
 HarFok:  IExCor=  402 AccDes= 0.00D+00 IRadAn=         4 IDoV= 1 UseB2=F ITyADJ=14
 ICtDFT=  3500011 ScaDFX=  1.000000  1.000000  1.000000  1.000000
 FoFCou: FMM=F IPFlag=           0 FMFlag=      100000 FMFlg1=           0
         NFxFlg=           0 DoJE=T BraDBF=F KetDBF=T FulRan=T
         wScrn=  0.000000 ICntrl=       500 IOpCl=  0 I1Cent=   200000004 NGrid=           0
         NMat0=    1 NMatS0=      1 NMatT0=    0 NMatD0=    1 NMtDS0=    0 NMtDT0=    0
 Petite list used in FoFCou.
 Requested convergence on RMS density matrix=1.00D-08 within 128 cycles.
 Requested convergence on MAX density matrix=1.00D-06.
 Requested convergence on             energy=1.00D-06.
 No special actions if energy rises.
 Integral accuracy reduced to 1.0D-05 until final iterations.
 Initial convergence to 1.0D-05 achieved.  Increase integral accuracy.
 SCF Done:  E(RB3LYP) =  -450.734220808     A.U. after   13 cycles
            NFock= 13  Conv=0.66D-08     -V/T= 2.0061
 PrsmSu:  requested number of processors reduced to:  13 ShMem   1 Linda.
 Calling FoFJK, ICntrl=      2127 FMM=F ISym2X=0 I1Cent= 0 IOpClX= 0 NMat=1 NMatS=1 NMatT=0.
 ***** Axes restored to original set *****
 -------------------------------------------------------------------
 Center     Atomic                   Forces (Hartrees/Bohr)
 Number     Number              X              Y              Z
 -------------------------------------------------------------------
      1        7          -0.001340652    0.000971905   -0.000629823
      2        6           0.003189607    0.002795727    0.000094612
      3        7           0.003065020    0.000931572   -0.000368713
      4        6          -0.005328248    0.000511819   -0.003712361
      5        8           0.004415226   -0.002508687    0.000695877
      6        6          -0.000802366   -0.000632665    0.010361018
      7        8           0.001106311   -0.000064251   -0.004511570
      8        8          -0.003724121   -0.001900012   -0.002191867
      9        1           0.000014701   -0.000000488    0.000061615
     10        1          -0.000595476   -0.000104919    0.000201212
 -------------------------------------------------------------------
 Cartesian Forces:  Max     0.010361018 RMS     0.002903514

 GradGradGradGradGradGradGradGradGradGradGradGradGradGradGradGradGradGrad
 Berny optimization.
 Using GEDIIS/GDIIS optimizer.
 FormGI is forming the generalized inverse of G from B-inverse, IUseBI=4.
 Internal  Forces:  Max     0.005083300 RMS     0.001519521
 Search for a local minimum.
 Step number   4 out of a maximum of   50
 All quantities printed in internal units (Hartrees-Bohrs-Radians)
 Mixed Optimization -- RFO/linear search
 Update second derivatives using D2CorX and points    1    2    4    3
 DE=  2.21D-04 DEPred=-4.39D-04 R=-5.02D-01
 Trust test=-5.02D-01 RLast= 2.69D-01 DXMaxT set to 4.24D-01
 ITU= -1  1  1  0
 Use linear search instead of GDIIS.
     Eigenvalues ---    0.01108   0.01171   0.02271   0.02434   0.02499
     Eigenvalues ---    0.02661   0.04208   0.15531   0.16013   0.22466
     Eigenvalues ---    0.24946   0.25000   0.25019   0.27864   0.30755
     Eigenvalues ---    0.41909   0.45562   0.45871   0.48548   0.50980
     Eigenvalues ---    0.55904   0.68525   0.93211   1.00108
 RFO step:  Lambda=-1.58739205D-04 EMin= 1.10764972D-02
 Quartic linear search produced a step of -0.60763.
 Iteration  1 RMS(Cart)=  0.01346928 RMS(Int)=  0.00053706
 Iteration  2 RMS(Cart)=  0.00043670 RMS(Int)=  0.00024576
 Iteration  3 RMS(Cart)=  0.00000023 RMS(Int)=  0.00024576
 Variable       Old X    -DE/DX   Delta X   Delta X   Delta X     New X
                                 (Linear)    (Quad)   (Total)
    R1        2.50915   0.00196  -0.00047   0.00341   0.00294   2.51209
    R2        1.90098   0.00000  -0.00006   0.00013   0.00008   1.90106
    R3        1.90002   0.00014  -0.00081   0.00130   0.00049   1.90051
    R4        2.45478   0.00140   0.00126   0.00001   0.00144   2.45622
    R5        2.59304  -0.00348   0.00123  -0.00591  -0.00462   2.58841
    R6        2.62996  -0.00246   0.00073  -0.00416  -0.00337   2.62659
    R7        2.25992   0.00508   0.00287   0.00156   0.00443   2.26435
    R8        2.95121  -0.00047  -0.00602   0.00400  -0.00215   2.94906
    R9        2.23118   0.00117   0.00135   0.00031   0.00166   2.23284
   R10        2.66133   0.00144  -0.01126   0.01113  -0.00026   2.66107
    A1        2.07689  -0.00040  -0.00198  -0.00034  -0.00229   2.07460
    A2        2.09642   0.00078   0.00436   0.00024   0.00463   2.10105
    A3        2.10788  -0.00037  -0.00320   0.00101  -0.00215   2.10573
    A4        2.20397   0.00023   0.00143   0.00027   0.00171   2.20568
    A5        1.99751  -0.00054   0.00079  -0.00289  -0.00209   1.99542
    A6        2.08163   0.00031  -0.00216   0.00258   0.00043   2.08206
    A7        1.83778   0.00108   0.00036   0.00234   0.00276   1.84054
    A8        2.25666   0.00100  -0.00003   0.00270   0.00256   2.25922
    A9        1.86490  -0.00132  -0.00349  -0.00067  -0.00461   1.86029
   A10        2.16162   0.00031   0.00344  -0.00210   0.00122   2.16284
   A11        2.32553  -0.00067  -0.00581   0.00247  -0.00241   2.32312
   A12        1.81434   0.00104   0.00662  -0.00214   0.00475   1.81909
   A13        2.13817   0.00002   0.00145   0.00043   0.00280   2.14097
   A14        1.82603  -0.00110  -0.00127  -0.00185  -0.00351   1.82252
    D1       -0.03100   0.00032  -0.01715   0.01805   0.00087  -0.03012
    D2        3.12455  -0.00019  -0.02563   0.02133  -0.00428   3.12027
    D3       -3.10530   0.00014  -0.00489   0.00274  -0.00218  -3.10748
    D4        0.05025  -0.00037  -0.01337   0.00602  -0.00733   0.04291
    D5       -3.13525  -0.00063  -0.00216  -0.00639  -0.00856   3.13937
    D6       -0.00822  -0.00011   0.00669  -0.00986  -0.00320  -0.01142
    D7       -3.14041  -0.00062  -0.00061  -0.01265  -0.01322   3.12956
    D8        0.01408  -0.00109  -0.00845  -0.00960  -0.01799  -0.00391
    D9        3.13944   0.00061   0.00918  -0.03024  -0.02101   3.11843
   D10       -0.00088   0.00113  -0.00202   0.02303   0.02100   0.02012
   D11        3.03954   0.00254   0.09970  -0.02062   0.07927   3.11881
   D12        0.00863  -0.00174  -0.00256  -0.02877  -0.03131  -0.02268
   D13       -0.10087   0.00301   0.08923   0.02902   0.11836   0.01749
   D14       -3.13178  -0.00126  -0.01303   0.02087   0.00778  -3.12400
   D15       -0.01232   0.00159   0.00582   0.02209   0.02789   0.01557
   D16       -3.05835  -0.00204  -0.08280   0.01486  -0.06758  -3.12593
         Item               Value     Threshold  Converged?
 Maximum Force            0.005083     0.000450     NO 
 RMS     Force            0.001520     0.000300     NO 
 Maximum Displacement     0.055749     0.001800     NO 
 RMS     Displacement     0.013470     0.001200     NO 
 Predicted change in Energy=-2.376879D-04
 GradGradGradGradGradGradGradGradGradGradGradGradGradGradGradGradGradGrad

                          Input orientation:                          
 ---------------------------------------------------------------------
 Center     Atomic      Atomic             Coordinates (Angstroms)
 Number     Number       Type             X           Y           Z
 ---------------------------------------------------------------------
      1          7           0        1.254713    0.124551   -0.035991
      2          6           0        2.576804    0.010821   -0.115240
      3          7           0        3.265168   -1.084597    0.009795
      4          6           0        4.593307   -0.707907   -0.151631
      5          8           0        5.586242   -1.376390   -0.096913
      6          6           0        4.594640    0.837171   -0.371014
      7          8           0        5.456567    1.628861   -0.533524
      8          8           0        3.232212    1.192001   -0.341982
      9          1           0        0.703883   -0.704364    0.110713
     10          1           0        0.811585    1.016372   -0.176484
 ---------------------------------------------------------------------
                    Distance matrix (angstroms):
                    1          2          3          4          5
     1  N    0.000000
     2  C    1.329338   0.000000
     3  N    2.346500   1.299776   0.000000
     4  C    3.442756   2.141069   1.389931   0.000000
     5  O    4.584613   3.313820   2.341776   1.198242   0.000000
     6  C    3.431498   2.195435   2.367637   1.560575   2.440954
     7  O    4.490664   3.329572   3.529913   2.520227   3.039569
     8  O    2.267947   1.369729   2.303851   2.344880   3.492585
     9  H    1.006000   2.017518   2.591320   3.898263   4.932763
    10  H    1.005706   2.032458   3.235559   4.156342   5.341254
                    6          7          8          9         10
     6  C    0.000000
     7  O    1.181567   0.000000
     8  O    1.408175   2.274927   0.000000
     9  H    4.212645   5.333572   3.192739   0.000000
    10  H    3.792290   4.698774   2.432626   1.747860   0.000000
 Stoichiometry    C3H2N2O3
 Framework group  C1[X(C3H2N2O3)]
 Deg. of freedom    24
 Full point group                 C1      NOp   1
 Largest Abelian subgroup         C1      NOp   1
 Largest concise Abelian subgroup C1      NOp   1
                         Standard orientation:                         
 ---------------------------------------------------------------------
 Center     Atomic      Atomic             Coordinates (Angstroms)
 Number     Number       Type             X           Y           Z
 ---------------------------------------------------------------------
      1          7           0       -2.508567    0.021532   -0.010419
      2          6           0       -1.182421    0.112935    0.000654
      3          7           0       -0.485256    1.209910   -0.004443
      4          6           0        0.843974    0.804095    0.014814
      5          8           0        1.842442    1.466299   -0.003375
      6          6           0        0.833563   -0.756399    0.002720
      7          8           0        1.690807   -1.569481   -0.008727
      8          8           0       -0.533682   -1.093398    0.008108
      9          1           0       -3.053764    0.866891    0.002376
     10          1           0       -2.956710   -0.878132    0.024475
 ---------------------------------------------------------------------
 Rotational constants (GHZ):           3.8954242           2.0413910           1.3395064
 Standard basis: 6-31G(2df,p) (6D, 7F)
 There are   258 symmetry adapted cartesian basis functions of A   symmetry.
 There are   234 symmetry adapted basis functions of A   symmetry.
   234 basis functions,   366 primitive gaussians,   258 cartesian basis functions
    29 alpha electrons       29 beta electrons
       nuclear repulsion energy       357.5767641096 Hartrees.
 NAtoms=   10 NActive=   10 NUniq=   10 SFac= 1.00D+00 NAtFMM=   60 NAOKFM=F Big=F
 Integral buffers will be    131072 words long.
 Raffenetti 2 integral format.
 Two-electron integral symmetry is turned on.
 One-electron integrals computed using PRISM.
 PrsmSu:  requested number of processors reduced to:  13 ShMem   1 Linda.
 NBasis=   234 RedAO= T EigKep=  2.06D-04  NBF=   234
 NBsUse=   234 1.00D-06 EigRej= -1.00D+00 NBFU=   234
 Lowest energy guess from the checkpoint file:  "NC1dNCpdOpCpdOpO1.chk"
 B after Tr=     0.000000   -0.000000   -0.000000
         Rot=    1.000000   -0.000001   -0.000000   -0.000185 Ang=  -0.02 deg.
 B after Tr=     0.000000    0.000000   -0.000000
         Rot=    0.999999    0.000001    0.000007    0.001588 Ang=   0.18 deg.
 Requested convergence on RMS density matrix=1.00D-08 within 128 cycles.
 Requested convergence on MAX density matrix=1.00D-06.
 Requested convergence on             energy=1.00D-06.
 No special actions if energy rises.
 Integral accuracy reduced to 1.0D-05 until final iterations.
 Initial convergence to 1.0D-05 achieved.  Increase integral accuracy.
 SCF Done:  E(RB3LYP) =  -450.734582430     A.U. after   12 cycles
            NFock= 12  Conv=0.45D-08     -V/T= 2.0061
 PrsmSu:  requested number of processors reduced to:  13 ShMem   1 Linda.
 Calling FoFJK, ICntrl=      2127 FMM=F ISym2X=0 I1Cent= 0 IOpClX= 0 NMat=1 NMatS=1 NMatT=0.
 ***** Axes restored to original set *****
 -------------------------------------------------------------------
 Center     Atomic                   Forces (Hartrees/Bohr)
 Number     Number              X              Y              Z
 -------------------------------------------------------------------
      1        7          -0.000225817   -0.000181135   -0.000270827
      2        6           0.001059499    0.002062514   -0.000121888
      3        7           0.001082182   -0.000380033   -0.002047569
      4        6          -0.002653964    0.001368775    0.005548435
      5        8           0.001041474   -0.000818639   -0.001907344
      6        6           0.001951036   -0.000525528   -0.002281912
      7        8          -0.000439732   -0.000249110    0.000219086
      8        8          -0.001768693   -0.001089359    0.000578520
      9        1          -0.000053502   -0.000024301   -0.000032329
     10        1           0.000007518   -0.000163183    0.000315829
 -------------------------------------------------------------------
 Cartesian Forces:  Max     0.005548435 RMS     0.001533248

 GradGradGradGradGradGradGradGradGradGradGradGradGradGradGradGradGradGrad
 Berny optimization.
 Using GEDIIS/GDIIS optimizer.
 FormGI is forming the generalized inverse of G from B-inverse, IUseBI=4.
 Internal  Forces:  Max     0.001443635 RMS     0.000686670
 Search for a local minimum.
 Step number   5 out of a maximum of   50
 All quantities printed in internal units (Hartrees-Bohrs-Radians)
 Mixed Optimization -- En-DIIS/RFO-DIIS
 Update second derivatives using D2CorX and points    2    4    3    5
 DE= -1.41D-04 DEPred=-2.38D-04 R= 5.93D-01
 TightC=F SS=  1.41D+00  RLast= 1.42D-01 DXNew= 7.1352D-01 4.2545D-01
 Trust test= 5.93D-01 RLast= 1.42D-01 DXMaxT set to 4.25D-01
 ITU=  1 -1  1  1  0
 Use linear search instead of GDIIS.
     Eigenvalues ---    0.00907   0.02012   0.02405   0.02465   0.02641
     Eigenvalues ---    0.03458   0.05711   0.15308   0.16012   0.20129
     Eigenvalues ---    0.24755   0.24997   0.25219   0.27328   0.30178
     Eigenvalues ---    0.35461   0.45482   0.45881   0.48587   0.49700
     Eigenvalues ---    0.55720   0.68528   0.92699   1.00541
 RFO step:  Lambda=-1.95710660D-04 EMin= 9.07387826D-03
 Quartic linear search produced a step of -0.29017.
 Iteration  1 RMS(Cart)=  0.00863071 RMS(Int)=  0.00020772
 Iteration  2 RMS(Cart)=  0.00014772 RMS(Int)=  0.00012158
 Iteration  3 RMS(Cart)=  0.00000002 RMS(Int)=  0.00012158
 Variable       Old X    -DE/DX   Delta X   Delta X   Delta X     New X
                                 (Linear)    (Quad)   (Total)
    R1        2.51209   0.00024  -0.00108   0.00347   0.00240   2.51448
    R2        1.90106   0.00004  -0.00005   0.00024   0.00019   1.90125
    R3        1.90051  -0.00019  -0.00053   0.00126   0.00073   1.90124
    R4        2.45622   0.00028   0.00019  -0.00023  -0.00006   2.45616
    R5        2.58841  -0.00144   0.00193  -0.00709  -0.00522   2.58319
    R6        2.62659  -0.00140   0.00133  -0.00559  -0.00420   2.62238
    R7        2.26435   0.00123   0.00008   0.00086   0.00094   2.26529
    R8        2.94906  -0.00035  -0.00225   0.00534   0.00313   2.95219
    R9        2.23284  -0.00052   0.00016  -0.00047  -0.00030   2.23254
   R10        2.66107   0.00113  -0.00530   0.01568   0.01035   2.67141
    A1        2.07460  -0.00002  -0.00028   0.00057   0.00027   2.07487
    A2        2.10105   0.00012   0.00074  -0.00121  -0.00049   2.10056
    A3        2.10573  -0.00009  -0.00090   0.00194   0.00102   2.10675
    A4        2.20568  -0.00065   0.00018  -0.00186  -0.00167   2.20401
    A5        1.99542   0.00045   0.00098  -0.00160  -0.00062   1.99480
    A6        2.08206   0.00020  -0.00116   0.00351   0.00232   2.08438
    A7        1.84054   0.00007  -0.00063   0.00136   0.00086   1.84139
    A8        2.25922   0.00011  -0.00075   0.00312   0.00192   2.26114
    A9        1.86029   0.00034  -0.00033   0.00213   0.00157   1.86186
   A10        2.16284  -0.00036   0.00129  -0.00362  -0.00278   2.16006
   A11        2.32312   0.00034  -0.00207   0.00566   0.00370   2.32682
   A12        1.81909  -0.00045   0.00178  -0.00586  -0.00389   1.81520
   A13        2.14097   0.00011  -0.00012   0.00020   0.00019   2.14117
   A14        1.82252  -0.00013   0.00041  -0.00101  -0.00067   1.82184
    D1       -0.03012   0.00010  -0.00844   0.02894   0.02050  -0.00963
    D2        3.12027  -0.00016  -0.01100   0.02335   0.01235   3.13262
    D3       -3.10748  -0.00010  -0.00170   0.00590   0.00420  -3.10329
    D4        0.04291  -0.00036  -0.00426   0.00031  -0.00395   0.03896
    D5        3.13937   0.00052   0.00145   0.00580   0.00727  -3.13654
    D6       -0.01142   0.00078   0.00412   0.01163   0.01578   0.00436
    D7        3.12956   0.00031   0.00354  -0.00425  -0.00067   3.12889
    D8       -0.00391   0.00008   0.00119  -0.00939  -0.00819  -0.01209
    D9        3.11843   0.00120   0.01048   0.03365   0.04428  -3.12047
   D10        0.02012  -0.00121  -0.00706  -0.00828  -0.01537   0.00475
   D11        3.11881   0.00082   0.02461  -0.01282   0.01178   3.13059
   D12       -0.02268   0.00128   0.00786   0.00337   0.01122  -0.01146
   D13        0.01749  -0.00143   0.00827  -0.05204  -0.04368  -0.02619
   D14       -3.12400  -0.00097  -0.00848  -0.03585  -0.04424   3.11495
   D15        0.01557  -0.00081  -0.00531   0.00273  -0.00256   0.01301
   D16       -3.12593  -0.00041  -0.01993   0.01677  -0.00305  -3.12898
         Item               Value     Threshold  Converged?
 Maximum Force            0.001444     0.000450     NO 
 RMS     Force            0.000687     0.000300     NO 
 Maximum Displacement     0.032931     0.001800     NO 
 RMS     Displacement     0.008632     0.001200     NO 
 Predicted change in Energy=-1.267141D-04
 GradGradGradGradGradGradGradGradGradGradGradGradGradGradGradGradGradGrad

                          Input orientation:                          
 ---------------------------------------------------------------------
 Center     Atomic      Atomic             Coordinates (Angstroms)
 Number     Number       Type             X           Y           Z
 ---------------------------------------------------------------------
      1          7           0        1.253817    0.123554   -0.040763
      2          6           0        2.577686    0.012192   -0.114800
      3          7           0        3.265522   -1.083531    0.010129
      4          6           0        4.593218   -0.706543   -0.134205
      5          8           0        5.584556   -1.380204   -0.114019
      6          6           0        4.597911    0.838350   -0.366280
      7          8           0        5.458632    1.630360   -0.532421
      8          8           0        3.229293    1.191656   -0.344726
      9          1           0        0.704702   -0.704218    0.118932
     10          1           0        0.809783    1.014904   -0.184116
 ---------------------------------------------------------------------
                    Distance matrix (angstroms):
                    1          2          3          4          5
     1  N    0.000000
     2  C    1.330606   0.000000
     3  N    2.346615   1.299744   0.000000
     4  C    3.442295   2.139936   1.387706   0.000000
     5  O    4.584971   3.313614   2.341228   1.198740   0.000000
     6  C    3.435093   2.197064   2.368665   1.562234   2.441124
     7  O    4.493624   3.330575   3.531190   2.523616   3.042107
     8  O    2.266218   1.366966   2.302979   2.346864   3.494990
     9  H    1.006099   2.018896   2.591045   3.896747   4.931957
    10  H    1.006091   2.033646   3.236018   4.156952   5.342276
                    6          7          8          9         10
     6  C    0.000000
     7  O    1.181407   0.000000
     8  O    1.413650   2.279833   0.000000
     9  H    4.215688   5.336137   3.191062   0.000000
    10  H    3.796613   4.702329   2.431268   1.748788   0.000000
 Stoichiometry    C3H2N2O3
 Framework group  C1[X(C3H2N2O3)]
 Deg. of freedom    24
 Full point group                 C1      NOp   1
 Largest Abelian subgroup         C1      NOp   1
 Largest concise Abelian subgroup C1      NOp   1
                         Standard orientation:                         
 ---------------------------------------------------------------------
 Center     Atomic      Atomic             Coordinates (Angstroms)
 Number     Number       Type             X           Y           Z
 ---------------------------------------------------------------------
      1          7           0       -2.509191    0.021412   -0.005647
      2          6           0       -1.181650    0.111526   -0.000692
      3          7           0       -0.485233    1.208927   -0.007785
      4          6           0        0.842580    0.805646   -0.005028
      5          8           0        1.841537    1.468088    0.010266
      6          6           0        0.836640   -0.756573   -0.001939
      7          8           0        1.693069   -1.570336   -0.008516
      8          8           0       -0.536221   -1.093400    0.012423
      9          1           0       -3.053676    0.867443   -0.007347
     10          1           0       -2.957853   -0.878229    0.033951
 ---------------------------------------------------------------------
 Rotational constants (GHZ):           3.8916851           2.0399537           1.3384496
 Standard basis: 6-31G(2df,p) (6D, 7F)
 There are   258 symmetry adapted cartesian basis functions of A   symmetry.
 There are   234 symmetry adapted basis functions of A   symmetry.
   234 basis functions,   366 primitive gaussians,   258 cartesian basis functions
    29 alpha electrons       29 beta electrons
       nuclear repulsion energy       357.4554547134 Hartrees.
 NAtoms=   10 NActive=   10 NUniq=   10 SFac= 1.00D+00 NAtFMM=   60 NAOKFM=F Big=F
[...]
      7        8           0.000010887   -0.000027847   -0.000002269
      8        8           0.000063578    0.000010669    0.000025226
      9        1          -0.000002644    0.000011500    0.000022941
     10        1           0.000013239    0.000000832   -0.000002584
 -------------------------------------------------------------------
 Cartesian Forces:  Max     0.000199643 RMS     0.000059889
 FormGI is forming the generalized inverse of G from B-inverse, IUseBI=4.

 GradGradGradGradGradGradGradGradGradGradGradGradGradGradGradGradGradGrad
 Berny optimization.
 Internal  Forces:  Max     0.000151671 RMS     0.000032917
 Search for a local minimum.
 Step number   1 out of a maximum of    2
 All quantities printed in internal units (Hartrees-Bohrs-Radians)
 Second derivative matrix not updated -- analytic derivatives used.
 ITU=  0
     Eigenvalues ---    0.00286   0.00996   0.01575   0.02114   0.03629
     Eigenvalues ---    0.04782   0.06010   0.10094   0.10584   0.11630
     Eigenvalues ---    0.16567   0.19693   0.22304   0.24944   0.27757
     Eigenvalues ---    0.29074   0.37322   0.41804   0.47623   0.48771
     Eigenvalues ---    0.49909   0.61383   0.89564   0.98606
 Angle between quadratic step and forces=  74.22 degrees.
 Linear search not attempted -- first point.
 Iteration  1 RMS(Cart)=  0.00065441 RMS(Int)=  0.00000146
 Iteration  2 RMS(Cart)=  0.00000112 RMS(Int)=  0.00000097
 Iteration  3 RMS(Cart)=  0.00000000 RMS(Int)=  0.00000097
 Variable       Old X    -DE/DX   Delta X   Delta X   Delta X     New X
                                 (Linear)    (Quad)   (Total)
    R1        2.51232   0.00005   0.00000   0.00011   0.00011   2.51243
    R2        1.90115  -0.00000   0.00000  -0.00002  -0.00002   1.90113
    R3        1.90005  -0.00000   0.00000  -0.00001  -0.00001   1.90004
    R4        2.45969  -0.00015   0.00000  -0.00040  -0.00040   2.45928
    R5        2.57944   0.00004   0.00000   0.00033   0.00033   2.57977
    R6        2.61953  -0.00005   0.00000  -0.00005  -0.00005   2.61948
    R7        2.26679   0.00002   0.00000   0.00000   0.00000   2.26679
    R8        2.94775   0.00001   0.00000   0.00011   0.00011   2.94786
    R9        2.23092  -0.00001   0.00000   0.00004   0.00004   2.23095
   R10        2.67246  -0.00007   0.00000  -0.00048  -0.00048   2.67198
    A1        2.07358   0.00002   0.00000   0.00023   0.00022   2.07380
    A2        2.10387  -0.00002   0.00000  -0.00025  -0.00025   2.10361
    A3        2.10573   0.00000   0.00000   0.00004   0.00004   2.10577
    A4        2.19856   0.00003   0.00000   0.00038   0.00038   2.19895
    A5        2.00085  -0.00004   0.00000  -0.00032  -0.00032   2.00053
    A6        2.08377   0.00001   0.00000  -0.00006  -0.00006   2.08371
    A7        1.84081   0.00002   0.00000   0.00008   0.00008   1.84089
    A8        2.26208   0.00000   0.00000  -0.00002  -0.00002   2.26205
    A9        1.86293  -0.00001   0.00000  -0.00008  -0.00008   1.86285
   A10        2.15819   0.00000   0.00000   0.00010   0.00010   2.15829
   A11        2.32910  -0.00002   0.00000  -0.00030  -0.00030   2.32880
   A12        1.81572  -0.00002   0.00000   0.00004   0.00004   1.81575
   A13        2.13837   0.00004   0.00000   0.00026   0.00026   2.13863
   A14        1.82156  -0.00001   0.00000   0.00002   0.00002   1.82158
    D1       -0.00292   0.00001   0.00000   0.00291   0.00291  -0.00001
    D2        3.13868   0.00003   0.00000   0.00290   0.00290   3.14158
    D3       -3.13958  -0.00001   0.00000  -0.00200  -0.00200  -3.14158
    D4        0.00202   0.00001   0.00000  -0.00201  -0.00201   0.00001
    D5        3.14150   0.00001   0.00000   0.00009   0.00009  -3.14159
    D6       -0.00010  -0.00000   0.00000   0.00010   0.00010   0.00000
    D7        3.14136  -0.00001   0.00000   0.00023   0.00023   3.14159
    D8       -0.00023   0.00001   0.00000   0.00023   0.00023   0.00000
    D9       -3.14109  -0.00001   0.00000  -0.00050  -0.00050   3.14159
   D10        0.00035  -0.00000   0.00000  -0.00035  -0.00035  -0.00000
   D11        3.14113   0.00000   0.00000   0.00046   0.00046  -3.14159
   D12       -0.00048   0.00001   0.00000   0.00048   0.00048   0.00000
   D13       -0.00060   0.00000   0.00000   0.00060   0.00060   0.00000
   D14        3.14097   0.00001   0.00000   0.00062   0.00062  -3.14159
   D15        0.00040  -0.00001   0.00000  -0.00040  -0.00040  -0.00000
   D16       -3.14121  -0.00000   0.00000  -0.00039  -0.00039   3.14159
         Item               Value     Threshold  Converged?
 Maximum Force            0.000152     0.000450     YES
 RMS     Force            0.000033     0.000300     YES
 Maximum Displacement     0.002029     0.001800     NO 
 RMS     Displacement     0.000654     0.001200     YES
 Predicted change in Energy=-1.498584D-07
                           ----------------------------
                           ! Non-Optimized Parameters !
                           ! (Angstroms and Degrees)  !
 --------------------------                            --------------------------
 ! Name  Definition              Value          Derivative Info.                !
 --------------------------------------------------------------------------------
 ! R1    R(1,2)                  1.3295         -DE/DX =    0.0001              !
 ! R2    R(1,9)                  1.006          -DE/DX =    0.0                 !
 ! R3    R(1,10)                 1.0055         -DE/DX =    0.0                 !
 ! R4    R(2,3)                  1.3014         -DE/DX =   -0.0002              !
 ! R5    R(2,8)                  1.3652         -DE/DX =    0.0                 !
 ! R6    R(3,4)                  1.3862         -DE/DX =   -0.0001              !
 ! R7    R(4,5)                  1.1995         -DE/DX =    0.0                 !
 ! R8    R(4,6)                  1.5599         -DE/DX =    0.0                 !
 ! R9    R(6,7)                  1.1806         -DE/DX =    0.0                 !
 ! R10   R(6,8)                  1.414          -DE/DX =   -0.0001              !
 ! A1    A(2,1,9)              118.8201         -DE/DX =    0.0                 !
 ! A2    A(2,1,10)             120.5282         -DE/DX =    0.0                 !
 ! A3    A(9,1,10)             120.6517         -DE/DX =    0.0                 !
 ! A4    A(1,2,3)              125.9903         -DE/DX =    0.0                 !
 ! A5    A(1,2,8)              114.6221         -DE/DX =    0.0                 !
 ! A6    A(3,2,8)              119.3876         -DE/DX =    0.0                 !
 ! A7    A(2,3,4)              105.4754         -DE/DX =    0.0                 !
 ! A8    A(3,4,5)              129.606          -DE/DX =    0.0                 !
 ! A9    A(3,4,6)              106.7332         -DE/DX =    0.0                 !
 ! A10   A(5,4,6)              123.6608         -DE/DX =    0.0                 !
 ! A11   A(4,6,7)              133.4304         -DE/DX =    0.0                 !
 ! A12   A(4,6,8)              104.035          -DE/DX =    0.0                 !
 ! A13   A(7,6,8)              122.5346         -DE/DX =    0.0                 !
 ! A14   A(2,8,6)              104.3688         -DE/DX =    0.0                 !
 ! D1    D(9,1,2,3)             -0.0005         -DE/DX =    0.0                 !
 ! D2    D(9,1,2,8)            179.9995         -DE/DX =    0.0                 !
 ! D3    D(10,1,2,3)          -179.9995         -DE/DX =    0.0                 !
 ! D4    D(10,1,2,8)             0.0005         -DE/DX =    0.0                 !
 ! D5    D(1,2,3,4)           -179.9999         -DE/DX =    0.0                 !
 ! D6    D(8,2,3,4)              0.0            -DE/DX =    0.0                 !
 ! D7    D(1,2,8,6)            180.0            -DE/DX =    0.0                 !
 ! D8    D(3,2,8,6)              0.0            -DE/DX =    0.0                 !
 ! D9    D(2,3,4,5)            180.0            -DE/DX =    0.0                 !
 ! D10   D(2,3,4,6)              0.0            -DE/DX =    0.0                 !
 ! D11   D(3,4,6,7)           -180.0            -DE/DX =    0.0                 !
 ! D12   D(3,4,6,8)              0.0            -DE/DX =    0.0                 !
 ! D13   D(5,4,6,7)              0.0            -DE/DX =    0.0                 !
 ! D14   D(5,4,6,8)           -180.0            -DE/DX =    0.0                 !
 ! D15   D(4,6,8,2)              0.0            -DE/DX =    0.0                 !
 ! D16   D(7,6,8,2)            180.0            -DE/DX =    0.0                 !
 --------------------------------------------------------------------------------
 GradGradGradGradGradGradGradGradGradGradGradGradGradGradGradGradGradGrad


 ----------------------------------------------------------------------

 Electric dipole moment (input orientation):
 (Debye = 10**-18 statcoulomb cm , SI units = C m)
                  (au)            (Debye)         (10**-30 SI)
   Tot        0.265793D+01      0.675579D+01      0.225349D+02
   x         -0.258802D+01     -0.657808D+01     -0.219421D+02
   y          0.601606D+00      0.152913D+01      0.510063D+01
   z          0.695623D-01      0.176810D+00      0.589774D+00

 Dipole polarizability, Alpha (input orientation).
 (esu units = cm**3 , SI units = C**2 m**2 J**-1)
 Alpha(0;0):
               (au)            (10**-24 esu)      (10**-40 SI)
   iso        0.521166D+02      0.772289D+01      0.859287D+01
   aniso      0.456949D+02      0.677129D+01      0.753407D+01
   xx         0.785674D+02      0.116425D+02      0.129540D+02
   yx        -0.372217D+01     -0.551569D+00     -0.613703D+00
   yy         0.506487D+02      0.750537D+01      0.835085D+01
   zx        -0.272161D+01     -0.403302D+00     -0.448734D+00
   zy        -0.343128D+01     -0.508463D+00     -0.565742D+00
   zz         0.271337D+02      0.402080D+01      0.447375D+01

 ----------------------------------------------------------------------

 Dipole orientation:
     7          0.13644917          0.75002473         -2.25736976
     6          0.15965688          1.12701356         -4.74113544
     7          0.03956045         -0.61977357         -6.46866861
     6          0.12348516          0.65320253         -8.75655795
     8          0.06495125         -0.16622600        -10.86924088
     6          0.31970948          3.52542112         -8.12324812
     8          0.44434628          5.36753896         -9.37546593
     8          0.32676676          3.60096911         -5.45186216
     1          0.01146852         -1.03026045         -1.60212030
     1          0.23394040          2.21945410         -1.05675578

 Electric dipole moment (dipole orientation):
 (Debye = 10**-18 statcoulomb cm , SI units = C m)
                  (au)            (Debye)         (10**-30 SI)
   Tot        0.265793D+01      0.675579D+01      0.225349D+02
   x          0.000000D+00      0.000000D+00      0.000000D+00
   y          0.000000D+00      0.000000D+00      0.000000D+00
   z          0.265793D+01      0.675579D+01      0.225349D+02

 Dipole polarizability, Alpha (dipole orientation).
 (esu units = cm**3 , SI units = C**2 m**2 J**-1)
 Alpha(0;0):
               (au)            (10**-24 esu)      (10**-40 SI)
   iso        0.521166D+02      0.772289D+01      0.859287D+01
   aniso      0.456949D+02      0.677129D+01      0.753407D+01
   xx         0.265561D+02      0.393521D+01      0.437851D+01
   yx         0.166828D+01      0.247213D+00      0.275061D+00
   yy         0.509532D+02      0.755048D+01      0.840104D+01
   zx        -0.154207D+00     -0.228511D-01     -0.254253D-01
   zy        -0.296132D+01     -0.438822D+00     -0.488255D+00
   zz         0.788406D+02      0.116830D+02      0.129991D+02

 ----------------------------------------------------------------------
 1\1\GINC-LEWIS4-R630-HPC4-NODE235\Freq\RB3LYP\6-31G(2df,p)\C3H2N2O3\KS
 29C\03-Jul-2022\0\\#N Geom=AllCheck Guess=TCheck SCRF=Check GenChk RB3
 LYP/6-31G(2df,p) Freq\\Title Card Required\\0,1\N,1.2538626296,0.12220
 98887,-0.0507917077\C,2.5774215302,0.0168861644,-0.1183866454\N,3.2641
 860598,-1.0818912572,0.0050305978\C,4.5910929685,-0.7063883007,-0.1358
 844332\O,5.5841830708,-1.3780637408,-0.0971560186\C,4.5991072835,0.835
 7992142,-0.3700302051\O,5.4586994534,1.6261183249,-0.5437940973\O,3.23
 15255677,1.19455153,-0.3384456117\H,0.7088764522,-0.7085639054,0.10712
 12899\H,0.8061649843,1.0158620819,-0.1599331687\\Version=ES64L-G16RevA
 .03\State=1-A\HF=-450.7347058\RMSD=4.023e-09\RMSF=5.989e-05\ZeroPoint=
 0.0610796\Thermal=0.0675869\Dipole=-2.5880174,0.6016065,0.0695623\Dipo
 leDeriv=-1.5451493,0.2126384,0.0333437,0.1065584,-0.2822394,-0.0415951
 ,0.0521217,-0.0487832,-0.5083086,2.2713161,-0.2103306,-0.0896551,-0.40
 08578,1.4397455,-0.1406616,-0.061005,-0.1527682,0.3720921,-1.6631998,0
 .3799478,0.0258241,0.2662115,-0.8132838,0.0545875,0.0428989,0.0474548,
 -0.3520755,1.8454504,-0.430714,-0.0340454,-0.0632124,0.7475674,-0.0673
 73,-0.0897765,-0.0442232,0.2884975,-1.0585994,0.3111845,-0.0007411,0.4
 067529,-0.6364063,0.0214806,-0.0151083,0.0275229,-0.3279405,1.6874178,
 0.4484764,-0.1521997,0.2121501,0.6752501,-0.0630714,-0.1164228,-0.0779
 359,0.3660326,-0.7695599,-0.2838982,0.0731371,-0.4608249,-0.6951414,0.
 0903251,0.0999809,0.0792176,-0.3085252,-1.290133,-0.4261116,0.1369471,
 -0.0726955,-0.8667535,0.1149075,0.0832133,0.1372795,-0.1655144,0.26972
 07,0.0586568,-0.0058948,0.1173981,0.1979655,0.0108482,-0.0159756,0.014
 6212,0.3177043,0.2527364,-0.0598495,0.0132841,-0.1114804,0.2332959,0.0
 205521,0.0200732,0.0176144,0.3180377\Polar=78.5674243,-3.7221703,50.64
 87339,-2.7216149,-3.4312792,27.1337196\Quadrupole=5.1574811,-5.7133169
 ,0.5558359,-0.0552999,-0.2567706,0.973575\PG=C01 [X(C3H2N2O3)]\NImag=0
 \\0.84658298,-0.00991665,0.87642770,-0.04901448,-0.12844153,0.04665829
 ,-0.43061749,0.03245419,0.01881443,0.94745184,0.01438782,-0.13346391,0
 .01182738,-0.12893354,0.64615937,0.02187776,0.01064226,-0.05266167,-0.
 02715221,-0.05890464,0.21511408,-0.05498756,0.06003823,-0.00474490,-0.
 20248726,0.13370384,-0.01268457,0.53955521,0.02641166,0.00205311,0.000
 03118,0.12459299,-0.34467923,0.03210080,-0.11257047,0.54836487,0.00032
 611,-0.00205498,0.01377884,-0.01130679,0.03150966,-0.08557107,-0.01267
 942,-0.06571620,0.07926816,0.02000910,-0.00984497,0.00057535,-0.086978
 10,0.09513340,-0.00936074,-0.20187791,-0.04945768,0.01644192,0.9172697
 6,0.00767326,-0.01067818,0.00206224,0.04915488,0.01527784,-0.00645882,
 -0.09308941,-0.12261557,0.01530607,-0.28293650,0.57300503,-0.00203798,
 0.00316610,0.00579601,-0.00240427,-0.00935450,-0.00526698,0.02307107,0
 .01255285,-0.06379395,-0.00346321,-0.04069726,0.19233216,-0.00896206,0
 .00717313,-0.00056964,0.00492723,-0.03587898,0.00561183,-0.08389993,0.
 04028013,0.00006512,-0.53921782,0.31138061,-0.01701448,0.62742957,0.00
 164932,0.00132788,-0.00046233,-0.01202113,0.00236305,0.00155162,0.0189
 0539,0.02349923,-0.00271703,0.31620975,-0.31924201,0.01860357,-0.36918
 108,0.33090069,0.00025211,-0.00080511,-0.00089235,0.00199421,0.0030576
 6,0.00698794,0.00330150,-0.00407560,0.01386008,-0.01774702,0.01891734,
 -0.06569078,0.01791090,-0.02242518,0.03048427,0.00651877,0.01445377,-0
 .00257613,-0.06997649,-0.12124042,0.02275910,-0.05766047,-0.00297033,0
 .00555749,-0.02951185,0.03118054,-0.00927607,-0.01815372,0.03183156,-0
 .00226808,0.70497920,0.00093855,-0.01040296,0.00158445,-0.05108614,0.0
 2510795,-0.00069773,-0.00277434,-0.02486374,0.00747718,-0.03873647,-0.
 11546330,0.00456041,0.02991981,-0.02684412,0.00552285,0.37119413,0.771
 07715,-0.00051974,0.00075713,0.00046292,0.01211609,0.00371898,-0.00204
 130,0.00553006,0.00750410,0.02179744,0.00134290,0.00015972,-0.10165279
 ,-0.00198045,0.00538917,0.02145270,-0.09091320,-0.11683555,0.17751580,
 -0.00333940,-0.00764228,0.00137812,-0.00072229,0.03791479,-0.00539772,
 0.01106421,-0.00980235,0.00057477,-0.01139884,-0.01274391,0.00409526,0
 .00642574,-0.00143740,-0.00042936,-0.47001722,-0.39029662,0.08518840,0
 .56389927,-0.00305130,0.00093883,0.00007641,0.01169858,0.00102969,-0.0
 0013756,-0.00878892,-0.01174194,0.00181878,-0.03149511,-0.00469549,0.0
 0617007,0.00335452,0.00045608,-0.00085778,-0.36959107,-0.48105538,0.08
 770409,0.43192118,0.46849625,0.00068083,0.00035559,0.00003013,-0.00141
 386,-0.00178586,0.00535662,0.00041859,0.00187623,-0.00371974,0.0069293
 7,0.00498932,0.02178185,-0.00115538,-0.00055209,-0.00366439,0.08205269
 ,0.08901384,-0.07413189,-0.09928498,-0.09427642,0.04594104,-0.04209833
 ,-0.06679000,0.01335478,-0.13451935,0.00241724,0.00368220,0.05053076,-
 0.01431119,0.00059247,-0.06660189,-0.01317531,0.00716760,0.01089174,0.
 01507548,-0.00309859,-0.06457918,0.08321919,-0.01125244,-0.09621060,-0
 .03506771,0.01196119,0.34377928,-0.01856003,0.00134566,0.00239885,-0.0
 2679809,-0.22443929,0.02505757,0.00508652,-0.06986149,0.01414166,0.002
 00729,-0.01610921,0.00468895,0.01262195,-0.01202111,0.00070753,0.04439
 663,-0.13815080,0.01168026,-0.04769677,0.02703845,0.00032981,0.0273625
 5,0.43193838,0.00605474,0.00542355,0.00807934,0.00810002,0.02322679,-0
 .07447547,-0.00234971,0.01537047,0.02328632,0.00487494,0.00562887,0.01
 439896,-0.00273474,0.00056337,-0.00197763,-0.00535367,0.00923787,-0.04
 382132,0.01387596,-0.00046295,0.00864588,-0.02248609,-0.05928710,0.063
 06602,-0.18496549,-0.17240227,0.03694046,-0.01616614,-0.03390500,0.005
 89612,0.00507106,0.00029586,-0.00050094,-0.00233926,-0.00005617,0.0000
 1995,0.00115725,-0.00017559,-0.00001215,0.00197698,-0.00219238,0.00035
 207,-0.00098765,0.00063082,-0.00007636,-0.00637385,0.00262671,0.000349
 64,0.18850678,-0.17438139,-0.34211668,0.06148407,-0.00372127,0.0104051
 2,-0.00175131,0.00300992,-0.00182093,-0.00027293,-0.00193929,-0.001063
 54,-0.00005711,0.00107377,-0.00028803,0.00006162,0.00004485,0.00070216
 ,0.00023955,0.00023364,-0.00014546,-0.00009647,0.00289964,0.00101949,0
 .00050459,0.19037490,0.34407113,0.03704464,0.06117768,-0.01542046,0.00
 150676,0.00014589,-0.00288339,-0.00094329,-0.00008606,-0.00228625,0.00
 031045,-0.00017702,-0.00227983,-0.00020511,0.00014239,0.00056314,0.000
 01880,0.00039371,0.00227631,-0.00001495,-0.00012488,-0.00067666,0.0003
 3625,0.00052796,0.00549495,-0.03961064,-0.06208330,0.01985158,-0.14814
 054,0.15247686,-0.01415799,-0.01091194,0.03640086,-0.00523175,-0.00530
 812,-0.00246861,0.00092928,0.00064681,0.00261199,-0.00015788,-0.000598
 00,-0.00085630,0.00009646,-0.00357601,-0.00018573,0.00013630,0.0012867
 8,0.00038903,-0.00011210,0.00518144,-0.00104676,-0.00033110,0.01412033
 ,-0.01759478,0.00155710,0.14729924,0.15484876,-0.38543146,0.04943928,0
 .00465953,0.00223941,-0.00140217,-0.00352075,0.00166569,0.00050779,0.0
 0105959,0.00158442,0.00036690,-0.00074385,-0.00015166,-0.00010332,0.00
 070035,-0.00010696,-0.00031745,-0.00045029,-0.00032103,0.00014604,-0.0
 0162988,-0.00076007,-0.00020546,0.01480312,-0.01076326,0.00008363,-0.1
 6972657,0.39204492,-0.01466398,0.04977931,-0.00583106,-0.00025439,-0.0
 0344135,-0.00455877,0.00108066,0.00044222,0.00338018,0.00009603,0.0002
 6955,0.00437535,0.00007194,-0.00009350,-0.00112297,-0.00000092,-0.0002
 5703,-0.00185787,0.00001449,0.00009024,0.00043716,-0.00025736,-0.00024
 548,-0.00269705,-0.00335814,0.00197128,-0.00463939,0.01727168,-0.04851
 524,0.01251442\\0.00006092,-0.00000206,0.00001357,-0.00011188,0.000199
 64,0.00000603,0.00001620,-0.00016385,0.00003128,0.00006452,0.00002521,
 -0.00000537,-0.00002075,0.00000941,-0.00001036,0.00007605,-0.00007320,
 0.00000816,-0.00001089,0.00002785,0.00000227,-0.00006358,-0.00001067,-
 0.00002523,0.00000264,-0.00001150,-0.00002294,-0.00001324,-0.00000083,
 0.00000258\\\@


 Everywhere is walking distance if you have the time.
                                    -- Steven Wright
 Job cpu time:       0 days  0 hours 43 minutes 13.2 seconds.
 Elapsed time:       0 days  0 hours 10 minutes 48.8 seconds.
 File lengths (MBytes):  RWF=     61 Int=      0 D2E=      0 Chk=      5 Scr=      1
 Normal termination of Gaussian 16 at Sun Jul  3 12:03:33 2022.
### All Done ###
