### Starting Gaussian ###
 Entering Gaussian System, Link 0=g16
 Initial command:
 /cluster/software/gaussian/gaussian-16-A.03/avx2/g16/l1.exe "/local/scratch/ks29c/Gau-11058.inp" -scrdir="/local/scratch/ks29c/"
 Entering Link 1 = /cluster/software/gaussian/gaussian-16-A.03/avx2/g16/l1.exe PID=     11059.
  
 Copyright (c) 1988,1990,1992,1993,1995,1998,2003,2009,2016,
            Gaussian, Inc.  All Rights Reserved.
  
 This is part of the Gaussian(R) 16 program.  It is based on
 the Gaussian(R) 09 system (copyright 2009, Gaussian, Inc.),
 the Gaussian(R) 03 system (copyright 2003, Gaussian, Inc.),
 the Gaussian(R) 98 system (copyright 1998, Gaussian, Inc.),
 the Gaussian(R) 94 system (copyright 1995, Gaussian, Inc.),
 the Gaussian 92(TM) system (copyright 1992, Gaussian, Inc.),
 the Gaussian 90(TM) system (copyright 1990, Gaussian, Inc.),
 the Gaussian 88(TM) system (copyright 1988, Gaussian, Inc.),
 the Gaussian 86(TM) system (copyright 1986, Carnegie Mellon
 University), and the Gaussian 82(TM) system (copyright 1983,
 Carnegie Mellon University). Gaussian is a federally registered
 trademark of Gaussian, Inc.
  
 This software contains proprietary and confidential information,
 including trade secrets, belonging to Gaussian, Inc.
  
 This software is provided under written license and may be
 used, copied, transmitted, or stored only in accord with that
 written license.
  
 The following legend is applicable only to US Government
 contracts under FAR:
  
                    RESTRICTED RIGHTS LEGEND
  
 Use, reproduction and disclosure by the US Government is
 subject to restrictions as set forth in subparagraphs (a)
 and (c) of the Commercial Computer Software - Restricted
 Rights clause in FAR 52.227-19.
  
 Gaussian, Inc.
 340 Quinnipiac St., Bldg. 40, Wallingford CT 06492
  
  
 ---------------------------------------------------------------
 Warning -- This program may not be used in any manner that
 competes with the business of Gaussian, Inc. or will provide
 assistance to any competitor of Gaussian, Inc.  The licensee
 of this program is prohibited from giving any competitor of
 Gaussian, Inc. access to this program.  By using this program,
 the user acknowledges that Gaussian, Inc. is engaged in the
 business of creating and licensing software in the field of
 computational chemistry and represents and warrants to the
 licensee that it is not a competitor of Gaussian, Inc. and that
 it will not use this program in any manner prohibited above.
 ---------------------------------------------------------------
  

 Cite this work as:
 Gaussian 16, Revision A.03,
 M. J. Frisch, G. W. Trucks, H. B. Schlegel, G. E. Scuseria, 
 M. A. Robb, J. R. Cheeseman, G. Scalmani, V. Barone, 
 G. A. Petersson, H. Nakatsuji, X. Li, M. Caricato, A. V. Marenich, 
 J. Bloino, B. G. Janesko, R. Gomperts, B. Mennucci, H. P. Hratchian, 
 J. V. Ortiz, A. F. Izmaylov, J. L. Sonnenberg, D. Williams-Young, 
 F. Ding, F. Lipparini, F. Egidi, J. Goings, B. Peng, A. Petrone, 
 T. Henderson, D. Ranasinghe, V. G. Zakrzewski, J. Gao, N. Rega, 
 G. Zheng, W. Liang, M. Hada, M. Ehara, K. Toyota, R. Fukuda, 
 J. Hasegawa, M. Ishida, T. Nakajima, Y. Honda, O. Kitao, H. Nakai, 
 T. Vreven, K. Throssell, J. A. Montgomery, Jr., J. E. Peralta, 
 F. Ogliaro, M. J. Bearpark, J. J. Heyd, E. N. Brothers, K. N. Kudin, 
 V. N. Staroverov, T. A. Keith, R. Kobayashi, J. Normand, 
 K. Raghavachari, A. P. Rendell, J. C. Burant, S. S. Iyengar, 
 J. Tomasi, M. Cossi, J. M. Millam, M. Klene, C. Adamo, R. Cammi, 
 J. W. Ochterski, R. L. Martin, K. Morokuma, O. Farkas, 
 J. B. Foresman, and D. J. Fox, Gaussian, Inc., Wallingford CT, 2016.
 
 ******************************************
 Gaussian 16:  ES64L-G16RevA.03 25-Dec-2016
                 4-Aug-2022 
 ******************************************
 %chk=Ndc1cnnccn1.chk
 %NProcShared=20
 Will use up to   20 processors via shared memory.
 -----------------------------
 # opt freq b3lyp/6-31g(2df,p)
 -----------------------------
 1/18=20,19=15,26=3,38=1/1,3;
 2/9=110,12=2,17=6,18=5,40=1/2;
 3/5=1,6=6,7=104,11=2,25=1,30=1,71=1,74=-5/1,2,3;
 4//1;
 5/5=2,38=5/2;
 6/7=2,8=2,9=2,10=2,28=1/1;
 7//1,2,3,16;
 1/18=20,19=15,26=3/3(2);
 2/9=110/2;
 99//99;
 2/9=110/2;
 3/5=1,6=6,7=104,11=2,25=1,30=1,71=1,74=-5/1,2,3;
 4/5=5,16=3,69=1/1;
 5/5=2,38=5/2;
 7//1,2,3,16;
 1/18=20,19=15,26=3/3(-5);
 2/9=110/2;
 6/7=2,8=2,9=2,10=2,19=2,28=1/1;
 99/9=1/99;
 -------------------
 Title Card Required
 -------------------
 Symbolic Z-matrix:
 Charge =  0 Multiplicity = 1
 N                     2.297    -0.16183  -0.08637 
 C                     3.29494   0.64331   0.28129 
 C                     2.90927   1.95091   0.92664 
 N                     3.74402   2.91049   1.30866 
 N                     5.22466   3.10637   0.84325 
 C                     5.89181   2.0366    0.48991 
 C                     5.30427   0.93137   1.05666 
 N                     4.55961   0.17309   0.22656 
 H                     1.37982   0.24467   0.11999 
 H                     1.81847   2.03081   1.10378 
 H                     6.94329   1.68254   0.20289 
 H                     5.93242   0.89856   1.92452 
 

 GradGradGradGradGradGradGradGradGradGradGradGradGradGradGradGradGradGrad
 Berny optimization.
 Initialization pass.
                           ----------------------------
                           !    Initial Parameters    !
                           ! (Angstroms and Degrees)  !
 --------------------------                            --------------------------
 ! Name  Definition              Value          Derivative Info.                !
 --------------------------------------------------------------------------------
 ! R1    R(1,2)                  1.3339         estimate D2E/DX2                !
 ! R2    R(1,9)                  1.0242         estimate D2E/DX2                !
 ! R3    R(2,3)                  1.5083         estimate D2E/DX2                !
 ! R4    R(2,8)                  1.3504         estimate D2E/DX2                !
 ! R5    R(3,4)                  1.328          estimate D2E/DX2                !
 ! R6    R(3,10)                 1.108          estimate D2E/DX2                !
 ! R7    R(4,5)                  1.5644         estimate D2E/DX2                !
 ! R8    R(5,6)                  1.3093         estimate D2E/DX2                !
 ! R9    R(6,7)                  1.374          estimate D2E/DX2                !
 ! R10   R(6,11)                 1.146          estimate D2E/DX2                !
 ! R11   R(7,8)                  1.3485         estimate D2E/DX2                !
 ! R12   R(7,12)                 1.0718         estimate D2E/DX2                !
 ! A1    A(2,1,9)              112.0151         estimate D2E/DX2                !
 ! A2    A(1,2,3)              116.7377         estimate D2E/DX2                !
 ! A3    A(1,2,8)              118.6398         estimate D2E/DX2                !
 ! A4    A(3,2,8)              123.965          estimate D2E/DX2                !
 ! A5    A(2,3,4)              126.0706         estimate D2E/DX2                !
 ! A6    A(2,3,10)             112.4981         estimate D2E/DX2                !
 ! A7    A(4,3,10)             121.382          estimate D2E/DX2                !
 ! A8    A(3,4,5)              126.8579         estimate D2E/DX2                !
 ! A9    A(4,5,6)              117.4028         estimate D2E/DX2                !
 ! A10   A(5,6,7)              109.1481         estimate D2E/DX2                !
 ! A11   A(5,6,11)             141.9538         estimate D2E/DX2                !
 ! A12   A(7,6,11)             104.3075         estimate D2E/DX2                !
 ! A13   A(6,7,8)              115.7546         estimate D2E/DX2                !
 ! A14   A(6,7,12)              96.2002         estimate D2E/DX2                !
 ! A15   A(8,7,12)             143.5921         estimate D2E/DX2                !
 ! A16   A(2,8,7)              107.2417         estimate D2E/DX2                !
 ! D1    D(9,1,2,3)              0.7288         estimate D2E/DX2                !
 ! D2    D(9,1,2,8)            171.8081         estimate D2E/DX2                !
 ! D3    D(1,2,3,4)           -176.894          estimate D2E/DX2                !
 ! D4    D(1,2,3,10)             5.6473         estimate D2E/DX2                !
 ! D5    D(8,2,3,4)             12.5505         estimate D2E/DX2                !
 ! D6    D(8,2,3,10)          -164.9082         estimate D2E/DX2                !
 ! D7    D(1,2,8,7)           -158.5417         estimate D2E/DX2                !
 ! D8    D(3,2,8,7)             11.8461         estimate D2E/DX2                !
 ! D9    D(2,3,4,5)             18.3304         estimate D2E/DX2                !
 ! D10   D(10,3,4,5)          -164.4199         estimate D2E/DX2                !
 ! D11   D(3,4,5,6)            -28.5797         estimate D2E/DX2                !
 ! D12   D(4,5,6,7)            -21.7232         estimate D2E/DX2                !
 ! D13   D(4,5,6,11)          -171.9681         estimate D2E/DX2                !
 ! D14   D(5,6,7,8)            103.7091         estimate D2E/DX2                !
 ! D15   D(5,6,7,12)           -94.2556         estimate D2E/DX2                !
 ! D16   D(11,6,7,8)           -94.6913         estimate D2E/DX2                !
 ! D17   D(11,6,7,12)           67.344          estimate D2E/DX2                !
 ! D18   D(6,7,8,2)            -90.5527         estimate D2E/DX2                !
 ! D19   D(12,7,8,2)           120.5529         estimate D2E/DX2                !
 --------------------------------------------------------------------------------
 Trust Radius=3.00D-01 FncErr=1.00D-07 GrdErr=1.00D-06 EigMax=2.50D+02 EigMin=1.00D-04
 Number of steps in this run=     57 maximum allowed number of steps=    100.
 GradGradGradGradGradGradGradGradGradGradGradGradGradGradGradGradGradGrad

                          Input orientation:                          
 ---------------------------------------------------------------------
 Center     Atomic      Atomic             Coordinates (Angstroms)
 Number     Number       Type             X           Y           Z
 ---------------------------------------------------------------------
      1          7           0        2.297000   -0.161830   -0.086370
      2          6           0        3.294940    0.643310    0.281290
      3          6           0        2.909270    1.950910    0.926640
      4          7           0        3.744020    2.910490    1.308660
      5          7           0        5.224660    3.106370    0.843250
      6          6           0        5.891810    2.036600    0.489910
      7          6           0        5.304270    0.931370    1.056660
      8          7           0        4.559610    0.173090    0.226560
      9          1           0        1.379820    0.244670    0.119990
     10          1           0        1.818470    2.030810    1.103780
     11          1           0        6.943290    1.682540    0.202890
     12          1           0        5.932420    0.898560    1.924520
 ---------------------------------------------------------------------
                    Distance matrix (angstroms):
                    1          2          3          4          5
     1  N    0.000000
     2  C    1.333907   0.000000
     3  C    2.421721   1.508322   0.000000
     4  N    3.671393   2.529282   1.327984   0.000000
     5  N    4.485144   3.179038   2.589029   1.564375   0.000000
     6  C    4.252982   2.954406   3.015563   2.459072   1.309330
     7  C    3.397834   2.172921   2.606222   2.532746   2.186894
     8  N    2.308571   1.350368   2.524753   3.054421   3.070298
     9  H    1.024229   1.962808   2.429230   3.756191   4.847187
    10  H    2.540299   2.186689   1.107974   2.126865   3.581457
    11  H    5.007333   3.794286   4.107208   3.600822   2.321862
    12  H    4.287701   3.117957   3.353005   3.035826   2.558221
                    6          7          8          9         10
     6  C    0.000000
     7  C    1.374024   0.000000
     8  N    2.305814   1.348545   0.000000
     9  H    4.868871   4.092703   3.182380   0.000000
    10  H    4.119341   3.655378   3.425564   2.085798   0.000000
    11  H    1.146014   1.994885   2.821512   5.746872   5.215043
    12  H    1.831636   1.071835   2.300866   4.940655   4.345134
                   11         12
    11  H    0.000000
    12  H    2.144876   0.000000
 Stoichiometry    C4H4N4
 Framework group  C1[X(C4H4N4)]
 Deg. of freedom    30
 Full point group                 C1      NOp   1
 Largest Abelian subgroup         C1      NOp   1
 Largest concise Abelian subgroup C1      NOp   1
                         Standard orientation:                         
 ---------------------------------------------------------------------
 Center     Atomic      Atomic             Coordinates (Angstroms)
 Number     Number       Type             X           Y           Z
 ---------------------------------------------------------------------
      1          7           0       -2.517486   -0.253468   -0.198880
      2          6           0       -1.189909   -0.171281   -0.098423
      3          6           0       -0.610267    1.202671    0.128088
      4          7           0        0.681026    1.504850    0.197307
      5          7           0        1.876624    0.637639   -0.318214
      6          6           0        1.713542   -0.661313   -0.339990
      7          6           0        0.713425   -1.004754    0.537367
      8          7           0       -0.474742   -1.314063   -0.020450
      9          1           0       -2.966279    0.663472   -0.116099
     10          1           0       -1.392047    1.972464    0.282508
     11          1           0        2.283655   -1.639641   -0.516608
     12          1           0        1.355966   -1.212944    1.369609
 ---------------------------------------------------------------------
 Rotational constants (GHZ):           4.3860140           2.1128912           1.5105995
 Standard basis: 6-31G(2df,p) (6D, 7F)
 There are   268 symmetry adapted cartesian basis functions of A   symmetry.
 There are   244 symmetry adapted basis functions of A   symmetry.
   244 basis functions,   380 primitive gaussians,   268 cartesian basis functions
    28 alpha electrons       28 beta electrons
       nuclear repulsion energy       333.4914294035 Hartrees.
 NAtoms=   12 NActive=   12 NUniq=   12 SFac= 1.00D+00 NAtFMM=   60 NAOKFM=F Big=F
 Integral buffers will be    131072 words long.
 Raffenetti 2 integral format.
 Two-electron integral symmetry is turned on.
 One-electron integrals computed using PRISM.
 PrsmSu:  requested number of processors reduced to:  13 ShMem   1 Linda.
 NBasis=   244 RedAO= T EigKep=  2.07D-04  NBF=   244
 NBsUse=   244 1.00D-06 EigRej= -1.00D+00 NBFU=   244
 ExpMin= 1.61D-01 ExpMax= 4.17D+03 ExpMxC= 6.27D+02 IAcc=3 IRadAn=         5 AccDes= 0.00D+00
 Harris functional with IExCor=  402 and IRadAn=       5 diagonalized for initial guess.
 HarFok:  IExCor=  402 AccDes= 0.00D+00 IRadAn=         5 IDoV= 1 UseB2=F ITyADJ=14
 ICtDFT=  3500011 ScaDFX=  1.000000  1.000000  1.000000  1.000000
 FoFCou: FMM=F IPFlag=           0 FMFlag=      100000 FMFlg1=           0
         NFxFlg=           0 DoJE=T BraDBF=F KetDBF=T FulRan=T
         wScrn=  0.000000 ICntrl=       500 IOpCl=  0 I1Cent=   200000004 NGrid=           0
         NMat0=    1 NMatS0=      1 NMatT0=    0 NMatD0=    1 NMtDS0=    0 NMtDT0=    0
 Petite list used in FoFCou.
 Requested convergence on RMS density matrix=1.00D-08 within 128 cycles.
 Requested convergence on MAX density matrix=1.00D-06.
 Requested convergence on             energy=1.00D-06.
 No special actions if energy rises.
 Integral accuracy reduced to 1.0D-05 until final iterations.
 EnCoef did     4 forward-backward iterations
 EnCoef did     5 forward-backward iterations
 Initial convergence to 1.0D-05 achieved.  Increase integral accuracy.
 SCF Done:  E(RB3LYP) =  -373.566071901     A.U. after   21 cycles
            NFock= 21  Conv=0.31D-08     -V/T= 2.0077

 **********************************************************************

            Population analysis using the SCF density.

 **********************************************************************

 Orbital symmetries:
       Occupied  (A) (A) (A) (A) (A) (A) (A) (A) (A) (A) (A) (A)
                 (A) (A) (A) (A) (A) (A) (A) (A) (A) (A) (A) (A)
                 (A) (A) (A) (A)
       Virtual   (A) (A) (A) (A) (A) (A) (A) (A) (A) (A) (A) (A)
                 (A) (A) (A) (A) (A) (A) (A) (A) (A) (A) (A) (A)
                 (A) (A) (A) (A) (A) (A) (A) (A) (A) (A) (A) (A)
                 (A) (A) (A) (A) (A) (A) (A) (A) (A) (A) (A) (A)
                 (A) (A) (A) (A) (A) (A) (A) (A) (A) (A) (A) (A)
                 (A) (A) (A) (A) (A) (A) (A) (A) (A) (A) (A) (A)
                 (A) (A) (A) (A) (A) (A) (A) (A) (A) (A) (A) (A)
                 (A) (A) (A) (A) (A) (A) (A) (A) (A) (A) (A) (A)
                 (A) (A) (A) (A) (A) (A) (A) (A) (A) (A) (A) (A)
                 (A) (A) (A) (A) (A) (A) (A) (A) (A) (A) (A) (A)
                 (A) (A) (A) (A) (A) (A) (A) (A) (A) (A) (A) (A)
                 (A) (A) (A) (A) (A) (A) (A) (A) (A) (A) (A) (A)
                 (A) (A) (A) (A) (A) (A) (A) (A) (A) (A) (A) (A)
                 (A) (A) (A) (A) (A) (A) (A) (A) (A) (A) (A) (A)
                 (A) (A) (A) (A) (A) (A) (A) (A) (A) (A) (A) (A)
                 (A) (A) (A) (A) (A) (A) (A) (A) (A) (A) (A) (A)
                 (A) (A) (A) (A) (A) (A) (A) (A) (A) (A) (A) (A)
                 (A) (A) (A) (A) (A) (A) (A) (A) (A) (A) (A) (A)
 The electronic state is 1-A.
 Alpha  occ. eigenvalues --  -14.41855 -14.39427 -14.35615 -14.29786 -10.31616
 Alpha  occ. eigenvalues --  -10.28356 -10.27662 -10.27293  -1.01794  -0.95373
 Alpha  occ. eigenvalues --   -0.89957  -0.84783  -0.76289  -0.66659  -0.59563
 Alpha  occ. eigenvalues --   -0.58953  -0.54044  -0.52348  -0.48473  -0.45491
 Alpha  occ. eigenvalues --   -0.41832  -0.37981  -0.34804  -0.31679  -0.31388
 Alpha  occ. eigenvalues --   -0.29883  -0.24761  -0.21594
 Alpha virt. eigenvalues --   -0.12903  -0.09260  -0.04387   0.00288   0.05059
 Alpha virt. eigenvalues --    0.07986   0.09167   0.12822   0.16090   0.21007
 Alpha virt. eigenvalues --    0.24276   0.26074   0.29381   0.31569   0.33614
 Alpha virt. eigenvalues --    0.39718   0.42100   0.42722   0.44877   0.46392
 Alpha virt. eigenvalues --    0.49344   0.50037   0.51485   0.51937   0.53672
 Alpha virt. eigenvalues --    0.54134   0.56197   0.59212   0.61216   0.63114
 Alpha virt. eigenvalues --    0.64861   0.65990   0.67180   0.67933   0.71101
 Alpha virt. eigenvalues --    0.72069   0.72380   0.73579   0.76713   0.77138
 Alpha virt. eigenvalues --    0.77824   0.79123   0.82673   0.84478   0.85232
 Alpha virt. eigenvalues --    0.86186   0.87770   0.89416   0.91686   0.96238
 Alpha virt. eigenvalues --    0.97143   1.01559   1.02984   1.04322   1.07105
 Alpha virt. eigenvalues --    1.09689   1.16925   1.19658   1.22772   1.24408
 Alpha virt. eigenvalues --    1.27113   1.29396   1.32813   1.33865   1.35858
 Alpha virt. eigenvalues --    1.37962   1.39996   1.42789   1.44338   1.47684
 Alpha virt. eigenvalues --    1.48607   1.50088   1.52882   1.55584   1.61066
 Alpha virt. eigenvalues --    1.61477   1.63039   1.66006   1.70764   1.72700
 Alpha virt. eigenvalues --    1.78672   1.82109   1.83254   1.85419   1.91041
 Alpha virt. eigenvalues --    1.93375   1.97720   2.00568   2.05384   2.11708
 Alpha virt. eigenvalues --    2.17226   2.26514   2.27115   2.30208   2.33691
 Alpha virt. eigenvalues --    2.41896   2.43309   2.46445   2.55170   2.57242
 Alpha virt. eigenvalues --    2.61577   2.72876   2.77849   2.80500   2.82547
 Alpha virt. eigenvalues --    2.86562   2.89702   2.91775   2.92764   2.95830
 Alpha virt. eigenvalues --    2.97397   3.01424   3.03768   3.05639   3.10866
 Alpha virt. eigenvalues --    3.12075   3.12658   3.16115   3.18382   3.20950
 Alpha virt. eigenvalues --    3.24711   3.25671   3.27667   3.31559   3.33988
 Alpha virt. eigenvalues --    3.38070   3.41959   3.45973   3.48671   3.59238
 Alpha virt. eigenvalues --    3.59594   3.64472   3.68840   3.70143   3.71959
 Alpha virt. eigenvalues --    3.72938   3.75578   3.80411   3.82555   3.83548
 Alpha virt. eigenvalues --    3.87323   3.90942   3.92996   3.95684   4.00759
 Alpha virt. eigenvalues --    4.01821   4.03365   4.05577   4.10183   4.11407
 Alpha virt. eigenvalues --    4.14869   4.16570   4.17463   4.18618   4.21494
 Alpha virt. eigenvalues --    4.23831   4.28762   4.29031   4.33809   4.35243
 Alpha virt. eigenvalues --    4.36001   4.38625   4.40468   4.41125   4.41781
 Alpha virt. eigenvalues --    4.43672   4.47595   4.49197   4.50991   4.53238
 Alpha virt. eigenvalues --    4.56343   4.57398   4.59512   4.61341   4.63390
 Alpha virt. eigenvalues --    4.64654   4.67838   4.69245   4.71934   4.77916
 Alpha virt. eigenvalues --    4.78566   4.82269   4.84998   4.90028   4.96242
 Alpha virt. eigenvalues --    4.98836   5.02659   5.03099   5.05638   5.09938
 Alpha virt. eigenvalues --    5.17428   5.19355   5.21150   5.28213   5.36085
 Alpha virt. eigenvalues --    5.38914   5.43721   5.49451   5.63224   5.64105
 Alpha virt. eigenvalues --    5.70395   5.74799   5.88007   6.04184   8.78791
 Alpha virt. eigenvalues --    9.88420  10.52132  11.07054  11.18851  11.30471
 Alpha virt. eigenvalues --   11.38122  11.47407  11.52101  11.86860  14.54516
 Alpha virt. eigenvalues --   18.61584
          Condensed to atoms (all electrons):
               1          2          3          4          5          6
     1  N    6.710537   0.550393  -0.059479   0.006924   0.000160  -0.000798
     2  C    0.550393   4.540813   0.437567  -0.026417  -0.001849   0.000252
     3  C   -0.059479   0.437567   4.854243   0.516264  -0.062735   0.007081
     4  N    0.006924  -0.026417   0.516264   6.560351   0.280365  -0.071867
     5  N    0.000160  -0.001849  -0.062735   0.280365   6.462408   0.545952
     6  C   -0.000798   0.000252   0.007081  -0.071867   0.545952   4.933633
     7  C   -0.005511  -0.110095   0.014278  -0.004652  -0.037029   0.340040
     8  N   -0.029889   0.423469  -0.067438  -0.008197  -0.004818  -0.059179
     9  H    0.343936  -0.103002  -0.002210   0.001083   0.000012   0.000014
    10  H    0.002029  -0.055192   0.358271  -0.018724   0.002454  -0.000287
    11  H    0.000013   0.000175  -0.000440   0.003185  -0.013832   0.349834
    12  H    0.000273   0.005551  -0.000370   0.002566   0.002731  -0.107483
               7          8          9         10         11         12
     1  N   -0.005511  -0.029889   0.343936   0.002029   0.000013   0.000273
     2  C   -0.110095   0.423469  -0.103002  -0.055192   0.000175   0.005551
     3  C    0.014278  -0.067438  -0.002210   0.358271  -0.000440  -0.000370
     4  N   -0.004652  -0.008197   0.001083  -0.018724   0.003185   0.002566
     5  N   -0.037029  -0.004818   0.000012   0.002454  -0.013832   0.002731
     6  C    0.340040  -0.059179   0.000014  -0.000287   0.349834  -0.107483
     7  C    4.912515   0.523772  -0.000717   0.000646  -0.065733   0.340476
     8  N    0.523772   6.503992   0.006130   0.002664   0.002698  -0.016589
     9  H   -0.000717   0.006130   0.536654   0.005383  -0.000000  -0.000006
    10  H    0.000646   0.002664   0.005383   0.545248   0.000015   0.000053
    11  H   -0.065733   0.002698  -0.000000   0.000015   0.537900   0.007224
    12  H    0.340476  -0.016589  -0.000006   0.000053   0.007224   0.602923
 Mulliken charges:
               1
     1  N   -0.518588
     2  C    0.338335
     3  C    0.004968
     4  N   -0.240879
     5  N   -0.173819
     6  C    0.062808
     7  C    0.092011
     8  N   -0.276612
     9  H    0.212723
    10  H    0.157442
    11  H    0.178962
    12  H    0.162650
 Sum of Mulliken charges =  -0.00000
 Mulliken charges with hydrogens summed into heavy atoms:
               1
     1  N   -0.305866
     2  C    0.338335
     3  C    0.162410
     4  N   -0.240879
     5  N   -0.173819
     6  C    0.241770
     7  C    0.254661
     8  N   -0.276612
 Electronic spatial extent (au):  <R**2>=            770.0611
 Charge=             -0.0000 electrons
 Dipole moment (field-independent basis, Debye):
    X=              2.6130    Y=             -0.8365    Z=              1.0892  Tot=              2.9519
 Quadrupole moment (field-independent basis, Debye-Ang):
   XX=            -49.6154   YY=            -46.1524   ZZ=            -44.8034
   XY=            -15.4662   XZ=              0.1742   YZ=             -0.5805
 Traceless Quadrupole moment (field-independent basis, Debye-Ang):
   XX=             -2.7583   YY=              0.7047   ZZ=              2.0537
   XY=            -15.4662   XZ=              0.1742   YZ=             -0.5805
 Octapole moment (field-independent basis, Debye-Ang**2):
  XXX=             15.2910  YYY=             -4.9491  ZZZ=              1.6768  XYY=              0.5440
  XXY=              3.1263  XXZ=              5.0997  XZZ=              2.7790  YZZ=             -1.7415
  YYZ=             -0.4426  XYZ=              0.0169
 Hexadecapole moment (field-independent basis, Debye-Ang**3):
 XXXX=           -672.7629 YYYY=           -321.3328 ZZZZ=            -70.0928 XXXY=            -77.0510
 XXXZ=             -4.4246 YYYX=            -37.0642 YYYZ=             -0.3312 ZZZX=              2.0538
 ZZZY=             -1.8093 XXYY=           -147.3776 XXZZ=           -118.1369 YYZZ=            -64.2969
 XXYZ=              1.4266 YYXZ=             -1.7732 ZZXY=             -4.7782
 N-N= 3.334914294035D+02 E-N=-1.536384922247D+03  KE= 3.706974279513D+02
 PrsmSu:  requested number of processors reduced to:  13 ShMem   1 Linda.
 Calling FoFJK, ICntrl=      2127 FMM=F ISym2X=0 I1Cent= 0 IOpClX= 0 NMat=1 NMatS=1 NMatT=0.
 ***** Axes restored to original set *****
 -------------------------------------------------------------------
 Center     Atomic                   Forces (Hartrees/Bohr)
 Number     Number              X              Y              Z
 -------------------------------------------------------------------
      1        7           0.026227952    0.018363563    0.005517342
      2        6          -0.094763218   -0.033010399   -0.025742857
      3        6           0.062261941    0.007736046   -0.003256131
      4        7          -0.011761961   -0.012753859   -0.004984895
      5        7          -0.005790043   -0.007774952   -0.031250303
      6        6           0.004385704    0.051388222    0.012487935
      7        6          -0.003075439   -0.062064853   -0.069751562
      8        7           0.023459774    0.024495905    0.085468826
      9        1           0.005872807    0.005176662   -0.004985265
     10        1           0.015012957    0.009687957    0.004547440
     11        1          -0.015766718    0.043469271   -0.005506569
     12        1          -0.006063755   -0.044713563    0.037456038
 -------------------------------------------------------------------
 Cartesian Forces:  Max     0.094763218 RMS     0.034626199

 GradGradGradGradGradGradGradGradGradGradGradGradGradGradGradGradGradGrad
 Berny optimization.
 FormGI is forming the generalized inverse of G from B-inverse, IUseBI=4.
 Internal  Forces:  Max     0.087485366 RMS     0.027003667
 Search for a local minimum.
 Step number   1 out of a maximum of   57
 All quantities printed in internal units (Hartrees-Bohrs-Radians)
 Mixed Optimization -- RFO/linear search
 Second derivative matrix not updated -- first step.
 ITU=  0
     Eigenvalues ---    0.01130   0.01425   0.01662   0.01994   0.02566
     Eigenvalues ---    0.02661   0.02727   0.03113   0.06125   0.14360
     Eigenvalues ---    0.14776   0.15990   0.16000   0.17013   0.20983
     Eigenvalues ---    0.23724   0.24333   0.24842   0.26284   0.29066
     Eigenvalues ---    0.30992   0.32815   0.36999   0.43670   0.48120
     Eigenvalues ---    0.53197   0.53785   0.58592   0.58694   0.63153
 RFO step:  Lambda=-1.03382338D-01 EMin= 1.13010896D-02
 Linear search not attempted -- first point.
 Maximum step size (   0.300) exceeded in Quadratic search.
    -- Step size scaled by   0.629
 Iteration  1 RMS(Cart)=  0.08455228 RMS(Int)=  0.00630634
 Iteration  2 RMS(Cart)=  0.00456134 RMS(Int)=  0.00410563
 Iteration  3 RMS(Cart)=  0.00004099 RMS(Int)=  0.00410552
 Iteration  4 RMS(Cart)=  0.00000043 RMS(Int)=  0.00410552
 Variable       Old X    -DE/DX   Delta X   Delta X   Delta X     New X
                                 (Linear)    (Quad)   (Total)
    R1        2.52072  -0.03837   0.00000  -0.03501  -0.03501   2.48571
    R2        1.93551  -0.00421   0.00000  -0.00490  -0.00490   1.93061
    R3        2.85032  -0.00149   0.00000  -0.00670  -0.00775   2.84257
    R4        2.55182   0.02488   0.00000   0.02621   0.02571   2.57754
    R5        2.50953  -0.03430   0.00000  -0.03618  -0.03660   2.47293
    R6        2.09377  -0.01335   0.00000  -0.01946  -0.01946   2.07431
    R7        2.95624  -0.03159   0.00000  -0.06232  -0.06136   2.89488
    R8        2.47428  -0.03138   0.00000  -0.02487  -0.02400   2.45027
    R9        2.59653   0.08749   0.00000   0.09718   0.09647   2.69300
   R10        2.16565  -0.02652   0.00000  -0.04232  -0.04232   2.12333
   R11        2.54838  -0.04858   0.00000  -0.04188  -0.04097   2.50741
   R12        2.02547   0.02814   0.00000   0.03739   0.03739   2.06286
    A1        1.95503  -0.00953   0.00000  -0.02276  -0.02276   1.93227
    A2        2.03746   0.01881   0.00000   0.02820   0.02884   2.06630
    A3        2.07066   0.01641   0.00000   0.02547   0.02621   2.09687
    A4        2.16360  -0.03509   0.00000  -0.05241  -0.05350   2.11010
    A5        2.20035   0.04125   0.00000   0.07198   0.07046   2.27081
    A6        1.96346  -0.00774   0.00000  -0.00502  -0.00419   1.95928
    A7        2.11852  -0.03351   0.00000  -0.06709  -0.06641   2.05211
    A8        2.21409  -0.00265   0.00000  -0.01903  -0.01614   2.19795
    A9        2.04907  -0.00368   0.00000  -0.00279  -0.00355   2.04551
   A10        1.90499   0.02254   0.00000   0.06855   0.06531   1.97030
   A11        2.47756  -0.04002   0.00000  -0.10169  -0.10432   2.37324
   A12        1.82051   0.02520   0.00000   0.06564   0.06876   1.88927
   A13        2.02030   0.01660   0.00000   0.04541   0.04080   2.06110
   A14        1.67901   0.04503   0.00000   0.11874   0.12041   1.79942
   A15        2.50616  -0.04843   0.00000  -0.11372  -0.11841   2.38775
   A16        1.87172   0.01288   0.00000   0.05926   0.06227   1.93399
    D1        0.01272   0.00719   0.00000   0.02728   0.02596   0.03868
    D2        2.99862   0.00474   0.00000   0.03084   0.03216   3.03077
    D3       -3.08738   0.00794   0.00000   0.02995   0.02922  -3.05816
    D4        0.09856   0.00895   0.00000   0.03528   0.03477   0.13333
    D5        0.21905   0.00512   0.00000   0.01799   0.01507   0.23411
    D6       -2.87819   0.00613   0.00000   0.02333   0.02061  -2.85758
    D7       -2.76708  -0.00670   0.00000  -0.05443  -0.05427  -2.82135
    D8        0.20675  -0.00374   0.00000  -0.04221  -0.03981   0.16694
    D9        0.31993   0.01207   0.00000   0.03847   0.03555   0.35547
   D10       -2.86967   0.01181   0.00000   0.03456   0.03145  -2.83822
   D11       -0.49881  -0.00288   0.00000  -0.03774  -0.03546  -0.53427
   D12       -0.37914   0.01003   0.00000   0.03058   0.03339  -0.34576
   D13       -3.00141  -0.02875   0.00000  -0.10921  -0.09863  -3.10004
   D14        1.81006  -0.02177   0.00000  -0.10325  -0.11200   1.69807
   D15       -1.64507  -0.00980   0.00000  -0.03858  -0.03263  -1.67770
   D16       -1.65268  -0.01836   0.00000  -0.07070  -0.07087  -1.72355
   D17        1.17537  -0.00638   0.00000  -0.00604   0.00849   1.18387
   D18       -1.58044   0.04455   0.00000   0.14570   0.14499  -1.43545
   D19        2.10404  -0.02031   0.00000  -0.07546  -0.06138   2.04266
         Item               Value     Threshold  Converged?
 Maximum Force            0.087485     0.000450     NO 
 RMS     Force            0.027004     0.000300     NO 
 Maximum Displacement     0.326603     0.001800     NO 
 RMS     Displacement     0.083223     0.001200     NO 
 Predicted change in Energy=-5.233998D-02
 GradGradGradGradGradGradGradGradGradGradGradGradGradGradGradGradGradGrad

                          Input orientation:                          
 ---------------------------------------------------------------------
 Center     Atomic      Atomic             Coordinates (Angstroms)
 Number     Number       Type             X           Y           Z
 ---------------------------------------------------------------------
      1          7           0        2.276593   -0.169598   -0.070204
      2          6           0        3.273032    0.602761    0.305033
      3          6           0        2.951391    1.941990    0.909765
      4          7           0        3.746941    2.912990    1.279545
      5          7           0        5.187636    3.125252    0.804069
      6          6           0        5.871765    2.067906    0.495476
      7          6           0        5.336218    0.875802    1.063737
      8          7           0        4.549340    0.121658    0.306992
      9          1           0        1.380590    0.296954    0.082268
     10          1           0        1.876370    2.068517    1.092009
     11          1           0        6.921895    1.855371    0.156982
     12          1           0        5.927810    0.747287    1.972107
 ---------------------------------------------------------------------
                    Distance matrix (angstroms):
                    1          2          3          4          5
     1  N    0.000000
     2  C    1.315383   0.000000
     3  C    2.423736   1.504223   0.000000
     4  N    3.672342   2.551749   1.308617   0.000000
     5  N    4.482696   3.205886   2.532207   1.531905   0.000000
     6  C    4.272198   2.989370   2.952299   2.417397   1.296628
     7  C    3.426367   2.215158   2.616842   2.592781   2.269257
     8  N    2.322173   1.363975   2.496073   3.062881   3.110640
     9  H    1.021636   1.929891   2.420395   3.725149   4.797277
    10  H    2.553444   2.172196   1.097676   2.060907   3.487704
    11  H    5.072568   3.860719   4.042163   3.529737   2.244766
    12  H    4.282885   3.138132   3.378602   3.150572   2.750797
                    6          7          8          9         10
     6  C    0.000000
     7  C    1.425076   0.000000
     8  N    2.360553   1.326866   0.000000
     9  H    4.845375   4.116472   3.181542   0.000000
    10  H    4.039682   3.659770   3.398717   2.098526   0.000000
    11  H    1.123620   2.072711   2.942325   5.756762   5.135857
    12  H    1.981821   1.091620   2.250378   4.944847   4.351366
                   11         12
    11  H    0.000000
    12  H    2.347495   0.000000
 Stoichiometry    C4H4N4
 Framework group  C1[X(C4H4N4)]
 Deg. of freedom    30
 Full point group                 C1      NOp   1
 Largest Abelian subgroup         C1      NOp   1
 Largest concise Abelian subgroup C1      NOp   1
                         Standard orientation:                         
 ---------------------------------------------------------------------
 Center     Atomic      Atomic             Coordinates (Angstroms)
 Number     Number       Type             X           Y           Z
 ---------------------------------------------------------------------
      1          7           0       -2.527706   -0.184868   -0.229319
      2          6           0       -1.219718   -0.153436   -0.093631
      3          6           0       -0.557858    1.174826    0.152031
      4          7           0        0.711535    1.481429    0.236373
      5          7           0        1.875244    0.652424   -0.316135
      6          6           0        1.718849   -0.634038   -0.358542
      7          6           0        0.690644   -1.096454    0.513128
      8          7           0       -0.512584   -1.316126   -0.001225
      9          1           0       -2.918920    0.757554   -0.179004
     10          1           0       -1.286938    1.977190    0.323923
     11          1           0        2.348515   -1.515034   -0.658360
     12          1           0        1.240412   -1.395108    1.407665
 ---------------------------------------------------------------------
 Rotational constants (GHZ):           4.3536887           2.0972350           1.5044410
 Standard basis: 6-31G(2df,p) (6D, 7F)
 There are   268 symmetry adapted cartesian basis functions of A   symmetry.
 There are   244 symmetry adapted basis functions of A   symmetry.
   244 basis functions,   380 primitive gaussians,   268 cartesian basis functions
    28 alpha electrons       28 beta electrons
       nuclear repulsion energy       333.1007932109 Hartrees.
 NAtoms=   12 NActive=   12 NUniq=   12 SFac= 1.00D+00 NAtFMM=   60 NAOKFM=F Big=F
 Integral buffers will be    131072 words long.
 Raffenetti 2 integral format.
 Two-electron integral symmetry is turned on.
 One-electron integrals computed using PRISM.
 PrsmSu:  requested number of processors reduced to:  13 ShMem   1 Linda.
 NBasis=   244 RedAO= T EigKep=  2.08D-04  NBF=   244
 NBsUse=   244 1.00D-06 EigRej= -1.00D+00 NBFU=   244
 Initial guess from the checkpoint file:  "Ndc1cnnccn1.chk"
 B after Tr=    -0.000000    0.000000    0.000000
         Rot=    0.999868   -0.013983    0.000990    0.008267 Ang=  -1.86 deg.
 ExpMin= 1.61D-01 ExpMax= 4.17D+03 ExpMxC= 6.27D+02 IAcc=2 IRadAn=         4 AccDes= 0.00D+00
 Harris functional with IExCor=  402 and IRadAn=       4 diagonalized for initial guess.
 HarFok:  IExCor=  402 AccDes= 0.00D+00 IRadAn=         4 IDoV= 1 UseB2=F ITyADJ=14
 ICtDFT=  3500011 ScaDFX=  1.000000  1.000000  1.000000  1.000000
 FoFCou: FMM=F IPFlag=           0 FMFlag=      100000 FMFlg1=           0
         NFxFlg=           0 DoJE=T BraDBF=F KetDBF=T FulRan=T
         wScrn=  0.000000 ICntrl=       500 IOpCl=  0 I1Cent=   200000004 NGrid=           0
         NMat0=    1 NMatS0=      1 NMatT0=    0 NMatD0=    1 NMtDS0=    0 NMtDT0=    0
 Petite list used in FoFCou.
 Requested convergence on RMS density matrix=1.00D-08 within 128 cycles.
 Requested convergence on MAX density matrix=1.00D-06.
 Requested convergence on             energy=1.00D-06.
 No special actions if energy rises.
 Integral accuracy reduced to 1.0D-05 until final iterations.
 Initial convergence to 1.0D-05 achieved.  Increase integral accuracy.
 SCF Done:  E(RB3LYP) =  -373.622062889     A.U. after   16 cycles
            NFock= 16  Conv=0.50D-08     -V/T= 2.0078
 PrsmSu:  requested number of processors reduced to:  13 ShMem   1 Linda.
 Calling FoFJK, ICntrl=      2127 FMM=F ISym2X=0 I1Cent= 0 IOpClX= 0 NMat=1 NMatS=1 NMatT=0.
 ***** Axes restored to original set *****
 -------------------------------------------------------------------
 Center     Atomic                   Forces (Hartrees/Bohr)
 Number     Number              X              Y              Z
 -------------------------------------------------------------------
      1        7           0.021917937    0.013087076    0.002402148
      2        6          -0.059387529   -0.015888451   -0.030142607
      3        6           0.039877308    0.006241599   -0.001050323
      4        7           0.004055323   -0.002058328   -0.007234619
      5        7          -0.013537678   -0.010674872   -0.025426005
      6        6          -0.010752501    0.024455255    0.028312009
      7        6           0.008724864   -0.038177954   -0.059476240
      8        7           0.016932338    0.018748965    0.081077965
      9        1           0.002938700    0.002187888   -0.002291374
     10        1           0.006695185    0.005499250    0.005401879
     11        1          -0.013045803    0.030958218   -0.002485186
     12        1          -0.004418144   -0.034378647    0.010912353
 -------------------------------------------------------------------
 Cartesian Forces:  Max     0.081077965 RMS     0.026017476

 GradGradGradGradGradGradGradGradGradGradGradGradGradGradGradGradGradGrad
 Berny optimization.
 Using GEDIIS/GDIIS optimizer.
 FormGI is forming the generalized inverse of G from B-inverse, IUseBI=4.
 Internal  Forces:  Max     0.046963988 RMS     0.019098118
 Search for a local minimum.
 Step number   2 out of a maximum of   57
 All quantities printed in internal units (Hartrees-Bohrs-Radians)
 Mixed Optimization -- RFO/linear search
 Update second derivatives using D2CorX and points    1    2
 DE= -5.60D-02 DEPred=-5.23D-02 R= 1.07D+00
 TightC=F SS=  1.41D+00  RLast= 3.97D-01 DXNew= 5.0454D-01 1.1906D+00
 Trust test= 1.07D+00 RLast= 3.97D-01 DXMaxT set to 5.05D-01
 ITU=  1  0
 Use linear search instead of GDIIS.
 Linear search step of   0.527 exceeds DXMaxT=   0.505 but not scaled.
 Quartic linear search produced a step of  1.74483.
 Iteration  1 RMS(Cart)=  0.13615544 RMS(Int)=  0.02059162
 Iteration  2 RMS(Cart)=  0.01239736 RMS(Int)=  0.01696135
 Iteration  3 RMS(Cart)=  0.00025374 RMS(Int)=  0.01695983
 Iteration  4 RMS(Cart)=  0.00001080 RMS(Int)=  0.01695983
 Iteration  5 RMS(Cart)=  0.00000061 RMS(Int)=  0.01695983
 Variable       Old X    -DE/DX   Delta X   Delta X   Delta X     New X
                                 (Linear)    (Quad)   (Total)
    R1        2.48571  -0.02783  -0.06108   0.00000  -0.06108   2.42463
    R2        1.93061  -0.00192  -0.00855   0.00000  -0.00855   1.92206
    R3        2.84257   0.00329  -0.01352   0.00000  -0.01784   2.82473
    R4        2.57754   0.01602   0.04487   0.00000   0.04326   2.62080
    R5        2.47293  -0.02050  -0.06386   0.00000  -0.06594   2.40699
    R6        2.07431  -0.00503  -0.03396   0.00000  -0.03396   2.04035
    R7        2.89488  -0.03240  -0.10706   0.00000  -0.10282   2.79206
    R8        2.45027  -0.02297  -0.04188   0.00000  -0.03836   2.41191
    R9        2.69300   0.04138   0.16833   0.00000   0.16572   2.85872
   R10        2.12333  -0.01730  -0.07384   0.00000  -0.07384   2.04950
   R11        2.50741  -0.04696  -0.07148   0.00000  -0.06796   2.43945
   R12        2.06286   0.01073   0.06524   0.00000   0.06524   2.12810
    A1        1.93227  -0.00450  -0.03972   0.00000  -0.03972   1.89255
    A2        2.06630   0.01420   0.05033   0.00000   0.05326   2.11956
    A3        2.09687   0.00600   0.04574   0.00000   0.04891   2.14578
    A4        2.11010  -0.02020  -0.09335   0.00000  -0.09853   2.01156
    A5        2.27081   0.02353   0.12294   0.00000   0.11638   2.38719
    A6        1.95928  -0.00343  -0.00730   0.00000  -0.00374   1.95554
    A7        2.05211  -0.02011  -0.11587   0.00000  -0.11292   1.93918
    A8        2.19795  -0.00667  -0.02816   0.00000  -0.01485   2.18310
    A9        2.04551   0.00020  -0.00620   0.00000  -0.01065   2.03486
   A10        1.97030   0.02255   0.11395   0.00000   0.09528   2.06559
   A11        2.37324  -0.03487  -0.18202   0.00000  -0.18727   2.18597
   A12        1.88927   0.01823   0.11998   0.00000   0.12659   2.01586
   A13        2.06110   0.00909   0.07118   0.00000   0.04281   2.10390
   A14        1.79942   0.03391   0.21010   0.00000   0.20590   2.00533
   A15        2.38775  -0.03632  -0.20660   0.00000  -0.21491   2.17284
   A16        1.93399   0.01323   0.10865   0.00000   0.11780   2.05179
    D1        0.03868   0.00365   0.04530   0.00000   0.03896   0.07764
    D2        3.03077   0.00193   0.05611   0.00000   0.06245   3.09323
    D3       -3.05816   0.00493   0.05099   0.00000   0.04759  -3.01057
    D4        0.13333   0.00593   0.06066   0.00000   0.05892   0.19225
    D5        0.23411   0.00431   0.02629   0.00000   0.01379   0.24790
    D6       -2.85758   0.00531   0.03596   0.00000   0.02512  -2.83246
    D7       -2.82135  -0.00585  -0.09469   0.00000  -0.09272  -2.91406
    D8        0.16694  -0.00456  -0.06947   0.00000  -0.05824   0.10870
    D9        0.35547   0.00558   0.06202   0.00000   0.05079   0.40626
   D10       -2.83822   0.00501   0.05487   0.00000   0.04206  -2.79616
   D11       -0.53427  -0.00292  -0.06187   0.00000  -0.05052  -0.58478
   D12       -0.34576   0.00917   0.05825   0.00000   0.06605  -0.27971
   D13       -3.10004  -0.02008  -0.17210   0.00000  -0.12227   3.06087
   D14        1.69807  -0.02489  -0.19542   0.00000  -0.21995   1.47812
   D15       -1.67770  -0.00904  -0.05694   0.00000  -0.03435  -1.71205
   D16       -1.72355  -0.01637  -0.12366   0.00000  -0.11975  -1.84330
   D17        1.18387  -0.00052   0.01482   0.00000   0.06585   1.24972
   D18       -1.43545   0.03972   0.25299   0.00000   0.24258  -1.19287
   D19        2.04266   0.00019  -0.10710   0.00000  -0.04047   2.00219
         Item               Value     Threshold  Converged?
 Maximum Force            0.046964     0.000450     NO 
 RMS     Force            0.019098     0.000300     NO 
 Maximum Displacement     0.518678     0.001800     NO 
 RMS     Displacement     0.136396     0.001200     NO 
 Predicted change in Energy=-5.571077D-02
 GradGradGradGradGradGradGradGradGradGradGradGradGradGradGradGradGradGrad

                          Input orientation:                          
 ---------------------------------------------------------------------
 Center     Atomic      Atomic             Coordinates (Angstroms)
 Number     Number       Type             X           Y           Z
 ---------------------------------------------------------------------
      1          7           0        2.250117   -0.182086   -0.036123
      2          6           0        3.235307    0.544217    0.348751
      3          6           0        3.024877    1.925220    0.880654
      4          7           0        3.757113    2.910146    1.221428
      5          7           0        5.133426    3.151286    0.741213
      6          6           0        5.846775    2.118598    0.509486
      7          6           0        5.393545    0.790785    1.075144
      8          7           0        4.534012    0.066356    0.440453
      9          1           0        1.399427    0.372304    0.022978
     10          1           0        1.982222    2.132023    1.070050
     11          1           0        6.845888    2.129843    0.087719
     12          1           0        5.896872    0.488198    2.036028
 ---------------------------------------------------------------------
                    Distance matrix (angstroms):
                    1          2          3          4          5
     1  N    0.000000
     2  C    1.283060   0.000000
     3  C    2.425174   1.494781   0.000000
     4  N    3.662564   2.575164   1.273726   0.000000
     5  N    4.475387   3.248645   2.443084   1.477496   0.000000
     6  C    4.304276   3.053568   2.852765   2.345229   1.276327
     7  C    3.473116   2.290510   2.633507   2.681605   2.398154
     8  N    2.346279   1.386865   2.434469   3.049695   3.156984
     9  H    1.017111   1.872468   2.406085   3.665462   4.709708
    10  H    2.578853   2.147468   1.079707   1.943869   3.328230
    11  H    5.146015   3.952043   3.907780   3.381524   2.098315
    12  H    4.247577   3.151820   3.412957   3.332863   3.058011
                    6          7          8          9         10
     6  C    0.000000
     7  C    1.512771   0.000000
     8  N    2.437173   1.290902   0.000000
     9  H    4.802618   4.151525   3.177029   0.000000
    10  H    3.905020   3.665524   3.342903   2.128995   0.000000
    11  H    1.084546   2.208481   3.118841   5.723380   4.961877
    12  H    2.234064   1.126141   2.140373   4.928774   4.354280
                   11         12
    11  H    0.000000
    12  H    2.718738   0.000000
 Stoichiometry    C4H4N4
 Framework group  C1[X(C4H4N4)]
 Deg. of freedom    30
 Full point group                 C1      NOp   1
 Largest Abelian subgroup         C1      NOp   1
 Largest concise Abelian subgroup C1      NOp   1
                         Standard orientation:                         
 ---------------------------------------------------------------------
 Center     Atomic      Atomic             Coordinates (Angstroms)
 Number     Number       Type             X           Y           Z
 ---------------------------------------------------------------------
      1          7           0       -2.538146   -0.073466   -0.269909
      2          6           0       -1.269091   -0.117355   -0.086017
      3          6           0       -0.477808    1.120621    0.189037
      4          7           0        0.752916    1.430885    0.295964
      5          7           0        1.874020    0.675509   -0.300295
      6          6           0        1.733616   -0.590836   -0.375579
      7          6           0        0.650540   -1.244083    0.454294
      8          7           0       -0.562719   -1.306331    0.017769
      9          1           0       -2.830174    0.900813   -0.266269
     10          1           0       -1.112193    1.969253    0.396753
     11          1           0        2.432914   -1.271019   -0.849471
     12          1           0        1.003418   -1.695305    1.423866
 ---------------------------------------------------------------------
 Rotational constants (GHZ):           4.3282661           2.0782793           1.4971792
 Standard basis: 6-31G(2df,p) (6D, 7F)
 There are   268 symmetry adapted cartesian basis functions of A   symmetry.
 There are   244 symmetry adapted basis functions of A   symmetry.
   244 basis functions,   380 primitive gaussians,   268 cartesian basis functions
    28 alpha electrons       28 beta electrons
       nuclear repulsion energy       333.4336218532 Hartrees.
 NAtoms=   12 NActive=   12 NUniq=   12 SFac= 1.00D+00 NAtFMM=   60 NAOKFM=F Big=F
 Integral buffers will be    131072 words long.
 Raffenetti 2 integral format.
 Two-electron integral symmetry is turned on.
 One-electron integrals computed using PRISM.
 PrsmSu:  requested number of processors reduced to:  13 ShMem   1 Linda.
 NBasis=   244 RedAO= T EigKep=  2.05D-04  NBF=   244
 NBsUse=   244 1.00D-06 EigRej= -1.00D+00 NBFU=   244
 Initial guess from the checkpoint file:  "Ndc1cnnccn1.chk"
 B after Tr=     0.000000   -0.000000   -0.000000
         Rot=    0.999608   -0.024616    0.002324    0.013112 Ang=  -3.21 deg.
 ExpMin= 1.61D-01 ExpMax= 4.17D+03 ExpMxC= 6.27D+02 IAcc=2 IRadAn=         4 AccDes= 0.00D+00
 Harris functional with IExCor=  402 and IRadAn=       4 diagonalized for initial guess.
 HarFok:  IExCor=  402 AccDes= 0.00D+00 IRadAn=         4 IDoV= 1 UseB2=F ITyADJ=14
 ICtDFT=  3500011 ScaDFX=  1.000000  1.000000  1.000000  1.000000
 FoFCou: FMM=F IPFlag=           0 FMFlag=      100000 FMFlg1=           0
         NFxFlg=           0 DoJE=T BraDBF=F KetDBF=T FulRan=T
         wScrn=  0.000000 ICntrl=       500 IOpCl=  0 I1Cent=   200000004 NGrid=           0
         NMat0=    1 NMatS0=      1 NMatT0=    0 NMatD0=    1 NMtDS0=    0 NMtDT0=    0
 Petite list used in FoFCou.
 Requested convergence on RMS density matrix=1.00D-08 within 128 cycles.
 Requested convergence on MAX density matrix=1.00D-06.
 Requested convergence on             energy=1.00D-06.
 No special actions if energy rises.
 Integral accuracy reduced to 1.0D-05 until final iterations.
 Initial convergence to 1.0D-05 achieved.  Increase integral accuracy.
 SCF Done:  E(RB3LYP) =  -373.672042084     A.U. after   15 cycles
            NFock= 15  Conv=0.65D-08     -V/T= 2.0074
 PrsmSu:  requested number of processors reduced to:  13 ShMem   1 Linda.
 Calling FoFJK, ICntrl=      2127 FMM=F ISym2X=0 I1Cent= 0 IOpClX= 0 NMat=1 NMatS=1 NMatT=0.
 ***** Axes restored to original set *****
 -------------------------------------------------------------------
 Center     Atomic                   Forces (Hartrees/Bohr)
 Number     Number              X              Y              Z
 -------------------------------------------------------------------
      1        7           0.008099658    0.001111129   -0.004058218
      2        6           0.002329510    0.005022293   -0.029352095
      3        6          -0.003820743   -0.004960863    0.000140857
      4        7           0.028748841    0.026594749   -0.004209891
      5        7          -0.025807821   -0.016149366   -0.013872227
      6        6          -0.011411735   -0.012940199    0.038124363
      7        6           0.015591669   -0.008257904   -0.029457568
      8        7          -0.003856605    0.009466622    0.057784916
      9        1          -0.003843770   -0.001161493    0.000632956
     10        1          -0.010594025   -0.001755956    0.006949132
     11        1           0.003445666    0.010831329   -0.002827212
     12        1           0.001119356   -0.007800341   -0.019855013
 -------------------------------------------------------------------
 Cartesian Forces:  Max     0.057784916 RMS     0.017346888

 GradGradGradGradGradGradGradGradGradGradGradGradGradGradGradGradGradGrad
 Berny optimization.
 Using GEDIIS/GDIIS optimizer.
 FormGI is forming the generalized inverse of G from B-inverse, IUseBI=4.
 Internal  Forces:  Max     0.027016604 RMS     0.010553313
 Search for a local minimum.
 Step number   3 out of a maximum of   57
 All quantities printed in internal units (Hartrees-Bohrs-Radians)
 Mixed Optimization -- RFO/linear search
 Update second derivatives using D2CorX and points    2    3
 ITU=  0  1  0
 Use linear search instead of GDIIS.
     Eigenvalues ---    0.01112   0.01405   0.01720   0.02057   0.02404
     Eigenvalues ---    0.02578   0.02681   0.02714   0.04863   0.13724
     Eigenvalues ---    0.15930   0.15995   0.16251   0.18320   0.21106
     Eigenvalues ---    0.22629   0.24824   0.25363   0.25922   0.29235
     Eigenvalues ---    0.31043   0.33160   0.37349   0.43687   0.45212
     Eigenvalues ---    0.51695   0.53370   0.58329   0.59161   0.63211
 RFO step:  Lambda=-3.70175371D-02 EMin= 1.11247918D-02
 Quartic linear search produced a step of  0.31474.
 Iteration  1 RMS(Cart)=  0.09129328 RMS(Int)=  0.02476731
 Iteration  2 RMS(Cart)=  0.02472333 RMS(Int)=  0.00932857
 Iteration  3 RMS(Cart)=  0.00095958 RMS(Int)=  0.00930684
 Iteration  4 RMS(Cart)=  0.00000735 RMS(Int)=  0.00930684
 Iteration  5 RMS(Cart)=  0.00000020 RMS(Int)=  0.00930684
 Variable       Old X    -DE/DX   Delta X   Delta X   Delta X     New X
                                 (Linear)    (Quad)   (Total)
    R1        2.42463  -0.00221  -0.01922   0.00217  -0.01706   2.40757
    R2        1.92206   0.00262  -0.00269   0.00717   0.00447   1.92654
    R3        2.82473   0.00944  -0.00562   0.02702   0.01831   2.84303
    R4        2.62080   0.00351   0.01361   0.00635   0.01841   2.63920
    R5        2.40699   0.01593  -0.02075   0.03069   0.00801   2.41500
    R6        2.04035   0.01111  -0.01069   0.03836   0.02768   2.06803
    R7        2.79206  -0.02218  -0.03236  -0.07776  -0.10910   2.68296
    R8        2.41191  -0.00165  -0.01207   0.00154  -0.00773   2.40417
    R9        2.85872  -0.01366   0.05216  -0.03527   0.01865   2.87738
   R10        2.04950   0.00439  -0.02324   0.02433   0.00109   2.05059
   R11        2.43945  -0.02702  -0.02139  -0.03889  -0.05902   2.38043
   R12        2.12810  -0.01435   0.02053  -0.04545  -0.02492   2.10318
    A1        1.89255   0.00525  -0.01250   0.03591   0.02340   1.91596
    A2        2.11956   0.00537   0.01676   0.00231   0.02007   2.13963
    A3        2.14578  -0.00779   0.01539  -0.04852  -0.02874   2.11704
    A4        2.01156   0.00211  -0.03101   0.03671  -0.00185   2.00971
    A5        2.38719  -0.00823   0.03663  -0.04718  -0.01530   2.37189
    A6        1.95554   0.00217  -0.00118   0.00374   0.00515   1.96069
    A7        1.93918   0.00600  -0.03554   0.04248   0.00852   1.94770
    A8        2.18310  -0.01339  -0.00467  -0.05670  -0.05024   2.13286
    A9        2.03486   0.01488  -0.00335   0.08435   0.07567   2.11054
   A10        2.06559   0.01077   0.02999   0.07122   0.08927   2.15486
   A11        2.18597  -0.01432  -0.05894  -0.05824  -0.12294   2.06303
   A12        2.01586   0.00584   0.03984   0.01588   0.04922   2.06508
   A13        2.10390  -0.00434   0.01347   0.00300  -0.00543   2.09847
   A14        2.00533   0.00882   0.06481   0.00680   0.07630   2.08163
   A15        2.17284  -0.00408  -0.06764  -0.00855  -0.07052   2.10232
   A16        2.05179   0.01563   0.03708   0.10223   0.13376   2.18555
    D1        0.07764   0.00010   0.01226   0.00920   0.01884   0.09647
    D2        3.09323  -0.00281   0.01966  -0.08292  -0.06064   3.03258
    D3       -3.01057   0.00079   0.01498   0.02949   0.03397  -2.97660
    D4        0.19225   0.00200   0.01854   0.05070   0.06424   0.25650
    D5        0.24790   0.00420   0.00434   0.12060   0.11090   0.35881
    D6       -2.83246   0.00541   0.00790   0.14181   0.14118  -2.69128
    D7       -2.91406  -0.00578  -0.02918  -0.07681  -0.11844  -3.03250
    D8        0.10870  -0.00825  -0.01833  -0.16554  -0.19068  -0.08198
    D9        0.40626  -0.00297   0.01599  -0.04220  -0.03447   0.37179
   D10       -2.79616  -0.00426   0.01324  -0.06418  -0.06467  -2.86083
   D11       -0.58478  -0.00374  -0.01590  -0.06549  -0.06690  -0.65168
   D12       -0.27971   0.00598   0.02079   0.08400   0.11471  -0.16499
   D13        3.06087  -0.00915  -0.03848  -0.09903  -0.10718   2.95369
   D14        1.47812  -0.02073  -0.06923  -0.23763  -0.30946   1.16865
   D15       -1.71205  -0.01205  -0.01081  -0.21067  -0.21883  -1.93088
   D16       -1.84330  -0.00944  -0.03769  -0.08148  -0.10671  -1.95000
   D17        1.24972  -0.00076   0.02073  -0.05452  -0.01607   1.23364
   D18       -1.19287   0.02406   0.07635   0.27037   0.34344  -0.84943
   D19        2.00219   0.01413  -0.01274   0.24021   0.24741   2.24961
         Item               Value     Threshold  Converged?
 Maximum Force            0.027017     0.000450     NO 
 RMS     Force            0.010553     0.000300     NO 
 Maximum Displacement     0.345688     0.001800     NO 
 RMS     Displacement     0.107150     0.001200     NO 
 Predicted change in Energy=-2.985341D-02
 GradGradGradGradGradGradGradGradGradGradGradGradGradGradGradGradGradGrad

                          Input orientation:                          
 ---------------------------------------------------------------------
 Center     Atomic      Atomic             Coordinates (Angstroms)
 Number     Number       Type             X           Y           Z
 ---------------------------------------------------------------------
      1          7           0        2.286574   -0.168802   -0.035824
      2          6           0        3.233448    0.581939    0.367882
      3          6           0        3.001902    1.984796    0.859618
      4          7           0        3.738682    2.981694    1.170329
      5          7           0        5.070581    3.114814    0.696991
      6          6           0        5.826694    2.098627    0.577679
      7          6           0        5.468476    0.718275    1.111294
      8          7           0        4.511440    0.072313    0.607727
      9          1           0        1.413346    0.357008   -0.054090
     10          1           0        1.946507    2.182660    1.070798
     11          1           0        6.767078    2.218298    0.049612
     12          1           0        6.034851    0.305268    1.975766
 ---------------------------------------------------------------------
                    Distance matrix (angstroms):
                    1          2          3          4          5
     1  N    0.000000
     2  C    1.274033   0.000000
     3  C    2.439569   1.504469   0.000000
     4  N    3.672743   2.580311   1.277963   0.000000
     5  N    4.366903   3.146240   2.362799   1.419762   0.000000
     6  C    4.248537   3.011525   2.841108   2.343252   1.272233
     7  C    3.496754   2.359364   2.784134   2.849340   2.464420
     8  N    2.328588   1.396605   2.449437   3.062379   3.094740
     9  H    1.019478   1.881868   2.451136   3.714211   4.641657
    10  H    2.620998   2.170857   1.094352   1.964752   3.281536
    11  H    5.077445   3.907109   3.858390   3.318126   2.025078
    12  H    4.280282   3.241866   3.642166   3.617233   3.233981
                    6          7          8          9         10
     6  C    0.000000
     7  C    1.522642   0.000000
     8  N    2.415935   1.259669   0.000000
     9  H    4.786440   4.234704   3.180760   0.000000
    10  H    3.912298   3.814490   3.353636   2.209670   0.000000
    11  H    1.085126   2.250245   3.163012   5.669003   4.927676
    12  H    2.283444   1.112954   2.060723   5.047900   4.588913
                   11         12
    11  H    0.000000
    12  H    2.811745   0.000000
 Stoichiometry    C4H4N4
 Framework group  C1[X(C4H4N4)]
 Deg. of freedom    30
 Full point group                 C1      NOp   1
 Largest Abelian subgroup         C1      NOp   1
 Largest concise Abelian subgroup C1      NOp   1
                         Standard orientation:                         
 ---------------------------------------------------------------------
 Center     Atomic      Atomic             Coordinates (Angstroms)
 Number     Number       Type             X           Y           Z
 ---------------------------------------------------------------------
      1          7           0       -2.504304   -0.093724   -0.298522
      2          6           0       -1.246258   -0.097165   -0.097355
      3          6           0       -0.472624    1.153955    0.218265
      4          7           0        0.761929    1.469746    0.314932
      5          7           0        1.788498    0.707326   -0.301993
      6          6           0        1.717982   -0.561823   -0.355534
      7          6           0        0.673653   -1.377103    0.394887
      8          7           0       -0.543463   -1.290660    0.081963
      9          1           0       -2.850474    0.865177   -0.301834
     10          1           0       -1.124555    1.985167    0.504061
     11          1           0        2.427049   -1.088707   -0.985705
     12          1           0        0.992836   -2.017640    1.247236
 ---------------------------------------------------------------------
 Rotational constants (GHZ):           4.0902240           2.1487441           1.5004329
 Standard basis: 6-31G(2df,p) (6D, 7F)
 There are   268 symmetry adapted cartesian basis functions of A   symmetry.
 There are   244 symmetry adapted basis functions of A   symmetry.
   244 basis functions,   380 primitive gaussians,   268 cartesian basis functions
    28 alpha electrons       28 beta electrons
       nuclear repulsion energy       333.7095012857 Hartrees.
 NAtoms=   12 NActive=   12 NUniq=   12 SFac= 1.00D+00 NAtFMM=   60 NAOKFM=F Big=F
 Integral buffers will be    131072 words long.
 Raffenetti 2 integral format.
 Two-electron integral symmetry is turned on.
 One-electron integrals computed using PRISM.
 PrsmSu:  requested number of processors reduced to:  13 ShMem   1 Linda.
 NBasis=   244 RedAO= T EigKep=  2.22D-04  NBF=   244
 NBsUse=   244 1.00D-06 EigRej= -1.00D+00 NBFU=   244
 Initial guess from the checkpoint file:  "Ndc1cnnccn1.chk"
 B after Tr=    -0.000000   -0.000000   -0.000000
         Rot=    0.999902   -0.013416   -0.001690   -0.003532 Ang=  -1.60 deg.
 ExpMin= 1.61D-01 ExpMax= 4.17D+03 ExpMxC= 6.27D+02 IAcc=2 IRadAn=         4 AccDes= 0.00D+00
 Harris functional with IExCor=  402 and IRadAn=       4 diagonalized for initial guess.
 HarFok:  IExCor=  402 AccDes= 0.00D+00 IRadAn=         4 IDoV= 1 UseB2=F ITyADJ=14
 ICtDFT=  3500011 ScaDFX=  1.000000  1.000000  1.000000  1.000000
 FoFCou: FMM=F IPFlag=           0 FMFlag=      100000 FMFlg1=           0
         NFxFlg=           0 DoJE=T BraDBF=F KetDBF=T FulRan=T
         wScrn=  0.000000 ICntrl=       500 IOpCl=  0 I1Cent=   200000004 NGrid=           0
         NMat0=    1 NMatS0=      1 NMatT0=    0 NMatD0=    1 NMtDS0=    0 NMtDT0=    0
 Petite list used in FoFCou.
 Requested convergence on RMS density matrix=1.00D-08 within 128 cycles.
 Requested convergence on MAX density matrix=1.00D-06.
 Requested convergence on             energy=1.00D-06.
 No special actions if energy rises.
 Integral accuracy reduced to 1.0D-05 until final iterations.
 Initial convergence to 1.0D-05 achieved.  Increase integral accuracy.
 SCF Done:  E(RB3LYP) =  -373.704394191     A.U. after   15 cycles
            NFock= 15  Conv=0.66D-08     -V/T= 2.0073
 PrsmSu:  requested number of processors reduced to:  13 ShMem   1 Linda.
 Calling FoFJK, ICntrl=      2127 FMM=F ISym2X=0 I1Cent= 0 IOpClX= 0 NMat=1 NMatS=1 NMatT=0.
 ***** Axes restored to original set *****
 -------------------------------------------------------------------
 Center     Atomic                   Forces (Hartrees/Bohr)
 Number     Number              X              Y              Z
 -------------------------------------------------------------------
      1        7           0.001015301   -0.003174584   -0.005684714
      2        6           0.016044957    0.015737919   -0.016423691
      3        6          -0.013809428   -0.004189300    0.004995622
      4        7           0.021702625    0.012422659   -0.003194001
      5        7          -0.023216340   -0.008502127   -0.011546088
      6        6          -0.002334527   -0.012755318    0.023045084
      7        6           0.014788839    0.019953562   -0.011833154
      8        7          -0.025300378   -0.015942532    0.032729816
      9        1          -0.000982206   -0.000108706   -0.000404650
     10        1          -0.000790637   -0.003407057    0.002973211
     11        1           0.006454166    0.002696532    0.003761767
     12        1           0.006427628   -0.002731046   -0.018419202
 -------------------------------------------------------------------
 Cartesian Forces:  Max     0.032729816 RMS     0.013256618

 GradGradGradGradGradGradGradGradGradGradGradGradGradGradGradGradGradGrad
 Berny optimization.
 Using GEDIIS/GDIIS optimizer.
 FormGI is forming the generalized inverse of G from B-inverse, IUseBI=4.
 Internal  Forces:  Max     0.016671993 RMS     0.006446360
 Search for a local minimum.
 Step number   4 out of a maximum of   57
 All quantities printed in internal units (Hartrees-Bohrs-Radians)
 Mixed Optimization -- RFO/linear search
 Update second derivatives using D2CorX and points    3    4
 DE= -3.24D-02 DEPred=-2.99D-02 R= 1.08D+00
 TightC=F SS=  1.41D+00  RLast= 7.37D-01 DXNew= 8.4853D-01 2.2121D+00
 Trust test= 1.08D+00 RLast= 7.37D-01 DXMaxT set to 8.49D-01
 ITU=  1  0  1  0
 Use linear search instead of GDIIS.
     Eigenvalues ---    0.01078   0.01357   0.01713   0.01910   0.02152
     Eigenvalues ---    0.02564   0.02662   0.02716   0.04798   0.14499
     Eigenvalues ---    0.15989   0.16040   0.16277   0.19624   0.21543
     Eigenvalues ---    0.22913   0.24304   0.24915   0.25481   0.29202
     Eigenvalues ---    0.31049   0.33250   0.36510   0.43658   0.44507
     Eigenvalues ---    0.53178   0.55500   0.58329   0.58946   0.62981
 RFO step:  Lambda=-1.64547648D-02 EMin= 1.07816579D-02
 Quartic linear search produced a step of  0.70557.
 Iteration  1 RMS(Cart)=  0.08957907 RMS(Int)=  0.04586015
 Iteration  2 RMS(Cart)=  0.04267172 RMS(Int)=  0.00955462
 Iteration  3 RMS(Cart)=  0.00232125 RMS(Int)=  0.00939166
 Iteration  4 RMS(Cart)=  0.00000955 RMS(Int)=  0.00939165
 Iteration  5 RMS(Cart)=  0.00000011 RMS(Int)=  0.00939165
 Variable       Old X    -DE/DX   Delta X   Delta X   Delta X     New X
                                 (Linear)    (Quad)   (Total)
    R1        2.40757   0.00384  -0.01204   0.01270   0.00067   2.40824
    R2        1.92654   0.00079   0.00316  -0.00001   0.00315   1.92968
    R3        2.84303   0.00113   0.01292  -0.01044  -0.00014   2.84289
    R4        2.63920  -0.00225   0.01299  -0.00992   0.00034   2.63954
    R5        2.41500   0.00862   0.00565   0.00795   0.01236   2.42736
    R6        2.06803   0.00072   0.01953  -0.01265   0.00688   2.07491
    R7        2.68296  -0.01388  -0.07698  -0.03777  -0.11399   2.56897
    R8        2.40417   0.00324  -0.00546   0.00917   0.00689   2.41106
    R9        2.87738  -0.01667   0.01316  -0.04283  -0.02679   2.85058
   R10        2.05059   0.00406   0.00077   0.01280   0.01357   2.06416
   R11        2.38043   0.00813  -0.04164   0.04603   0.00434   2.38477
   R12        2.10318  -0.01002  -0.01758  -0.02355  -0.04114   2.06204
    A1        1.91596   0.00134   0.01651  -0.00581   0.01070   1.92666
    A2        2.13963   0.00062   0.01416  -0.00378   0.01306   2.15269
    A3        2.11704  -0.00749  -0.02028  -0.02667  -0.03919   2.07786
    A4        2.00971   0.00655  -0.00130   0.03085   0.01702   2.02673
    A5        2.37189  -0.00705  -0.01079  -0.03935  -0.05597   2.31592
    A6        1.96069   0.00096   0.00364   0.00650   0.01299   1.97369
    A7        1.94770   0.00608   0.00601   0.03631   0.04440   1.99210
    A8        2.13286  -0.00443  -0.03545  -0.01998  -0.04686   2.08600
    A9        2.11054   0.00865   0.05339   0.01257   0.05635   2.16689
   A10        2.15486   0.00241   0.06299  -0.00082   0.05144   2.20629
   A11        2.06303  -0.00208  -0.08674   0.02641  -0.06315   1.99988
   A12        2.06508  -0.00042   0.03473  -0.02495   0.00405   2.06913
   A13        2.09847  -0.00081  -0.00383   0.02083  -0.00449   2.09398
   A14        2.08163  -0.00062   0.05383  -0.03599   0.02658   2.10820
   A15        2.10232   0.00147  -0.04976   0.01965  -0.02151   2.08081
   A16        2.18555  -0.00018   0.09437  -0.03505   0.03513   2.22067
    D1        0.09647   0.00075   0.01329   0.03869   0.05025   0.14673
    D2        3.03258  -0.00045  -0.04279   0.04457   0.00352   3.03610
    D3       -2.97660   0.00167   0.02396   0.13106   0.14228  -2.83433
    D4        0.25650   0.00135   0.04533   0.07415   0.11399   0.37049
    D5        0.35881   0.00429   0.07825   0.13154   0.19389   0.55269
    D6       -2.69128   0.00398   0.09961   0.07464   0.16560  -2.52568
    D7       -3.03250  -0.00837  -0.08357  -0.17224  -0.27189   2.97879
    D8       -0.08198  -0.01000  -0.13454  -0.17005  -0.31516  -0.39714
    D9        0.37179  -0.00238  -0.02432  -0.00647  -0.03799   0.33380
   D10       -2.86083  -0.00225  -0.04563   0.04907  -0.01070  -2.87153
   D11       -0.65168  -0.00415  -0.04720  -0.09909  -0.12877  -0.78046
   D12       -0.16499   0.00546   0.08094   0.08512   0.17837   0.01338
   D13        2.95369   0.00068  -0.07562   0.11816   0.06377   3.01746
   D14        1.16865  -0.01007  -0.21835  -0.05159  -0.26765   0.90101
   D15       -1.93088  -0.01112  -0.15440  -0.17406  -0.33091  -2.26180
   D16       -1.95000  -0.00527  -0.07529  -0.08529  -0.14819  -2.09820
   D17        1.23364  -0.00632  -0.01134  -0.20777  -0.21146   1.02218
   D18       -0.84943   0.01242   0.24232   0.11089   0.35004  -0.49938
   D19        2.24961   0.01344   0.17457   0.23348   0.41348   2.66309
         Item               Value     Threshold  Converged?
 Maximum Force            0.016672     0.000450     NO 
 RMS     Force            0.006446     0.000300     NO 
 Maximum Displacement     0.399765     0.001800     NO 
 RMS     Displacement     0.118626     0.001200     NO 
 Predicted change in Energy=-2.409351D-02
 GradGradGradGradGradGradGradGradGradGradGradGradGradGradGradGradGradGrad

                          Input orientation:                          
 ---------------------------------------------------------------------
 Center     Atomic      Atomic             Coordinates (Angstroms)
 Number     Number       Type             X           Y           Z
 ---------------------------------------------------------------------
      1          7           0        2.344011   -0.137706   -0.065736
      2          6           0        3.240048    0.624724    0.424036
      3          6           0        2.965464    2.026807    0.895167
      4          7           0        3.730317    3.030467    1.135197
      5          7           0        4.983464    3.058572    0.608978
      6          6           0        5.783465    2.064661    0.610548
      7          6           0        5.503176    0.690526    1.166113
      8          7           0        4.459929    0.070929    0.819274
      9          1           0        1.477614    0.381733   -0.214976
     10          1           0        1.906619    2.203959    1.125502
     11          1           0        6.702261    2.219936    0.040601
     12          1           0        6.203212    0.212283    1.853076
 ---------------------------------------------------------------------
                    Distance matrix (angstroms):
                    1          2          3          4          5
     1  N    0.000000
     2  C    1.274386   0.000000
     3  C    2.448399   1.504393   0.000000
     4  N    3.660793   2.556113   1.284503   0.000000
     5  N    4.199779   2.999553   2.284462   1.359439   0.000000
     6  C    4.139762   2.928681   2.832591   2.328831   1.275877
     7  C    3.490522   2.382594   2.880806   2.935866   2.487597
     8  N    2.303016   1.396786   2.462650   3.064475   3.040448
     9  H    1.021143   1.890385   2.480400   3.730071   4.487243
    10  H    2.663411   2.182675   1.097993   2.002269   3.234831
    11  H    4.956221   3.831271   3.838129   3.269182   1.995150
    12  H    4.324091   3.315509   3.833158   3.817423   3.337203
                    6          7          8          9         10
     6  C    0.000000
     7  C    1.508463   0.000000
     8  N    2.402141   1.261968   0.000000
     9  H    4.696178   4.267073   3.171825   0.000000
    10  H    3.913376   3.902223   3.341105   2.302485   0.000000
    11  H    1.092308   2.245813   3.201971   5.544479   4.916853
    12  H    2.269662   1.091185   2.031690   5.161088   4.791330
                   11         12
    11  H    0.000000
    12  H    2.750415   0.000000
 Stoichiometry    C4H4N4
 Framework group  C1[X(C4H4N4)]
 Deg. of freedom    30
 Full point group                 C1      NOp   1
 Largest Abelian subgroup         C1      NOp   1
 Largest concise Abelian subgroup C1      NOp   1
                         Standard orientation:                         
 ---------------------------------------------------------------------
 Center     Atomic      Atomic             Coordinates (Angstroms)
 Number     Number       Type             X           Y           Z
 ---------------------------------------------------------------------
      1          7           0       -2.439670   -0.129228   -0.374725
      2          6           0       -1.200675   -0.088531   -0.079268
      3          6           0       -0.479657    1.179473    0.288832
      4          7           0        0.765420    1.492316    0.331956
      5          7           0        1.668803    0.741455   -0.352281
      6          6           0        1.680196   -0.534345   -0.360344
      7          6           0        0.710979   -1.442961    0.354148
      8          7           0       -0.531700   -1.281211    0.205332
      9          1           0       -2.816550    0.816072   -0.459001
     10          1           0       -1.154309    1.972935    0.636471
     11          1           0        2.395498   -0.978028   -1.056494
     12          1           0        1.070342   -2.256133    0.986836
 ---------------------------------------------------------------------
 Rotational constants (GHZ):           3.8943548           2.2521051           1.5371501
 Standard basis: 6-31G(2df,p) (6D, 7F)
 There are   268 symmetry adapted cartesian basis functions of A   symmetry.
 There are   244 symmetry adapted basis functions of A   symmetry.
   244 basis functions,   380 primitive gaussians,   268 cartesian basis functions
    28 alpha electrons       28 beta electrons
       nuclear repulsion energy       335.3929959850 Hartrees.
 NAtoms=   12 NActive=   12 NUniq=   12 SFac= 1.00D+00 NAtFMM=   60 NAOKFM=F Big=F
 Integral buffers will be    131072 words long.
 Raffenetti 2 integral format.
 Two-electron integral symmetry is turned on.
 One-electron integrals computed using PRISM.
 PrsmSu:  requested number of processors reduced to:  13 ShMem   1 Linda.
 NBasis=   244 RedAO= T EigKep=  2.34D-04  NBF=   244
 NBsUse=   244 1.00D-06 EigRej= -1.00D+00 NBFU=   244
 Initial guess from the checkpoint file:  "Ndc1cnnccn1.chk"
 B after Tr=    -0.000000   -0.000000   -0.000000
         Rot=    0.999952   -0.006777   -0.002916   -0.006447 Ang=  -1.12 deg.
 ExpMin= 1.61D-01 ExpMax= 4.17D+03 ExpMxC= 6.27D+02 IAcc=2 IRadAn=         4 AccDes= 0.00D+00
 Harris functional with IExCor=  402 and IRadAn=       4 diagonalized for initial guess.
 HarFok:  IExCor=  402 AccDes= 0.00D+00 IRadAn=         4 IDoV= 1 UseB2=F ITyADJ=14
 ICtDFT=  3500011 ScaDFX=  1.000000  1.000000  1.000000  1.000000
 FoFCou: FMM=F IPFlag=           0 FMFlag=      100000 FMFlg1=           0
         NFxFlg=           0 DoJE=T BraDBF=F KetDBF=T FulRan=T
         wScrn=  0.000000 ICntrl=       500 IOpCl=  0 I1Cent=   200000004 NGrid=           0
         NMat0=    1 NMatS0=      1 NMatT0=    0 NMatD0=    1 NMtDS0=    0 NMtDT0=    0
 Petite list used in FoFCou.
 Requested convergence on RMS density matrix=1.00D-08 within 128 cycles.
 Requested convergence on MAX density matrix=1.00D-06.
 Requested convergence on             energy=1.00D-06.
 No special actions if energy rises.
 Integral accuracy reduced to 1.0D-05 until final iterations.
 Initial convergence to 1.0D-05 achieved.  Increase integral accuracy.
 SCF Done:  E(RB3LYP) =  -373.728026339     A.U. after   15 cycles
            NFock= 15  Conv=0.48D-08     -V/T= 2.0072
 PrsmSu:  requested number of processors reduced to:  13 ShMem   1 Linda.
 Calling FoFJK, ICntrl=      2127 FMM=F ISym2X=0 I1Cent= 0 IOpClX= 0 NMat=1 NMatS=1 NMatT=0.
 ***** Axes restored to original set *****
 -------------------------------------------------------------------
 Center     Atomic                   Forces (Hartrees/Bohr)
 Number     Number              X              Y              Z
 -------------------------------------------------------------------
      1        7          -0.000665692   -0.001810565   -0.005956608
      2        6           0.009666412    0.012094133   -0.005865136
      3        6          -0.014427406   -0.001286966    0.005484069
      4        7          -0.002659806   -0.002027898   -0.001675111
      5        7           0.001866736   -0.002711059   -0.008579822
      6        6           0.006670184   -0.006488679    0.006781852
      7        6           0.000013111    0.024972109   -0.014349426
      8        7          -0.014533900   -0.017623843    0.022117258
      9        1           0.000199826    0.000427167   -0.000404863
     10        1           0.003715031   -0.001867287    0.003154923
     11        1           0.003729988   -0.000841252    0.007031204
     12        1           0.006425516   -0.002835859   -0.007738341
 -------------------------------------------------------------------
 Cartesian Forces:  Max     0.024972109 RMS     0.008859454

 GradGradGradGradGradGradGradGradGradGradGradGradGradGradGradGradGradGrad
 Berny optimization.
 Using GEDIIS/GDIIS optimizer.
 FormGI is forming the generalized inverse of G from B-inverse, IUseBI=4.
 Internal  Forces:  Max     0.012470649 RMS     0.004791040
 Search for a local minimum.
 Step number   5 out of a maximum of   57
 All quantities printed in internal units (Hartrees-Bohrs-Radians)
 Mixed Optimization -- RFO/linear search
 Update second derivatives using D2CorX and points    4    5
 DE= -2.36D-02 DEPred=-2.41D-02 R= 9.81D-01
 TightC=F SS=  1.41D+00  RLast= 9.52D-01 DXNew= 1.4270D+00 2.8572D+00
 Trust test= 9.81D-01 RLast= 9.52D-01 DXMaxT set to 1.43D+00
 ITU=  1  1  0  1  0
[...]
         Item               Value     Threshold  Converged?
 Maximum Force            0.000083     0.000450     YES
 RMS     Force            0.000028     0.000300     YES
 Maximum Displacement     0.000597     0.001800     YES
 RMS     Displacement     0.000244     0.001200     YES
 Predicted change in Energy=-1.190830D-07
 Optimization completed.
    -- Stationary point found.
                           ----------------------------
                           !   Optimized Parameters   !
                           ! (Angstroms and Degrees)  !
 --------------------------                            --------------------------
 ! Name  Definition              Value          Derivative Info.                !
 --------------------------------------------------------------------------------
 ! R1    R(1,2)                  1.2685         -DE/DX =    0.0                 !
 ! R2    R(1,9)                  1.0218         -DE/DX =    0.0                 !
 ! R3    R(2,3)                  1.4983         -DE/DX =   -0.0001              !
 ! R4    R(2,8)                  1.4026         -DE/DX =   -0.0001              !
 ! R5    R(3,4)                  1.2791         -DE/DX =    0.0                 !
 ! R6    R(3,10)                 1.0896         -DE/DX =    0.0                 !
 ! R7    R(4,5)                  1.3635         -DE/DX =    0.0                 !
 ! R8    R(5,6)                  1.2929         -DE/DX =    0.0                 !
 ! R9    R(6,7)                  1.4642         -DE/DX =    0.0001              !
 ! R10   R(6,11)                 1.0898         -DE/DX =    0.0                 !
 ! R11   R(7,8)                  1.2817         -DE/DX =   -0.0001              !
 ! R12   R(7,12)                 1.092          -DE/DX =    0.0                 !
 ! A1    A(2,1,9)              110.2805         -DE/DX =    0.0                 !
 ! A2    A(1,2,3)              127.5376         -DE/DX =    0.0                 !
 ! A3    A(1,2,8)              121.4583         -DE/DX =    0.0                 !
 ! A4    A(3,2,8)              110.8634         -DE/DX =    0.0                 !
 ! A5    A(2,3,4)              123.8823         -DE/DX =    0.0                 !
 ! A6    A(2,3,10)             119.1083         -DE/DX =    0.0                 !
 ! A7    A(4,3,10)             116.976          -DE/DX =    0.0                 !
 ! A8    A(3,4,5)              122.9606         -DE/DX =    0.0                 !
 ! A9    A(4,5,6)              121.1398         -DE/DX =    0.0                 !
 ! A10   A(5,6,7)              127.2427         -DE/DX =    0.0                 !
 ! A11   A(5,6,11)             115.354          -DE/DX =    0.0                 !
 ! A12   A(7,6,11)             117.4027         -DE/DX =    0.0                 !
 ! A13   A(6,7,8)              125.3965         -DE/DX =    0.0                 !
 ! A14   A(6,7,12)             117.2944         -DE/DX =    0.0                 !
 ! A15   A(8,7,12)             117.2404         -DE/DX =    0.0                 !
 ! A16   A(2,8,7)              119.3109         -DE/DX =    0.0                 !
 ! D1    D(9,1,2,3)              1.63           -DE/DX =    0.0                 !
 ! D2    D(9,1,2,8)            176.9095         -DE/DX =   -0.0001              !
 ! D3    D(1,2,3,4)           -120.1146         -DE/DX =    0.0                 !
 ! D4    D(1,2,3,10)            62.0525         -DE/DX =    0.0                 !
 ! D5    D(8,2,3,4)             64.1938         -DE/DX =    0.0                 !
 ! D6    D(8,2,3,10)          -113.6391         -DE/DX =    0.0                 !
 ! D7    D(1,2,8,7)            126.2481         -DE/DX =    0.0                 !
 ! D8    D(3,2,8,7)            -57.7564         -DE/DX =    0.0                 !
 ! D9    D(2,3,4,5)              3.3257         -DE/DX =    0.0                 !
 ! D10   D(10,3,4,5)          -178.7989         -DE/DX =    0.0                 !
 ! D11   D(3,4,5,6)            -46.0839         -DE/DX =    0.0                 !
 ! D12   D(4,5,6,7)             10.5502         -DE/DX =    0.0                 !
 ! D13   D(4,5,6,11)          -169.1613         -DE/DX =    0.0                 !
 ! D14   D(5,6,7,8)             35.3208         -DE/DX =    0.0                 !
 ! D15   D(5,6,7,12)          -147.7875         -DE/DX =    0.0                 !
 ! D16   D(11,6,7,8)          -144.9729         -DE/DX =    0.0                 !
 ! D17   D(11,6,7,12)           31.9188         -DE/DX =    0.0                 !
 ! D18   D(6,7,8,2)             -2.7383         -DE/DX =    0.0                 !
 ! D19   D(12,7,8,2)          -179.6314         -DE/DX =    0.0                 !
 --------------------------------------------------------------------------------
 GradGradGradGradGradGradGradGradGradGradGradGradGradGradGradGradGradGrad


 ----------------------------------------------------------------------

 Electric dipole moment (input orientation):
 (Debye = 10**-18 statcoulomb cm , SI units = C m)
                  (au)            (Debye)         (10**-30 SI)
   Tot        0.463815D+00      0.117890D+01      0.393238D+01
   x          0.280261D+00      0.712351D+00      0.237615D+01
   y          0.130457D+00      0.331589D+00      0.110606D+01
   z          0.345773D+00      0.878867D+00      0.293158D+01

 Dipole polarizability, Alpha (input orientation).
 (esu units = cm**3 , SI units = C**2 m**2 J**-1)
 Alpha(0;0):
               (au)            (10**-24 esu)      (10**-40 SI)
   iso        0.648102D+02      0.960388D+01      0.106858D+02
   aniso      0.371162D+02      0.550005D+01      0.611963D+01
   xx         0.852947D+02      0.126394D+02      0.140632D+02
   yx         0.431829D+01      0.639905D+00      0.711990D+00
   yy         0.647580D+02      0.959615D+01      0.106772D+02
   zx         0.456303D+01      0.676171D+00      0.752341D+00
   zy         0.108782D+01      0.161198D+00      0.179357D+00
   zz         0.443778D+02      0.657611D+01      0.731691D+01

 ----------------------------------------------------------------------

 Dipole orientation:
     7          4.15660938         -0.36750637          2.49536659
     6          4.02551779          0.26316724          4.80423942
     6          2.70812204          2.51450475          5.90548046
     7          3.82419189          4.23939664          7.17889427
     7          6.37157728          4.27105391          7.56420627
     6          7.57244608          2.25329721          8.23959524
     6          6.59695056         -0.33529988          8.29821194
     7          5.02167734         -1.27706908          6.71764048
     1          3.25006581          0.93358819          1.39365052
     1          0.66898585          2.69074671          5.68106962
     1          9.52251587          2.54496565          8.83374439
     1          7.34103695         -1.59420815          9.75419197

 Electric dipole moment (dipole orientation):
 (Debye = 10**-18 statcoulomb cm , SI units = C m)
                  (au)            (Debye)         (10**-30 SI)
   Tot        0.463815D+00      0.117890D+01      0.393238D+01
   x          0.000000D+00      0.000000D+00      0.000000D+00
   y          0.000000D+00      0.000000D+00      0.000000D+00
   z          0.463815D+00      0.117890D+01      0.393238D+01

 Dipole polarizability, Alpha (dipole orientation).
 (esu units = cm**3 , SI units = C**2 m**2 J**-1)
 Alpha(0;0):
               (au)            (10**-24 esu)      (10**-40 SI)
   iso        0.648102D+02      0.960388D+01      0.106858D+02
   aniso      0.371162D+02      0.550005D+01      0.611963D+01
   xx         0.652625D+02      0.967090D+01      0.107603D+02
   yx        -0.308823D+01     -0.457628D+00     -0.509180D+00
   yy         0.622033D+02      0.921758D+01      0.102559D+02
   zx         0.204610D+02      0.303200D+01      0.337356D+01
   zy         0.501938D+01      0.743796D+00      0.827584D+00
   zz         0.669648D+02      0.992315D+01      0.110410D+02

 ----------------------------------------------------------------------
 1\1\GINC-LEWIS4-R630-HPC4-NODE537\Freq\RB3LYP\6-31G(2df,p)\C4H4N4\KS29
 C\04-Aug-2022\0\\#N Geom=AllCheck Guess=TCheck SCRF=Check GenChk RB3LY
 P/6-31G(2df,p) Freq\\Title Card Required\\0,1\N,2.5563232357,-0.028418
 6097,-0.2899772907\C,3.2072436533,0.640604474,0.5689210843\C,2.8920602
 852,2.009754261,1.0895135043\N,3.6774244469,3.0131882022,0.9782698641\
 N,4.865041678,2.9552761528,0.3110217739\C,5.6875131187,1.9745706142,0.
 4938045089\C,5.4314049954,0.7258176492,1.2141408596\N,4.3153047105,0.0
 95954481,1.234482325\H,1.757628257,0.5116138125,-0.6283893215\H,1.9578
 747066,2.1704564641,1.6267773287\H,6.6785424475,2.1098750785,0.0612375
 585\H,6.273218465,0.2681974202,1.7379778049\\Version=ES64L-G16RevA.03\
 State=1-A\HF=-373.7472827\RMSD=8.123e-09\RMSF=4.420e-05\ZeroPoint=0.08
 51842\Thermal=0.0912961\Dipole=0.2802606,0.1304572,0.3457728\DipoleDer
 iv=-0.4725574,-0.16338,-0.0956975,-0.3690142,-0.4861839,-0.2018455,-0.
 2994355,-0.1410104,-0.6082741,0.6735667,0.1591068,0.5159262,0.0953874,
 0.3850364,0.0889084,0.5768279,0.1689544,0.5640352,0.1512584,-0.1234777
 ,-0.2095308,-0.0846052,0.3265267,0.070187,-0.249076,0.0221864,0.159224
 2,-0.1652992,0.5242399,-0.0056384,-0.0615017,-0.4030381,-0.0599622,0.1
 420165,-0.1824311,-0.2341891,-0.0749273,-0.5653364,-0.0051778,0.068567
 7,-0.1714828,0.0167549,0.045747,0.1434247,-0.188524,0.2010981,0.208968
 1,-0.1395639,0.0525972,0.063905,-0.0792347,-0.2684276,0.0802807,0.1004
 193,0.4106833,0.0205648,0.2469817,-0.0313379,0.4144372,-0.0999926,0.30
 87503,-0.1663544,0.1889002,-0.637431,-0.1930913,-0.3086969,0.0982007,-
 0.4033895,0.163777,-0.2972766,-0.0199654,-0.4322776,0.1080498,0.093287
 6,-0.0383343,0.1738137,0.1523973,0.0821083,0.06872,0.0375833,0.2488488
 ,-0.0496004,0.0111478,0.0532976,0.0198367,0.0360236,-0.027903,0.013593
 4,-0.015841,0.0734763,-0.0833214,-0.0052604,0.0497792,-0.0281922,0.059
 8755,0.0149437,0.0088149,0.0337336,0.0824707,-0.0615195,0.0332308,-0.0
 633451,0.0662477,0.0258926,0.0322588,-0.0502542,0.0394391,0.04589\Pola
 r=85.2947268,4.3182922,64.7580375,4.5630267,1.0878176,44.3777732\Quadr
 upole=8.5031538,-8.7712945,0.2681407,-2.6566749,0.2339865,-0.7748241\P
 G=C01 [X(C4H4N4)]\NImag=0\\0.50553706,-0.02339238,0.37540853,0.3407834
 7,0.15762984,0.40583413,-0.21724501,-0.10263792,-0.18466530,0.55663019
 ,-0.15155635,-0.23633044,-0.22156246,0.06097159,0.53829843,-0.20819657
 ,-0.17692768,-0.30662101,0.26217164,0.22201243,0.48897996,0.01440791,-
 0.01820833,-0.02685409,-0.10014929,0.02943535,0.02435569,0.66786334,0.
 00107604,-0.01532958,-0.02294343,0.02339904,-0.15345987,-0.03595910,0.
 16704735,0.61195364,-0.01009079,-0.03666944,0.00588187,0.02191608,-0.0
 2910852,-0.09355163,-0.19078800,0.06477504,0.25995353,0.00315425,0.009
 71419,0.00489700,0.00997104,-0.01332902,0.01400278,-0.26343320,-0.2453
 7929,0.02627387,0.50626179,0.00472412,-0.00453658,-0.00856008,-0.02444
 515,-0.04426646,-0.00381877,-0.21329767,-0.35765792,0.01036339,0.23106
 156,0.48198334,0.00260161,0.00390723,-0.00328244,-0.00253598,-0.020487
 85,0.01536272,0.04271271,0.01309625,-0.05813147,-0.12254532,-0.0067520
 8,0.14295662,-0.00274421,-0.00295820,0.00151617,0.00745893,0.00345237,
 -0.01450454,-0.07082627,-0.01315559,0.04143579,-0.16023191,-0.03407906
 ,0.06071464,0.49437373,-0.00115015,0.00218560,-0.00048240,0.00210573,0
 .00418690,0.01115824,-0.03695177,-0.00117500,0.01087938,0.02563663,-0.
 07762208,-0.00131566,-0.20601034,0.43078735,0.00102552,-0.00028680,-0.
 00018240,-0.00356165,0.00250029,0.00443662,0.02248999,0.02053799,-0.00
 211735,0.05796411,0.00130561,-0.11132021,-0.05981068,-0.09467834,0.167
 76656,0.00169874,-0.00200065,0.00044987,-0.00407010,0.00169003,0.00561
 774,0.00996349,0.00996779,-0.00664357,-0.07462219,0.04070501,0.0177999
 6,-0.25425680,0.18535270,-0.02145566,0.70368953,-0.00044859,-0.0000041
 5,-0.00029031,0.00373247,-0.00597903,-0.01351712,-0.00986882,-0.012397
 01,0.01305210,0.03729571,0.00061933,-0.02577530,0.19258255,-0.31026221
 ,0.07193143,-0.14377657,0.55879764,-0.00183974,-0.00009942,-0.00044848
 ,-0.00134184,-0.00385203,-0.00743734,0.00223566,-0.00860964,-0.0052144
 2,0.01993750,-0.00642625,0.01137938,-0.02777524,0.07038389,-0.07500462
 ,-0.11463084,-0.17041509,0.26877865,0.00283934,0.00429127,0.00740520,-
 0.05847222,-0.01627769,-0.00755105,-0.00136757,0.00551209,-0.00760625,
 -0.01022862,-0.00374599,0.00819036,0.03303856,0.01902943,-0.01315515,-
 0.12436927,0.01107705,0.00408489,0.80340329,0.00478300,0.00081380,0.00
 335902,0.00879247,0.00335859,0.00894134,0.00363293,0.00495558,-0.00336
 511,-0.02540481,-0.00326004,0.01335923,0.04172689,-0.04187734,0.019419
 60,-0.02464164,-0.16328312,0.05641063,0.10353534,0.49282135,-0.0018624
 6,0.00438188,0.00151773,-0.02579903,-0.01319489,-0.01483127,0.00011588
 ,-0.00522877,0.00189968,-0.00327882,-0.00482226,-0.00985652,0.00117584
 ,0.03062300,0.01673452,0.01904678,0.05346488,-0.12136647,0.11213814,-0
 .16946225,0.28849613,-0.04528898,-0.00480680,-0.03531093,-0.17073828,0
 .06869639,-0.07030206,-0.01266536,0.01689429,-0.00102143,0.01383971,-0
 .00146067,-0.01562573,-0.02508737,0.01525844,0.00639236,0.00105043,-0.
 05356834,0.01528268,-0.44897907,-0.19949936,-0.00837899,0.71639795,-0.
 01563384,0.01981759,0.00493632,0.03874051,-0.10758749,0.01526793,0.033
 03626,-0.01738624,-0.00035163,0.00149891,0.00274546,0.00231365,-0.0014
 2179,0.00407557,-0.00716736,-0.04486943,-0.00595653,0.02257486,-0.1923
 5062,-0.19142011,0.02896816,0.17577955,0.29773410,-0.04283305,0.002889
 72,-0.03490177,-0.04340813,0.03428395,-0.08598087,-0.00324113,0.001520
 63,0.00881251,0.00072630,-0.00406240,0.00461197,0.00067544,-0.00837989
 ,-0.01008236,0.01086758,0.03041340,0.02070551,-0.01760176,0.00564258,-
 0.05329497,0.11320178,-0.04439273,0.14972434,-0.26066578,0.13948163,-0
 .10686337,-0.02425671,0.01951401,-0.00604852,-0.00058795,-0.00270525,0
 .00544875,-0.00169997,-0.00120840,-0.00143101,0.00098590,-0.00058190,0
 .00004501,0.00073341,-0.00022564,0.00002108,0.00192013,0.00126595,-0.0
 0153691,0.00534658,-0.00160348,-0.00638134,0.27906173,0.18274539,-0.13
 960661,0.08520035,-0.02950445,-0.00232318,-0.02228338,-0.00397810,-0.0
 0096319,0.00386753,-0.00036456,-0.00025536,-0.00059847,0.00049314,-0.0
 0031160,-0.00003997,0.00064921,-0.00045174,-0.00033158,0.00113917,0.00
 070777,-0.00017972,0.00310741,0.00272580,-0.00466413,-0.15429581,0.139
 14718,-0.08137537,0.04726364,-0.07002684,-0.02747626,0.01751569,-0.016
 30978,0.00601914,0.00386653,-0.00438380,-0.00051855,0.00279487,0.00104
 830,-0.00032964,-0.00003894,-0.00017408,-0.00065519,0.00045710,0.00023
 144,-0.00317762,0.00043329,-0.00059511,-0.00877461,-0.00893525,0.00514
 796,0.11602809,-0.06155114,0.08606823,0.00042606,0.00071629,0.00029545
 ,-0.00109833,0.00006733,0.00222526,-0.24347577,0.03704683,0.12107999,-
 0.02690259,-0.00138537,0.00873147,0.00602806,-0.00523979,0.00382455,0.
 00072872,0.00118093,-0.00028501,-0.00060385,-0.00115866,0.00168008,0.0
 0208040,0.00091216,-0.00053278,-0.00050858,0.00011139,0.00036003,0.263
 78302,-0.00147894,-0.00201371,0.00263514,0.02130111,-0.00104638,-0.013
 49431,0.04895862,-0.05759400,-0.03170028,-0.02893225,-0.00270194,0.016
 88815,-0.00593630,0.00256657,-0.00172466,-0.00095319,-0.00301284,0.000
 74719,0.00029295,0.00040713,-0.00110427,-0.00111763,-0.00304606,0.0003
 6443,0.00005112,0.00100130,-0.00115106,-0.03210311,0.06408568,-0.00112
 001,-0.00034233,0.00031507,0.00815866,0.00298236,0.00332361,0.12220555
 ,-0.03290487,-0.11187460,-0.00207342,0.01174324,-0.00414547,0.00509364
 ,-0.00790839,0.01146924,0.00237062,0.00298688,-0.00136303,-0.00150921,
 -0.00168476,0.00323955,0.00376042,-0.00176247,-0.00194146,-0.00031590,
 -0.00011019,-0.00046931,-0.13640004,0.02788435,0.10305551,0.00020652,-
 0.00052335,-0.00019669,-0.00002892,0.00127489,0.00049654,0.00011712,0.
 00052336,-0.00017944,0.00397656,0.00306895,0.00129580,-0.02844715,0.00
 434873,0.00633948,-0.26833977,-0.03431978,0.10257286,-0.00177866,-0.00
 032877,0.00121076,0.00118740,-0.00064962,0.00128150,0.00007168,0.00005
 942,0.00006442,-0.00041992,-0.00019874,-0.00024561,0.29362148,-0.00024
 848,0.00016718,-0.00034662,0.00153897,0.00043316,0.00277461,0.00119757
 ,-0.00155537,-0.00121265,0.00699094,0.00390171,0.00580225,0.02966434,-
 0.00837731,-0.01460098,-0.04312653,-0.05006144,0.02660374,-0.02546436,
 -0.00041088,0.01032220,0.00084601,-0.00603222,0.00069422,-0.00001675,0
 .00002786,-0.00012032,-0.00019860,0.00097544,-0.00105014,0.02776563,0.
 06139087,0.00047374,-0.00027519,0.00029908,-0.00156753,0.00123059,0.00
 089217,0.00210233,0.00085876,-0.00125201,0.00227020,0.00907436,0.01250
 436,-0.00844307,-0.01610703,0.00039386,0.10224257,0.03332184,-0.093976
 62,0.01340420,-0.00334522,0.00297273,0.00394357,0.00334165,-0.00134052
 ,0.00010191,0.00005971,0.00001223,-0.00084409,0.00043848,-0.00178849,-
 0.11305712,-0.02829292,0.08103266,-0.00232590,0.00032425,-0.00145677,0
 .00199872,-0.00393891,-0.00226690,0.00015356,-0.00022667,0.00017499,-0
 .00008486,0.00006267,0.00009150,-0.00029147,-0.00179772,-0.00009789,0.
 00779380,-0.00366097,0.00173799,-0.19540206,0.08729666,-0.09451127,-0.
 03714339,0.00656140,-0.01275442,-0.00040043,-0.00016221,-0.00016444,-0
 .00003721,0.00011635,0.00007530,-0.00016634,0.00105126,-0.00062672,0.2
 2590558,0.00058017,-0.00057162,0.00042462,-0.00399438,0.00471578,0.005
 84582,-0.00100339,0.00060897,-0.00052982,0.00121198,0.00105054,-0.0004
 3739,-0.00435801,-0.00417644,0.00280318,0.02100327,-0.00800889,0.01301
 372,0.09296135,-0.10281273,0.06623204,-0.02012929,0.00433013,-0.014309
 78,0.00032453,0.00030178,-0.00053443,0.00005061,0.00037881,0.00016633,
 -0.00102073,-0.00045900,-0.00030503,-0.08562612,0.10464267,0.00243365,
 -0.00147145,0.00161506,-0.00189066,0.00768044,0.01173681,-0.00135374,0
 .00099061,-0.00002231,0.00234436,-0.00083963,-0.00112723,0.00025163,0.
 00586614,-0.00191979,-0.01500987,0.00437018,0.00371601,-0.09462175,0.0
 7029166,-0.11491601,-0.00316706,-0.01479312,-0.00146033,0.00093222,0.0
 0063098,-0.00054924,-0.00013491,0.00021684,0.00017939,0.00041749,-0.00
 057338,0.00025055,0.10979863,-0.07236926,0.10249707\\-0.00002682,0.000
 01430,0.00002029,-0.00009344,-0.00009467,-0.00000131,-0.00003210,0.000
 10798,0.00002595,0.00006062,-0.00000897,-0.00000473,-0.00004595,0.0000
 1563,0.00000716,0.00001882,-0.00009392,0.00004129,0.00006782,0.0000782
 7,-0.00001803,0.00006705,-0.00003110,-0.00002216,0.00001812,0.00000337
 ,-0.00003409,-0.00001736,-0.00002239,-0.00000621,0.00000728,0.00000413
 ,-0.00001036,-0.00002405,0.00002738,0.00000222\\\@


 A ROPE OVER THE TOP OF A FENCE HAS THE SAME LENGTH ON EACH SIDE.
 WEIGHS 1/3 POUND PER FOOT.  ON ONE END HANGS A MONKEY HOLDING A
 BANANA, AND ON THE OTHER END A WEIGHT EQUAL TO THE WEIGHT
 OF THE MONKEY.  THE BANANA WEIGHS TWO OUNCES PER INCH.
 THE ROPE IS AS LONG AS THE AGE OF THE MONKEY, 
 AND THE WEIGHT OF THE MONKEY (IN OUNCES) IS AS MUCH
 AS THE AGE OF THE MONKEY'S MOTHER.  THE COMBINED AGES OF MONKEY
 AND MOTHER ARE THIRTY YEARS.  HALF THE WEIGHT OF THE MONKEY,
  PLUS THE WEIGHT OF THE BANANA, IS ONE FOURTH AS MUCH AS THE WEIGHT
 OF THE WEIGHT AND THE ROPE.
 THE MONKEY'S MOTHER IS HALF AS OLD AS THE MONKEY WILL BE
 WHEN IT IS 3 TIMES AS OLD AS ITS MOTHER WAS WHEN
 SHE WAS HALF AS OLD AS THE MONKEY WILL BE WHEN IT IS
 AS OLD AS ITS MOTHER WILL BE WHEN SHE IS 4 TIMES AS
 OLD AS THE MONKEY WAS WHEN IT WAS TWICE AS OLD AS 
 ITS MOTHER WAS WHEN SHE WAS ONE THIRD AS OLD AS THE
 MONKEY WAS WHEN IT WAS AS OLD AS ITS MOTHER WAS WHEN 
 SHE WAS 3 TIMES AS OLD AS THE MONKEY WAS WHEN IT WAS AS OLD AS ITS
 MOTHER WAS WHEN SHE WAS 3 TIMES AS OLD AS THE MONKEY 
 WAS WHEN IT WAS ONE FOURTH WAS OLD AS IT IS NOW.

 HOW LONG IS THE BANANA?
 Job cpu time:       0 days  0 hours 56 minutes 30.3 seconds.
 Elapsed time:       0 days  0 hours 14 minutes  8.6 seconds.
 File lengths (MBytes):  RWF=     69 Int=      0 D2E=      0 Chk=      6 Scr=      1
 Normal termination of Gaussian 16 at Thu Aug  4 11:54:07 2022.
### All Done ###
