### Starting Gaussian ###
 Entering Gaussian System, Link 0=g16
 Initial command:
 /cluster/software/gaussian/gaussian-16-A.03/avx2/g16/l1.exe "/local/scratch/ks29c/Gau-31793.inp" -scrdir="/local/scratch/ks29c/"
 Entering Link 1 = /cluster/software/gaussian/gaussian-16-A.03/avx2/g16/l1.exe PID=     31794.
  
 Copyright (c) 1988,1990,1992,1993,1995,1998,2003,2009,2016,
            Gaussian, Inc.  All Rights Reserved.
  
 This is part of the Gaussian(R) 16 program.  It is based on
 the Gaussian(R) 09 system (copyright 2009, Gaussian, Inc.),
 the Gaussian(R) 03 system (copyright 2003, Gaussian, Inc.),
 the Gaussian(R) 98 system (copyright 1998, Gaussian, Inc.),
 the Gaussian(R) 94 system (copyright 1995, Gaussian, Inc.),
 the Gaussian 92(TM) system (copyright 1992, Gaussian, Inc.),
 the Gaussian 90(TM) system (copyright 1990, Gaussian, Inc.),
 the Gaussian 88(TM) system (copyright 1988, Gaussian, Inc.),
 the Gaussian 86(TM) system (copyright 1986, Carnegie Mellon
 University), and the Gaussian 82(TM) system (copyright 1983,
 Carnegie Mellon University). Gaussian is a federally registered
 trademark of Gaussian, Inc.
  
 This software contains proprietary and confidential information,
 including trade secrets, belonging to Gaussian, Inc.
  
 This software is provided under written license and may be
 used, copied, transmitted, or stored only in accord with that
 written license.
  
 The following legend is applicable only to US Government
 contracts under FAR:
  
                    RESTRICTED RIGHTS LEGEND
  
 Use, reproduction and disclosure by the US Government is
 subject to restrictions as set forth in subparagraphs (a)
 and (c) of the Commercial Computer Software - Restricted
 Rights clause in FAR 52.227-19.
  
 Gaussian, Inc.
 340 Quinnipiac St., Bldg. 40, Wallingford CT 06492
  
  
 ---------------------------------------------------------------
 Warning -- This program may not be used in any manner that
 competes with the business of Gaussian, Inc. or will provide
 assistance to any competitor of Gaussian, Inc.  The licensee
 of this program is prohibited from giving any competitor of
 Gaussian, Inc. access to this program.  By using this program,
 the user acknowledges that Gaussian, Inc. is engaged in the
 business of creating and licensing software in the field of
 computational chemistry and represents and warrants to the
 licensee that it is not a competitor of Gaussian, Inc. and that
 it will not use this program in any manner prohibited above.
 ---------------------------------------------------------------
  

 Cite this work as:
 Gaussian 16, Revision A.03,
 M. J. Frisch, G. W. Trucks, H. B. Schlegel, G. E. Scuseria, 
 M. A. Robb, J. R. Cheeseman, G. Scalmani, V. Barone, 
 G. A. Petersson, H. Nakatsuji, X. Li, M. Caricato, A. V. Marenich, 
 J. Bloino, B. G. Janesko, R. Gomperts, B. Mennucci, H. P. Hratchian, 
 J. V. Ortiz, A. F. Izmaylov, J. L. Sonnenberg, D. Williams-Young, 
 F. Ding, F. Lipparini, F. Egidi, J. Goings, B. Peng, A. Petrone, 
 T. Henderson, D. Ranasinghe, V. G. Zakrzewski, J. Gao, N. Rega, 
 G. Zheng, W. Liang, M. Hada, M. Ehara, K. Toyota, R. Fukuda, 
 J. Hasegawa, M. Ishida, T. Nakajima, Y. Honda, O. Kitao, H. Nakai, 
 T. Vreven, K. Throssell, J. A. Montgomery, Jr., J. E. Peralta, 
 F. Ogliaro, M. J. Bearpark, J. J. Heyd, E. N. Brothers, K. N. Kudin, 
 V. N. Staroverov, T. A. Keith, R. Kobayashi, J. Normand, 
 K. Raghavachari, A. P. Rendell, J. C. Burant, S. S. Iyengar, 
 J. Tomasi, M. Cossi, J. M. Millam, M. Klene, C. Adamo, R. Cammi, 
 J. W. Ochterski, R. L. Martin, K. Morokuma, O. Farkas, 
 J. B. Foresman, and D. J. Fox, Gaussian, Inc., Wallingford CT, 2016.
 
 ******************************************
 Gaussian 16:  ES64L-G16RevA.03 25-Dec-2016
                 3-Jul-2022 
 ******************************************
 %chk=NdC1OCdC1CCdO.chk
 %NProcShared=20
 Will use up to   20 processors via shared memory.
 -----------------------------
 # opt freq b3lyp/6-31g(2df,p)
 -----------------------------
 1/18=20,19=15,26=3,38=1/1,3;
 2/9=110,12=2,17=6,18=5,40=1/2;
 3/5=1,6=6,7=104,11=2,25=1,30=1,71=1,74=-5/1,2,3;
 4//1;
 5/5=2,38=5/2;
 6/7=2,8=2,9=2,10=2,28=1/1;
 7//1,2,3,16;
 1/18=20,19=15,26=3/3(2);
 2/9=110/2;
 99//99;
 2/9=110/2;
 3/5=1,6=6,7=104,11=2,25=1,30=1,71=1,74=-5/1,2,3;
 4/5=5,16=3,69=1/1;
 5/5=2,38=5/2;
 7//1,2,3,16;
 1/18=20,19=15,26=3/3(-5);
 2/9=110/2;
 6/7=2,8=2,9=2,10=2,19=2,28=1/1;
 99/9=1/99;
 -------------------
 Title Card Required
 -------------------
 Symbolic Z-matrix:
 Charge =  0 Multiplicity = 1
 N                     0.98705   0.09588  -0.01765 
 C                     2.26112   0.02969  -0.01584 
 O                     3.21047   0.98146  -0.01114 
 C                     4.11954   0.05132  -0.01065 
 C                     3.25133  -0.98522  -0.01696 
 C                     3.24859  -2.47764  -0.02161 
 C                     1.86913  -3.06552  -0.02778 
 O                     1.66872  -4.27876  -0.0326 
 H                     0.69376   1.07499  -0.015 
 H                     5.21232   0.08036  -0.0066 
 H                     3.81504  -2.84259   0.84236 
 H                     3.82026  -2.83709  -0.88445 
 H                     1.01296  -2.37347  -0.02798 
 

 GradGradGradGradGradGradGradGradGradGradGradGradGradGradGradGradGradGrad
 Berny optimization.
 Initialization pass.
                           ----------------------------
                           !    Initial Parameters    !
                           ! (Angstroms and Degrees)  !
 --------------------------                            --------------------------
 ! Name  Definition              Value          Derivative Info.                !
 --------------------------------------------------------------------------------
 ! R1    R(1,2)                  1.2758         estimate D2E/DX2                !
 ! R2    R(1,9)                  1.0221         estimate D2E/DX2                !
 ! R3    R(2,3)                  1.3443         estimate D2E/DX2                !
 ! R4    R(2,5)                  1.4179         estimate D2E/DX2                !
 ! R5    R(3,4)                  1.3006         estimate D2E/DX2                !
 ! R6    R(4,5)                  1.3521         estimate D2E/DX2                !
 ! R7    R(4,10)                 1.0932         estimate D2E/DX2                !
 ! R8    R(5,6)                  1.4924         estimate D2E/DX2                !
 ! R9    R(6,7)                  1.4995         estimate D2E/DX2                !
 ! R10   R(6,11)                 1.0957         estimate D2E/DX2                !
 ! R11   R(6,12)                 1.0957         estimate D2E/DX2                !
 ! R12   R(7,8)                  1.2297         estimate D2E/DX2                !
 ! R13   R(7,13)                 1.1009         estimate D2E/DX2                !
 ! A1    A(2,1,9)              109.6491         estimate D2E/DX2                !
 ! A2    A(1,2,3)              131.9531         estimate D2E/DX2                !
 ! A3    A(1,2,5)              137.268          estimate D2E/DX2                !
 ! A4    A(3,2,5)               90.7788         estimate D2E/DX2                !
 ! A5    A(2,3,4)               89.2708         estimate D2E/DX2                !
 ! A6    A(3,4,5)               95.7065         estimate D2E/DX2                !
 ! A7    A(3,4,10)             132.8211         estimate D2E/DX2                !
 ! A8    A(5,4,10)             131.4723         estimate D2E/DX2                !
 ! A9    A(2,5,4)               84.2438         estimate D2E/DX2                !
 ! A10   A(2,5,6)              135.6005         estimate D2E/DX2                !
 ! A11   A(4,5,6)              140.1557         estimate D2E/DX2                !
 ! A12   A(5,6,7)              113.1878         estimate D2E/DX2                !
 ! A13   A(5,6,11)             109.249          estimate D2E/DX2                !
 ! A14   A(5,6,12)             109.2418         estimate D2E/DX2                !
 ! A15   A(7,6,11)             110.3807         estimate D2E/DX2                !
 ! A16   A(7,6,12)             110.3725         estimate D2E/DX2                !
 ! A17   A(11,6,12)            104.0018         estimate D2E/DX2                !
 ! A18   A(6,7,8)              122.4623         estimate D2E/DX2                !
 ! A19   A(6,7,13)             117.9688         estimate D2E/DX2                !
 ! A20   A(8,7,13)             119.5689         estimate D2E/DX2                !
 ! D1    D(9,1,2,3)              0.0095         estimate D2E/DX2                !
 ! D2    D(9,1,2,5)            179.9679         estimate D2E/DX2                !
 ! D3    D(1,2,3,4)            179.9051         estimate D2E/DX2                !
 ! D4    D(5,2,3,4)             -0.0667         estimate D2E/DX2                !
 ! D5    D(1,2,5,4)           -179.9046         estimate D2E/DX2                !
 ! D6    D(1,2,5,6)              0.0402         estimate D2E/DX2                !
 ! D7    D(3,2,5,4)              0.0645         estimate D2E/DX2                !
 ! D8    D(3,2,5,6)           -179.9908         estimate D2E/DX2                !
 ! D9    D(2,3,4,5)              0.0703         estimate D2E/DX2                !
 ! D10   D(2,3,4,10)          -179.9312         estimate D2E/DX2                !
 ! D11   D(3,4,5,2)             -0.0669         estimate D2E/DX2                !
 ! D12   D(3,4,5,6)            179.9934         estimate D2E/DX2                !
 ! D13   D(10,4,5,2)           179.9345         estimate D2E/DX2                !
 ! D14   D(10,4,5,6)            -0.0052         estimate D2E/DX2                !
 ! D15   D(2,5,6,7)              0.0624         estimate D2E/DX2                !
 ! D16   D(2,5,6,11)          -123.3646         estimate D2E/DX2                !
 ! D17   D(2,5,6,12)           123.4733         estimate D2E/DX2                !
 ! D18   D(4,5,6,7)            179.9766         estimate D2E/DX2                !
 ! D19   D(4,5,6,11)            56.5496         estimate D2E/DX2                !
 ! D20   D(4,5,6,12)           -56.6124         estimate D2E/DX2                !
 ! D21   D(5,6,7,8)            179.977          estimate D2E/DX2                !
 ! D22   D(5,6,7,13)            -0.0202         estimate D2E/DX2                !
 ! D23   D(11,6,7,8)           -57.2212         estimate D2E/DX2                !
 ! D24   D(11,6,7,13)          122.7816         estimate D2E/DX2                !
 ! D25   D(12,6,7,8)            57.1908         estimate D2E/DX2                !
 ! D26   D(12,6,7,13)         -122.8064         estimate D2E/DX2                !
 --------------------------------------------------------------------------------
 Trust Radius=3.00D-01 FncErr=1.00D-07 GrdErr=1.00D-06 EigMax=2.50D+02 EigMin=1.00D-04
 Number of steps in this run=     69 maximum allowed number of steps=    100.
 GradGradGradGradGradGradGradGradGradGradGradGradGradGradGradGradGradGrad

                          Input orientation:                          
 ---------------------------------------------------------------------
 Center     Atomic      Atomic             Coordinates (Angstroms)
 Number     Number       Type             X           Y           Z
 ---------------------------------------------------------------------
      1          7           0        0.987050    0.095880   -0.017650
      2          6           0        2.261120    0.029690   -0.015840
      3          8           0        3.210470    0.981460   -0.011140
      4          6           0        4.119540    0.051320   -0.010650
      5          6           0        3.251330   -0.985220   -0.016960
      6          6           0        3.248590   -2.477640   -0.021610
      7          6           0        1.869130   -3.065520   -0.027780
      8          8           0        1.668720   -4.278760   -0.032600
      9          1           0        0.693760    1.074990   -0.015000
     10          1           0        5.212320    0.080360   -0.006600
     11          1           0        3.815040   -2.842590    0.842360
     12          1           0        3.820260   -2.837090   -0.884450
     13          1           0        1.012960   -2.373470   -0.027980
 ---------------------------------------------------------------------
                    Distance matrix (angstroms):
                    1          2          3          4          5
     1  N    0.000000
     2  C    1.275789   0.000000
     3  O    2.393301   1.344304   0.000000
     4  C    3.132815   1.858553   1.300603   0.000000
     5  C    2.509132   1.417942   1.967113   1.352126   0.000000
     6  C    3.426016   2.694779   3.459326   2.674755   1.492430
     7  C    3.282167   3.119956   4.263510   3.844389   2.497647
     8  O    4.427457   4.349018   5.481548   4.975600   3.654081
     9  H    1.022097   1.883951   2.518450   3.575456   3.284149
    10  H    4.225313   2.951649   2.195314   1.093173   2.231827
    11  H    4.167943   3.376561   3.964508   3.032336   2.122740
    12  H    4.169021   3.376955   3.964321   3.032492   2.122650
    13  H    2.469508   2.707993   4.010597   3.940907   2.633944
                    6          7          8          9         10
     6  C    0.000000
     7  C    1.499517   0.000000
     8  O    2.395860   1.229690   0.000000
     9  H    4.375886   4.304124   5.441828   0.000000
    10  H    3.224876   4.590635   5.617802   4.626742   0.000000
    11  H    1.095673   2.143224   2.726688   5.081819   3.349143
    12  H    1.095675   2.143122   2.726387   5.082845   3.349622
    13  H    2.238065   1.100891   2.014987   3.463226   4.863781
                   11         12         13
    11  H    0.000000
    12  H    1.726827   0.000000
    13  H    2.971400   2.971434   0.000000
 Stoichiometry    C5H5NO2
 Framework group  C1[X(C5H5NO2)]
 Deg. of freedom    33
 Full point group                 C1      NOp   1
 Largest Abelian subgroup         C1      NOp   1
 Largest concise Abelian subgroup C1      NOp   1
                         Standard orientation:                         
 ---------------------------------------------------------------------
 Center     Atomic      Atomic             Coordinates (Angstroms)
 Number     Number       Type             X           Y           Z
 ---------------------------------------------------------------------
      1          7           0        0.946885    1.833374    0.000864
      2          6           0        1.161008    0.575682   -0.000178
      3          8           0        2.297408   -0.142475   -0.001127
      4          6           0        1.588662   -1.233001    0.000436
      5          6           0        0.387289   -0.612560   -0.000123
      6          6           0       -1.069592   -0.936356    0.000487
      7          6           0       -1.945009    0.281097   -0.000274
      8          8           0       -3.172715    0.211256   -0.000338
      9          1           0        1.838128    2.333742    0.000778
     10          1           0        1.856060   -2.292965    0.001738
     11          1           0       -1.298364   -1.570297    0.864362
     12          1           0       -1.298701   -1.571437   -0.862464
     13          1           0       -1.457013    1.267920   -0.000836
 ---------------------------------------------------------------------
 Rotational constants (GHZ):           4.8069439           1.3323786           1.0497331
 Standard basis: 6-31G(2df,p) (6D, 7F)
 There are   273 symmetry adapted cartesian basis functions of A   symmetry.
 There are   249 symmetry adapted basis functions of A   symmetry.
   249 basis functions,   387 primitive gaussians,   273 cartesian basis functions
    29 alpha electrons       29 beta electrons
       nuclear repulsion energy       339.9745504266 Hartrees.
 NAtoms=   13 NActive=   13 NUniq=   13 SFac= 1.00D+00 NAtFMM=   60 NAOKFM=F Big=F
 Integral buffers will be    131072 words long.
 Raffenetti 2 integral format.
 Two-electron integral symmetry is turned on.
 One-electron integrals computed using PRISM.
 PrsmSu:  requested number of processors reduced to:  13 ShMem   1 Linda.
 NBasis=   249 RedAO= T EigKep=  2.29D-04  NBF=   249
 NBsUse=   249 1.00D-06 EigRej= -1.00D+00 NBFU=   249
 ExpMin= 1.61D-01 ExpMax= 5.48D+03 ExpMxC= 8.25D+02 IAcc=3 IRadAn=         5 AccDes= 0.00D+00
 Harris functional with IExCor=  402 and IRadAn=       5 diagonalized for initial guess.
 HarFok:  IExCor=  402 AccDes= 0.00D+00 IRadAn=         5 IDoV= 1 UseB2=F ITyADJ=14
 ICtDFT=  3500011 ScaDFX=  1.000000  1.000000  1.000000  1.000000
 FoFCou: FMM=F IPFlag=           0 FMFlag=      100000 FMFlg1=           0
         NFxFlg=           0 DoJE=T BraDBF=F KetDBF=T FulRan=T
         wScrn=  0.000000 ICntrl=       500 IOpCl=  0 I1Cent=   200000004 NGrid=           0
         NMat0=    1 NMatS0=      1 NMatT0=    0 NMatD0=    1 NMtDS0=    0 NMtDT0=    0
 Petite list used in FoFCou.
 Requested convergence on RMS density matrix=1.00D-08 within 128 cycles.
 Requested convergence on MAX density matrix=1.00D-06.
 Requested convergence on             energy=1.00D-06.
 No special actions if energy rises.
 Integral accuracy reduced to 1.0D-05 until final iterations.
 Initial convergence to 1.0D-05 achieved.  Increase integral accuracy.
 SCF Done:  E(RB3LYP) =  -398.642490630     A.U. after   15 cycles
            NFock= 15  Conv=0.61D-08     -V/T= 2.0057

 **********************************************************************

            Population analysis using the SCF density.

 **********************************************************************

 Orbital symmetries:
       Occupied  (A) (A) (A) (A) (A) (A) (A) (A) (A) (A) (A) (A)
                 (A) (A) (A) (A) (A) (A) (A) (A) (A) (A) (A) (A)
                 (A) (A) (A) (A) (A)
       Virtual   (A) (A) (A) (A) (A) (A) (A) (A) (A) (A) (A) (A)
                 (A) (A) (A) (A) (A) (A) (A) (A) (A) (A) (A) (A)
                 (A) (A) (A) (A) (A) (A) (A) (A) (A) (A) (A) (A)
                 (A) (A) (A) (A) (A) (A) (A) (A) (A) (A) (A) (A)
                 (A) (A) (A) (A) (A) (A) (A) (A) (A) (A) (A) (A)
                 (A) (A) (A) (A) (A) (A) (A) (A) (A) (A) (A) (A)
                 (A) (A) (A) (A) (A) (A) (A) (A) (A) (A) (A) (A)
                 (A) (A) (A) (A) (A) (A) (A) (A) (A) (A) (A) (A)
                 (A) (A) (A) (A) (A) (A) (A) (A) (A) (A) (A) (A)
                 (A) (A) (A) (A) (A) (A) (A) (A) (A) (A) (A) (A)
                 (A) (A) (A) (A) (A) (A) (A) (A) (A) (A) (A) (A)
                 (A) (A) (A) (A) (A) (A) (A) (A) (A) (A) (A) (A)
                 (A) (A) (A) (A) (A) (A) (A) (A) (A) (A) (A) (A)
                 (A) (A) (A) (A) (A) (A) (A) (A) (A) (A) (A) (A)
                 (A) (A) (A) (A) (A) (A) (A) (A) (A) (A) (A) (A)
                 (A) (A) (A) (A) (A) (A) (A) (A) (A) (A) (A) (A)
                 (A) (A) (A) (A) (A) (A) (A) (A) (A) (A) (A) (A)
                 (A) (A) (A) (A) (A) (A) (A) (A) (A) (A) (A) (A)
                 (A) (A) (A) (A)
 The electronic state is 1-A.
 Alpha  occ. eigenvalues --  -19.19600 -19.13457 -14.34050 -10.29515 -10.27252
 Alpha  occ. eigenvalues --  -10.27041 -10.21072 -10.19559  -1.17895  -1.02897
 Alpha  occ. eigenvalues --   -0.91556  -0.81647  -0.73556  -0.68358  -0.59443
 Alpha  occ. eigenvalues --   -0.54806  -0.53891  -0.50937  -0.50162  -0.45064
 Alpha  occ. eigenvalues --   -0.45052  -0.42628  -0.39270  -0.37588  -0.35629
 Alpha  occ. eigenvalues --   -0.32074  -0.31109  -0.24883  -0.23752
 Alpha virt. eigenvalues --   -0.06264  -0.02918   0.08795   0.09341   0.10201
 Alpha virt. eigenvalues --    0.11057   0.14777   0.16030   0.18403   0.19371
 Alpha virt. eigenvalues --    0.23369   0.26512   0.28317   0.32447   0.34175
 Alpha virt. eigenvalues --    0.39528   0.41005   0.43378   0.45508   0.46925
 Alpha virt. eigenvalues --    0.48402   0.51316   0.54178   0.55172   0.56032
 Alpha virt. eigenvalues --    0.57744   0.59165   0.61374   0.63560   0.64009
 Alpha virt. eigenvalues --    0.66369   0.69186   0.71445   0.71891   0.72798
 Alpha virt. eigenvalues --    0.73388   0.74562   0.74778   0.76055   0.79969
 Alpha virt. eigenvalues --    0.80389   0.82112   0.85874   0.86559   0.89370
 Alpha virt. eigenvalues --    0.92876   0.95155   0.96023   0.97351   0.98571
 Alpha virt. eigenvalues --    0.98795   1.02399   1.03505   1.04242   1.06591
 Alpha virt. eigenvalues --    1.10692   1.13799   1.20083   1.23594   1.23832
 Alpha virt. eigenvalues --    1.26544   1.26719   1.28416   1.32970   1.35694
 Alpha virt. eigenvalues --    1.36290   1.39029   1.41730   1.43931   1.46602
 Alpha virt. eigenvalues --    1.49615   1.50089   1.51924   1.53206   1.54778
 Alpha virt. eigenvalues --    1.58557   1.60771   1.63700   1.66362   1.70683
 Alpha virt. eigenvalues --    1.75121   1.76009   1.82392   1.88777   1.90991
 Alpha virt. eigenvalues --    1.94220   1.98374   2.00859   2.07522   2.11275
 Alpha virt. eigenvalues --    2.19239   2.19690   2.28201   2.32278   2.32764
 Alpha virt. eigenvalues --    2.39690   2.42957   2.47140   2.51941   2.55030
 Alpha virt. eigenvalues --    2.58138   2.62026   2.66007   2.69343   2.69471
 Alpha virt. eigenvalues --    2.71303   2.79889   2.88686   2.89174   2.90673
 Alpha virt. eigenvalues --    2.92131   2.93863   2.96966   2.99095   3.01733
 Alpha virt. eigenvalues --    3.05696   3.06272   3.08452   3.11021   3.12587
 Alpha virt. eigenvalues --    3.21803   3.24077   3.27525   3.28989   3.30952
 Alpha virt. eigenvalues --    3.36512   3.38793   3.40255   3.44287   3.46181
 Alpha virt. eigenvalues --    3.48038   3.51320   3.51573   3.55228   3.56684
 Alpha virt. eigenvalues --    3.63320   3.68475   3.74041   3.83715   3.84600
 Alpha virt. eigenvalues --    3.89903   3.92421   3.97299   4.00961   4.04909
 Alpha virt. eigenvalues --    4.05360   4.09766   4.10176   4.14829   4.15153
 Alpha virt. eigenvalues --    4.16497   4.22939   4.22998   4.25701   4.26715
 Alpha virt. eigenvalues --    4.31278   4.31564   4.32994   4.40734   4.41309
 Alpha virt. eigenvalues --    4.42154   4.43813   4.44787   4.49219   4.51585
 Alpha virt. eigenvalues --    4.53817   4.55141   4.59833   4.60207   4.60275
 Alpha virt. eigenvalues --    4.61485   4.65968   4.68490   4.68965   4.71747
 Alpha virt. eigenvalues --    4.78678   4.78999   4.84967   4.86320   4.87329
 Alpha virt. eigenvalues --    4.92227   4.99320   5.01477   5.04861   5.07410
 Alpha virt. eigenvalues --    5.09887   5.13005   5.21170   5.25570   5.31201
 Alpha virt. eigenvalues --    5.40300   5.47010   5.47759   5.48497   5.52731
 Alpha virt. eigenvalues --    5.60658   5.64858   5.71103   5.74981   5.86802
 Alpha virt. eigenvalues --    5.96188   5.99320   6.04032   6.06069   6.18928
 Alpha virt. eigenvalues --    6.28727   6.45074   6.52958   6.73457   6.78567
 Alpha virt. eigenvalues --    7.10856  10.02580  10.69030  10.97990  11.33191
 Alpha virt. eigenvalues --   11.51274  12.32600  12.97708  13.34620  16.01802
          Condensed to atoms (all electrons):
               1          2          3          4          5          6
     1  N    6.593197   0.653589  -0.044064  -0.007331   0.006569  -0.002850
     2  C    0.653589   4.476228   0.321145  -0.127507   0.392918  -0.058352
     3  O   -0.044064   0.321145   7.633490   0.335075  -0.066177   0.013812
     4  C   -0.007331  -0.127507   0.335075   5.009560   0.583627  -0.071956
     5  C    0.006569   0.392918  -0.066177   0.583627   4.871371   0.150734
     6  C   -0.002850  -0.058352   0.013812  -0.071956   0.150734   5.666543
     7  C   -0.006916  -0.008208  -0.000346   0.003053   0.030012   0.235530
     8  O    0.000043   0.000094  -0.000000  -0.000074   0.001091  -0.046043
     9  H    0.329488  -0.069307  -0.008762   0.000185   0.006705  -0.000559
    10  H   -0.000533   0.006782  -0.015849   0.345546  -0.026386  -0.000412
    11  H   -0.000003   0.002276  -0.000098  -0.002646  -0.018463   0.335842
    12  H   -0.000003   0.002274  -0.000097  -0.002631  -0.018478   0.335849
    13  H    0.013954   0.007441   0.000137   0.001608   0.013687  -0.123799
               7          8          9         10         11         12
     1  N   -0.006916   0.000043   0.329488  -0.000533  -0.000003  -0.000003
     2  C   -0.008208   0.000094  -0.069307   0.006782   0.002276   0.002274
     3  O   -0.000346  -0.000000  -0.008762  -0.015849  -0.000098  -0.000097
     4  C    0.003053  -0.000074   0.000185   0.345546  -0.002646  -0.002631
     5  C    0.030012   0.001091   0.006705  -0.026386  -0.018463  -0.018478
     6  C    0.235530  -0.046043  -0.000559  -0.000412   0.335842   0.335849
     7  C    4.500679   0.722609   0.000301  -0.000023  -0.009164  -0.009163
     8  O    0.722609   7.659883  -0.000001   0.000000  -0.001594  -0.001595
     9  H    0.000301  -0.000001   0.502615   0.000022   0.000007   0.000007
    10  H   -0.000023   0.000000   0.000022   0.520432   0.000472   0.000472
    11  H   -0.009164  -0.001594   0.000007   0.000472   0.567911  -0.031140
    12  H   -0.009163  -0.001595   0.000007   0.000472  -0.031140   0.567888
    13  H    0.379811  -0.048392  -0.000269   0.000019   0.003699   0.003701
              13
     1  N    0.013954
     2  C    0.007441
     3  O    0.000137
     4  C    0.001608
     5  C    0.013687
     6  C   -0.123799
     7  C    0.379811
     8  O   -0.048392
     9  H   -0.000269
    10  H    0.000019
    11  H    0.003699
    12  H    0.003701
    13  H    0.608214
 Mulliken charges:
               1
     1  N   -0.535140
     2  C    0.400628
     3  O   -0.168264
     4  C   -0.066509
     5  C    0.072790
     6  C   -0.434340
     7  C    0.161826
     8  O   -0.286021
     9  H    0.239567
    10  H    0.169457
    11  H    0.152901
    12  H    0.152916
    13  H    0.140189
 Sum of Mulliken charges =  -0.00000
 Mulliken charges with hydrogens summed into heavy atoms:
               1
     1  N   -0.295573
     2  C    0.400628
     3  O   -0.168264
     4  C    0.102948
     5  C    0.072790
     6  C   -0.128523
     7  C    0.302015
     8  O   -0.286021
 Electronic spatial extent (au):  <R**2>=           1021.9029
 Charge=             -0.0000 electrons
 Dipole moment (field-independent basis, Debye):
    X=              3.3561    Y=             -2.2644    Z=              0.0018  Tot=              4.0486
 Quadrupole moment (field-independent basis, Debye-Ang):
   XX=            -55.8320   YY=            -40.2456   ZZ=            -44.3568
   XY=              1.2807   XZ=              0.0042   YZ=             -0.0063
 Traceless Quadrupole moment (field-independent basis, Debye-Ang):
   XX=             -9.0205   YY=              6.5659   ZZ=              2.4547
   XY=              1.2807   XZ=              0.0042   YZ=             -0.0063
 Octapole moment (field-independent basis, Debye-Ang**2):
  XXX=             45.9345  YYY=             -7.7780  ZZZ=             -0.0042  XYY=             12.8792
  XXY=             -0.1294  XXZ=              0.0179  XZZ=             -2.5615  YZZ=             -0.0678
  YYZ=              0.0017  XYZ=             -0.0057
 Hexadecapole moment (field-independent basis, Debye-Ang**3):
 XXXX=          -1061.6122 YYYY=           -292.7839 ZZZZ=            -45.9114 XXXY=             15.1449
 XXXZ=              0.0108 YYYX=              5.0902 YYYZ=             -0.0250 ZZZX=             -0.0079
 ZZZY=             -0.0041 XXYY=           -163.6851 XXZZ=           -149.3948 YYZZ=            -61.3096
 XXYZ=             -0.0019 YYXZ=              0.0168 ZZXY=              1.8046
 N-N= 3.399745504266D+02 E-N=-1.611647133511D+03  KE= 3.963844253657D+02
 PrsmSu:  requested number of processors reduced to:  13 ShMem   1 Linda.
 Calling FoFJK, ICntrl=      2127 FMM=F ISym2X=0 I1Cent= 0 IOpClX= 0 NMat=1 NMatS=1 NMatT=0.
 ***** Axes restored to original set *****
 -------------------------------------------------------------------
 Center     Atomic                   Forces (Hartrees/Bohr)
 Number     Number              X              Y              Z
 -------------------------------------------------------------------
      1        7           0.029029911    0.007560424    0.000059361
      2        6          -0.086999031   -0.024918519   -0.000343280
      3        8          -0.014760378    0.145953917    0.000468505
      4        6           0.053653756   -0.095362199   -0.000210994
      5        6           0.028418904   -0.047232238    0.000007235
      6        6           0.014763354    0.014827644    0.000098764
      7        6          -0.014497142   -0.047260044   -0.000208439
      8        8           0.007872513    0.033371034    0.000141830
      9        1          -0.002250434    0.001226671    0.000002517
     10        1          -0.009404321    0.017856864    0.000011025
     11        1          -0.003236323   -0.005058481    0.002478912
     12        1          -0.003215655   -0.005035432   -0.002524570
     13        1           0.000624847    0.004070361    0.000019133
 -------------------------------------------------------------------
 Cartesian Forces:  Max     0.145953917 RMS     0.035875117

 GradGradGradGradGradGradGradGradGradGradGradGradGradGradGradGradGradGrad
 Berny optimization.
 FormGI is forming the generalized inverse of G from B-inverse, IUseBI=4.
 Internal  Forces:  Max     0.089426342 RMS     0.018336824
 Search for a local minimum.
 Step number   1 out of a maximum of   69
 All quantities printed in internal units (Hartrees-Bohrs-Radians)
 Mixed Optimization -- RFO/linear search
 Second derivative matrix not updated -- first step.
 ITU=  0
     Eigenvalues ---    0.00772   0.00772   0.00866   0.01550   0.02239
     Eigenvalues ---    0.02621   0.02820   0.03335   0.04826   0.06450
     Eigenvalues ---    0.10249   0.13433   0.16000   0.16000   0.16000
     Eigenvalues ---    0.21883   0.22000   0.24082   0.25000   0.25000
     Eigenvalues ---    0.32428   0.33185   0.33584   0.34165   0.34165
     Eigenvalues ---    0.34448   0.39048   0.44005   0.46241   0.55452
     Eigenvalues ---    0.61578   0.74392   0.91215
 RFO step:  Lambda=-3.81946423D-02 EMin= 7.72338359D-03
 Linear search not attempted -- first point.
 Iteration  1 RMS(Cart)=  0.06223414 RMS(Int)=  0.00134101
 Iteration  2 RMS(Cart)=  0.00182618 RMS(Int)=  0.00047701
 Iteration  3 RMS(Cart)=  0.00000142 RMS(Int)=  0.00047701
 Iteration  4 RMS(Cart)=  0.00000000 RMS(Int)=  0.00047701
 Variable       Old X    -DE/DX   Delta X   Delta X   Delta X     New X
                                 (Linear)    (Quad)   (Total)
    R1        2.41089  -0.02629   0.00000  -0.03361  -0.03361   2.37728
    R2        1.93148   0.00182   0.00000   0.00381   0.00381   1.93529
    R3        2.54037   0.05921   0.00000   0.10562   0.10634   2.64671
    R4        2.67952   0.05583   0.00000   0.11004   0.10927   2.78879
    R5        2.45778   0.08943   0.00000   0.13267   0.13341   2.59119
    R6        2.55515   0.01030   0.00000   0.01109   0.01043   2.56558
    R7        2.06580  -0.00893   0.00000  -0.02333  -0.02333   2.04247
    R8        2.82028   0.00508   0.00000   0.01373   0.01373   2.83401
    R9        2.83368   0.00937   0.00000   0.02585   0.02585   2.85952
   R10        2.07052   0.00197   0.00000   0.00518   0.00518   2.07570
   R11        2.07053   0.00196   0.00000   0.00517   0.00517   2.07569
   R12        2.32378  -0.03421   0.00000  -0.03600  -0.03600   2.28778
   R13        2.08038   0.00207   0.00000   0.00554   0.00554   2.08592
    A1        1.91374   0.00348   0.00000   0.01758   0.01758   1.93131
    A2        2.30302  -0.01692   0.00000  -0.05604  -0.05595   2.24707
    A3        2.39578   0.00410   0.00000   0.01691   0.01700   2.41278
    A4        1.58439   0.01282   0.00000   0.03912   0.03895   1.62334
    A5        1.55807  -0.03254   0.00000  -0.08026  -0.07838   1.47969
    A6        1.67039   0.01921   0.00000   0.07142   0.07130   1.74170
    A7        2.31817  -0.02830   0.00000  -0.13004  -0.12998   2.18819
    A8        2.29463   0.00909   0.00000   0.05862   0.05868   2.35330
    A9        1.47033   0.00051   0.00000  -0.03028  -0.03187   1.43846
   A10        2.36667   0.00385   0.00000   0.02938   0.03017   2.39685
   A11        2.44618  -0.00436   0.00000   0.00090   0.00170   2.44788
   A12        1.97550   0.00659   0.00000   0.02578   0.02597   2.00147
   A13        1.90676   0.00214   0.00000   0.02231   0.02248   1.92924
   A14        1.90663   0.00213   0.00000   0.02228   0.02245   1.92908
   A15        1.92651  -0.00651   0.00000  -0.03951  -0.03996   1.88655
   A16        1.92636  -0.00650   0.00000  -0.03944  -0.03989   1.88648
   A17        1.81517   0.00183   0.00000   0.00784   0.00650   1.82168
   A18        2.13737  -0.00114   0.00000  -0.00441  -0.00441   2.13296
   A19        2.05894  -0.00313   0.00000  -0.01647  -0.01647   2.04247
   A20        2.08687   0.00427   0.00000   0.02088   0.02088   2.10775
    D1        0.00017   0.00002   0.00000   0.00037   0.00036   0.00052
    D2        3.14103  -0.00003   0.00000  -0.00042  -0.00041   3.14062
    D3        3.13994   0.00005   0.00000   0.00051   0.00049   3.14043
    D4       -0.00116   0.00008   0.00000   0.00104   0.00100  -0.00017
    D5       -3.13993  -0.00000   0.00000  -0.00033  -0.00033  -3.14026
    D6        0.00070   0.00001   0.00000  -0.00006  -0.00006   0.00064
    D7        0.00112  -0.00005   0.00000  -0.00094  -0.00095   0.00017
    D8       -3.14143  -0.00004   0.00000  -0.00068  -0.00069   3.14106
    D9        0.00123  -0.00007   0.00000  -0.00104  -0.00104   0.00018
   D10       -3.14039  -0.00001   0.00000  -0.00019  -0.00028  -3.14067
   D11       -0.00117   0.00006   0.00000   0.00099   0.00099  -0.00018
   D12        3.14148   0.00004   0.00000   0.00067   0.00068  -3.14103
   D13        3.14045   0.00001   0.00000   0.00016   0.00012   3.14057
   D14       -0.00009  -0.00001   0.00000  -0.00016  -0.00019  -0.00028
   D15        0.00109  -0.00001   0.00000  -0.00022  -0.00022   0.00087
   D16       -2.15312   0.00220   0.00000   0.01625   0.01626  -2.13686
   D17        2.15502  -0.00222   0.00000  -0.01663  -0.01663   2.13838
   D18        3.14118   0.00001   0.00000   0.00020   0.00020   3.14138
   D19        0.98698   0.00222   0.00000   0.01667   0.01667   1.00365
   D20       -0.98807  -0.00220   0.00000  -0.01621  -0.01622  -1.00429
   D21        3.14119   0.00000   0.00000   0.00003   0.00003   3.14123
   D22       -0.00035  -0.00000   0.00000  -0.00004  -0.00004  -0.00039
   D23       -0.99870   0.00264   0.00000   0.01803   0.01739  -0.98131
   D24        2.14294   0.00264   0.00000   0.01795   0.01731   2.16026
   D25        0.99817  -0.00264   0.00000  -0.01797  -0.01733   0.98084
   D26       -2.14338  -0.00264   0.00000  -0.01804  -0.01740  -2.16078
         Item               Value     Threshold  Converged?
 Maximum Force            0.089426     0.000450     NO 
 RMS     Force            0.018337     0.000300     NO 
 Maximum Displacement     0.201252     0.001800     NO 
 RMS     Displacement     0.062960     0.001200     NO 
 Predicted change in Energy=-2.078785D-02
 GradGradGradGradGradGradGradGradGradGradGradGradGradGradGradGradGradGrad

                          Input orientation:                          
 ---------------------------------------------------------------------
 Center     Atomic      Atomic             Coordinates (Angstroms)
 Number     Number       Type             X           Y           Z
 ---------------------------------------------------------------------
      1          7           0        0.989934    0.193329   -0.017764
      2          6           0        2.242289    0.074270   -0.015879
      3          8           0        3.218332    1.078722   -0.009814
      4          6           0        4.110708    0.037638   -0.010888
      5          6           0        3.245203   -1.008339   -0.017038
      6          6           0        3.248890   -2.508022   -0.021732
      7          6           0        1.875437   -3.143118   -0.027983
      8          8           0        1.719663   -4.343688   -0.032608
      9          1           0        0.720979    1.181488   -0.014637
     10          1           0        5.187035    0.136113   -0.006797
     11          1           0        3.799551   -2.894726    0.846451
     12          1           0        3.804774   -2.889122   -0.889060
     13          1           0        1.007495   -2.461134   -0.028151
 ---------------------------------------------------------------------
                    Distance matrix (angstroms):
                    1          2          3          4          5
     1  N    0.000000
     2  C    1.258003   0.000000
     3  O    2.397862   1.400579   0.000000
     4  C    3.124663   1.868785   1.371201   0.000000
     5  C    2.555435   1.475764   2.087246   1.357646   0.000000
     6  C    3.521391   2.771554   3.586893   2.687607   1.499695
     7  C    3.451970   3.238258   4.430308   3.887665   2.536467
     8  O    4.595351   4.448795   5.625750   4.991351   3.667707
     9  H    1.024112   1.881573   2.499472   3.577523   3.341715
    10  H    4.197505   2.945409   2.182730   1.080830   2.254015
    11  H    4.263438   3.461736   4.106007   3.070929   2.147411
    12  H    4.264269   3.462008   4.106187   3.070945   2.147298
    13  H    2.654541   2.820131   4.173573   3.984230   2.667972
                    6          7          8          9         10
     6  C    0.000000
     7  C    1.513195   0.000000
     8  O    2.389210   1.210643   0.000000
     9  H    4.472457   4.476067   5.614736   0.000000
    10  H    3.278426   4.660524   5.664976   4.586777   0.000000
    11  H    1.098412   2.128039   2.682941   5.180213   3.440803
    12  H    1.098409   2.127982   2.682715   5.181146   3.441087
    13  H    2.241895   1.103824   2.012763   3.653897   4.920843
                   11         12         13
    11  H    0.000000
    12  H    1.735527   0.000000
    13  H    2.957788   2.957889   0.000000
 Stoichiometry    C5H5NO2
 Framework group  C1[X(C5H5NO2)]
 Deg. of freedom    33
 Full point group                 C1      NOp   1
 Largest Abelian subgroup         C1      NOp   1
 Largest concise Abelian subgroup C1      NOp   1
                         Standard orientation:                         
 ---------------------------------------------------------------------
 Center     Atomic      Atomic             Coordinates (Angstroms)
 Number     Number       Type             X           Y           Z
 ---------------------------------------------------------------------
      1          7           0        1.090775    1.824139    0.000461
      2          6           0        1.211534    0.571946   -0.000384
      3          8           0        2.382965   -0.195759   -0.000333
      4          6           0        1.530138   -1.269480    0.000036
      5          6           0        0.338913   -0.618185   -0.000231
      6          6           0       -1.132829   -0.906388    0.000378
      7          6           0       -2.017032    0.321596   -0.000167
      8          8           0       -3.225357    0.246718   -0.000147
      9          1           0        2.009948    2.275722    0.000765
     10          1           0        1.831083   -2.307567    0.001070
     11          1           0       -1.404577   -1.521988    0.868537
     12          1           0       -1.404949   -1.522931   -0.866990
     13          1           0       -1.512145    1.303184   -0.000567
 ---------------------------------------------------------------------
 Rotational constants (GHZ):           4.7872693           1.2619881           1.0047412
 Standard basis: 6-31G(2df,p) (6D, 7F)
 There are   273 symmetry adapted cartesian basis functions of A   symmetry.
 There are   249 symmetry adapted basis functions of A   symmetry.
   249 basis functions,   387 primitive gaussians,   273 cartesian basis functions
    29 alpha electrons       29 beta electrons
       nuclear repulsion energy       334.4109382048 Hartrees.
 NAtoms=   13 NActive=   13 NUniq=   13 SFac= 1.00D+00 NAtFMM=   60 NAOKFM=F Big=F
 Integral buffers will be    131072 words long.
 Raffenetti 2 integral format.
 Two-electron integral symmetry is turned on.
 One-electron integrals computed using PRISM.
 PrsmSu:  requested number of processors reduced to:  13 ShMem   1 Linda.
 NBasis=   249 RedAO= T EigKep=  2.26D-04  NBF=   249
 NBsUse=   249 1.00D-06 EigRej= -1.00D+00 NBFU=   249
 Initial guess from the checkpoint file:  "NdC1OCdC1CCdO.chk"
 B after Tr=    -0.000000    0.000000    0.000000
         Rot=    0.999917    0.000000   -0.000000    0.012850 Ang=   1.47 deg.
 ExpMin= 1.61D-01 ExpMax= 5.48D+03 ExpMxC= 8.25D+02 IAcc=2 IRadAn=         4 AccDes= 0.00D+00
 Harris functional with IExCor=  402 and IRadAn=       4 diagonalized for initial guess.
 HarFok:  IExCor=  402 AccDes= 0.00D+00 IRadAn=         4 IDoV= 1 UseB2=F ITyADJ=14
 ICtDFT=  3500011 ScaDFX=  1.000000  1.000000  1.000000  1.000000
 FoFCou: FMM=F IPFlag=           0 FMFlag=      100000 FMFlg1=           0
         NFxFlg=           0 DoJE=T BraDBF=F KetDBF=T FulRan=T
         wScrn=  0.000000 ICntrl=       500 IOpCl=  0 I1Cent=   200000004 NGrid=           0
         NMat0=    1 NMatS0=      1 NMatT0=    0 NMatD0=    1 NMtDS0=    0 NMtDT0=    0
 Petite list used in FoFCou.
 Requested convergence on RMS density matrix=1.00D-08 within 128 cycles.
 Requested convergence on MAX density matrix=1.00D-06.
 Requested convergence on             energy=1.00D-06.
 No special actions if energy rises.
 Integral accuracy reduced to 1.0D-05 until final iterations.
 Initial convergence to 1.0D-05 achieved.  Increase integral accuracy.
 SCF Done:  E(RB3LYP) =  -398.664208322     A.U. after   13 cycles
            NFock= 13  Conv=0.34D-08     -V/T= 2.0067
 PrsmSu:  requested number of processors reduced to:  13 ShMem   1 Linda.
 Calling FoFJK, ICntrl=      2127 FMM=F ISym2X=0 I1Cent= 0 IOpClX= 0 NMat=1 NMatS=1 NMatT=0.
 ***** Axes restored to original set *****
 -------------------------------------------------------------------
 Center     Atomic                   Forces (Hartrees/Bohr)
 Number     Number              X              Y              Z
 -------------------------------------------------------------------
      1        7           0.009479302    0.001554966   -0.000008618
      2        6          -0.040676940   -0.011958532   -0.000076251
      3        8           0.003108664    0.026184081    0.000075891
      4        6           0.018800126   -0.040860403   -0.000061697
      5        6           0.009316236    0.011341319    0.000061011
      6        6           0.008571243    0.010654057    0.000037670
      7        6          -0.006485774   -0.015524068   -0.000070154
      8        8           0.002694791    0.009612830    0.000041638
      9        1          -0.000356838   -0.001413534   -0.000007683
     10        1          -0.000408025    0.008816809    0.000010671
     11        1          -0.001756265   -0.000809422    0.000642717
     12        1          -0.001747874   -0.000814919   -0.000654879
     13        1          -0.000538645    0.003216817    0.000009684
 -------------------------------------------------------------------
 Cartesian Forces:  Max     0.040860403 RMS     0.011867106

 GradGradGradGradGradGradGradGradGradGradGradGradGradGradGradGradGradGrad
 Berny optimization.
 Using GEDIIS/GDIIS optimizer.
 FormGI is forming the generalized inverse of G from B-inverse, IUseBI=4.
 Internal  Forces:  Max     0.021330424 RMS     0.005537271
 Search for a local minimum.
 Step number   2 out of a maximum of   69
 All quantities printed in internal units (Hartrees-Bohrs-Radians)
 Mixed Optimization -- RFO/linear search
 Update second derivatives using D2CorX and points    1    2
 DE= -2.17D-02 DEPred=-2.08D-02 R= 1.04D+00
 TightC=F SS=  1.41D+00  RLast= 3.03D-01 DXNew= 5.0454D-01 9.0872D-01
 Trust test= 1.04D+00 RLast= 3.03D-01 DXMaxT set to 5.05D-01
 ITU=  1  0
 Use linear search instead of GDIIS.
     Eigenvalues ---    0.00772   0.00772   0.00866   0.01530   0.02225
     Eigenvalues ---    0.02607   0.02801   0.03335   0.04696   0.06418
     Eigenvalues ---    0.10423   0.13551   0.14741   0.16000   0.16002
     Eigenvalues ---    0.21939   0.21997   0.24763   0.24996   0.28489
     Eigenvalues ---    0.32007   0.33281   0.33558   0.34165   0.34177
     Eigenvalues ---    0.34650   0.38372   0.43750   0.44035   0.55307
     Eigenvalues ---    0.57551   0.73946   0.90393
 RFO step:  Lambda=-5.45312659D-03 EMin= 7.72338359D-03
 Quartic linear search produced a step of  0.25471.
 Iteration  1 RMS(Cart)=  0.02266848 RMS(Int)=  0.00073209
 Iteration  2 RMS(Cart)=  0.00073764 RMS(Int)=  0.00017970
 Iteration  3 RMS(Cart)=  0.00000004 RMS(Int)=  0.00017970
 Variable       Old X    -DE/DX   Delta X   Delta X   Delta X     New X
                                 (Linear)    (Quad)   (Total)
    R1        2.37728  -0.00907  -0.00856  -0.01153  -0.02009   2.35719
    R2        1.93529  -0.00127   0.00097  -0.00396  -0.00299   1.93230
    R3        2.64671   0.01833   0.02709   0.03353   0.06093   2.70764
    R4        2.78879   0.00858   0.02783   0.00982   0.03774   2.82653
    R5        2.59119   0.02133   0.03398   0.02768   0.06155   2.65274
    R6        2.56558  -0.00866   0.00266  -0.02497  -0.02262   2.54296
    R7        2.04247   0.00040  -0.00594   0.00374  -0.00220   2.04027
    R8        2.83401  -0.00633   0.00350  -0.02487  -0.02138   2.81264
    R9        2.85952   0.00506   0.00658   0.01668   0.02326   2.88278
   R10        2.07570  -0.00009   0.00132  -0.00083   0.00049   2.07619
   R11        2.07569  -0.00008   0.00132  -0.00082   0.00050   2.07619
   R12        2.28778  -0.00988  -0.00917  -0.00955  -0.01872   2.26906
   R13        2.08592   0.00241   0.00141   0.00830   0.00971   2.09563
    A1        1.93131   0.00138   0.00448   0.00904   0.01352   1.94483
    A2        2.24707   0.00409  -0.01425   0.02436   0.00994   2.25701
    A3        2.41278   0.00510   0.00433   0.02244   0.02660   2.43938
    A4        1.62334  -0.00919   0.00992  -0.04680  -0.03655   1.58679
    A5        1.47969   0.00038  -0.01996   0.02913   0.00943   1.48912
    A6        1.74170  -0.00457   0.01816  -0.03530  -0.01748   1.72421
    A7        2.18819  -0.00672  -0.03311  -0.04278  -0.07572   2.11247
    A8        2.35330   0.01129   0.01495   0.07808   0.09320   2.44650
    A9        1.43846   0.01338  -0.00812   0.05296   0.04460   1.48307
   A10        2.39685  -0.00749   0.00768  -0.03175  -0.02394   2.37290
   A11        2.44788  -0.00589   0.00043  -0.02121  -0.02066   2.42722
   A12        2.00147  -0.00091   0.00662  -0.01054  -0.00382   1.99765
   A13        1.92924   0.00126   0.00573   0.01136   0.01694   1.94618
   A14        1.92908   0.00127   0.00572   0.01154   0.01712   1.94620
   A15        1.88655  -0.00112  -0.01018  -0.01262  -0.02291   1.86364
   A16        1.88648  -0.00112  -0.01016  -0.01256  -0.02282   1.86365
   A17        1.82168   0.00068   0.00166   0.01432   0.01510   1.83677
   A18        2.13296  -0.00066  -0.00112  -0.00328  -0.00440   2.12856
   A19        2.04247  -0.00196  -0.00420  -0.01417  -0.01837   2.02411
   A20        2.10775   0.00262   0.00532   0.01745   0.02277   2.13052
    D1        0.00052  -0.00001   0.00009  -0.00044  -0.00035   0.00017
    D2        3.14062   0.00001  -0.00010   0.00054   0.00045   3.14107
    D3        3.14043   0.00001   0.00013   0.00055   0.00067   3.14110
    D4       -0.00017  -0.00001   0.00025  -0.00013   0.00012  -0.00005
    D5       -3.14026  -0.00001  -0.00008  -0.00066  -0.00075  -3.14100
    D6        0.00064  -0.00001  -0.00002  -0.00040  -0.00041   0.00023
    D7        0.00017   0.00001  -0.00024   0.00013  -0.00012   0.00005
    D8        3.14106   0.00001  -0.00018   0.00040   0.00022   3.14128
    D9        0.00018   0.00001  -0.00027   0.00014  -0.00013   0.00006
   D10       -3.14067  -0.00002  -0.00007  -0.00043  -0.00049  -3.14116
   D11       -0.00018  -0.00001   0.00025  -0.00014   0.00012  -0.00005
   D12       -3.14103  -0.00001   0.00017  -0.00041  -0.00023  -3.14126
   D13        3.14057   0.00001   0.00003   0.00043   0.00047   3.14104
   D14       -0.00028   0.00001  -0.00005   0.00016   0.00011  -0.00017
   D15        0.00087  -0.00001  -0.00006  -0.00026  -0.00031   0.00056
   D16       -2.13686   0.00116   0.00414   0.01533   0.01965  -2.11720
   D17        2.13838  -0.00116  -0.00424  -0.01561  -0.02003   2.11835
   D18        3.14138   0.00000   0.00005   0.00017   0.00022  -3.14158
   D19        1.00365   0.00117   0.00425   0.01576   0.02019   1.02384
   D20       -1.00429  -0.00116  -0.00413  -0.01518  -0.01950  -1.02379
   D21        3.14123   0.00000   0.00001   0.00013   0.00014   3.14136
   D22       -0.00039   0.00000  -0.00001   0.00008   0.00007  -0.00032
   D23       -0.98131   0.00015   0.00443  -0.00218   0.00203  -0.97928
   D24        2.16026   0.00015   0.00441  -0.00222   0.00196   2.16222
   D25        0.98084  -0.00015  -0.00441   0.00214  -0.00205   0.97879
   D26       -2.16078  -0.00015  -0.00443   0.00210  -0.00212  -2.16290
         Item               Value     Threshold  Converged?
 Maximum Force            0.021330     0.000450     NO 
 RMS     Force            0.005537     0.000300     NO 
 Maximum Displacement     0.080554     0.001800     NO 
 RMS     Displacement     0.022570     0.001200     NO 
 Predicted change in Energy=-3.304442D-03
 GradGradGradGradGradGradGradGradGradGradGradGradGradGradGradGradGradGrad

                          Input orientation:                          
 ---------------------------------------------------------------------
 Center     Atomic      Atomic             Coordinates (Angstroms)
 Number     Number       Type             X           Y           Z
 ---------------------------------------------------------------------
      1          7           0        0.975804    0.183337   -0.018094
      2          6           0        2.217096    0.060370   -0.015707
      3          8           0        3.229795    1.073965   -0.009462
      4          6           0        4.138597    0.004082   -0.010798
      5          6           0        3.258172   -1.013590   -0.016779
      6          6           0        3.259901   -2.501963   -0.021724
      7          6           0        1.872015   -3.135127   -0.027936
      8          8           0        1.716659   -4.325760   -0.032589
      9          1           0        0.697842    1.167355   -0.015099
     10          1           0        5.204034    0.178741   -0.006957
     11          1           0        3.789411   -2.907054    0.851544
     12          1           0        3.794599   -2.901269   -0.894496
     13          1           0        1.016365   -2.429677   -0.027802
 ---------------------------------------------------------------------
                    Distance matrix (angstroms):
                    1          2          3          4          5
     1  N    0.000000
     2  C    1.247371   0.000000
     3  O    2.423587   1.432820   0.000000
     4  C    3.167877   1.922331   1.403771   0.000000
     5  C    2.577176   1.495737   2.087761   1.345674   0.000000
     6  C    3.525329   2.766411   3.576076   2.655652   1.488383
     7  C    3.437367   3.214099   4.422710   3.871991   2.534260
     8  O    4.569576   4.414619   5.607776   4.961228   3.653352
     9  H    1.022528   1.879774   2.533682   3.632082   3.363304
    10  H    4.228247   2.989295   2.167730   1.079665   2.282132
    11  H    4.268861   3.468416   4.111328   3.056187   2.149746
    12  H    4.269482   3.468731   4.111542   3.056194   2.149762
    13  H    2.613347   2.764460   4.144288   3.958763   2.651627
                    6          7          8          9         10
     6  C    0.000000
     7  C    1.525504   0.000000
     8  O    2.389131   1.200735   0.000000
     9  H    4.475275   4.459843   5.586824   0.000000
    10  H    3.311502   4.699416   5.696750   4.613371   0.000000
    11  H    1.098671   2.121771   2.662840   5.187455   3.501473
    12  H    1.098672   2.121779   2.662685   5.188155   3.501527
    13  H    2.244709   1.108962   2.021278   3.611130   4.933645
                   11         12         13
    11  H    0.000000
    12  H    1.746058   0.000000
    13  H    2.948038   2.948244   0.000000
 Stoichiometry    C5H5NO2
 Framework group  C1[X(C5H5NO2)]
 Deg. of freedom    33
 Full point group                 C1      NOp   1
 Largest Abelian subgroup         C1      NOp   1
 Largest concise Abelian subgroup C1      NOp   1
                         Standard orientation:                         
 ---------------------------------------------------------------------
 Center     Atomic      Atomic             Coordinates (Angstroms)
 Number     Number       Type             X           Y           Z
 ---------------------------------------------------------------------
      1          7           0        1.073979    1.842120    0.000221
      2          6           0        1.193348    0.600474   -0.000169
      3          8           0        2.383638   -0.197135   -0.000163
      4          6           0        1.509664   -1.295653   -0.000038
      5          6           0        0.340950   -0.628609   -0.000108
      6          6           0       -1.119011   -0.918087    0.000251
      7          6           0       -2.008594    0.321189   -0.000107
      8          8           0       -3.206807    0.243402   -0.000112
      9          1           0        1.985689    2.305099    0.000426
     10          1           0        1.887043   -2.307217    0.000421
     11          1           0       -1.410581   -1.517549    0.873584
     12          1           0       -1.410886   -1.518286   -0.872474
     13          1           0       -1.481902    1.297094   -0.000273
 ---------------------------------------------------------------------
 Rotational constants (GHZ):           4.6708097           1.2757811           1.0082176
 Standard basis: 6-31G(2df,p) (6D, 7F)
 There are   273 symmetry adapted cartesian basis functions of A   symmetry.
 There are   249 symmetry adapted basis functions of A   symmetry.
   249 basis functions,   387 primitive gaussians,   273 cartesian basis functions
    29 alpha electrons       29 beta electrons
       nuclear repulsion energy       333.6268957971 Hartrees.
 NAtoms=   13 NActive=   13 NUniq=   13 SFac= 1.00D+00 NAtFMM=   60 NAOKFM=F Big=F
 Integral buffers will be    131072 words long.
 Raffenetti 2 integral format.
 Two-electron integral symmetry is turned on.
 One-electron integrals computed using PRISM.
 PrsmSu:  requested number of processors reduced to:  13 ShMem   1 Linda.
 NBasis=   249 RedAO= T EigKep=  2.24D-04  NBF=   249
 NBsUse=   249 1.00D-06 EigRej= -1.00D+00 NBFU=   249
 Initial guess from the checkpoint file:  "NdC1OCdC1CCdO.chk"
 B after Tr=     0.000000    0.000000   -0.000000
         Rot=    0.999999   -0.000003    0.000000   -0.001055 Ang=  -0.12 deg.
 ExpMin= 1.61D-01 ExpMax= 5.48D+03 ExpMxC= 8.25D+02 IAcc=2 IRadAn=         4 AccDes= 0.00D+00
 Harris functional with IExCor=  402 and IRadAn=       4 diagonalized for initial guess.
 HarFok:  IExCor=  402 AccDes= 0.00D+00 IRadAn=         4 IDoV= 1 UseB2=F ITyADJ=14
 ICtDFT=  3500011 ScaDFX=  1.000000  1.000000  1.000000  1.000000
 FoFCou: FMM=F IPFlag=           0 FMFlag=      100000 FMFlg1=           0
         NFxFlg=           0 DoJE=T BraDBF=F KetDBF=T FulRan=T
         wScrn=  0.000000 ICntrl=       500 IOpCl=  0 I1Cent=   200000004 NGrid=           0
         NMat0=    1 NMatS0=      1 NMatT0=    0 NMatD0=    1 NMtDS0=    0 NMtDT0=    0
 Petite list used in FoFCou.
 Requested convergence on RMS density matrix=1.00D-08 within 128 cycles.
 Requested convergence on MAX density matrix=1.00D-06.
 Requested convergence on             energy=1.00D-06.
 No special actions if energy rises.
 Integral accuracy reduced to 1.0D-05 until final iterations.
 Initial convergence to 1.0D-05 achieved.  Increase integral accuracy.
 SCF Done:  E(RB3LYP) =  -398.667741403     A.U. after   12 cycles
            NFock= 12  Conv=0.51D-08     -V/T= 2.0068
 PrsmSu:  requested number of processors reduced to:  13 ShMem   1 Linda.
 Calling FoFJK, ICntrl=      2127 FMM=F ISym2X=0 I1Cent= 0 IOpClX= 0 NMat=1 NMatS=1 NMatT=0.
 ***** Axes restored to original set *****
 -------------------------------------------------------------------
 Center     Atomic                   Forces (Hartrees/Bohr)
 Number     Number              X              Y              Z
 -------------------------------------------------------------------
      1        7           0.000364340    0.000377945   -0.000007348
      2        6           0.001786487   -0.003914448    0.000019924
      3        8           0.000217328    0.005307109    0.000007573
      4        6          -0.002562813   -0.006479330   -0.000011215
      5        6           0.001008468    0.005108045    0.000014915
      6        6           0.001526833    0.000060955   -0.000006243
      7        6          -0.000528476    0.003042502    0.000016728
      8        8          -0.001129557   -0.003829659   -0.000019619
      9        1          -0.000182436   -0.000617459   -0.000006957
     10        1          -0.000059146    0.000751665   -0.000008393
     11        1          -0.000109455    0.000251039   -0.000225470
     12        1          -0.000110375    0.000251369    0.000230175
     13        1          -0.000221195   -0.000309733   -0.000004071
 -------------------------------------------------------------------
 Cartesian Forces:  Max     0.006479330 RMS     0.001973274

 GradGradGradGradGradGradGradGradGradGradGradGradGradGradGradGradGradGrad
 Berny optimization.
 Using GEDIIS/GDIIS optimizer.
 FormGI is forming the generalized inverse of G from B-inverse, IUseBI=4.
 Internal  Forces:  Max     0.003943671 RMS     0.001075416
 Search for a local minimum.
 Step number   3 out of a maximum of   69
 All quantities printed in internal units (Hartrees-Bohrs-Radians)
 Mixed Optimization -- RFO/linear search
 Update second derivatives using D2CorX and points    1    2    3
 DE= -3.53D-03 DEPred=-3.30D-03 R= 1.07D+00
 TightC=F SS=  1.41D+00  RLast= 1.89D-01 DXNew= 8.4853D-01 5.6734D-01
 Trust test= 1.07D+00 RLast= 1.89D-01 DXMaxT set to 5.67D-01
 ITU=  1  1  0
 Use linear search instead of GDIIS.
     Eigenvalues ---    0.00772   0.00772   0.00866   0.01542   0.02226
     Eigenvalues ---    0.02612   0.02785   0.03335   0.04766   0.06402
     Eigenvalues ---    0.10220   0.13351   0.13505   0.16000   0.16032
     Eigenvalues ---    0.21946   0.22020   0.24938   0.25074   0.29975
     Eigenvalues ---    0.30992   0.33550   0.33963   0.34165   0.34173
     Eigenvalues ---    0.35027   0.37880   0.41484   0.44034   0.55896
     Eigenvalues ---    0.57148   0.74009   0.91773
 RFO step:  Lambda=-1.66804129D-04 EMin= 7.72338360D-03
 Quartic linear search produced a step of  0.03427.
 Iteration  1 RMS(Cart)=  0.00529563 RMS(Int)=  0.00001568
 Iteration  2 RMS(Cart)=  0.00001893 RMS(Int)=  0.00000477
 Iteration  3 RMS(Cart)=  0.00000000 RMS(Int)=  0.00000477
 Variable       Old X    -DE/DX   Delta X   Delta X   Delta X     New X
                                 (Linear)    (Quad)   (Total)
    R1        2.35719  -0.00020  -0.00069  -0.00048  -0.00117   2.35602
    R2        1.93230  -0.00054  -0.00010  -0.00129  -0.00139   1.93091
    R3        2.70764   0.00167   0.00209   0.00447   0.00657   2.71421
    R4        2.82653  -0.00290   0.00129  -0.00731  -0.00602   2.82052
    R5        2.65274   0.00234   0.00211   0.00479   0.00690   2.65964
    R6        2.54296  -0.00366  -0.00078  -0.00779  -0.00857   2.53438
    R7        2.04027   0.00006  -0.00008   0.00011   0.00003   2.04031
    R8        2.81264   0.00053  -0.00073   0.00162   0.00088   2.81352
    R9        2.88278   0.00216   0.00080   0.00712   0.00792   2.89070
   R10        2.07619  -0.00032   0.00002  -0.00097  -0.00095   2.07523
   R11        2.07619  -0.00033   0.00002  -0.00098  -0.00096   2.07523
   R12        2.26906   0.00394  -0.00064   0.00430   0.00366   2.27272
   R13        2.09563  -0.00003   0.00033  -0.00002   0.00031   2.09595
    A1        1.94483   0.00066   0.00046   0.00442   0.00489   1.94972
    A2        2.25701   0.00007   0.00034   0.00021   0.00054   2.25755
    A3        2.43938  -0.00111   0.00091  -0.00442  -0.00352   2.43587
    A4        1.58679   0.00104  -0.00125   0.00422   0.00298   1.58976
    A5        1.48912  -0.00291   0.00032  -0.00868  -0.00835   1.48077
    A6        1.72421   0.00118  -0.00060   0.00480   0.00419   1.72840
    A7        2.11247  -0.00136  -0.00259  -0.00805  -0.01064   2.10183
    A8        2.44650   0.00018   0.00319   0.00326   0.00646   2.45296
    A9        1.48307   0.00069   0.00153  -0.00034   0.00119   1.48425
   A10        2.37290  -0.00098  -0.00082  -0.00243  -0.00325   2.36966
   A11        2.42722   0.00029  -0.00071   0.00276   0.00206   2.42928
   A12        1.99765   0.00012  -0.00013   0.00068   0.00056   1.99820
   A13        1.94618  -0.00014   0.00058  -0.00107  -0.00050   1.94568
   A14        1.94620  -0.00014   0.00059  -0.00107  -0.00049   1.94571
   A15        1.86364   0.00005  -0.00078   0.00054  -0.00025   1.86340
   A16        1.86365   0.00006  -0.00078   0.00056  -0.00023   1.86343
   A17        1.83677   0.00005   0.00052   0.00047   0.00097   1.83774
   A18        2.12856   0.00068  -0.00015   0.00318   0.00302   2.13158
   A19        2.02411   0.00006  -0.00063   0.00084   0.00021   2.02432
   A20        2.13052  -0.00074   0.00078  -0.00402  -0.00324   2.12729
    D1        0.00017  -0.00000  -0.00001  -0.00016  -0.00017   0.00000
    D2        3.14107   0.00001   0.00002   0.00039   0.00041   3.14148
    D3        3.14110   0.00000   0.00002   0.00021   0.00024   3.14133
    D4       -0.00005  -0.00000   0.00000  -0.00014  -0.00014  -0.00019
    D5       -3.14100  -0.00001  -0.00003  -0.00028  -0.00030  -3.14131
    D6        0.00023  -0.00000  -0.00001  -0.00014  -0.00016   0.00007
    D7        0.00005   0.00000  -0.00000   0.00015   0.00014   0.00019
    D8        3.14128   0.00001   0.00001   0.00028   0.00029   3.14157
    D9        0.00006   0.00000  -0.00000   0.00016   0.00015   0.00021
   D10       -3.14116  -0.00000  -0.00002  -0.00017  -0.00018  -3.14134
   D11       -0.00005  -0.00000   0.00000  -0.00015  -0.00015  -0.00020
   D12       -3.14126  -0.00001  -0.00001  -0.00029  -0.00030  -3.14156
   D13        3.14104   0.00001   0.00002   0.00028   0.00030   3.14134
   D14       -0.00017   0.00000   0.00000   0.00014   0.00014  -0.00003
   D15        0.00056  -0.00000  -0.00001  -0.00005  -0.00006   0.00050
   D16       -2.11720  -0.00006   0.00067  -0.00044   0.00024  -2.11696
   D17        2.11835   0.00006  -0.00069   0.00036  -0.00033   2.11802
   D18       -3.14158   0.00000   0.00001   0.00016   0.00016  -3.14142
   D19        1.02384  -0.00005   0.00069  -0.00023   0.00046   1.02430
   D20       -1.02379   0.00006  -0.00067   0.00057  -0.00011  -1.02390
   D21        3.14136  -0.00000   0.00000  -0.00024  -0.00023   3.14113
   D22       -0.00032   0.00000   0.00000   0.00020   0.00020  -0.00012
   D23       -0.97928  -0.00006   0.00007  -0.00076  -0.00069  -0.97997
   D24        2.16222  -0.00005   0.00007  -0.00032  -0.00025   2.16197
   D25        0.97879   0.00005  -0.00007   0.00027   0.00020   0.97899
   D26       -2.16290   0.00006  -0.00007   0.00070   0.00063  -2.16226
         Item               Value     Threshold  Converged?
 Maximum Force            0.003944     0.000450     NO 
 RMS     Force            0.001075     0.000300     NO 
 Maximum Displacement     0.020959     0.001800     NO 
 RMS     Displacement     0.005299     0.001200     NO 
 Predicted change in Energy=-8.664464D-05
 GradGradGradGradGradGradGradGradGradGradGradGradGradGradGradGradGradGrad

                          Input orientation:                          
 ---------------------------------------------------------------------
 Center     Atomic      Atomic             Coordinates (Angstroms)
 Number     Number       Type             X           Y           Z
 ---------------------------------------------------------------------
      1          7           0        0.980829    0.175689   -0.018032
      2          6           0        2.222081    0.058738   -0.015477
      3          8           0        3.232903    1.079106   -0.009539
      4          6           0        4.139673    0.002721   -0.010733
      5          6           0        3.262314   -1.011604   -0.016586
      6          6           0        3.261121   -2.500444   -0.021638
      7          6           0        1.868529   -3.133387   -0.027857
      8          8           0        1.707639   -4.325236   -0.032842
      9          1           0        0.693556    1.156264   -0.015326
     10          1           0        5.203961    0.184361   -0.007170
     11          1           0        3.789469   -2.905943    0.851510
     12          1           0        3.794618   -2.900047   -0.894369
     13          1           0        1.013597   -2.426809   -0.027841
 ---------------------------------------------------------------------
                    Distance matrix (angstroms):
                    1          2          3          4          5
     1  N    0.000000
     2  C    1.246752   0.000000
     3  O    2.426535   1.436296   0.000000
     4  C    3.163584   1.918415   1.407422   0.000000
     5  C    2.571933   1.492554   2.090928   1.341137   0.000000
     6  C    3.515883   2.762075   3.579682   2.652887   1.488850
     7  C    3.426090   3.211668   4.427973   3.872151   2.538646
     8  O    4.559254   4.414089   5.615504   4.964523   3.660251
     9  H    1.021793   1.881742   2.540526   3.634061   3.361275
    10  H    4.223155   2.984537   2.164634   1.079683   2.280442
    11  H    4.259228   3.463771   4.114825   3.053921   2.149420
    12  H    4.259757   3.464063   4.114864   3.053840   2.149434
    13  H    2.602722   2.763789   4.149348   3.959199   2.657002
                    6          7          8          9         10
     6  C    0.000000
     7  C    1.529694   0.000000
     8  O    2.396517   1.202670   0.000000
     9  H    4.468103   4.447676   5.574541   0.000000
    10  H    3.314064   4.704571   5.706259   4.613937   0.000000
    11  H    1.098167   2.124859   2.670297   5.180503   3.505439
    12  H    1.098162   2.124878   2.669995   5.181019   3.505274
    13  H    2.248738   1.109127   2.021323   3.597359   4.937387
                   11         12         13
    11  H    0.000000
    12  H    1.745897   0.000000
    13  H    2.950982   2.951085   0.000000
 Stoichiometry    C5H5NO2
 Framework group  C1[X(C5H5NO2)]
 Deg. of freedom    33
 Full point group                 C1      NOp   1
 Largest Abelian subgroup         C1      NOp   1
 Largest concise Abelian subgroup C1      NOp   1
                         Standard orientation:                         
 ---------------------------------------------------------------------
 Center     Atomic      Atomic             Coordinates (Angstroms)
 Number     Number       Type             X           Y           Z
 ---------------------------------------------------------------------
      1          7           0        1.060055    1.840349    0.000254
      2          6           0        1.190184    0.600407    0.000005
      3          8           0        2.389863   -0.189351   -0.000342
      4          6           0        1.513432   -1.290580   -0.000028
      5          6           0        0.345997   -0.630473    0.000037
      6          6           0       -1.113852   -0.922903    0.000331
      7          6           0       -2.009002    0.317529   -0.000000
      8          8           0       -3.209185    0.240229   -0.000291
      9          1           0        1.964728    2.315351    0.000186
     10          1           0        1.901394   -2.298152    0.000120
     11          1           0       -1.403677   -1.522446    0.873555
     12          1           0       -1.403917   -1.523123   -0.872342
     13          1           0       -1.484895    1.295013   -0.000302
 ---------------------------------------------------------------------
 Rotational constants (GHZ):           4.6788094           1.2750978           1.0081615
 Standard basis: 6-31G(2df,p) (6D, 7F)
 There are   273 symmetry adapted cartesian basis functions of A   symmetry.
 There are   249 symmetry adapted basis functions of A   symmetry.
   249 basis functions,   387 primitive gaussians,   273 cartesian basis functions
    29 alpha electrons       29 beta electrons
       nuclear repulsion energy       333.5549628891 Hartrees.
 NAtoms=   13 NActive=   13 NUniq=   13 SFac= 1.00D+00 NAtFMM=   60 NAOKFM=F Big=F
 Integral buffers will be    131072 words long.
 Raffenetti 2 integral format.
 Two-electron integral symmetry is turned on.
 One-electron integrals computed using PRISM.
 PrsmSu:  requested number of processors reduced to:  13 ShMem   1 Linda.
 NBasis=   249 RedAO= T EigKep=  2.24D-04  NBF=   249
 NBsUse=   249 1.00D-06 EigRej= -1.00D+00 NBFU=   249
 Initial guess from the checkpoint file:  "NdC1OCdC1CCdO.chk"
 B after Tr=     0.000000    0.000000   -0.000000
         Rot=    0.999999   -0.000001    0.000000   -0.001464 Ang=  -0.17 deg.
 ExpMin= 1.61D-01 ExpMax= 5.48D+03 ExpMxC= 8.25D+02 IAcc=2 IRadAn=         4 AccDes= 0.00D+00
 Harris functional with IExCor=  402 and IRadAn=       4 diagonalized for initial guess.
 HarFok:  IExCor=  402 AccDes= 0.00D+00 IRadAn=         4 IDoV= 1 UseB2=F ITyADJ=14
 ICtDFT=  3500011 ScaDFX=  1.000000  1.000000  1.000000  1.000000
 FoFCou: FMM=F IPFlag=           0 FMFlag=      100000 FMFlg1=           0
         NFxFlg=           0 DoJE=T BraDBF=F KetDBF=T FulRan=T
         wScrn=  0.000000 ICntrl=       500 IOpCl=  0 I1Cent=   200000004 NGrid=           0
         NMat0=    1 NMatS0=      1 NMatT0=    0 NMatD0=    1 NMtDS0=    0 NMtDT0=    0
 Petite list used in FoFCou.
 Requested convergence on RMS density matrix=1.00D-08 within 128 cycles.
 Requested convergence on MAX density matrix=1.00D-06.
 Requested convergence on             energy=1.00D-06.
 No special actions if energy rises.
 Integral accuracy reduced to 1.0D-05 until final iterations.
 Initial convergence to 1.0D-05 achieved.  Increase integral accuracy.
 SCF Done:  E(RB3LYP) =  -398.667836933     A.U. after   10 cycles
            NFock= 10  Conv=0.77D-08     -V/T= 2.0068
 PrsmSu:  requested number of processors reduced to:  13 ShMem   1 Linda.
 Calling FoFJK, ICntrl=      2127 FMM=F ISym2X=0 I1Cent= 0 IOpClX= 0 NMat=1 NMatS=1 NMatT=0.
 ***** Axes restored to original set *****
 -------------------------------------------------------------------
 Center     Atomic                   Forces (Hartrees/Bohr)
 Number     Number              X              Y              Z
 -------------------------------------------------------------------
      1        7          -0.000526924   -0.000061611   -0.000001124
      2        6           0.000983551   -0.001599726   -0.000020948
      3        8          -0.000043744    0.000894312    0.000022352
      4        6           0.001015312   -0.000406024   -0.000012666
      5        6          -0.001416582    0.001634001    0.000016730
      6        6          -0.000138603   -0.000814022    0.000011261
      7        6          -0.000384722    0.000918222   -0.000043451
      8        8           0.000171909   -0.000329710    0.000014775
      9        1          -0.000025488   -0.000146864   -0.000001308
     10        1           0.000146752   -0.000043036   -0.000004022
     11        1           0.000005856    0.000102723   -0.000040467
     12        1           0.000001810    0.000103573    0.000043209
     13        1           0.000210875   -0.000251839    0.000015661
 -------------------------------------------------------------------
 Cartesian Forces:  Max     0.001634001 RMS     0.000565583

 GradGradGradGradGradGradGradGradGradGradGradGradGradGradGradGradGradGrad
 Berny optimization.
 Using GEDIIS/GDIIS optimizer.
 FormGI is forming the generalized inverse of G from B-inverse, IUseBI=4.
 Internal  Forces:  Max     0.001514293 RMS     0.000310982
 Search for a local minimum.
 Step number   4 out of a maximum of   69
 All quantities printed in internal units (Hartrees-Bohrs-Radians)
 Mixed Optimization -- En-DIIS/RFO-DIIS
 Update second derivatives using D2CorX and points    1    2    3    4
 DE= -9.55D-05 DEPred=-8.66D-05 R= 1.10D+00
 TightC=F SS=  1.41D+00  RLast= 2.47D-02 DXNew= 9.5414D-01 7.4098D-02
 Trust test= 1.10D+00 RLast= 2.47D-02 DXMaxT set to 5.67D-01
 ITU=  1  1  1  0
 Use linear search instead of GDIIS.
     Eigenvalues ---    0.00772   0.00772   0.00866   0.01543   0.02225
     Eigenvalues ---    0.02612   0.02784   0.03335   0.04765   0.06397
     Eigenvalues ---    0.10281   0.13155   0.13506   0.15903   0.16010
     Eigenvalues ---    0.21952   0.22338   0.24114   0.24965   0.29752
     Eigenvalues ---    0.31977   0.33373   0.33756   0.34165   0.34167
     Eigenvalues ---    0.34784   0.36396   0.39686   0.44037   0.55853
     Eigenvalues ---    0.58582   0.74213   0.91606
 RFO step:  Lambda=-1.58014953D-05 EMin= 7.72337942D-03
 Quartic linear search produced a step of  0.10858.
 Iteration  1 RMS(Cart)=  0.00284865 RMS(Int)=  0.00000299
 Iteration  2 RMS(Cart)=  0.00000393 RMS(Int)=  0.00000051
 Iteration  3 RMS(Cart)=  0.00000000 RMS(Int)=  0.00000051
 Variable       Old X    -DE/DX   Delta X   Delta X   Delta X     New X
                                 (Linear)    (Quad)   (Total)
    R1        2.35602   0.00053  -0.00013   0.00073   0.00061   2.35663
    R2        1.93091  -0.00013  -0.00015  -0.00028  -0.00044   1.93047
    R3        2.71421   0.00077   0.00071   0.00162   0.00234   2.71654
    R4        2.82052  -0.00151  -0.00065  -0.00388  -0.00453   2.81599
    R5        2.65964   0.00058   0.00075   0.00142   0.00217   2.66182
    R6        2.53438   0.00030  -0.00093   0.00090  -0.00003   2.53435
    R7        2.04031   0.00014   0.00000   0.00035   0.00036   2.04066
    R8        2.81352   0.00027   0.00010   0.00098   0.00107   2.81459
    R9        2.89070  -0.00014   0.00086  -0.00059   0.00027   2.89098
   R10        2.07523  -0.00007  -0.00010  -0.00018  -0.00028   2.07495
   R11        2.07523  -0.00007  -0.00010  -0.00019  -0.00029   2.07493
   R12        2.27272   0.00030   0.00040   0.00020   0.00060   2.27331
   R13        2.09595  -0.00032   0.00003  -0.00106  -0.00103   2.09492
    A1        1.94972   0.00013   0.00053   0.00083   0.00136   1.95108
    A2        2.25755   0.00028   0.00006   0.00131   0.00136   2.25892
    A3        2.43587  -0.00046  -0.00038  -0.00158  -0.00196   2.43390
    A4        1.58976   0.00018   0.00032   0.00028   0.00060   1.59036
    A5        1.48077  -0.00029  -0.00091  -0.00036  -0.00126   1.47951
    A6        1.72840  -0.00052   0.00045  -0.00173  -0.00128   1.72712
    A7        2.10183   0.00033  -0.00116   0.00123   0.00007   2.10190
    A8        2.45296   0.00019   0.00070   0.00050   0.00120   2.45416
    A9        1.48425   0.00063   0.00013   0.00181   0.00194   1.48619
   A10        2.36966  -0.00053  -0.00035  -0.00174  -0.00210   2.36756
   A11        2.42928  -0.00010   0.00022  -0.00007   0.00016   2.42943
   A12        1.99820  -0.00012   0.00006  -0.00054  -0.00048   1.99772
   A13        1.94568  -0.00003  -0.00005  -0.00041  -0.00046   1.94522
   A14        1.94571  -0.00003  -0.00005  -0.00043  -0.00048   1.94522
   A15        1.86340   0.00010  -0.00003   0.00064   0.00061   1.86401
   A16        1.86343   0.00010  -0.00002   0.00059   0.00056   1.86399
   A17        1.83774   0.00001   0.00010   0.00029   0.00039   1.83813
   A18        2.13158  -0.00037   0.00033  -0.00192  -0.00159   2.12999
   A19        2.02432   0.00025   0.00002   0.00130   0.00132   2.02564
   A20        2.12729   0.00012  -0.00035   0.00062   0.00027   2.12755
    D1        0.00000   0.00000  -0.00002   0.00017   0.00015   0.00015
    D2        3.14148  -0.00000   0.00004  -0.00013  -0.00009   3.14139
    D3        3.14133   0.00000   0.00003   0.00019   0.00021   3.14154
    D4       -0.00019   0.00001  -0.00001   0.00038   0.00037   0.00018
    D5       -3.14131  -0.00000  -0.00003  -0.00017  -0.00020  -3.14151
    D6        0.00007  -0.00000  -0.00002   0.00001  -0.00001   0.00006
    D7        0.00019  -0.00001   0.00002  -0.00040  -0.00038  -0.00019
    D8        3.14157  -0.00001   0.00003  -0.00022  -0.00019   3.14138
    D9        0.00021  -0.00001   0.00002  -0.00043  -0.00041  -0.00020
   D10       -3.14134  -0.00000  -0.00002  -0.00021  -0.00023  -3.14157
   D11       -0.00020   0.00001  -0.00002   0.00041   0.00040   0.00020
   D12       -3.14156   0.00001  -0.00003   0.00022   0.00019  -3.14138
   D13        3.14134   0.00000   0.00003   0.00012   0.00015   3.14148
   D14       -0.00003  -0.00000   0.00002  -0.00008  -0.00006  -0.00009
   D15        0.00050  -0.00000  -0.00001  -0.00005  -0.00006   0.00044
   D16       -2.11696  -0.00002   0.00003  -0.00019  -0.00016  -2.11712
   D17        2.11802   0.00001  -0.00004  -0.00000  -0.00004   2.11798
   D18       -3.14142   0.00000   0.00002   0.00022   0.00024  -3.14118
   D19        1.02430  -0.00001   0.00005   0.00009   0.00014   1.02444
   D20       -1.02390   0.00002  -0.00001   0.00027   0.00026  -1.02364
   D21        3.14113   0.00001  -0.00003   0.00141   0.00138  -3.14068
   D22       -0.00012  -0.00001   0.00002  -0.00145  -0.00143  -0.00155
   D23       -0.97997  -0.00004  -0.00007   0.00100   0.00093  -0.97904
   D24        2.16197  -0.00006  -0.00003  -0.00186  -0.00189   2.16008
   D25        0.97899   0.00006   0.00002   0.00188   0.00190   0.98089
   D26       -2.16226   0.00004   0.00007  -0.00098  -0.00091  -2.16318
         Item               Value     Threshold  Converged?
 Maximum Force            0.001514     0.000450     NO 
 RMS     Force            0.000311     0.000300     NO 
 Maximum Displacement     0.012445     0.001800     NO 
 RMS     Displacement     0.002850     0.001200     NO 
 Predicted change in Energy=-8.825444D-06
 GradGradGradGradGradGradGradGradGradGradGradGradGradGradGradGradGradGrad

                          Input orientation:                          
 ---------------------------------------------------------------------
 Center     Atomic      Atomic             Coordinates (Angstroms)
 Number     Number       Type             X           Y           Z
 ---------------------------------------------------------------------
      1          7           0        0.981970    0.170568   -0.018446
      2          6           0        2.223880    0.057237   -0.015590
      3          8           0        3.233961    1.080074   -0.008974
      4          6           0        4.141809    0.003095   -0.010645
      5          6           0        3.263485   -1.010370   -0.016603
      6          6           0        3.260626   -2.499776   -0.021888
      7          6           0        1.866894   -3.130551   -0.028454
      8          8           0        1.705949   -4.322715   -0.032243
      9          1           0        0.690552    1.149678   -0.015591
     10          1           0        5.206239    0.185022   -0.007072
     11          1           0        3.788477   -2.905476    0.851281
     12          1           0        3.793877   -2.899288   -0.894615
     13          1           0        1.012573   -2.424090   -0.027060
 ---------------------------------------------------------------------
                    Distance matrix (angstroms):
                    1          2          3          4          5
     1  N    0.000000
     2  C    1.247074   0.000000
[...]
 ! R10   R(6,11)                 1.098          -DE/DX =    0.0                 !
 ! R11   R(6,12)                 1.098          -DE/DX =    0.0                 !
 ! R12   R(7,8)                  1.203          -DE/DX =    0.0                 !
 ! R13   R(7,13)                 1.1083         -DE/DX =    0.0                 !
 ! A1    A(2,1,9)              111.7861         -DE/DX =    0.0                 !
 ! A2    A(1,2,3)              129.4247         -DE/DX =    0.0                 !
 ! A3    A(1,2,5)              139.422          -DE/DX =    0.0                 !
 ! A4    A(3,2,5)               91.1533         -DE/DX =    0.0                 !
 ! A5    A(2,3,4)               84.738          -DE/DX =    0.0                 !
 ! A6    A(3,4,5)               98.9006         -DE/DX =    0.0                 !
 ! A7    A(3,4,10)             120.4982         -DE/DX =    0.0                 !
 ! A8    A(5,4,10)             140.6012         -DE/DX =    0.0                 !
 ! A9    A(2,5,4)               85.2081         -DE/DX =    0.0                 !
 ! A10   A(2,5,6)              135.6231         -DE/DX =    0.0                 !
 ! A11   A(4,5,6)              139.1688         -DE/DX =    0.0                 !
 ! A12   A(5,6,7)              114.5036         -DE/DX =    0.0                 !
 ! A13   A(5,6,11)             111.4221         -DE/DX =    0.0                 !
 ! A14   A(5,6,12)             111.4218         -DE/DX =    0.0                 !
 ! A15   A(7,6,11)             106.8055         -DE/DX =    0.0                 !
 ! A16   A(7,6,12)             106.8083         -DE/DX =    0.0                 !
 ! A17   A(11,6,12)            105.3212         -DE/DX =    0.0                 !
 ! A18   A(6,7,8)              121.999          -DE/DX =    0.0                 !
 ! A19   A(6,7,13)             116.099          -DE/DX =    0.0                 !
 ! A20   A(8,7,13)             121.902          -DE/DX =    0.0                 !
 ! D1    D(9,1,2,3)              0.0051         -DE/DX =    0.0                 !
 ! D2    D(9,1,2,5)           -180.0053         -DE/DX =    0.0                 !
 ! D3    D(1,2,3,4)           -179.9986         -DE/DX =    0.0                 !
 ! D4    D(5,2,3,4)              0.0082         -DE/DX =    0.0                 !
 ! D5    D(1,2,5,4)            179.9995         -DE/DX =    0.0                 !
 ! D6    D(1,2,5,6)              0.0005         -DE/DX =    0.0                 !
 ! D7    D(3,2,5,4)             -0.0086         -DE/DX =    0.0                 !
 ! D8    D(3,2,5,6)            179.9924         -DE/DX =    0.0                 !
 ! D9    D(2,3,4,5)             -0.0092         -DE/DX =    0.0                 !
 ! D10   D(2,3,4,10)           179.9977         -DE/DX =    0.0                 !
 ! D11   D(3,4,5,2)              0.0089         -DE/DX =    0.0                 !
 ! D12   D(3,4,5,6)           -179.9922         -DE/DX =    0.0                 !
 ! D13   D(10,4,5,2)          -180.0005         -DE/DX =    0.0                 !
 ! D14   D(10,4,5,6)            -0.0016         -DE/DX =    0.0                 !
 ! D15   D(2,5,6,7)              0.0347         -DE/DX =    0.0                 !
 ! D16   D(2,5,6,11)          -121.3077         -DE/DX =    0.0                 !
 ! D17   D(2,5,6,12)           121.3805         -DE/DX =    0.0                 !
 ! D18   D(4,5,6,7)           -179.9638         -DE/DX =    0.0                 !
 ! D19   D(4,5,6,11)            58.6938         -DE/DX =    0.0                 !
 ! D20   D(4,5,6,12)           -58.6179         -DE/DX =    0.0                 !
 ! D21   D(5,6,7,8)            179.9784         -DE/DX =    0.0                 !
 ! D22   D(5,6,7,13)            -0.0251         -DE/DX =    0.0                 !
 ! D23   D(11,6,7,8)           -56.176          -DE/DX =    0.0                 !
 ! D24   D(11,6,7,13)          123.8205         -DE/DX =    0.0                 !
 ! D25   D(12,6,7,8)            56.1311         -DE/DX =    0.0                 !
 ! D26   D(12,6,7,13)         -123.8724         -DE/DX =    0.0                 !
 --------------------------------------------------------------------------------
 GradGradGradGradGradGradGradGradGradGradGradGradGradGradGradGradGradGrad


 ----------------------------------------------------------------------

 Electric dipole moment (input orientation):
 (Debye = 10**-18 statcoulomb cm , SI units = C m)
                  (au)            (Debye)         (10**-30 SI)
   Tot        0.126486D+01      0.321497D+01      0.107240D+02
   x          0.997756D+00      0.253604D+01      0.845933D+01
   y          0.777389D+00      0.197593D+01      0.659098D+01
   z          0.558093D-02      0.141853D-01      0.473171D-01

 Dipole polarizability, Alpha (input orientation).
 (esu units = cm**3 , SI units = C**2 m**2 J**-1)
 Alpha(0;0):
               (au)            (10**-24 esu)      (10**-40 SI)
   iso        0.614551D+02      0.910671D+01      0.101326D+02
   aniso      0.400048D+02      0.592809D+01      0.659589D+01
   xx         0.745010D+02      0.110399D+02      0.122836D+02
   yx         0.180323D+01      0.267212D+00      0.297313D+00
   yy         0.749953D+02      0.111132D+02      0.123651D+02
   zx         0.107605D+00      0.159455D-01      0.177417D-01
   zy         0.147512D+00      0.218591D-01      0.243215D-01
   zz         0.348691D+02      0.516706D+01      0.574913D+01

 ----------------------------------------------------------------------

 Dipole orientation:
     7          0.57884304         -0.67534349          1.66115212
     6          1.57060807         -1.94418055          3.38197062
     8          1.35352324         -1.66525486          6.07651970
     6          2.99158855         -3.76191113          6.17924136
     6          3.29158891         -4.14753701          3.69160102
     6          4.65557649         -5.89498024          1.95611154
     6          4.23913579         -5.36080569         -0.85356216
     8          5.21927256         -6.61522868         -2.47649956
     1         -0.52805686          0.74207257          2.36291424
     1          3.58732941         -4.52362803          7.97613925
     1          4.10317203         -7.86862893          2.27984854
     1          6.70421029         -5.83881233          2.28033249
     1          2.98073118         -3.74955826         -1.30850393

 Electric dipole moment (dipole orientation):
 (Debye = 10**-18 statcoulomb cm , SI units = C m)
                  (au)            (Debye)         (10**-30 SI)
   Tot        0.126486D+01      0.321497D+01      0.107240D+02
   x          0.000000D+00      0.000000D+00      0.000000D+00
   y          0.000000D+00      0.000000D+00      0.000000D+00
   z          0.126486D+01      0.321497D+01      0.107240D+02

 Dipole polarizability, Alpha (dipole orientation).
 (esu units = cm**3 , SI units = C**2 m**2 J**-1)
 Alpha(0;0):
               (au)            (10**-24 esu)      (10**-40 SI)
   iso        0.614551D+02      0.910671D+01      0.101326D+02
   aniso      0.400048D+02      0.592809D+01      0.659589D+01
   xx         0.493408D+02      0.731156D+01      0.813520D+01
   yx        -0.185278D+02     -0.274554D+01     -0.305482D+01
   yy         0.585876D+02      0.868179D+01      0.965979D+01
   zx        -0.412223D+00     -0.610851D-01     -0.679663D-01
   zy         0.541874D+00      0.802974D-01      0.893429D-01
   zz         0.764370D+02      0.113268D+02      0.126028D+02

 ----------------------------------------------------------------------
 1\1\GINC-LEWIS4-R630-HPC4-NODE303\Freq\RB3LYP\6-31G(2df,p)\C5H5N1O2\KS
 29C\03-Jul-2022\0\\#N Geom=AllCheck Guess=TCheck SCRF=Check GenChk RB3
 LYP/6-31G(2df,p) Freq\\Title Card Required\\0,1\N,0.9824590783,0.16943
 60698,-0.0181022682\C,2.2245581331,0.0568556121,-0.015406333\O,3.23438
 44619,1.080754389,-0.0092136372\C,4.1426206944,0.0035152797,-0.0108449
 03\C,3.2631125261,-1.0094972966,-0.0164632637\C,3.2596456047,-2.499279
 9458,-0.0215546436\C,1.8665186845,-3.1303447355,-0.0280124216\O,1.7068
 173954,-4.3226979919,-0.0329577171\H,0.6904801846,1.1483853745,-0.0154
 041572\H,5.2072081275,0.1842667603,-0.0075923075\H,3.7876777593,-2.904
 5231122,0.851687327\H,3.7931224838,-2.8985605678,-0.8942224256\H,1.011
 6848663,-2.4248998357,-0.0278132495\\Version=ES64L-G16RevA.03\State=1-
 A\HF=-398.6678504\RMSD=7.994e-09\RMSF=2.561e-05\ZeroPoint=0.0928523\Th
 ermal=0.0989458\Dipole=0.9977564,0.7773891,0.0055809\DipoleDeriv=-1.02
 92937,0.2107564,-0.0008215,0.0726881,-0.2793127,0.0006265,-0.0013063,0
 .0009824,-0.4123451,1.3168558,-0.1864928,0.0021319,-0.0115958,0.389092
 6,0.0005811,0.0027346,0.0001522,0.2277497,-0.7117493,0.386345,-0.00002
 83,-0.1289752,-1.1068397,-0.0035629,-0.0017838,-0.002401,-0.1772126,0.
 3065134,-0.1617639,0.0001023,-0.1084154,0.7254608,0.0021191,0.0003123,
 0.0021423,0.0360139,-0.291079,-0.2741796,-0.0012626,0.1318703,0.128606
 7,0.0013443,0.0001457,0.0002253,-0.1706792,-0.2965565,-0.1402372,-0.00
 19466,-0.0389096,0.1491322,-0.0002034,-0.0015368,-0.000523,0.1667319,0
 .8846397,0.3739975,0.0034811,0.2430058,1.0921677,0.0041676,0.0029693,0
 .0045866,0.1722901,-0.4816935,-0.1751032,-0.001112,-0.2520505,-1.06429
 1,-0.0035043,-0.0013921,-0.0033038,-0.3213329,0.314812,-0.0881522,-0.0
 001541,0.0592145,0.0419542,-0.0005907,0.0003628,-0.0009684,0.2528982,0
 .0144164,0.0118687,-0.0002666,0.0038688,0.0865019,-0.0001897,-0.000344
 7,-0.000188,0.1417519,0.0384303,-0.0107848,-0.0405187,-0.0241965,-0.08
 46949,0.0307511,-0.0553623,0.0625558,0.0039806,0.0377998,-0.0106772,0.
 0406749,-0.0243627,-0.0839806,-0.0314995,0.055431,-0.063182,0.0039426,
 -0.1030954,0.0644232,-0.0002796,0.0778583,0.0062026,-0.0000392,-0.0002
 297,-0.0000785,0.0762108\Polar=74.5009954,1.8032337,74.9953499,0.10760
 55,0.1475123,34.8690701\Quadrupole=3.9871133,-5.8900385,1.9029252,-3.5
 163747,-0.0077005,-0.0392756\PG=C01 [X(C5H5N1O2)]\NImag=2\\0.80118822,
 -0.18384774,0.48578267,0.00119571,0.00101614,0.06476843,-0.66407069,0.
 12293250,-0.00106713,1.01557087,0.05506865,-0.11267197,-0.00003635,-0.
 15225214,0.35263286,-0.00130913,0.00013629,-0.06366971,0.00159086,0.00
 027244,0.16517461,-0.05317324,-0.04588051,-0.00036368,-0.06498802,0.00
 833752,0.00005171,0.20127744,-0.00841205,0.01669389,-0.00006253,-0.016
 07512,-0.13902840,-0.00026283,-0.04743936,0.46114309,-0.00023116,-0.00
 015554,0.02846795,-0.00003540,-0.00020815,-0.07528410,0.00017805,0.001
 29106,0.06186512,0.00214032,0.00503264,0.00000867,-0.15149637,-0.02356
 139,-0.00050507,-0.10114546,0.06290565,0.00008971,0.86273768,-0.003972
 28,-0.02209608,-0.00010228,0.01611080,0.08778901,0.00027342,0.05038379
 ,-0.19789545,-0.00041460,0.21105119,0.53216424,-0.00002230,-0.00008298
 ,0.00467825,-0.00037079,0.00018066,0.02160635,0.00004091,-0.00037821,-
 0.04668363,0.00254953,0.00194305,0.12001897,-0.03076846,0.02730110,0.0
 0001504,-0.10437029,0.04931852,0.00006681,0.01893894,0.01175392,0.0000
 2274,-0.27373534,-0.20580643,-0.00122850,0.48032699,0.00252089,0.01225
 909,0.00004609,0.05220687,-0.15231010,-0.00017428,0.00508438,-0.147872
 62,-0.00059353,-0.19998590,-0.31629089,-0.00137940,0.13919666,0.877862
 72,-0.00006679,0.00010772,0.00102380,0.00007216,-0.00018151,-0.0644625
 6,0.00000396,-0.00058960,0.02673347,-0.00120984,-0.00138105,-0.0590292
 4,0.00134341,0.00292065,0.12777482,0.00133187,-0.00046355,0.00000176,0
 .00577123,0.01105417,0.00006182,0.00316863,0.00162290,-0.00001763,0.00
 901969,-0.01504548,-0.00002860,-0.09284136,0.00171866,-0.00007392,0.45
 821699,-0.00103579,0.00072645,-0.00000054,0.00062282,-0.00931451,-0.00
 001925,-0.00123763,0.00238015,-0.00003995,0.00340388,-0.01551441,-0.00
 003934,0.00149168,-0.23309005,-0.00058190,-0.03613312,0.51024150,0.000
 00038,0.00000017,-0.00000534,0.00002925,0.00001100,-0.00384777,-0.0000
 3341,-0.00003507,0.01325999,0.00003804,-0.00008749,-0.00111840,-0.0000
 6956,-0.00058640,-0.06022265,-0.00031393,-0.00007076,0.50561434,-0.004
 40037,-0.00246547,-0.00002088,0.01145022,0.00267396,0.00003723,-0.0065
 8250,0.00729307,0.00000698,-0.00113633,-0.00027366,-0.00000692,0.01307
 790,-0.00696974,0.00002953,-0.16678418,-0.01820615,-0.00032930,0.51899
 138,-0.00087861,0.00151170,0.00000386,-0.00190999,-0.00166386,-0.00001
 387,0.00125590,0.00215880,0.00000969,0.00084134,-0.00244406,-0.0000091
 6,-0.03309424,-0.02258412,-0.00016102,-0.00292858,-0.08129441,-0.00003
 350,-0.00051638,1.01002567,-0.00001647,-0.00000142,0.00005607,0.000022
 76,-0.00000248,0.00084683,-0.00001473,0.00002743,0.00054947,-0.0000026
 1,-0.00000867,0.00020699,-0.00005762,-0.00008274,-0.00487004,-0.000277
 86,-0.00007713,-0.07492870,0.00090510,0.00302466,0.20599648,0.00182209
 ,0.00084649,0.00000756,-0.00464817,-0.00046339,-0.00001305,0.00264895,
 -0.00326770,-0.00000320,0.00117271,0.00006195,0.00000298,-0.01080272,-
 0.00155571,-0.00004808,-0.00015559,-0.04701382,-0.00021631,-0.11441283
 ,-0.08012200,-0.00044703,0.09699227,0.00182207,-0.00271951,-0.00000630
 ,0.00065779,0.00176120,0.00000902,0.00043789,-0.00312133,-0.00000789,0
 .00105301,0.00025413,0.00000280,-0.00653090,0.00311526,-0.00001964,-0.
 03266204,-0.03475719,-0.00027933,-0.07617085,-0.78848819,-0.00294638,0
 .10633853,0.87167945,0.00001176,-0.00000833,0.00012734,-0.00001016,0.0
 0000631,-0.00018670,0.00000972,-0.00002010,-0.00033115,0.00000781,0.00
 000019,0.00011345,-0.00006797,-0.00000336,0.00313027,-0.00016172,-0.00
 032174,0.01350173,-0.00043138,-0.00295550,-0.06393628,0.00061467,0.003
 50187,0.02270125,-0.05417858,0.07536378,0.00021023,-0.03452622,0.04902
 224,0.00006603,0.00844239,-0.00111410,0.00004297,-0.00082276,0.0036360
 7,0.00001427,-0.00169135,-0.00300713,-0.00004662,-0.00020299,0.0000752
 2,0.00000152,-0.00063907,0.00056574,-0.00000023,0.00021604,-0.00082750
 ,-0.00000223,0.08288457,0.13472869,-0.38157222,-0.00088661,-0.01020297
 ,-0.01439425,-0.00010113,0.00050547,0.00396834,0.00005154,-0.00011020,
 0.00028434,0.00000508,-0.00209571,0.00203566,-0.00004279,0.00018652,-0
 .00046054,0.00000064,-0.00086196,0.00102669,0.00000086,0.00028870,-0.0
 0078618,-0.00000184,-0.12316109,0.38999927,0.00041675,-0.00103423,-0.0
 3234079,-0.00013817,0.00004664,0.00743535,0.00004759,0.00004781,-0.010
 31740,0.00000057,0.00001346,-0.00130056,-0.00004331,-0.00004479,0.0127
 2032,0.00000188,0.00000058,-0.00053994,-0.00000534,0.00000460,0.000137
 06,0.00000188,-0.00000476,-0.00008021,-0.00028685,0.00097089,0.0248088
 6,0.00001786,-0.00085113,0.00000361,-0.00569562,0.00345039,-0.00003409
 ,-0.01161521,-0.00569398,-0.00005392,-0.34631494,-0.05593991,-0.000945
 50,0.00068871,0.00618119,-0.00000025,-0.00029018,-0.00015902,0.0000027
 6,-0.00005995,-0.00021963,-0.00000100,-0.00000605,-0.00001482,-0.00000
 003,0.00007743,0.00008780,0.00000222,0.36306163,0.00084083,0.00391295,
 0.00002568,-0.00251198,-0.00949984,-0.00008666,0.02464317,0.00848258,0
 .00008449,-0.06161067,-0.07283823,-0.00026576,-0.01363846,0.01103525,-
 0.00002743,-0.00030038,0.00105464,0.00000945,0.00009491,-0.00037775,-0
 .00000145,-0.00013516,-0.00010610,-0.00000071,-0.00083074,0.00026929,0
 .00000108,0.05331273,0.05825520,0.00000904,0.00002162,-0.00271062,-0.0
 0005418,-0.00007418,0.01344836,0.00005692,0.00000955,0.00181883,-0.000
 97207,-0.00025153,-0.04023023,-0.00006922,0.00002278,0.00911457,0.0000
 0403,0.00001009,-0.00188745,-0.00000016,-0.00000178,0.00010644,-0.0000
 0031,-0.00000024,-0.00005171,-0.00000097,0.00000353,-0.00071277,0.0010
 2581,0.00026126,0.02122039,-0.00000829,0.00021958,0.00013426,-0.000414
 63,-0.00033942,0.00010839,0.00095561,-0.00036521,-0.00011209,-0.000393
 39,-0.00024165,-0.00012265,0.00082649,0.00108115,0.00200717,-0.0993854
 9,0.04245780,-0.10536578,-0.01956206,0.00983836,-0.02605519,0.00347335
 ,0.00067245,0.00318075,-0.00001040,0.00008663,-0.00009609,0.00004628,0
 .00002267,-0.00020210,0.10927259,0.00119409,0.00009352,-0.00015852,-0.
 00368635,-0.00145614,0.00241288,0.00160924,-0.00339090,-0.00251954,0.0
 0037967,0.00309020,-0.00043467,0.01568553,-0.01799635,0.02359152,0.041
 70066,-0.07415254,0.07395484,-0.00356171,0.00408090,-0.01128746,-0.000
 68798,-0.00085906,0.00154032,-0.00002601,-0.00005271,0.00003134,-0.000
 11691,-0.00010402,0.00055936,-0.04703189,0.08707669,-0.00012315,-0.000
 06002,-0.00000448,0.00089976,-0.00070273,-0.00055847,-0.00046667,0.000
 34835,-0.00012104,-0.00050249,-0.00073875,0.00094061,0.00310775,0.0011
 4390,0.00418305,-0.10056419,0.07319080,-0.20611166,0.00078824,0.000169
 29,-0.00029810,0.00031980,-0.00077381,0.00141826,0.00005041,-0.0000150
 5,0.00006211,-0.00002917,0.00006048,-0.00007405,0.10960480,-0.08056611
 ,0.22457356,-0.00000828,0.00022048,-0.00013235,-0.00040874,-0.00034500
 ,-0.00010885,0.00095364,-0.00036357,0.00011343,-0.00039772,-0.00024482
 ,0.00011503,0.00085501,0.00110441,-0.00201819,-0.10067749,0.04218347,0
 .10631597,-0.01972118,0.00966829,0.02600003,0.00349950,0.00069154,-0.0
 0316289,-0.00001055,0.00008595,0.00009618,0.00004510,0.00002204,0.0002
 0294,0.00829439,-0.00468591,-0.01341449,0.11065211,0.00119195,0.000090
 95,0.00016520,-0.00366591,-0.00144291,-0.00243851,0.00158858,-0.003404
 78,0.00250162,0.00037135,0.00307971,0.00045523,0.01586393,-0.01781873,
 -0.02364315,0.04146993,-0.07317240,-0.07280035,-0.00362547,0.00400696,
 0.01129433,-0.00067520,-0.00085211,-0.00155955,-0.00002514,-0.00005280
 ,-0.00003215,-0.00011479,-0.00010020,-0.00056047,-0.00482814,0.0037589
 2,0.00817224,-0.04678499,0.08599167,0.00013084,0.00006214,-0.00000292,
 -0.00092393,0.00069549,-0.00057504,0.00048407,-0.00037235,-0.00010295,
 0.00049537,0.00075135,0.00095230,-0.00301949,-0.00128135,0.00398130,0.
 10152169,-0.07203661,-0.20583465,-0.00093759,-0.00008187,-0.00006419,-
 0.00031223,0.00076395,0.00139049,-0.00005099,0.00001476,0.00006214,0.0
 0002924,-0.00006068,-0.00007717,0.01357825,-0.00801810,-0.02318364,-0.
 11064501,0.07933889,0.22430618,0.00010756,0.00159181,0.00000719,-0.002
 17356,-0.00196411,-0.00001267,0.00111882,-0.00084447,-0.00000049,0.000
 37192,0.00028044,0.00000255,-0.00050450,0.00242427,0.00000746,-0.01717
 112,0.01355065,-0.00005964,-0.21022103,0.09749981,-0.00005515,0.020200
 45,0.00453282,0.00001167,0.00046148,0.00046217,0.00000269,0.00004494,0
 .00009104,0.00000028,-0.00309445,-0.00077242,0.00032940,-0.00307579,-0
 .00076609,-0.00035022,0.21393526,0.00077931,-0.00201142,-0.00000385,-0
 .00222633,-0.00040108,-0.00000750,0.00071155,-0.00011336,0.00000079,0.
 00022943,0.00041750,0.00000270,0.00055439,0.00165488,0.00000820,-0.010
 21969,0.00735332,-0.00008319,0.10258945,-0.12595831,0.00006045,0.02638
 530,-0.04512036,-0.00017756,0.00032866,-0.00026489,-0.00000048,0.00007
 808,0.00001623,0.,-0.00157233,-0.00008849,-0.00022858,-0.00155190,-0.0
 0008429,0.00022438,-0.11608591,0.16460027,0.00000452,-0.00000156,-0.00
 038798,-0.00001504,-0.00000712,0.00007285,0.00000557,-0.00000351,0.000
 14544,0.00000239,0.00000290,-0.00015486,-0.00000008,0.00001243,-0.0000
 7712,-0.00015335,-0.00001425,0.02212049,-0.00003551,0.00004460,-0.0638
 0203,0.00009333,-0.00023929,0.02220326,0.00000245,0.00000011,0.0000658
 3,0.00000033,0.00000024,0.00003542,0.00334027,0.00089412,-0.00082615,-
 0.00336179,-0.00089331,-0.00085184,0.00011691,0.00020464,0.02145669\\-
 0.00000707,-0.00001995,0.00000537,0.00002447,0.00009645,-0.00002998,-0
 .00004624,-0.00003366,0.00002234,0.00002527,0.00000249,-0.00001849,0.0
 0002864,-0.00001863,0.00001469,0.00001485,-0.00003635,0.00000690,-0.00
 005583,0.00004353,-0.00000204,0.00000661,-0.00002071,0.00000120,-0.000
 00430,-0.00000665,0.00000035,0.00000126,0.00000417,0.00000118,-0.00000
 273,0.00000406,-0.00000423,-0.00000508,0.00000692,0.00000223,0.0000201
 4,-0.00002167,0.00000048\\\@


 Mondays are the potholes in the road of life.
                                -- Tom Wilson
 Job cpu time:       0 days  0 hours 56 minutes 53.1 seconds.
 Elapsed time:       0 days  0 hours 14 minutes 13.6 seconds.
 File lengths (MBytes):  RWF=     75 Int=      0 D2E=      0 Chk=      6 Scr=      1
 Normal termination of Gaussian 16 at Sun Jul  3 09:25:47 2022.
### All Done ###
