### Starting Gaussian ###
 Entering Gaussian System, Link 0=g16
 Initial command:
 /cluster/software/gaussian/gaussian-16-A.03/avx2/g16/l1.exe "/local/scratch/ks29c/Gau-1173.inp" -scrdir="/local/scratch/ks29c/"
 Entering Link 1 = /cluster/software/gaussian/gaussian-16-A.03/avx2/g16/l1.exe PID=      1174.
  
 Copyright (c) 1988,1990,1992,1993,1995,1998,2003,2009,2016,
            Gaussian, Inc.  All Rights Reserved.
  
 This is part of the Gaussian(R) 16 program.  It is based on
 the Gaussian(R) 09 system (copyright 2009, Gaussian, Inc.),
 the Gaussian(R) 03 system (copyright 2003, Gaussian, Inc.),
 the Gaussian(R) 98 system (copyright 1998, Gaussian, Inc.),
 the Gaussian(R) 94 system (copyright 1995, Gaussian, Inc.),
 the Gaussian 92(TM) system (copyright 1992, Gaussian, Inc.),
 the Gaussian 90(TM) system (copyright 1990, Gaussian, Inc.),
 the Gaussian 88(TM) system (copyright 1988, Gaussian, Inc.),
 the Gaussian 86(TM) system (copyright 1986, Carnegie Mellon
 University), and the Gaussian 82(TM) system (copyright 1983,
 Carnegie Mellon University). Gaussian is a federally registered
 trademark of Gaussian, Inc.
  
 This software contains proprietary and confidential information,
 including trade secrets, belonging to Gaussian, Inc.
  
 This software is provided under written license and may be
 used, copied, transmitted, or stored only in accord with that
 written license.
  
 The following legend is applicable only to US Government
 contracts under FAR:
  
                    RESTRICTED RIGHTS LEGEND
  
 Use, reproduction and disclosure by the US Government is
 subject to restrictions as set forth in subparagraphs (a)
 and (c) of the Commercial Computer Software - Restricted
 Rights clause in FAR 52.227-19.
  
 Gaussian, Inc.
 340 Quinnipiac St., Bldg. 40, Wallingford CT 06492
  
  
 ---------------------------------------------------------------
 Warning -- This program may not be used in any manner that
 competes with the business of Gaussian, Inc. or will provide
 assistance to any competitor of Gaussian, Inc.  The licensee
 of this program is prohibited from giving any competitor of
 Gaussian, Inc. access to this program.  By using this program,
 the user acknowledges that Gaussian, Inc. is engaged in the
 business of creating and licensing software in the field of
 computational chemistry and represents and warrants to the
 licensee that it is not a competitor of Gaussian, Inc. and that
 it will not use this program in any manner prohibited above.
 ---------------------------------------------------------------
  

 Cite this work as:
 Gaussian 16, Revision A.03,
 M. J. Frisch, G. W. Trucks, H. B. Schlegel, G. E. Scuseria, 
 M. A. Robb, J. R. Cheeseman, G. Scalmani, V. Barone, 
 G. A. Petersson, H. Nakatsuji, X. Li, M. Caricato, A. V. Marenich, 
 J. Bloino, B. G. Janesko, R. Gomperts, B. Mennucci, H. P. Hratchian, 
 J. V. Ortiz, A. F. Izmaylov, J. L. Sonnenberg, D. Williams-Young, 
 F. Ding, F. Lipparini, F. Egidi, J. Goings, B. Peng, A. Petrone, 
 T. Henderson, D. Ranasinghe, V. G. Zakrzewski, J. Gao, N. Rega, 
 G. Zheng, W. Liang, M. Hada, M. Ehara, K. Toyota, R. Fukuda, 
 J. Hasegawa, M. Ishida, T. Nakajima, Y. Honda, O. Kitao, H. Nakai, 
 T. Vreven, K. Throssell, J. A. Montgomery, Jr., J. E. Peralta, 
 F. Ogliaro, M. J. Bearpark, J. J. Heyd, E. N. Brothers, K. N. Kudin, 
 V. N. Staroverov, T. A. Keith, R. Kobayashi, J. Normand, 
 K. Raghavachari, A. P. Rendell, J. C. Burant, S. S. Iyengar, 
 J. Tomasi, M. Cossi, J. M. Millam, M. Klene, C. Adamo, R. Cammi, 
 J. W. Ochterski, R. L. Martin, K. Morokuma, O. Farkas, 
 J. B. Foresman, and D. J. Fox, Gaussian, Inc., Wallingford CT, 2016.
 
 ******************************************
 Gaussian 16:  ES64L-G16RevA.03 25-Dec-2016
                 3-Jul-2022 
 ******************************************
 %chk=NdC1CdC2CN2C2CC12.chk
 %NProcShared=20
 Will use up to   20 processors via shared memory.
 -----------------------------
 # opt freq b3lyp/6-31g(2df,p)
 -----------------------------
 1/18=20,19=15,26=3,38=1/1,3;
 2/9=110,12=2,17=6,18=5,40=1/2;
 3/5=1,6=6,7=104,11=2,25=1,30=1,71=1,74=-5/1,2,3;
 4//1;
 5/5=2,38=5/2;
 6/7=2,8=2,9=2,10=2,28=1/1;
 7//1,2,3,16;
 1/18=20,19=15,26=3/3(2);
 2/9=110/2;
 99//99;
 2/9=110/2;
 3/5=1,6=6,7=104,11=2,25=1,30=1,71=1,74=-5/1,2,3;
 4/5=5,16=3,69=1/1;
 5/5=2,38=5/2;
 7//1,2,3,16;
 1/18=20,19=15,26=3/3(-5);
 2/9=110/2;
 6/7=2,8=2,9=2,10=2,19=2,28=1/1;
 99/9=1/99;
 -------------------
 Title Card Required
 -------------------
 Symbolic Z-matrix:
 Charge =  0 Multiplicity = 1
 N                     1.16568  -0.10482   0.04616 
 C                     2.42599  -0.02108   0.23284 
 C                     3.22395   1.11464   0.78151 
 C                     4.53668   0.8946    1.0267 
 C                     5.6167    0.38957   0.13896 
 N                     5.07178  -0.35328   1.19994 
 C                     4.11185  -1.33183   1.1391 
 C                     3.78749  -2.4679    0.2957 
 C                     3.30417  -1.13537  -0.13031 
 H                     0.68878   0.75069   0.35114 
 H                     2.69688   1.96494   1.18895 
 H                     6.60094   0.79215   0.32885 
 H                     5.43522  -0.01185  -0.84293 
 H                     3.63556  -1.45282   2.11492 
 H                     3.02301  -3.1692    0.5948 
 H                     4.63081  -2.90119  -0.23011 
 H                     3.6176   -1.02309  -1.16397 
 

 GradGradGradGradGradGradGradGradGradGradGradGradGradGradGradGradGradGrad
 Berny optimization.
 Initialization pass.
                           ----------------------------
                           !    Initial Parameters    !
                           ! (Angstroms and Degrees)  !
 --------------------------                            --------------------------
 ! Name  Definition              Value          Derivative Info.                !
 --------------------------------------------------------------------------------
 ! R1    R(1,2)                  1.2768         estimate D2E/DX2                !
 ! R2    R(1,10)                 1.0258         estimate D2E/DX2                !
 ! R3    R(2,3)                  1.4925         estimate D2E/DX2                !
 ! R4    R(2,9)                  1.4645         estimate D2E/DX2                !
 ! R5    R(3,4)                  1.3534         estimate D2E/DX2                !
 ! R6    R(3,11)                 1.0802         estimate D2E/DX2                !
 ! R7    R(4,5)                  1.4865         estimate D2E/DX2                !
 ! R8    R(4,6)                  1.3688         estimate D2E/DX2                !
 ! R9    R(5,6)                  1.4051         estimate D2E/DX2                !
 ! R10   R(5,12)                 1.0802         estimate D2E/DX2                !
 ! R11   R(5,13)                 1.0762         estimate D2E/DX2                !
 ! R12   R(6,7)                  1.3721         estimate D2E/DX2                !
 ! R13   R(7,8)                  1.4516         estimate D2E/DX2                !
 ! R14   R(7,9)                  1.5173         estimate D2E/DX2                !
 ! R15   R(7,14)                 1.0926         estimate D2E/DX2                !
 ! R16   R(8,9)                  1.4801         estimate D2E/DX2                !
 ! R17   R(8,15)                 1.0797         estimate D2E/DX2                !
 ! R18   R(8,16)                 1.0842         estimate D2E/DX2                !
 ! R19   R(9,17)                 1.086          estimate D2E/DX2                !
 ! A1    A(2,1,10)             111.1443         estimate D2E/DX2                !
 ! A2    A(1,2,3)              129.1521         estimate D2E/DX2                !
 ! A3    A(1,2,9)              120.3807         estimate D2E/DX2                !
 ! A4    A(3,2,9)              110.4591         estimate D2E/DX2                !
 ! A5    A(2,3,4)              117.4801         estimate D2E/DX2                !
 ! A6    A(2,3,11)             118.4752         estimate D2E/DX2                !
 ! A7    A(4,3,11)             122.2022         estimate D2E/DX2                !
 ! A8    A(3,4,5)              130.6744         estimate D2E/DX2                !
 ! A9    A(3,4,6)              123.3891         estimate D2E/DX2                !
 ! A10   A(4,5,12)             115.4937         estimate D2E/DX2                !
 ! A11   A(4,5,13)             123.3047         estimate D2E/DX2                !
 ! A12   A(6,5,12)             114.6857         estimate D2E/DX2                !
 ! A13   A(6,5,13)             115.2341         estimate D2E/DX2                !
 ! A14   A(12,5,13)            116.9395         estimate D2E/DX2                !
 ! A15   A(4,6,7)              111.7815         estimate D2E/DX2                !
 ! A16   A(5,6,7)              127.9409         estimate D2E/DX2                !
 ! A17   A(6,7,8)              137.7505         estimate D2E/DX2                !
 ! A18   A(6,7,9)              108.4906         estimate D2E/DX2                !
 ! A19   A(6,7,14)             110.1421         estimate D2E/DX2                !
 ! A20   A(8,7,14)             109.5632         estimate D2E/DX2                !
 ! A21   A(9,7,14)             121.971          estimate D2E/DX2                !
 ! A22   A(7,8,15)             120.3718         estimate D2E/DX2                !
 ! A23   A(7,8,16)             114.8822         estimate D2E/DX2                !
 ! A24   A(9,8,15)             115.6772         estimate D2E/DX2                !
 ! A25   A(9,8,16)             118.3084         estimate D2E/DX2                !
 ! A26   A(15,8,16)            115.1843         estimate D2E/DX2                !
 ! A27   A(2,9,7)              102.1373         estimate D2E/DX2                !
 ! A28   A(2,9,8)              144.0422         estimate D2E/DX2                !
 ! A29   A(2,9,17)             109.295          estimate D2E/DX2                !
 ! A30   A(7,9,17)             131.0005         estimate D2E/DX2                !
 ! A31   A(8,9,17)             105.8309         estimate D2E/DX2                !
 ! D1    D(10,1,2,3)            -1.265          estimate D2E/DX2                !
 ! D2    D(10,1,2,9)           179.8654         estimate D2E/DX2                !
 ! D3    D(1,2,3,4)            172.3589         estimate D2E/DX2                !
 ! D4    D(1,2,3,11)             7.4601         estimate D2E/DX2                !
 ! D5    D(9,2,3,4)             -8.682          estimate D2E/DX2                !
 ! D6    D(9,2,3,11)          -173.5808         estimate D2E/DX2                !
 ! D7    D(1,2,9,7)           -129.1873         estimate D2E/DX2                !
 ! D8    D(1,2,9,8)            -78.1509         estimate D2E/DX2                !
 ! D9    D(1,2,9,17)            88.9719         estimate D2E/DX2                !
 ! D10   D(3,2,9,7)             51.7483         estimate D2E/DX2                !
 ! D11   D(3,2,9,8)            102.7847         estimate D2E/DX2                !
 ! D12   D(3,2,9,17)           -90.0924         estimate D2E/DX2                !
 ! D13   D(2,3,4,5)             54.5373         estimate D2E/DX2                !
 ! D14   D(2,3,4,6)            -20.8724         estimate D2E/DX2                !
 ! D15   D(11,3,4,5)          -141.165          estimate D2E/DX2                !
 ! D16   D(11,3,4,6)           143.4253         estimate D2E/DX2                !
 ! D17   D(3,4,5,12)           147.0527         estimate D2E/DX2                !
 ! D18   D(3,4,5,13)            -8.988          estimate D2E/DX2                !
 ! D19   D(3,4,6,7)             -2.0489         estimate D2E/DX2                !
 ! D20   D(12,5,6,7)          -155.9237         estimate D2E/DX2                !
 ! D21   D(13,5,6,7)           -15.763          estimate D2E/DX2                !
 ! D22   D(4,6,7,8)            116.4334         estimate D2E/DX2                !
 ! D23   D(4,6,7,9)             51.3775         estimate D2E/DX2                !
 ! D24   D(4,6,7,14)           -84.4577         estimate D2E/DX2                !
 ! D25   D(5,6,7,8)             42.1016         estimate D2E/DX2                !
 ! D26   D(5,6,7,9)            -22.9544         estimate D2E/DX2                !
 ! D27   D(5,6,7,14)          -158.7896         estimate D2E/DX2                !
 ! D28   D(6,7,8,15)           170.4442         estimate D2E/DX2                !
 ! D29   D(6,7,8,16)            25.808          estimate D2E/DX2                !
 ! D30   D(14,7,8,15)           11.2558         estimate D2E/DX2                !
 ! D31   D(14,7,8,16)         -133.3805         estimate D2E/DX2                !
 ! D32   D(6,7,9,2)            -77.4927         estimate D2E/DX2                !
 ! D33   D(6,7,9,17)            51.9122         estimate D2E/DX2                !
 ! D34   D(14,7,9,2)            52.057          estimate D2E/DX2                !
 ! D35   D(14,7,9,17)         -178.5382         estimate D2E/DX2                !
 ! D36   D(15,8,9,2)            48.6247         estimate D2E/DX2                !
 ! D37   D(15,8,9,17)         -118.7464         estimate D2E/DX2                !
 ! D38   D(16,8,9,2)          -168.6958         estimate D2E/DX2                !
 ! D39   D(16,8,9,17)           23.9331         estimate D2E/DX2                !
 --------------------------------------------------------------------------------
 Trust Radius=3.00D-01 FncErr=1.00D-07 GrdErr=1.00D-06 EigMax=2.50D+02 EigMin=1.00D-04
 Number of steps in this run=     99 maximum allowed number of steps=    102.
 GradGradGradGradGradGradGradGradGradGradGradGradGradGradGradGradGradGrad

                          Input orientation:                          
 ---------------------------------------------------------------------
 Center     Atomic      Atomic             Coordinates (Angstroms)
 Number     Number       Type             X           Y           Z
 ---------------------------------------------------------------------
      1          7           0        1.165680   -0.104820    0.046160
      2          6           0        2.425990   -0.021080    0.232840
      3          6           0        3.223950    1.114640    0.781510
      4          6           0        4.536680    0.894600    1.026700
      5          6           0        5.616700    0.389570    0.138960
      6          7           0        5.071780   -0.353280    1.199940
      7          6           0        4.111850   -1.331830    1.139100
      8          6           0        3.787490   -2.467900    0.295700
      9          6           0        3.304170   -1.135370   -0.130310
     10          1           0        0.688780    0.750690    0.351140
     11          1           0        2.696880    1.964940    1.188950
     12          1           0        6.600940    0.792150    0.328850
     13          1           0        5.435220   -0.011850   -0.842930
     14          1           0        3.635560   -1.452820    2.114920
     15          1           0        3.023010   -3.169200    0.594800
     16          1           0        4.630810   -2.901190   -0.230110
     17          1           0        3.617600   -1.023090   -1.163970
 ---------------------------------------------------------------------
                    Distance matrix (angstroms):
                    1          2          3          4          5
     1  N    0.000000
     2  C    1.276810   0.000000
     3  C    2.502858   1.492528   0.000000
     4  C    3.650197   2.433864   1.353439   0.000000
     5  C    4.479354   3.218397   2.581443   1.486466   0.000000
     6  N    4.080510   2.836520   2.396737   1.368776   1.405149
     7  C    3.373424   2.319805   2.627062   2.269384   2.495610
     8  C    3.538404   2.800814   3.658986   3.521655   3.396426
     9  C    2.380402   1.464486   2.429073   2.641691   2.783118
    10  H    1.025838   1.904606   2.597069   3.909402   4.945687
    11  H    2.816815   2.220766   1.080195   2.134670   3.479888
    12  H    5.516024   4.254500   3.422421   2.181435   1.080212
    13  H    4.362121   3.195752   2.966058   2.263745   1.076188
    14  H    3.492446   2.656156   2.922201   2.739821   3.350184
    15  H    3.625066   3.224610   4.292613   4.358005   4.427173
    16  H    4.461293   3.656581   4.373731   3.999557   3.455039
    17  H    2.884362   2.091659   2.917146   3.053077   2.773019
                    6          7          8          9         10
     6  N    0.000000
     7  C    1.372125   0.000000
     8  C    2.634135   1.451616   0.000000
     9  C    2.346417   1.517348   1.480108   0.000000
    10  H    4.598902   4.083525   4.468154   3.260258   0.000000
    11  H    3.318797   3.587941   4.651601   3.423619   2.491745
    12  H    2.099795   3.370959   4.306336   3.846408   5.912347
    13  H    2.102851   2.724353   3.169176   2.512270   4.953379
    14  H    2.027043   1.092573   2.088787   2.291648   4.080427
    15  H    3.534552   2.204033   1.079682   2.177453   4.568757
    16  H    2.954885   2.146380   1.084161   2.210894   5.404968
    17  H    2.855058   2.375655   2.060819   1.085955   3.744308
                   11         12         13         14         15
    11  H    0.000000
    12  H    4.166160   0.000000
    13  H    3.941414   1.838039   0.000000
    14  H    3.663280   4.125944   3.750206   0.000000
    15  H    5.178684   5.344587   4.225480   2.373171   0.000000
    16  H    5.425222   4.223104   3.061194   2.930437   1.826835
    17  H    3.913091   3.797884   2.104618   3.306979   2.837710
                   16         17
    16  H    0.000000
    17  H    2.329367   0.000000
 Stoichiometry    C7H8N2
 Framework group  C1[X(C7H8N2)]
 Deg. of freedom    45
 Full point group                 C1      NOp   1
 Largest Abelian subgroup         C1      NOp   1
 Largest concise Abelian subgroup C1      NOp   1
                         Standard orientation:                         
 ---------------------------------------------------------------------
 Center     Atomic      Atomic             Coordinates (Angstroms)
 Number     Number       Type             X           Y           Z
 ---------------------------------------------------------------------
      1          7           0       -2.553315   -0.314628    0.137572
      2          6           0       -1.277642   -0.367984    0.130042
      3          6           0       -0.384533   -1.520436   -0.189093
      4          6           0        0.943549   -1.275372   -0.278185
      5          6           0        1.879559   -0.645475    0.689645
      6          7           0        1.466362   -0.030775   -0.504446
      7          6           0        0.483284    0.911699   -0.671860
      8          6           0        0.018976    2.111265    0.000932
      9          6           0       -0.484961    0.809064    0.491890
     10          1           0       -2.962908   -1.213337   -0.139734
     11          1           0       -0.829960   -2.425853   -0.574626
     12          1           0        2.890124   -1.026771    0.674549
     13          1           0        1.555961   -0.157598    1.592663
     14          1           0        0.141761    0.918857   -1.709659
     15          1           0       -0.714593    2.750429   -0.467104
     16          1           0        0.771725    2.625549    0.587690
     17          1           0       -0.312832    0.809984    1.564116
 ---------------------------------------------------------------------
 Rotational constants (GHZ):           2.8128324           2.0061452           1.3498488
 Standard basis: 6-31G(2df,p) (6D, 7F)
 There are   319 symmetry adapted cartesian basis functions of A   symmetry.
 There are   292 symmetry adapted basis functions of A   symmetry.
   292 basis functions,   452 primitive gaussians,   319 cartesian basis functions
    32 alpha electrons       32 beta electrons
       nuclear repulsion energy       437.2585591383 Hartrees.
 NAtoms=   17 NActive=   17 NUniq=   17 SFac= 1.00D+00 NAtFMM=   60 NAOKFM=F Big=F
 Integral buffers will be    131072 words long.
 Raffenetti 2 integral format.
 Two-electron integral symmetry is turned on.
 One-electron integrals computed using PRISM.
 PrsmSu:  requested number of processors reduced to:  13 ShMem   1 Linda.
 NBasis=   292 RedAO= T EigKep=  2.19D-04  NBF=   292
 NBsUse=   292 1.00D-06 EigRej= -1.00D+00 NBFU=   292
 ExpMin= 1.61D-01 ExpMax= 4.17D+03 ExpMxC= 6.27D+02 IAcc=3 IRadAn=         5 AccDes= 0.00D+00
 Harris functional with IExCor=  402 and IRadAn=       5 diagonalized for initial guess.
 HarFok:  IExCor=  402 AccDes= 0.00D+00 IRadAn=         5 IDoV= 1 UseB2=F ITyADJ=14
 ICtDFT=  3500011 ScaDFX=  1.000000  1.000000  1.000000  1.000000
 FoFCou: FMM=F IPFlag=           0 FMFlag=      100000 FMFlg1=           0
         NFxFlg=           0 DoJE=T BraDBF=F KetDBF=T FulRan=T
         wScrn=  0.000000 ICntrl=       500 IOpCl=  0 I1Cent=   200000004 NGrid=           0
         NMat0=    1 NMatS0=      1 NMatT0=    0 NMatD0=    1 NMtDS0=    0 NMtDT0=    0
 Petite list used in FoFCou.
 Requested convergence on RMS density matrix=1.00D-08 within 128 cycles.
 Requested convergence on MAX density matrix=1.00D-06.
 Requested convergence on             energy=1.00D-06.
 No special actions if energy rises.
 Integral accuracy reduced to 1.0D-05 until final iterations.
 Initial convergence to 1.0D-05 achieved.  Increase integral accuracy.
 SCF Done:  E(RB3LYP) =  -380.783539303     A.U. after   17 cycles
            NFock= 17  Conv=0.67D-08     -V/T= 2.0057

 **********************************************************************

            Population analysis using the SCF density.

 **********************************************************************

 Orbital symmetries:
       Occupied  (A) (A) (A) (A) (A) (A) (A) (A) (A) (A) (A) (A)
                 (A) (A) (A) (A) (A) (A) (A) (A) (A) (A) (A) (A)
                 (A) (A) (A) (A) (A) (A) (A) (A)
       Virtual   (A) (A) (A) (A) (A) (A) (A) (A) (A) (A) (A) (A)
                 (A) (A) (A) (A) (A) (A) (A) (A) (A) (A) (A) (A)
                 (A) (A) (A) (A) (A) (A) (A) (A) (A) (A) (A) (A)
                 (A) (A) (A) (A) (A) (A) (A) (A) (A) (A) (A) (A)
                 (A) (A) (A) (A) (A) (A) (A) (A) (A) (A) (A) (A)
                 (A) (A) (A) (A) (A) (A) (A) (A) (A) (A) (A) (A)
                 (A) (A) (A) (A) (A) (A) (A) (A) (A) (A) (A) (A)
                 (A) (A) (A) (A) (A) (A) (A) (A) (A) (A) (A) (A)
                 (A) (A) (A) (A) (A) (A) (A) (A) (A) (A) (A) (A)
                 (A) (A) (A) (A) (A) (A) (A) (A) (A) (A) (A) (A)
                 (A) (A) (A) (A) (A) (A) (A) (A) (A) (A) (A) (A)
                 (A) (A) (A) (A) (A) (A) (A) (A) (A) (A) (A) (A)
                 (A) (A) (A) (A) (A) (A) (A) (A) (A) (A) (A) (A)
                 (A) (A) (A) (A) (A) (A) (A) (A) (A) (A) (A) (A)
                 (A) (A) (A) (A) (A) (A) (A) (A) (A) (A) (A) (A)
                 (A) (A) (A) (A) (A) (A) (A) (A) (A) (A) (A) (A)
                 (A) (A) (A) (A) (A) (A) (A) (A) (A) (A) (A) (A)
                 (A) (A) (A) (A) (A) (A) (A) (A) (A) (A) (A) (A)
                 (A) (A) (A) (A) (A) (A) (A) (A) (A) (A) (A) (A)
                 (A) (A) (A) (A) (A) (A) (A) (A) (A) (A) (A) (A)
                 (A) (A) (A) (A) (A) (A) (A) (A) (A) (A) (A) (A)
                 (A) (A) (A) (A) (A) (A) (A) (A)
 The electronic state is 1-A.
 Alpha  occ. eigenvalues --  -14.37859 -14.28848 -10.25056 -10.23629 -10.22468
 Alpha  occ. eigenvalues --  -10.22314 -10.21398 -10.18491 -10.17715  -1.05018
 Alpha  occ. eigenvalues --   -0.90460  -0.87049  -0.75345  -0.73430  -0.65761
 Alpha  occ. eigenvalues --   -0.61135  -0.57014  -0.55396  -0.52028  -0.49987
 Alpha  occ. eigenvalues --   -0.47041  -0.45431  -0.44143  -0.42118  -0.38709
 Alpha  occ. eigenvalues --   -0.38148  -0.33533  -0.31444  -0.29161  -0.25861
 Alpha  occ. eigenvalues --   -0.21627  -0.18750
 Alpha virt. eigenvalues --   -0.08176   0.01302   0.06190   0.09191   0.10738
 Alpha virt. eigenvalues --    0.12498   0.12726   0.13846   0.16266   0.16975
 Alpha virt. eigenvalues --    0.18254   0.19492   0.20059   0.22515   0.25904
 Alpha virt. eigenvalues --    0.27330   0.30950   0.31727   0.33511   0.38700
 Alpha virt. eigenvalues --    0.40301   0.41545   0.43039   0.44981   0.47380
 Alpha virt. eigenvalues --    0.49791   0.50585   0.51458   0.52006   0.52862
 Alpha virt. eigenvalues --    0.55432   0.56428   0.57052   0.57669   0.59045
 Alpha virt. eigenvalues --    0.61426   0.62262   0.63756   0.65341   0.66725
 Alpha virt. eigenvalues --    0.68920   0.71565   0.73180   0.73643   0.74631
 Alpha virt. eigenvalues --    0.75009   0.76300   0.77765   0.78675   0.78898
 Alpha virt. eigenvalues --    0.80439   0.81164   0.82135   0.83523   0.85488
 Alpha virt. eigenvalues --    0.86916   0.89441   0.91592   0.95811   0.97419
 Alpha virt. eigenvalues --    1.01140   1.05176   1.06803   1.09391   1.11204
 Alpha virt. eigenvalues --    1.12849   1.18837   1.20256   1.22663   1.25532
 Alpha virt. eigenvalues --    1.26643   1.28729   1.30916   1.34715   1.37637
 Alpha virt. eigenvalues --    1.39449   1.41805   1.43740   1.44694   1.46442
 Alpha virt. eigenvalues --    1.47444   1.48601   1.49572   1.50734   1.53276
 Alpha virt. eigenvalues --    1.53925   1.56428   1.57251   1.57985   1.61609
 Alpha virt. eigenvalues --    1.62740   1.68329   1.70339   1.73959   1.74654
 Alpha virt. eigenvalues --    1.79321   1.79627   1.83939   1.86256   1.87382
 Alpha virt. eigenvalues --    1.89358   1.94361   1.98803   2.00762   2.05956
 Alpha virt. eigenvalues --    2.06774   2.11502   2.15600   2.22252   2.23746
 Alpha virt. eigenvalues --    2.26945   2.29913   2.32627   2.36386   2.40994
 Alpha virt. eigenvalues --    2.42599   2.46024   2.48990   2.50187   2.58942
 Alpha virt. eigenvalues --    2.60056   2.61504   2.63858   2.68022   2.69943
 Alpha virt. eigenvalues --    2.71594   2.74876   2.76567   2.81097   2.82810
 Alpha virt. eigenvalues --    2.84404   2.84927   2.89022   2.90058   2.90859
 Alpha virt. eigenvalues --    2.94185   2.96562   2.98715   3.00857   3.03946
 Alpha virt. eigenvalues --    3.04496   3.06761   3.10812   3.12990   3.14317
 Alpha virt. eigenvalues --    3.15707   3.17803   3.20838   3.22261   3.23851
 Alpha virt. eigenvalues --    3.27387   3.27889   3.30825   3.32919   3.34561
 Alpha virt. eigenvalues --    3.35093   3.38899   3.40136   3.42228   3.44787
 Alpha virt. eigenvalues --    3.45273   3.48045   3.53523   3.54964   3.58823
 Alpha virt. eigenvalues --    3.60072   3.66191   3.67587   3.69873   3.71882
 Alpha virt. eigenvalues --    3.74746   3.77950   3.81490   3.86960   3.88990
 Alpha virt. eigenvalues --    3.91161   3.93702   3.95729   3.96501   3.99640
 Alpha virt. eigenvalues --    4.01947   4.05463   4.05876   4.10501   4.15575
 Alpha virt. eigenvalues --    4.17346   4.19452   4.23394   4.24863   4.29453
 Alpha virt. eigenvalues --    4.31318   4.33856   4.34652   4.35978   4.36752
 Alpha virt. eigenvalues --    4.37538   4.39850   4.42619   4.43069   4.47553
 Alpha virt. eigenvalues --    4.48769   4.51345   4.55271   4.56563   4.58116
 Alpha virt. eigenvalues --    4.59073   4.63195   4.64812   4.65737   4.66255
 Alpha virt. eigenvalues --    4.67761   4.69574   4.75428   4.76708   4.79668
 Alpha virt. eigenvalues --    4.83654   4.84290   4.86680   4.89449   4.90096
 Alpha virt. eigenvalues --    4.93086   4.95680   4.98227   4.99391   5.04294
 Alpha virt. eigenvalues --    5.09893   5.12005   5.18319   5.18975   5.22095
 Alpha virt. eigenvalues --    5.23738   5.26457   5.29557   5.35069   5.40535
 Alpha virt. eigenvalues --    5.45252   5.45789   5.48916   5.52229   5.58365
 Alpha virt. eigenvalues --    5.62948   5.70016   5.77341   5.80039   5.86596
 Alpha virt. eigenvalues --    5.94520   6.06814   6.20377   6.65057  10.27793
 Alpha virt. eigenvalues --   10.81852  11.01545  11.35405  11.40618  11.65533
 Alpha virt. eigenvalues --   11.95964  12.04736  12.33943  13.85927  20.28371
          Condensed to atoms (all electrons):
               1          2          3          4          5          6
     1  N    6.644536   0.643262  -0.081092   0.011850  -0.000361   0.000845
     2  C    0.643262   4.487425   0.491101   0.031483  -0.011408  -0.016688
     3  C   -0.081092   0.491101   5.148314   0.434379   0.014271  -0.076090
     4  C    0.011850   0.031483   0.434379   5.097188   0.219256   0.449522
     5  C   -0.000361  -0.011408   0.014271   0.219256   5.093997   0.262017
     6  N    0.000845  -0.016688  -0.076090   0.449522   0.262017   6.087854
     7  C   -0.003518  -0.028575   0.013340  -0.153178  -0.027764   0.411977
     8  C   -0.002645   0.002862   0.001287   0.017920  -0.011083   0.003581
     9  C   -0.027338   0.317874  -0.052788  -0.077215   0.009501  -0.053995
    10  H    0.340843  -0.117945  -0.012875   0.001681  -0.000065   0.000072
    11  H   -0.004405  -0.037264   0.361458  -0.037026   0.001176   0.003832
    12  H    0.000003   0.000281  -0.000547  -0.018055   0.360368  -0.011124
    13  H   -0.000044  -0.003009   0.003214  -0.024104   0.363923  -0.036346
    14  H   -0.000857   0.005104   0.005991  -0.009864   0.009255  -0.041189
    15  H    0.000909  -0.006692   0.000470  -0.000828   0.000194   0.001333
    16  H   -0.000028   0.003084  -0.000227  -0.000275   0.001953  -0.007471
    17  H   -0.000911  -0.039694   0.003039  -0.004220  -0.001802  -0.003456
               7          8          9         10         11         12
     1  N   -0.003518  -0.002645  -0.027338   0.340843  -0.004405   0.000003
     2  C   -0.028575   0.002862   0.317874  -0.117945  -0.037264   0.000281
     3  C    0.013340   0.001287  -0.052788  -0.012875   0.361458  -0.000547
     4  C   -0.153178   0.017920  -0.077215   0.001681  -0.037026  -0.018055
     5  C   -0.027764  -0.011083   0.009501  -0.000065   0.001176   0.360368
     6  N    0.411977   0.003581  -0.053995   0.000072   0.003832  -0.011124
     7  C    4.850679   0.319570   0.237049  -0.000872   0.000089  -0.000146
     8  C    0.319570   5.133691   0.296108   0.000066  -0.000151   0.000047
     9  C    0.237049   0.296108   5.073333   0.012309   0.004979  -0.000045
    10  H   -0.000872   0.000066   0.012309   0.575266   0.004439   0.000000
    11  H    0.000089  -0.000151   0.004979   0.004439   0.597020  -0.000032
    12  H   -0.000146   0.000047  -0.000045   0.000000  -0.000032   0.580084
    13  H   -0.002674  -0.001276   0.023392  -0.000016   0.000027  -0.045070
    14  H    0.394791  -0.070698  -0.021317  -0.000163  -0.000334  -0.000183
    15  H   -0.005216   0.351917  -0.028723  -0.000084   0.000002   0.000002
    16  H   -0.020452   0.358236  -0.006469   0.000002   0.000002  -0.000070
    17  H   -0.015382  -0.061836   0.383248  -0.000576  -0.000068   0.000268
              13         14         15         16         17
     1  N   -0.000044  -0.000857   0.000909  -0.000028  -0.000911
     2  C   -0.003009   0.005104  -0.006692   0.003084  -0.039694
     3  C    0.003214   0.005991   0.000470  -0.000227   0.003039
     4  C   -0.024104  -0.009864  -0.000828  -0.000275  -0.004220
     5  C    0.363923   0.009255   0.000194   0.001953  -0.001802
     6  N   -0.036346  -0.041189   0.001333  -0.007471  -0.003456
     7  C   -0.002674   0.394791  -0.005216  -0.020452  -0.015382
     8  C   -0.001276  -0.070698   0.351917   0.358236  -0.061836
     9  C    0.023392  -0.021317  -0.028723  -0.006469   0.383248
    10  H   -0.000016  -0.000163  -0.000084   0.000002  -0.000576
    11  H    0.000027  -0.000334   0.000002   0.000002  -0.000068
    12  H   -0.045070  -0.000183   0.000002  -0.000070   0.000268
    13  H    0.585320  -0.000011   0.000109   0.000540   0.008151
    14  H   -0.000011   0.594545  -0.004407   0.005191   0.001936
    15  H    0.000109  -0.004407   0.591171  -0.039099   0.006836
    16  H    0.000540   0.005191  -0.039099   0.589290  -0.010302
    17  H    0.008151   0.001936   0.006836  -0.010302   0.602115
 Mulliken charges:
               1
     1  N   -0.521049
     2  C    0.278799
     3  C   -0.253246
     4  C    0.061487
     5  C   -0.283430
     6  N    0.025326
     7  C    0.030281
     8  C   -0.337597
     9  C   -0.089903
    10  H    0.197919
    11  H    0.106255
    12  H    0.134218
    13  H    0.127874
    14  H    0.132212
    15  H    0.132105
    16  H    0.126098
    17  H    0.132651
 Sum of Mulliken charges =  -0.00000
 Mulliken charges with hydrogens summed into heavy atoms:
               1
     1  N   -0.323130
     2  C    0.278799
     3  C   -0.146991
     4  C    0.061487
     5  C   -0.021338
     6  N    0.025326
     7  C    0.162492
     8  C   -0.079394
     9  C    0.042748
 Electronic spatial extent (au):  <R**2>=            935.2799
 Charge=             -0.0000 electrons
 Dipole moment (field-independent basis, Debye):
    X=              2.6062    Y=              0.7741    Z=              0.2751  Tot=              2.7326
 Quadrupole moment (field-independent basis, Debye-Ang):
   XX=            -58.2684   YY=            -49.6045   ZZ=            -50.8241
   XY=              3.5097   XZ=              4.5555   YZ=              0.2713
 Traceless Quadrupole moment (field-independent basis, Debye-Ang):
   XX=             -5.3694   YY=              3.2945   ZZ=              2.0749
   XY=              3.5097   XZ=              4.5555   YZ=              0.2713
 Octapole moment (field-independent basis, Debye-Ang**2):
  XXX=             24.5411  YYY=              6.9672  ZZZ=              0.6362  XYY=             -6.0665
  XXY=            -10.8814  XXZ=             -0.4576  XZZ=              0.9109  YZZ=              3.7784
  YYZ=             -2.0701  XYZ=             -0.9138
 Hexadecapole moment (field-independent basis, Debye-Ang**3):
 XXXX=           -671.9394 YYYY=           -467.5208 ZZZZ=           -130.6176 XXXY=             25.9334
 XXXZ=             26.5703 YYYX=             15.5702 YYYZ=              6.0263 ZZZX=              2.6659
 ZZZY=             -1.8499 XXYY=           -170.1069 XXZZ=           -132.5729 YYZZ=           -104.5407
 XXYZ=             -0.2471 YYXZ=              8.4857 ZZXY=              1.9247
 N-N= 4.372585591383D+02 E-N=-1.758640337026D+03  KE= 3.786248692118D+02
 PrsmSu:  requested number of processors reduced to:  13 ShMem   1 Linda.
 Calling FoFJK, ICntrl=      2127 FMM=F ISym2X=0 I1Cent= 0 IOpClX= 0 NMat=1 NMatS=1 NMatT=0.
 ***** Axes restored to original set *****
 -------------------------------------------------------------------
 Center     Atomic                   Forces (Hartrees/Bohr)
 Number     Number              X              Y              Z
 -------------------------------------------------------------------
      1        7          -0.015783038    0.013339862   -0.006197381
      2        6          -0.032813507   -0.014383950    0.035835582
      3        6          -0.039419552   -0.010280714    0.006027591
      4        6           0.021264820    0.018582472   -0.003578399
      5        6           0.050131527    0.023386980    0.008217661
      6        7           0.020671674   -0.003720021    0.021945368
      7        6           0.007240120   -0.029339486   -0.001632303
      8        6          -0.006448171   -0.040947053    0.000893590
      9        6          -0.015610419    0.000790647   -0.020739064
     10        1           0.000359890    0.001257880    0.000699727
     11        1          -0.000506979    0.013470716   -0.021311718
     12        1           0.008504212   -0.004936229   -0.004833025
     13        1          -0.006625797    0.009278500   -0.012597454
     14        1          -0.014721036    0.018220100   -0.007040696
     15        1           0.005905618   -0.011109149    0.015371956
     16        1          -0.007385190   -0.000160085   -0.016467257
     17        1           0.025235828    0.016549528    0.005405822
 -------------------------------------------------------------------
 Cartesian Forces:  Max     0.050131527 RMS     0.017825206

 GradGradGradGradGradGradGradGradGradGradGradGradGradGradGradGradGradGrad
 Berny optimization.
 FormGI is forming the generalized inverse of G from B-inverse, IUseBI=4.
 Internal  Forces:  Max     0.054149885 RMS     0.014319100
 Search for a local minimum.
 Step number   1 out of a maximum of   99
 All quantities printed in internal units (Hartrees-Bohrs-Radians)
 Mixed Optimization -- RFO/linear search
 Second derivative matrix not updated -- first step.
 ITU=  0
     Eigenvalues ---    0.01271   0.01859   0.01962   0.02106   0.02531
     Eigenvalues ---    0.02951   0.03291   0.03321   0.03699   0.03703
     Eigenvalues ---    0.04697   0.04765   0.05721   0.09285   0.09968
     Eigenvalues ---    0.10296   0.10719   0.12768   0.13177   0.13449
     Eigenvalues ---    0.15495   0.16000   0.16087   0.20062   0.20788
     Eigenvalues ---    0.21075   0.24764   0.24999   0.28014   0.31657
     Eigenvalues ---    0.33589   0.34517   0.35099   0.35284   0.35496
     Eigenvalues ---    0.35969   0.35971   0.36033   0.36459   0.37650
     Eigenvalues ---    0.42671   0.43420   0.47666   0.52374   0.74068
 RFO step:  Lambda=-6.98445539D-02 EMin= 1.27106213D-02
 Linear search not attempted -- first point.
 Maximum step size (   0.300) exceeded in Quadratic search.
    -- Step size scaled by   0.854
 Iteration  1 RMS(Cart)=  0.10922933 RMS(Int)=  0.00463115
 Iteration  2 RMS(Cart)=  0.00497304 RMS(Int)=  0.00130372
 Iteration  3 RMS(Cart)=  0.00002046 RMS(Int)=  0.00130364
 Iteration  4 RMS(Cart)=  0.00000009 RMS(Int)=  0.00130364
 Variable       Old X    -DE/DX   Delta X   Delta X   Delta X     New X
                                 (Linear)    (Quad)   (Total)
    R1        2.41282   0.01507   0.00000   0.01588   0.01588   2.42870
    R2        1.93855   0.00109   0.00000   0.00184   0.00184   1.94040
    R3        2.82047   0.00847   0.00000   0.01387   0.01414   2.83461
    R4        2.76748   0.03252   0.00000   0.05436   0.05472   2.82220
    R5        2.55763   0.04955   0.00000   0.07413   0.07420   2.63183
    R6        2.04127   0.00281   0.00000   0.00559   0.00559   2.04686
    R7        2.80901   0.01707   0.00000   0.02637   0.02737   2.83639
    R8        2.58661   0.01568   0.00000   0.03384   0.03141   2.61803
    R9        2.65535   0.03027   0.00000   0.05603   0.05736   2.71270
   R10        2.04130   0.00506   0.00000   0.01006   0.01006   2.05137
   R11        2.03370   0.00915   0.00000   0.01798   0.01798   2.05168
   R12        2.59294   0.05415   0.00000   0.08364   0.08362   2.67656
   R13        2.74316   0.02374   0.00000   0.05205   0.05285   2.79601
   R14        2.86737   0.01389   0.00000   0.00898   0.00823   2.87560
   R15        2.06466  -0.00189   0.00000  -0.00389  -0.00389   2.06078
   R16        2.79700   0.02500   0.00000   0.05583   0.05509   2.85209
   R17        2.04030   0.00729   0.00000   0.01448   0.01448   2.05478
   R18        2.04877   0.00231   0.00000   0.00464   0.00464   2.05341
   R19        2.05216   0.00385   0.00000   0.00778   0.00778   2.05994
    A1        1.93983  -0.00194   0.00000  -0.00720  -0.00720   1.93263
    A2        2.25413  -0.01516   0.00000  -0.03123  -0.03213   2.22200
    A3        2.10104   0.01881   0.00000   0.05925   0.05714   2.15818
    A4        1.92788  -0.00382   0.00000  -0.02968  -0.03163   1.89624
    A5        2.05041   0.01595   0.00000   0.05597   0.05449   2.10491
    A6        2.06778  -0.01183   0.00000  -0.03542  -0.03543   2.03236
    A7        2.13283  -0.00253   0.00000  -0.00524  -0.00588   2.12695
    A8        2.28070   0.03090   0.00000   0.10704   0.11004   2.39074
    A9        2.15355  -0.01078   0.00000  -0.02756  -0.02738   2.12616
   A10        2.01575   0.01605   0.00000   0.05228   0.05262   2.06836
   A11        2.15207  -0.01523   0.00000  -0.06021  -0.06036   2.09171
   A12        2.00164   0.01156   0.00000   0.01228   0.01173   2.01338
   A13        2.01121  -0.00360   0.00000   0.02999   0.03100   2.04222
   A14        2.04098  -0.00330   0.00000  -0.01319  -0.01389   2.02709
   A15        1.95096  -0.00225   0.00000  -0.00386  -0.00300   1.94795
   A16        2.23299   0.03435   0.00000   0.11224   0.11266   2.34564
   A17        2.40420   0.01355   0.00000   0.05267   0.05092   2.45512
   A18        1.89352   0.00995   0.00000   0.04651   0.04360   1.93711
   A19        1.92234  -0.00695   0.00000  -0.03639  -0.03626   1.88608
   A20        1.91224  -0.00574   0.00000  -0.00821  -0.00707   1.90516
   A21        2.12880  -0.01185   0.00000  -0.06719  -0.06648   2.06232
   A22        2.10088   0.00433   0.00000  -0.00281  -0.00161   2.09927
   A23        2.00507  -0.00012   0.00000   0.01868   0.01757   2.02264
   A24        2.01895   0.00313   0.00000   0.02942   0.02982   2.04876
   A25        2.06487   0.00093   0.00000  -0.01485  -0.01505   2.04982
   A26        2.01034  -0.00323   0.00000  -0.01193  -0.01196   1.99839
   A27        1.78263   0.00127   0.00000   0.00303   0.00385   1.78649
   A28        2.51401  -0.00223   0.00000  -0.00941  -0.00917   2.50484
   A29        1.90756   0.00249   0.00000   0.00650   0.00370   1.91126
   A30        2.28639  -0.01183   0.00000  -0.07264  -0.07394   2.21245
   A31        1.84710   0.00032   0.00000   0.01035   0.01202   1.85911
    D1       -0.02208  -0.00573   0.00000  -0.05958  -0.06053  -0.08261
    D2        3.13924   0.00553   0.00000   0.05793   0.05888  -3.08506
    D3        3.00823   0.00574   0.00000   0.03721   0.03276   3.04099
    D4        0.13020  -0.00026   0.00000  -0.02347  -0.02656   0.10364
    D5       -0.15153  -0.00439   0.00000  -0.07016  -0.07123  -0.22276
    D6       -3.02956  -0.01040   0.00000  -0.13084  -0.13055   3.12308
    D7       -2.25474  -0.00863   0.00000  -0.06840  -0.07143  -2.32618
    D8       -1.36399  -0.00079   0.00000  -0.03911  -0.04108  -1.40507
    D9        1.55285   0.00398   0.00000   0.02006   0.01847   1.57133
   D10        0.90318   0.00086   0.00000   0.02910   0.02893   0.93211
   D11        1.79393   0.00870   0.00000   0.05839   0.05928   1.85321
   D12       -1.57241   0.01347   0.00000   0.11755   0.11883  -1.45357
   D13        0.95186   0.01998   0.00000   0.10103   0.09834   1.05019
   D14       -0.36429   0.00513   0.00000   0.05570   0.05615  -0.30815
   D15       -2.46379   0.02488   0.00000   0.15977   0.15690  -2.30689
   D16        2.50324   0.01003   0.00000   0.11444   0.11471   2.61795
   D17        2.56655   0.01661   0.00000   0.08104   0.08120   2.64775
   D18       -0.15687   0.02341   0.00000   0.13847   0.13704  -0.01983
   D19       -0.03576   0.00557   0.00000   0.02076   0.02098  -0.01478
   D20       -2.72138  -0.00511   0.00000   0.00508   0.00435  -2.71703
   D21       -0.27512  -0.00044   0.00000   0.03700   0.03789  -0.23722
   D22        2.03215   0.00297   0.00000   0.00408   0.00387   2.03602
   D23        0.89671  -0.00968   0.00000  -0.05416  -0.05513   0.84157
   D24       -1.47407   0.00383   0.00000   0.02844   0.02822  -1.44585
   D25        0.73481   0.00231   0.00000  -0.00242  -0.00054   0.73427
   D26       -0.40063  -0.01033   0.00000  -0.06065  -0.05955  -0.46018
   D27       -2.77140   0.00318   0.00000   0.02195   0.02380  -2.74760
   D28        2.97481  -0.01002   0.00000  -0.08053  -0.07997   2.89484
   D29        0.45043  -0.01040   0.00000  -0.08326  -0.08280   0.36764
   D30        0.19645  -0.01068   0.00000  -0.10082  -0.10064   0.09581
   D31       -2.32793  -0.01107   0.00000  -0.10356  -0.10346  -2.43139
   D32       -1.35250   0.00539   0.00000   0.01725   0.01806  -1.33445
   D33        0.90604  -0.00056   0.00000  -0.04015  -0.03813   0.86791
   D34        0.90857  -0.00558   0.00000  -0.05111  -0.05091   0.85766
   D35       -3.11608  -0.01153   0.00000  -0.10851  -0.10709   3.06002
   D36        0.84866  -0.00723   0.00000  -0.05584  -0.05638   0.79228
   D37       -2.07252  -0.01208   0.00000  -0.11368  -0.11440  -2.18692
   D38       -2.94430  -0.00716   0.00000  -0.05585  -0.05631  -3.00060
   D39        0.41771  -0.01201   0.00000  -0.11369  -0.11433   0.30338
         Item               Value     Threshold  Converged?
 Maximum Force            0.054150     0.000450     NO 
 RMS     Force            0.014319     0.000300     NO 
 Maximum Displacement     0.404868     0.001800     NO 
 RMS     Displacement     0.108628     0.001200     NO 
 Predicted change in Energy=-4.502577D-02
 GradGradGradGradGradGradGradGradGradGradGradGradGradGradGradGradGradGrad

                          Input orientation:                          
 ---------------------------------------------------------------------
 Center     Atomic      Atomic             Coordinates (Angstroms)
 Number     Number       Type             X           Y           Z
 ---------------------------------------------------------------------
      1          7           0        1.064084   -0.082124    0.124086
      2          6           0        2.339572   -0.071352    0.281520
      3          6           0        3.190927    1.080233    0.727707
      4          6           0        4.551780    0.905140    0.966534
      5          6           0        5.757022    0.474516    0.182437
      6          7           0        5.104015   -0.350826    1.158681
      7          6           0        4.120314   -1.368049    1.097760
      8          6           0        3.746550   -2.551897    0.292795
      9          6           0        3.233416   -1.195961   -0.126731
     10          1           0        0.653328    0.810025    0.423582
     11          1           0        2.666769    1.976300    1.036811
     12          1           0        6.729402    0.858885    0.474203
     13          1           0        5.649467    0.185794   -0.858630
     14          1           0        3.641162   -1.434071    2.075144
     15          1           0        3.019929   -3.266034    0.672720
     16          1           0        4.542607   -2.992016   -0.301614
     17          1           0        3.562745   -1.044402   -1.154755
 ---------------------------------------------------------------------
                    Distance matrix (angstroms):
                    1          2          3          4          5
     1  N    0.000000
     2  C    1.285213   0.000000
     3  C    2.497778   1.500012   0.000000
     4  C    3.721349   2.513294   1.392702   0.000000
     5  C    4.726195   3.462189   2.692407   1.500951   0.000000
     6  N    4.178951   2.913703   2.427669   1.385400   1.435500
     7  C    3.455747   2.349194   2.644765   2.317492   2.629007
     8  C    3.650187   2.851809   3.700031   3.612952   3.635018
     9  C    2.451437   1.493443   2.431651   2.710708   3.042148
    10  H    1.026814   1.907990   2.570002   3.937230   5.120392
    11  H    2.763833   2.206899   1.083154   2.169238   3.540477
    12  H    5.753600   4.491445   3.554443   2.233062   1.085537
    13  H    4.697154   3.510195   3.059560   2.248021   1.085702
    14  H    3.503672   2.601582   2.887910   2.744112   3.420806
    15  H    3.776720   3.289668   4.349977   4.453267   4.660877
    16  H    4.555087   3.704549   4.412455   4.098306   3.704856
    17  H    2.967275   2.122701   2.862862   3.046107   2.984970
                    6          7          8          9         10
     6  N    0.000000
     7  C    1.416376   0.000000
     8  C    2.727120   1.479583   0.000000
     9  C    2.421916   1.521704   1.509262   0.000000
    10  H    4.657957   4.149520   4.570300   3.314163   0.000000
    11  H    3.372023   3.647078   4.714239   3.426100   2.406282
    12  H    2.138643   3.486459   4.534727   4.099443   6.076482
    13  H    2.157550   2.929198   3.527297   2.877885   5.195685
    14  H    2.037957   1.090516   2.106516   2.251934   4.085435
    15  H    3.616354   2.234694   1.087342   2.229328   4.719865
    16  H    3.069776   2.184914   1.086616   2.229435   5.487068
    17  H    2.865056   2.342958   2.098029   1.090073   3.794041
                   11         12         13         14         15
    11  H    0.000000
    12  H    4.250898   0.000000
    13  H    3.961704   1.842757   0.000000
    14  H    3.695701   4.166280   3.906954   0.000000
    15  H    5.266816   5.551086   4.601589   2.389312   0.000000
    16  H    5.476707   4.495932   3.410848   2.981406   1.828376
    17  H    3.838016   4.037787   2.440385   3.254265   2.927450
                   16         17
    16  H    0.000000
    17  H    2.341192   0.000000
 Stoichiometry    C7H8N2
 Framework group  C1[X(C7H8N2)]
 Deg. of freedom    45
 Full point group                 C1      NOp   1
 Largest Abelian subgroup         C1      NOp   1
 Largest concise Abelian subgroup C1      NOp   1
                         Standard orientation:                         
 ---------------------------------------------------------------------
 Center     Atomic      Atomic             Coordinates (Angstroms)
 Number     Number       Type             X           Y           Z
 ---------------------------------------------------------------------
      1          7           0       -2.602702   -0.513541    0.118472
      2          6           0       -1.321359   -0.415905    0.098544
      3          6           0       -0.329864   -1.511928   -0.157790
      4          6           0        1.029320   -1.227677   -0.264749
      5          6           0        2.097034   -0.629556    0.604211
      6          7           0        1.490504    0.057196   -0.500847
      7          6           0        0.423010    0.979214   -0.629151
      8          6           0       -0.139014    2.178371    0.030634
      9          6           0       -0.578657    0.814534    0.504483
     10          1           0       -2.899319   -1.459833   -0.147795
     11          1           0       -0.737319   -2.473467   -0.445271
     12          1           0        3.125396   -0.941158    0.450051
     13          1           0        1.848253   -0.276887    1.600444
     14          1           0        0.053521    0.928297   -1.653900
     15          1           0       -0.876324    2.791385   -0.482105
     16          1           0        0.544269    2.733609    0.667477
     17          1           0       -0.355905    0.770147    1.570631
 ---------------------------------------------------------------------
 Rotational constants (GHZ):           2.7388155           1.8738039           1.2561013
 Standard basis: 6-31G(2df,p) (6D, 7F)
 There are   319 symmetry adapted cartesian basis functions of A   symmetry.
 There are   292 symmetry adapted basis functions of A   symmetry.
   292 basis functions,   452 primitive gaussians,   319 cartesian basis functions
    32 alpha electrons       32 beta electrons
       nuclear repulsion energy       427.8887198067 Hartrees.
 NAtoms=   17 NActive=   17 NUniq=   17 SFac= 1.00D+00 NAtFMM=   60 NAOKFM=F Big=F
 Integral buffers will be    131072 words long.
 Raffenetti 2 integral format.
 Two-electron integral symmetry is turned on.
 One-electron integrals computed using PRISM.
 PrsmSu:  requested number of processors reduced to:  13 ShMem   1 Linda.
 NBasis=   292 RedAO= T EigKep=  2.46D-04  NBF=   292
 NBsUse=   292 1.00D-06 EigRej= -1.00D+00 NBFU=   292
 Initial guess from the checkpoint file:  "NdC1CdC2CN2C2CC12.chk"
 B after Tr=     0.000000    0.000000    0.000000
         Rot=    0.999517   -0.008342   -0.006760   -0.029158 Ang=  -3.56 deg.
 ExpMin= 1.61D-01 ExpMax= 4.17D+03 ExpMxC= 6.27D+02 IAcc=2 IRadAn=         4 AccDes= 0.00D+00
 Harris functional with IExCor=  402 and IRadAn=       4 diagonalized for initial guess.
 HarFok:  IExCor=  402 AccDes= 0.00D+00 IRadAn=         4 IDoV= 1 UseB2=F ITyADJ=14
 ICtDFT=  3500011 ScaDFX=  1.000000  1.000000  1.000000  1.000000
 FoFCou: FMM=F IPFlag=           0 FMFlag=      100000 FMFlg1=           0
         NFxFlg=           0 DoJE=T BraDBF=F KetDBF=T FulRan=T
         wScrn=  0.000000 ICntrl=       500 IOpCl=  0 I1Cent=   200000004 NGrid=           0
         NMat0=    1 NMatS0=      1 NMatT0=    0 NMatD0=    1 NMtDS0=    0 NMtDT0=    0
 Petite list used in FoFCou.
 Requested convergence on RMS density matrix=1.00D-08 within 128 cycles.
 Requested convergence on MAX density matrix=1.00D-06.
 Requested convergence on             energy=1.00D-06.
 No special actions if energy rises.
 Integral accuracy reduced to 1.0D-05 until final iterations.
 Initial convergence to 1.0D-05 achieved.  Increase integral accuracy.
 SCF Done:  E(RB3LYP) =  -380.826722945     A.U. after   14 cycles
            NFock= 14  Conv=0.64D-08     -V/T= 2.0075
 PrsmSu:  requested number of processors reduced to:  13 ShMem   1 Linda.
 Calling FoFJK, ICntrl=      2127 FMM=F ISym2X=0 I1Cent= 0 IOpClX= 0 NMat=1 NMatS=1 NMatT=0.
 ***** Axes restored to original set *****
 -------------------------------------------------------------------
 Center     Atomic                   Forces (Hartrees/Bohr)
 Number     Number              X              Y              Z
 -------------------------------------------------------------------
      1        7           0.003143238    0.006501062   -0.002257716
      2        6          -0.022722551   -0.008576709    0.018791552
      3        6          -0.000629610   -0.006628632    0.010125917
      4        6          -0.011673279   -0.008617177   -0.009576130
      5        6           0.014020227    0.010509113    0.009794440
      6        7           0.008502043    0.001205066    0.014294757
      7        6           0.011337676   -0.011475597   -0.017317854
      8        6          -0.005256955   -0.019655573    0.002768937
      9        6          -0.010939733    0.000756013   -0.003575920
     10        1           0.001197563   -0.000731557    0.001195631
     11        1           0.002625107    0.009049529   -0.017963579
     12        1           0.003101221   -0.003553539   -0.001947004
     13        1          -0.003145895    0.006152833   -0.006116812
     14        1          -0.009542105    0.014162581   -0.005264403
     15        1           0.008652765   -0.004135188    0.011528281
     16        1          -0.008366726    0.001087597   -0.012075135
     17        1           0.019697014    0.013950177    0.007595038
 -------------------------------------------------------------------
 Cartesian Forces:  Max     0.022722551 RMS     0.010071043

 GradGradGradGradGradGradGradGradGradGradGradGradGradGradGradGradGradGrad
 Berny optimization.
 Using GEDIIS/GDIIS optimizer.
 FormGI is forming the generalized inverse of G from B-inverse, IUseBI=4.
 Internal  Forces:  Max     0.016617646 RMS     0.005778549
 Search for a local minimum.
 Step number   2 out of a maximum of   99
 All quantities printed in internal units (Hartrees-Bohrs-Radians)
 Mixed Optimization -- RFO/linear search
 Update second derivatives using D2CorX and points    1    2
 DE= -4.32D-02 DEPred=-4.50D-02 R= 9.59D-01
 TightC=F SS=  1.41D+00  RLast= 5.59D-01 DXNew= 5.0454D-01 1.6783D+00
 Trust test= 9.59D-01 RLast= 5.59D-01 DXMaxT set to 5.05D-01
 ITU=  1  0
 Use linear search instead of GDIIS.
     Eigenvalues ---    0.01293   0.01878   0.02045   0.02150   0.02620
     Eigenvalues ---    0.02877   0.03316   0.03336   0.03607   0.03618
     Eigenvalues ---    0.04720   0.04822   0.05720   0.09091   0.09962
     Eigenvalues ---    0.10174   0.10791   0.11082   0.13066   0.13388
     Eigenvalues ---    0.15172   0.15766   0.15991   0.20099   0.20537
     Eigenvalues ---    0.21437   0.24328   0.24917   0.28291   0.31944
     Eigenvalues ---    0.33109   0.34501   0.34926   0.35289   0.35504
     Eigenvalues ---    0.35967   0.35974   0.36064   0.36410   0.37557
     Eigenvalues ---    0.43069   0.43466   0.47444   0.56371   0.75055
 RFO step:  Lambda=-4.20642018D-02 EMin= 1.29305825D-02
 Quartic linear search produced a step of  1.23890.
 Iteration  1 RMS(Cart)=  0.11621113 RMS(Int)=  0.03700065
 Iteration  2 RMS(Cart)=  0.03167519 RMS(Int)=  0.00513849
 Iteration  3 RMS(Cart)=  0.00144528 RMS(Int)=  0.00490475
 Iteration  4 RMS(Cart)=  0.00000521 RMS(Int)=  0.00490475
 Iteration  5 RMS(Cart)=  0.00000002 RMS(Int)=  0.00490475
 Variable       Old X    -DE/DX   Delta X   Delta X   Delta X     New X
                                 (Linear)    (Quad)   (Total)
    R1        2.42870  -0.00423   0.01967  -0.03093  -0.01126   2.41744
    R2        1.94040  -0.00077   0.00229  -0.00546  -0.00317   1.93722
    R3        2.83461  -0.00144   0.01752  -0.02963  -0.00941   2.82520
    R4        2.82220   0.00975   0.06779  -0.03377   0.03501   2.85721
    R5        2.63183  -0.00035   0.09192  -0.09147   0.00220   2.63403
    R6        2.04686   0.00109   0.00693  -0.00193   0.00500   2.05186
    R7        2.83639   0.00288   0.03391  -0.03736   0.00150   2.83789
    R8        2.61803   0.00277   0.03892  -0.02176   0.01235   2.63037
    R9        2.71270   0.00562   0.07106  -0.03785   0.03226   2.74496
   R10        2.05137   0.00100   0.01247  -0.00809   0.00437   2.05574
   R11        2.05168   0.00454   0.02227  -0.00152   0.02075   2.07243
   R12        2.67656   0.01253   0.10360  -0.06037   0.04073   2.71730
   R13        2.79601   0.00731   0.06548  -0.02346   0.04445   2.84045
   R14        2.87560  -0.00078   0.01020  -0.05256  -0.04546   2.83014
   R15        2.06078  -0.00138  -0.00481  -0.00190  -0.00672   2.05406
   R16        2.85209   0.01019   0.06825  -0.00631   0.06016   2.91225
   R17        2.05478   0.00096   0.01793  -0.01390   0.00403   2.05881
   R18        2.05341   0.00004   0.00575  -0.00575  -0.00001   2.05340
   R19        2.05994   0.00073   0.00964  -0.00640   0.00324   2.06318
    A1        1.93263  -0.00219  -0.00892  -0.01190  -0.02082   1.91181
    A2        2.22200  -0.00519  -0.03981   0.01672  -0.02940   2.19260
    A3        2.15818   0.00864   0.07079  -0.00515   0.04940   2.20758
    A4        1.89624  -0.00419  -0.03919  -0.02315  -0.07122   1.82503
    A5        2.10491   0.00567   0.06751  -0.02510   0.03541   2.14032
    A6        2.03236  -0.00220  -0.04389   0.04477  -0.00633   2.02603
    A7        2.12695  -0.00231  -0.00729   0.00441  -0.01012   2.11683
    A8        2.39074   0.01344   0.13633  -0.01596   0.12561   2.51635
    A9        2.12616   0.00167  -0.03393   0.04913   0.01209   2.13825
   A10        2.06836   0.00763   0.06519   0.00988   0.07683   2.14519
   A11        2.09171  -0.00780  -0.07478  -0.02272  -0.09720   1.99451
   A12        2.01338   0.00055   0.01454  -0.03736  -0.02380   1.98957
   A13        2.04222   0.00301   0.03841   0.04816   0.08934   2.13156
   A14        2.02709  -0.00146  -0.01720   0.00161  -0.01811   2.00898
   A15        1.94795  -0.00306  -0.00372  -0.01619  -0.02012   1.92783
   A16        2.34564   0.00931   0.13957  -0.07475   0.06455   2.41020
   A17        2.45512   0.00665   0.06308   0.00697   0.06242   2.51754
   A18        1.93711   0.00308   0.05401   0.00084   0.04415   1.98126
   A19        1.88608  -0.00401  -0.04492  -0.02362  -0.07135   1.81474
   A20        1.90516  -0.00208  -0.00876   0.02817   0.02608   1.93125
   A21        2.06232  -0.00618  -0.08236  -0.04433  -0.12524   1.93707
   A22        2.09927   0.00238  -0.00200  -0.03634  -0.03212   2.06715
   A23        2.02264   0.00021   0.02176   0.03802   0.05534   2.07798
   A24        2.04876   0.00386   0.03694   0.04971   0.08704   2.13581
   A25        2.04982  -0.00124  -0.01865  -0.04711  -0.06333   1.98649
   A26        1.99839  -0.00170  -0.01481   0.00216  -0.01305   1.98534
   A27        1.78649   0.00194   0.00477   0.01081   0.01625   1.80273
   A28        2.50484  -0.00021  -0.01136   0.00147  -0.01197   2.49288
   A29        1.91126   0.00056   0.00459  -0.01474  -0.02575   1.88551
   A30        2.21245  -0.00921  -0.09160  -0.09092  -0.18677   2.02568
   A31        1.85911   0.00010   0.01489   0.02262   0.04567   1.90478
    D1       -0.08261  -0.00497  -0.07499  -0.08796  -0.16707  -0.24968
    D2       -3.08506   0.00273   0.07295   0.03246   0.10952  -2.97554
    D3        3.04099   0.00272   0.04058   0.03401   0.06178   3.10277
    D4        0.10364  -0.00307  -0.03291  -0.09476  -0.13832  -0.03468
    D5       -0.22276  -0.00315  -0.08824  -0.07101  -0.15819  -0.38095
    D6        3.12308  -0.00894  -0.16173  -0.19978  -0.35830   2.76478
    D7       -2.32618  -0.00576  -0.08850  -0.03862  -0.13294  -2.45911
    D8       -1.40507  -0.00057  -0.05089  -0.01906  -0.07459  -1.47966
    D9        1.57133   0.00409   0.02289   0.07885   0.09761   1.66894
   D10        0.93211   0.00099   0.03584   0.05976   0.09641   1.02851
   D11        1.85321   0.00617   0.07344   0.07932   0.15475   2.00797
   D12       -1.45357   0.01083   0.14722   0.17723   0.32695  -1.12662
   D13        1.05019   0.01043   0.12183   0.05844   0.17728   1.22748
   D14       -0.30815   0.00158   0.06956   0.02254   0.09156  -0.21659
   D15       -2.30689   0.01662   0.19438   0.19880   0.38842  -1.91847
   D16        2.61795   0.00777   0.14211   0.16289   0.30270   2.92065
   D17        2.64775   0.00439   0.10060  -0.02494   0.07747   2.72522
   D18       -0.01983   0.00849   0.16978   0.00047   0.16518   0.14536
   D19       -0.01478   0.00492   0.02599   0.04614   0.07413   0.05934
   D20       -2.71703   0.00027   0.00539   0.03727   0.03914  -2.67789
   D21       -0.23722   0.00269   0.04695   0.05512   0.10557  -0.13165
   D22        2.03602   0.00023   0.00480  -0.04063  -0.03646   1.99956
   D23        0.84157  -0.00743  -0.06831  -0.06208  -0.13163   0.70994
   D24       -1.44585   0.00153   0.03496   0.01439   0.04886  -1.39699
   D25        0.73427   0.00272  -0.00067  -0.01213  -0.00858   0.72569
   D26       -0.46018  -0.00494  -0.07378  -0.03357  -0.10375  -0.56394
   D27       -2.74760   0.00402   0.02948   0.04289   0.07674  -2.67086
   D28        2.89484  -0.00667  -0.09908  -0.08211  -0.17825   2.71659
   D29        0.36764  -0.00755  -0.10258  -0.09049  -0.19196   0.17568
   D30        0.09581  -0.00776  -0.12468  -0.13130  -0.25619  -0.16038
   D31       -2.43139  -0.00864  -0.12818  -0.13967  -0.26990  -2.70129
   D32       -1.33445   0.00385   0.02237  -0.00070   0.02086  -1.31359
   D33        0.86791  -0.00075  -0.04723  -0.08533  -0.12188   0.74603
   D34        0.85766  -0.00426  -0.06307  -0.07135  -0.13475   0.72291
   D35        3.06002  -0.00886  -0.13267  -0.15598  -0.27749   2.78253
   D36        0.79228  -0.00635  -0.06985  -0.09274  -0.16397   0.62831
   D37       -2.18692  -0.01096  -0.14173  -0.18701  -0.33341  -2.52033
   D38       -3.00060  -0.00556  -0.06976  -0.08462  -0.15430   3.12828
   D39        0.30338  -0.01017  -0.14165  -0.17889  -0.32374  -0.02036
         Item               Value     Threshold  Converged?
 Maximum Force            0.016618     0.000450     NO 
 RMS     Force            0.005779     0.000300     NO 
 Maximum Displacement     0.690075     0.001800     NO 
 RMS     Displacement     0.136499     0.001200     NO 
 Predicted change in Energy=-3.274888D-02
 GradGradGradGradGradGradGradGradGradGradGradGradGradGradGradGradGradGrad

                          Input orientation:                          
 ---------------------------------------------------------------------
 Center     Atomic      Atomic             Coordinates (Angstroms)
 Number     Number       Type             X           Y           Z
 ---------------------------------------------------------------------
      1          7           0        0.989650   -0.070941    0.230856
      2          6           0        2.255216   -0.138984    0.404656
      3          6           0        3.162245    1.020846    0.663911
      4          6           0        4.529468    0.870066    0.889372
      5          6           0        5.838277    0.516025    0.243686
      6          7           0        5.114238   -0.367830    1.140643
      7          6           0        4.132921   -1.414927    1.049789
      8          6           0        3.717145   -2.632993    0.273409
      9          6           0        3.172229   -1.236777   -0.085234
     10          1           0        0.651854    0.850287    0.527727
     11          1           0        2.694168    2.000539    0.671639
     12          1           0        6.798163    0.850215    0.631444
     13          1           0        5.788733    0.408699   -0.846609
     14          1           0        3.617468   -1.375339    2.005941
     15          1           0        3.109233   -3.385319    0.774809
     16          1           0        4.396441   -3.042925   -0.469047
     17          1           0        3.605642   -0.916482   -1.034742
 ---------------------------------------------------------------------
                    Distance matrix (angstroms):
                    1          2          3          4          5
     1  N    0.000000
     2  C    1.279255   0.000000
     3  C    2.469758   1.495032   0.000000
     4  C    3.721484   2.534828   1.393867   0.000000
     5  C    4.884043   3.645994   2.755464   1.501745   0.000000
     6  N    4.234156   2.961090   2.442533   1.391934   1.452572
     7  C    3.515267   2.360085   2.650302   2.324688   2.699373
     8  C    3.742346   2.893880   3.716308   3.648383   3.796893
     9  C    2.494542   1.511971   2.378693   2.689003   3.207540
    10  H    1.025134   1.888008   2.519861   3.894492   5.204939
    11  H    2.718584   2.200345   1.085798   2.166496   3.503192
    12  H    5.894728   4.654924   3.640064   2.283396   1.087851
    13  H    4.941880   3.788319   3.091089   2.193681   1.096684
    14  H    3.428966   2.438938   2.783877   2.668392   3.408049
    15  H    3.971602   3.377137   4.407879   4.487593   4.790643
    16  H    4.574798   3.712287   4.395573   4.144212   3.905509
    17  H    3.026564   2.121325   2.614434   2.783419   2.944675
                    6          7          8          9         10
     6  N    0.000000
     7  C    1.437932   0.000000
     8  C    2.799093   1.503104   0.000000
     9  C    2.455451   1.497645   1.541095   0.000000
    10  H    4.666084   4.185877   4.646927   3.329242   0.000000
    11  H    3.418462   3.725375   4.761795   3.358812   2.348369
    12  H    2.139748   3.522697   4.664075   4.244592   6.147184
    13  H    2.237657   3.108641   3.846792   3.183297   5.335853
    14  H    2.001034   1.086962   2.143198   2.142533   3.991665
    15  H    3.641307   2.237409   1.089475   2.315140   4.903073
    16  H    3.203508   2.242026   1.086612   2.215440   5.492958
    17  H    2.703549   2.207202   2.161041   1.091788   3.779900
                   11         12         13         14         15
    11  H    0.000000
    12  H    4.262351   0.000000
    13  H    3.796757   1.843509   0.000000
    14  H    3.745584   4.118150   4.004276   0.000000
    15  H    5.402814   5.618586   4.919684   2.411225   0.000000
    16  H    5.443843   4.704879   3.740954   3.084348   1.822448
    17  H    3.500219   4.011183   2.560739   3.075133   3.100977
                   16         17
    16  H    0.000000
    17  H    2.338190   0.000000
 Stoichiometry    C7H8N2
 Framework group  C1[X(C7H8N2)]
 Deg. of freedom    45
 Full point group                 C1      NOp   1
 Largest Abelian subgroup         C1      NOp   1
 Largest concise Abelian subgroup C1      NOp   1
                         Standard orientation:                         
 ---------------------------------------------------------------------
 Center     Atomic      Atomic             Coordinates (Angstroms)
 Number     Number       Type             X           Y           Z
 ---------------------------------------------------------------------
      1          7           0       -2.632778   -0.615218    0.084293
      2          6           0       -1.371676   -0.414557    0.007814
      3          6           0       -0.325894   -1.477228   -0.102601
      4          6           0        1.031429   -1.185889   -0.227735
      5          6           0        2.233763   -0.651026    0.495834
      6          7           0        1.498808    0.094184   -0.511373
      7          6           0        0.406148    1.027263   -0.567077
      8          6           0       -0.204021    2.231922    0.093083
      9          6           0       -0.624128    0.805261    0.496967
     10          1           0       -2.842367   -1.583766   -0.178174
     11          1           0       -0.683178   -2.502391   -0.084040
     12          1           0        3.253963   -0.895805    0.208264
     13          1           0        2.078980   -0.489481    1.569455
     14          1           0       -0.017536    0.876617   -1.556665
     15          1           0       -0.843934    2.881764   -0.502881
     16          1           0        0.360452    2.756570    0.859139
     17          1           0       -0.242319    0.589256    1.496750
 ---------------------------------------------------------------------
 Rotational constants (GHZ):           2.7259665           1.8092145           1.2041865
 Standard basis: 6-31G(2df,p) (6D, 7F)
 There are   319 symmetry adapted cartesian basis functions of A   symmetry.
 There are   292 symmetry adapted basis functions of A   symmetry.
   292 basis functions,   452 primitive gaussians,   319 cartesian basis functions
    32 alpha electrons       32 beta electrons
       nuclear repulsion energy       424.4694046528 Hartrees.
 NAtoms=   17 NActive=   17 NUniq=   17 SFac= 1.00D+00 NAtFMM=   60 NAOKFM=F Big=F
 Integral buffers will be    131072 words long.
 Raffenetti 2 integral format.
 Two-electron integral symmetry is turned on.
 One-electron integrals computed using PRISM.
 PrsmSu:  requested number of processors reduced to:  13 ShMem   1 Linda.
 NBasis=   292 RedAO= T EigKep=  2.44D-04  NBF=   292
 NBsUse=   292 1.00D-06 EigRej= -1.00D+00 NBFU=   292
 Initial guess from the checkpoint file:  "NdC1CdC2CN2C2CC12.chk"
 B after Tr=     0.000000    0.000000   -0.000000
         Rot=    0.999888   -0.009667   -0.005192   -0.010159 Ang=  -1.71 deg.
 ExpMin= 1.61D-01 ExpMax= 4.17D+03 ExpMxC= 6.27D+02 IAcc=2 IRadAn=         4 AccDes= 0.00D+00
 Harris functional with IExCor=  402 and IRadAn=       4 diagonalized for initial guess.
 HarFok:  IExCor=  402 AccDes= 0.00D+00 IRadAn=         4 IDoV= 1 UseB2=F ITyADJ=14
 ICtDFT=  3500011 ScaDFX=  1.000000  1.000000  1.000000  1.000000
 FoFCou: FMM=F IPFlag=           0 FMFlag=      100000 FMFlg1=           0
         NFxFlg=           0 DoJE=T BraDBF=F KetDBF=T FulRan=T
         wScrn=  0.000000 ICntrl=       500 IOpCl=  0 I1Cent=   200000004 NGrid=           0
         NMat0=    1 NMatS0=      1 NMatT0=    0 NMatD0=    1 NMtDS0=    0 NMtDT0=    0
 Petite list used in FoFCou.
 Requested convergence on RMS density matrix=1.00D-08 within 128 cycles.
 Requested convergence on MAX density matrix=1.00D-06.
 Requested convergence on             energy=1.00D-06.
 No special actions if energy rises.
 Integral accuracy reduced to 1.0D-05 until final iterations.
 Initial convergence to 1.0D-05 achieved.  Increase integral accuracy.
 SCF Done:  E(RB3LYP) =  -380.859756788     A.U. after   14 cycles
            NFock= 14  Conv=0.39D-08     -V/T= 2.0081
 PrsmSu:  requested number of processors reduced to:  13 ShMem   1 Linda.
 Calling FoFJK, ICntrl=      2127 FMM=F ISym2X=0 I1Cent= 0 IOpClX= 0 NMat=1 NMatS=1 NMatT=0.
 ***** Axes restored to original set *****
 -------------------------------------------------------------------
 Center     Atomic                   Forces (Hartrees/Bohr)
 Number     Number              X              Y              Z
 -------------------------------------------------------------------
      1        7           0.002504764   -0.002543468    0.005328982
      2        6          -0.004631182    0.000960480   -0.016181422
      3        6           0.019999725    0.011319120    0.015032038
      4        6          -0.018353309   -0.020070022   -0.003513810
      5        6          -0.005137452    0.012004027   -0.000575577
      6        7           0.005158808    0.002094005    0.006845391
      7        6           0.004097232   -0.004701274   -0.012537274
      8        6          -0.001800972    0.004077775    0.000560210
      9        6          -0.007309463   -0.006041369    0.005988543
     10        1          -0.001107745   -0.000758375    0.001545224
     11        1           0.003601273    0.001469493   -0.009675661
     12        1          -0.001102364    0.001531658   -0.000483147
     13        1           0.001230043   -0.003285875    0.001941110
     14        1          -0.001745092   -0.000422157    0.001237389
     15        1           0.003677038    0.002221322    0.002979168
     16        1          -0.003585342    0.001296925   -0.002745758
     17        1           0.004504037    0.000847734    0.004254594
 -------------------------------------------------------------------
 Cartesian Forces:  Max     0.020070022 RMS     0.007205966

 GradGradGradGradGradGradGradGradGradGradGradGradGradGradGradGradGradGrad
 Berny optimization.
 Using GEDIIS/GDIIS optimizer.
 FormGI is forming the generalized inverse of G from B-inverse, IUseBI=4.
 Internal  Forces:  Max     0.017126971 RMS     0.002979655
 Search for a local minimum.
 Step number   3 out of a maximum of   99
 All quantities printed in internal units (Hartrees-Bohrs-Radians)
 Mixed Optimization -- RFO/linear search
 Update second derivatives using D2CorX and points    2    3
 DE= -3.30D-02 DEPred=-3.27D-02 R= 1.01D+00
 TightC=F SS=  1.41D+00  RLast= 1.22D+00 DXNew= 8.4853D-01 3.6663D+00
 Trust test= 1.01D+00 RLast= 1.22D+00 DXMaxT set to 8.49D-01
 ITU=  1  1  0
 Use linear search instead of GDIIS.
     Eigenvalues ---    0.01332   0.01813   0.02130   0.02513   0.02774
     Eigenvalues ---    0.02997   0.03284   0.03341   0.03417   0.03582
     Eigenvalues ---    0.04580   0.04807   0.06008   0.08615   0.09246
     Eigenvalues ---    0.09572   0.10492   0.11054   0.12902   0.13303
     Eigenvalues ---    0.14218   0.16010   0.16060   0.18717   0.20235
     Eigenvalues ---    0.20876   0.22554   0.24556   0.28786   0.32293
     Eigenvalues ---    0.33104   0.34531   0.35003   0.35300   0.35507
     Eigenvalues ---    0.35967   0.35973   0.36078   0.36417   0.37442
     Eigenvalues ---    0.42800   0.43448   0.47460   0.56926   0.75057
 RFO step:  Lambda=-9.15833234D-03 EMin= 1.33241409D-02
 Quartic linear search produced a step of  0.16102.
 Iteration  1 RMS(Cart)=  0.06331629 RMS(Int)=  0.00674341
 Iteration  2 RMS(Cart)=  0.00634212 RMS(Int)=  0.00123607
 Iteration  3 RMS(Cart)=  0.00006302 RMS(Int)=  0.00123422
 Iteration  4 RMS(Cart)=  0.00000005 RMS(Int)=  0.00123422
 Variable       Old X    -DE/DX   Delta X   Delta X   Delta X     New X
                                 (Linear)    (Quad)   (Total)
    R1        2.41744  -0.00249  -0.00181  -0.00140  -0.00321   2.41423
    R2        1.93722   0.00013  -0.00051   0.00077   0.00026   1.93748
    R3        2.82520   0.00715  -0.00152   0.02108   0.02055   2.84575
    R4        2.85721  -0.00172   0.00564   0.00190   0.00720   2.86441
    R5        2.63403  -0.01713   0.00035  -0.03301  -0.03152   2.60251
    R6        2.05186  -0.00030   0.00080  -0.00067   0.00013   2.05199
    R7        2.83789  -0.00343   0.00024  -0.01984  -0.01834   2.81954
    R8        2.63037   0.00068   0.00199  -0.00132   0.00180   2.63217
    R9        2.74496  -0.00314   0.00519   0.00652   0.00964   2.75460
   R10        2.05574  -0.00067   0.00070  -0.00129  -0.00058   2.05516
   R11        2.07243  -0.00166   0.00334  -0.00464  -0.00130   2.07113
   R12        2.71730   0.00106   0.00656   0.01118   0.01673   2.73402
   R13        2.84045  -0.00409   0.00716  -0.01308  -0.00573   2.83472
   R14        2.83014  -0.00149  -0.00732   0.01634   0.00850   2.83864
   R15        2.05406   0.00190  -0.00108   0.00614   0.00506   2.05912
   R16        2.91225  -0.00421   0.00969  -0.01389  -0.00487   2.90738
   R17        2.05881  -0.00221   0.00065  -0.00547  -0.00482   2.05399
   R18        2.05340  -0.00085  -0.00000  -0.00213  -0.00213   2.05127
   R19        2.06318  -0.00166   0.00052  -0.00457  -0.00405   2.05913
    A1        1.91181   0.00165  -0.00335   0.01194   0.00858   1.92039
    A2        2.19260   0.00303  -0.00473   0.02190   0.01433   2.20693
    A3        2.20758  -0.00087   0.00795   0.00926   0.01370   2.22127
    A4        1.82503  -0.00112  -0.01147   0.00762  -0.00476   1.82027
    A5        2.14032   0.00101   0.00570  -0.00592  -0.00169   2.13863
    A6        2.02603   0.00150  -0.00102   0.01399   0.00707   2.03310
    A7        2.11683  -0.00250  -0.00163  -0.00763  -0.01487   2.10196
    A8        2.51635   0.00121   0.02023   0.01779   0.03748   2.55383
    A9        2.13825   0.00345   0.00195   0.03109   0.03146   2.16970
   A10        2.14519  -0.00003   0.01237  -0.01012   0.00232   2.14751
   A11        1.99451   0.00036  -0.01565   0.02601   0.01046   2.00497
   A12        1.98957  -0.00159  -0.00383   0.00985   0.00532   1.99489
   A13        2.13156   0.00020   0.01439  -0.02866  -0.01373   2.11783
   A14        2.00898   0.00011  -0.00292  -0.00138  -0.00464   2.00433
   A15        1.92783  -0.00105  -0.00324  -0.00931  -0.01261   1.91522
   A16        2.41020  -0.00107   0.01039  -0.00101   0.00941   2.41960
   A17        2.51754   0.00263   0.01005   0.03229   0.04117   2.55871
   A18        1.98126   0.00071   0.00711   0.02096   0.02593   2.00719
   A19        1.81474  -0.00173  -0.01149  -0.01209  -0.02361   1.79112
   A20        1.93125  -0.00073   0.00420  -0.02211  -0.01717   1.91408
   A21        1.93707  -0.00008  -0.02017  -0.00259  -0.02243   1.91464
   A22        2.06715  -0.00130  -0.00517  -0.02809  -0.03233   2.03482
   A23        2.07798   0.00030   0.00891   0.02208   0.03087   2.10885
   A24        2.13581   0.00086   0.01402   0.01525   0.02976   2.16557
   A25        1.98649  -0.00195  -0.01020  -0.02438  -0.03406   1.95244
   A26        1.98534   0.00093  -0.00210   0.00593   0.00370   1.98904
   A27        1.80273   0.00122   0.00262   0.01995   0.02191   1.82464
   A28        2.49288   0.00146  -0.00193   0.02775   0.02506   2.51793
   A29        1.88551  -0.00116  -0.00415  -0.01194  -0.01814   1.86737
   A30        2.02568  -0.00203  -0.03007  -0.02985  -0.06016   1.96552
   A31        1.90478  -0.00031   0.00735  -0.01592  -0.00804   1.89674
    D1       -0.24968  -0.00001  -0.02690   0.02770   0.00074  -0.24894
    D2       -2.97554  -0.00338   0.01763  -0.10784  -0.09014  -3.06569
    D3        3.10277  -0.00200   0.00995  -0.10706  -0.09794   3.00482
    D4       -0.03468  -0.00526  -0.02227  -0.22571  -0.24930  -0.28398
    D5       -0.38095   0.00060  -0.02547   0.00402  -0.02102  -0.40197
    D6        2.76478  -0.00267  -0.05769  -0.11463  -0.17237   2.59241
    D7       -2.45911   0.00119  -0.02140   0.08411   0.06228  -2.39683
    D8       -1.47966   0.00120  -0.01201   0.08634   0.07404  -1.40562
    D9        1.66894   0.00347   0.01572   0.11391   0.12913   1.79806
   D10        1.02851  -0.00245   0.01552  -0.03153  -0.01562   1.01290
   D11        2.00797  -0.00244   0.02492  -0.02930  -0.00386   2.00411
   D12       -1.12662  -0.00017   0.05264  -0.00174   0.05123  -1.07539
   D13        1.22748   0.00373   0.02855   0.06448   0.09455   1.32202
   D14       -0.21659  -0.00021   0.01474   0.00167   0.01593  -0.20066
   D15       -1.91847   0.00718   0.06254   0.18923   0.25176  -1.66672
   D16        2.92065   0.00323   0.04874   0.12641   0.17314   3.09379
   D17        2.72522  -0.00360   0.01247  -0.07971  -0.06760   2.65763
   D18        0.14536  -0.00449   0.02660  -0.10791  -0.08218   0.06318
   D19        0.05934   0.00161   0.01194   0.01745   0.02992   0.08926
   D20       -2.67789  -0.00103   0.00630  -0.04225  -0.03601  -2.71390
   D21       -0.13165  -0.00329   0.01700  -0.07694  -0.05934  -0.19099
[...]
   yx         0.479293D+01      0.710239D+00      0.790247D+00
   yy         0.855283D+02      0.126740D+02      0.141017D+02
   zx         0.140720D+02      0.208525D+01      0.232016D+01
   zy         0.146222D+01      0.216679D+00      0.241088D+00
   zz         0.103258D+03      0.153013D+02      0.170249D+02

 ----------------------------------------------------------------------
 1\1\GINC-LEWIS4-R630-HPC4-NODE303\Freq\RB3LYP\6-31G(2df,p)\C7H8N2\KS29
 C\03-Jul-2022\0\\#N Geom=AllCheck Guess=TCheck SCRF=Check GenChk RB3LY
 P/6-31G(2df,p) Freq\\Title Card Required\\0,1\N,0.9704368021,-0.151561
 118,0.5328998405\C,2.2297219999,-0.1118098498,0.3731027263\C,3.1891017
 777,1.0657489138,0.4848534839\C,4.4753994802,0.8174779366,0.8039899546
 \C,5.8438881273,0.5814443564,0.3400817178\N,5.083498979,-0.3556864736,
 1.2192256082\C,4.1148783172,-1.4372475581,1.0188959474\C,3.6671205697,
 -2.623063342,0.2016927046\C,3.1371692605,-1.2197963647,-0.0956036206\H
 ,0.6349644327,0.7422494593,0.9029171426\H,2.8921054676,2.0134054525,0.
 0488810085\H,6.7237533488,0.9903676133,0.8290951399\H,5.9632710092,0.3
 772990167,-0.7264031786\H,3.6076127483,-1.4868473901,1.9826893956\H,3.
 1096307593,-3.3752035078,0.7523861769\H,4.2673833403,-3.020116453,-0.6
 103456878\H,3.6631535801,-0.8725006917,-0.9861083597\\Version=ES64L-G1
 6RevA.03\State=1-A\HF=-380.8734128\RMSD=3.629e-09\RMSF=4.745e-05\ZeroP
 oint=0.137131\Thermal=0.1443031\Dipole=1.0947788,0.1753664,-0.3560088\
 DipoleDeriv=-1.109259,0.0958909,0.0227444,-0.2324824,-0.2292818,0.0869
 06,-0.0197683,0.0326772,-0.3986672,1.2979737,-0.2067464,-0.0552399,0.2
 607485,0.5129772,0.1822332,-0.1245646,0.2609574,0.1295097,-0.6327729,0
 .1080802,0.0030083,-0.1594193,-0.137767,-0.0884247,0.156333,-0.1884803
 ,-0.1535459,0.5037979,-0.2713817,0.0743643,-0.5967674,0.1995663,-0.257
 3042,-0.0807257,-0.2683306,0.0799976,0.3980259,0.0228836,0.0043833,0.2
 16655,0.2201021,-0.0259665,0.0542362,-0.004485,0.3074374,-0.5675876,0.
 1222186,-0.1118822,0.1361114,-0.8389133,0.2139899,-0.2538566,0.2745007
 ,-0.4008133,0.1129469,0.2846246,-0.0569351,0.2673502,0.4290782,-0.0112
 181,0.1677602,-0.0523876,0.1404308,0.0788337,0.0124861,0.0493733,0.043
 5651,0.0606903,-0.0385304,0.0165958,-0.0585757,0.211562,-0.3381325,0.0
 710492,-0.1403946,0.005011,-0.1501746,0.0108007,-0.2055769,-0.00491,-0
 .0920449,0.2840127,-0.002063,-0.0008798,0.1473352,-0.0267583,-0.097627
 9,0.0470604,-0.0902848,0.1822702,0.0099978,-0.0060683,-0.0269449,0.019
 3758,-0.0381784,0.0396245,0.0098227,0.0933377,0.1082583,-0.1113588,-0.
 0677307,-0.0082293,-0.0780344,0.0331029,-0.0155224,-0.021523,-0.008970
 9,0.0360258,-0.0096206,-0.0577246,-0.010124,0.010848,0.0625292,-0.0384
 478,0.0607745,0.0142228,-0.0994406,-0.0023468,-0.1026898,0.0620173,-0.
 0580565,0.0191097,-0.035258,0.0246018,-0.0207124,-0.044311,0.0472383,-
 0.0745129,0.0312374,-0.0190002,-0.082793,0.021422,0.0441389,0.0398075,
 0.0229711,0.0460207,0.049595,0.0656756,0.0119241,-0.0268846,-0.0147738
 ,0.0607695,-0.0517808,-0.007413,-0.0077694,0.0220892,0.0978258,0.02483
 59,-0.006405,0.0680977,0.0639222,0.0334149,-0.0222271\Polar=107.941692
 4,-0.325778,85.7845875,-1.1475523,0.0816719,57.216202\Quadrupole=-3.36
 58754,3.3677755,-0.0019001,-1.3240363,-3.0812047,-0.4239017\PG=C01 [X(
 C7H8N2)]\NImag=0\\0.73527455,-0.09067889,0.41197593,-0.12932920,0.1355
 5299,0.12910338,-0.59752693,0.02478781,0.08637518,0.88013701,-0.030705
 80,-0.10168389,-0.00854411,-0.03574322,0.38477906,0.06538906,-0.019169
 56,-0.06607769,-0.10515898,0.04331617,0.22183312,-0.04413239,-0.033839
 50,0.00038715,-0.08379732,-0.01681475,-0.01419717,0.63392667,-0.013315
 49,0.00629627,-0.00322933,-0.02731074,-0.13093183,0.00016767,-0.109121
 39,0.54536140,-0.00235354,-0.00501094,0.02581334,0.00142352,0.01284985
 ,-0.06731445,0.13518653,-0.14609061,0.18219480,0.00638110,-0.00046894,
 0.00143288,-0.04415519,-0.02216122,-0.00711978,-0.41399436,0.05870685,
 -0.08508890,0.84249169,-0.00770254,-0.00885038,-0.00108187,-0.01183501
 ,0.02844872,-0.00085755,0.05613361,-0.09520152,0.03304557,-0.15688096,
 0.37087401,0.00152842,0.00368317,0.00048901,0.00248937,-0.00715140,0.0
 0355715,-0.07229756,0.04025963,-0.06680760,0.05359499,-0.06671684,0.18
 586209,-0.00137875,-0.00008557,-0.00131703,-0.00346385,0.00107637,0.00
 543879,-0.00794749,-0.00733548,0.01020043,-0.25930976,0.06084830,0.044
 55232,0.60379875,0.00008971,-0.00009463,-0.00187857,-0.00490005,-0.001
 87445,0.00451989,0.00704853,-0.00603686,0.00393077,0.02285580,0.007496
 73,-0.02213321,0.11383576,0.24308330,-0.00208116,-0.00020542,-0.001959
 43,-0.00386592,0.00013785,0.00636491,-0.01230328,-0.00313137,0.0010536
 3,0.08449119,-0.02637409,-0.06549146,-0.01662893,0.09920216,0.56271305
 ,-0.00166735,-0.00036623,0.00043961,0.00864207,0.00030533,-0.00328429,
 -0.02113484,0.03746891,-0.01681811,-0.10288730,0.04520958,-0.03265066,
 -0.05126516,-0.05107201,0.05585512,0.34578193,0.00057378,0.00584019,0.
 00086344,0.00009981,-0.02167566,-0.00459948,0.02986305,-0.01426120,0.0
 1078600,0.11048623,-0.21003784,0.05913692,-0.10124059,-0.09964915,0.03
 854932,0.08376000,0.45511367,0.00136427,-0.00134302,0.00132392,0.00455
 934,-0.00060171,-0.00779385,-0.01090566,0.00945224,0.00155356,-0.03571
 441,0.03507641,-0.04542385,0.05336704,0.01550720,-0.08613012,-0.024581
 85,-0.07002227,0.19211262,0.00236866,0.00154071,-0.00049249,-0.0418990
 2,0.02203510,-0.02289344,-0.00742593,0.00179897,-0.00432083,0.01317894
 ,-0.02076821,0.00508293,-0.00711168,-0.00146333,-0.01001607,-0.1136891
 6,-0.07534020,0.01268535,0.40496010,0.00195334,-0.00473356,0.00090637,
 0.02473503,-0.00175024,0.01474517,-0.00512420,0.00318027,-0.00226004,-
 0.01646261,-0.06989308,0.00617726,0.01181736,-0.00675283,0.00985894,-0
 .05432935,-0.09868389,-0.01975900,0.09279628,0.39935481,0.00602726,-0.
 00124946,-0.00152423,-0.01157028,0.01204776,0.00205012,0.00040290,-0.0
 0427617,-0.00063624,-0.00682897,0.00577025,-0.00033791,0.00598026,0.01
 759222,-0.00097017,0.01594351,-0.03880071,-0.05534000,-0.05011232,0.06
 156490,0.55188834,-0.00249153,-0.00042814,-0.00049088,0.00884619,0.004
 77332,-0.00541295,0.00056096,0.00034305,-0.00068769,-0.00386932,-0.001
 24668,-0.00570264,0.00263065,0.00026159,-0.00017069,0.00463271,-0.0091
 1739,-0.00445290,-0.05024380,-0.04082445,0.00709387,0.35555871,0.00066
 981,0.00155825,0.00072273,-0.00680886,-0.00110841,-0.00307381,0.000574
 28,-0.00220045,0.00041420,-0.00053511,-0.00420824,-0.00142468,-0.00082
 603,-0.00074620,0.00140319,0.00744138,-0.00057083,0.00712710,-0.067934
 05,-0.13681803,-0.10774209,0.04727680,0.59036401,-0.00039082,0.0014073
 5,-0.00057644,-0.01482817,-0.00236354,-0.00880766,0.00247309,-0.003609
 08,0.00160628,0.00097219,0.00380411,-0.00296275,-0.00207493,0.00067820
 ,0.00167802,-0.01134151,0.00592669,-0.00407641,0.00716687,-0.06919338,
 -0.08793155,-0.22324500,0.02492288,0.48303552,-0.03039367,0.02642132,0
 .01405812,-0.09116542,0.05287031,0.03669669,0.00762542,-0.00023201,0.0
 0024351,-0.00862098,0.01192924,-0.00307093,-0.00134108,0.00250511,-0.0
 0511017,-0.03332266,-0.02321181,-0.02767771,-0.11174506,-0.00988666,-0
 .05440380,-0.05591425,0.06910353,0.02329584,0.42274739,0.01099613,0.00
 664830,0.00112923,0.03862889,-0.13667139,-0.02731002,0.00126976,-0.043
 04925,-0.01553299,-0.00379444,-0.00958615,-0.01044660,0.00244924,0.001
 86149,-0.00116176,-0.02349017,-0.00645156,-0.01659550,0.04800089,-0.04
 135886,0.05722445,0.04713420,-0.16037595,0.02186944,-0.08811617,0.4731
 3693,0.00507906,-0.00043064,-0.00492330,0.03990888,-0.03584446,-0.0762
 1271,0.00462592,-0.00719899,0.00181919,-0.00475601,0.00589373,-0.00080
 818,0.00050842,-0.00081686,-0.00008933,-0.01290788,-0.01683731,-0.0056
 7301,-0.05887160,0.00109377,-0.11852805,0.01829610,0.06035091,-0.04400
 415,-0.09725999,-0.08747992,0.46310283,-0.06582379,0.07033421,0.029814
 55,-0.03179108,0.04536880,0.02046996,0.00398567,0.00034066,-0.00183290
 ,-0.00118528,0.00160712,-0.00083371,-0.00002889,0.00004200,0.00019770,
 0.00065595,-0.00142087,0.00049735,0.00023326,0.00056676,-0.00021376,-0
 .00003285,-0.00020587,0.00013055,-0.00212343,-0.00253366,0.00263237,0.
 09773575,0.12638683,-0.31788797,-0.11988128,-0.01290458,-0.00853949,-0
 .00084070,-0.00120980,0.00308846,0.00383646,0.00017863,-0.00074767,-0.
 00105070,-0.00035494,-0.00024900,-0.00061255,0.00080259,0.00028486,0.0
 0183579,-0.00067591,0.00164920,-0.00033023,-0.00103828,0.00026636,-0.0
 0073603,0.00074441,0.00371844,-0.00473104,-0.11436136,0.31925416,0.051
 48200,-0.11142811,-0.08283026,-0.00110271,-0.00949292,-0.00367926,-0.0
 0381346,0.00184998,-0.00869174,0.00020395,-0.00132490,0.00133276,0.000
 36497,0.00051293,0.00086719,-0.00026259,0.00155896,-0.00141231,0.00244
 210,-0.00344592,-0.00098894,0.00112746,-0.00012792,0.00159317,0.001854
 52,-0.00286987,0.01513352,-0.05123215,0.12146574,0.07961137,-0.0001759
 7,0.00063709,-0.00256209,0.00744904,-0.01499559,0.00985833,-0.06995291
 ,0.06082052,-0.03620946,-0.00575620,0.02951990,-0.01229383,0.00206965,
 -0.00001890,0.00129702,-0.00432260,0.00071706,-0.00358749,-0.00210338,
 -0.00182273,-0.00050756,0.00019991,-0.00022045,-0.00131942,0.00021601,
 -0.00291404,0.00016389,-0.00036653,0.00068410,0.00110601,0.07278901,0.
 00040638,0.00136848,-0.00232255,0.00550507,-0.01443743,0.00736807,0.07
 095528,-0.26596360,0.10945337,-0.00126247,-0.00277102,-0.00067473,-0.0
 0089792,-0.00021812,-0.00146118,-0.00083156,0.00299070,0.00265926,-0.0
 0105940,0.00143706,0.00023641,0.00033224,-0.00037798,-0.00114485,-0.00
 144427,-0.00296091,0.00024009,-0.00029224,-0.00007263,0.00139121,-0.07
 222453,0.28156605,0.00359640,-0.00051779,0.00034432,-0.00744704,-0.005
 19229,-0.00019243,-0.03012003,0.11486404,-0.07340121,-0.00749119,0.005
 45806,-0.00756757,-0.00445144,-0.00112134,-0.00379264,0.00171751,0.001
 16682,0.01101457,-0.00000394,0.00129534,0.00039178,0.00066870,-0.00070
 817,0.00028103,-0.00074559,0.00084027,0.00037276,0.00053820,0.00029947
 ,-0.00012131,0.04366932,-0.11588376,0.07259023,-0.00078075,-0.00050907
 ,-0.00055659,-0.00054838,0.00088168,0.00114567,0.00026923,-0.00309742,
 0.00098419,-0.01602228,-0.00651766,-0.00662790,-0.22505920,-0.08546438
 ,-0.11187334,-0.00634207,-0.00393973,0.00528250,0.00068003,0.00267897,
 -0.00071562,0.00025324,-0.00012660,-0.00015439,-0.00057961,-0.00037919
 ,-0.00012553,0.00018909,-0.00007105,0.00015236,0.00002885,-0.00011764,
 -0.00058369,0.24275725,0.00025132,0.00061307,0.00025029,0.00112568,-0.
 00101394,-0.00079314,0.00129226,0.00357619,-0.00112460,0.01080738,0.00
 408793,0.01237010,-0.08046870,-0.07476593,-0.05687271,-0.02051629,-0.0
 1844378,-0.00321911,-0.00180999,0.00407910,0.00004082,-0.00008834,0.00
 019063,-0.00031435,-0.00080856,-0.00081531,0.00000605,-0.00010667,-0.0
 0005288,0.00008703,0.00000244,-0.00002541,0.00011840,0.09456151,0.0820
 8175,0.00032828,0.00001158,0.00014788,-0.00005170,0.00006358,0.0000161
 4,0.00011905,0.00013778,0.00018720,0.00654651,0.00353366,0.00217171,-0
 .11301928,-0.05752929,-0.11513458,0.01632772,0.01406855,0.00327635,0.0
 0099881,-0.00325290,-0.00033193,-0.00012251,-0.00003319,0.00016466,0.0
 0118973,0.00084031,0.00010578,-0.00002566,0.00004692,-0.00012739,0.000
 07153,0.00001877,0.00030492,0.10989389,0.05223295,0.11876028,0.0001762
 8,-0.00018340,0.00018844,0.00051077,0.00028750,-0.00072488,0.00234635,
 0.00055638,-0.00017499,-0.00610727,0.00022259,0.02617372,-0.05101370,-
 0.00128059,0.02089070,-0.00609589,0.00414007,0.00783059,0.00116180,-0.
 00110939,-0.00068771,0.00014080,-0.00011610,-0.00005295,-0.00009641,-0
 .00019845,0.00048328,0.00003734,0.00005698,-0.00007535,-0.00048631,0.0
 0036039,0.00052704,0.00515001,-0.00405684,-0.02258102,0.05438760,0.000
 04505,0.00006039,-0.00016909,-0.00037559,-0.00042741,0.00067462,-0.000
 76182,0.00021815,-0.00140807,-0.00069908,-0.00630899,-0.00903341,0.001
 50445,-0.06119698,-0.05944994,-0.00433520,0.01631993,0.02204631,0.0011
 7980,0.00113920,0.00210848,0.00069230,-0.00023499,0.00004990,0.0000550
 9,0.00092780,-0.00018397,-0.00001424,0.00000106,0.00005260,0.00002913,
 -0.00020017,-0.00058537,0.00217380,0.00050705,-0.01037200,0.00146097,0
 .05006181,0.00014460,-0.00002077,0.00013955,-0.00020812,-0.00001225,-0
 .00010058,-0.00018355,-0.00039803,0.00112200,0.00129598,0.00423682,-0.
 00529529,0.01889985,-0.05513965,-0.30151629,0.00722518,-0.00312030,-0.
 01148409,-0.00156166,-0.00103155,0.00110103,0.00035558,-0.00028799,0.0
 0002750,0.00097930,0.00097773,0.00050584,-0.00001713,0.00003122,-0.000
 11480,0.00017434,0.00000763,0.00015552,0.00320348,-0.00291576,-0.00958
 378,-0.03078687,0.05725295,0.32475635,0.00046800,-0.00002758,-0.000415
 12,0.00179105,-0.00059272,-0.00128992,0.00080089,0.00036796,0.00080582
 ,0.00024861,0.00061012,0.00041498,-0.00139865,-0.00166234,-0.00141379,
 -0.02457208,-0.01454555,0.02116570,-0.09992045,-0.00381531,0.11675780,
 -0.00178247,-0.00078091,0.00507211,0.00862278,0.00176223,-0.01978432,-
 0.00002946,-0.00001229,0.00000260,0.00010766,0.00003573,-0.00008384,0.
 00002824,-0.00061870,0.00040503,0.00015480,-0.00047865,0.00007270,0.11
 703899,-0.00062275,0.00055416,0.00003754,-0.00095718,0.00016710,0.0003
 9949,0.00033024,0.00010405,-0.00042379,-0.00150065,0.00090416,-0.00102
 537,-0.00072492,-0.00064887,0.00035927,-0.02204413,-0.01235345,0.01577
 947,-0.00327943,-0.03457821,0.00580695,0.01138447,-0.00667884,-0.03110
 221,-0.00484670,-0.00102148,0.01565257,-0.00004114,-0.00021547,0.00043
 270,0.00012799,-0.00003356,-0.00012144,0.00009612,-0.00013406,0.000117
 27,-0.00005742,-0.00078552,0.00029730,0.02108790,0.05631179,-0.0006973
 5,-0.00011972,0.00073010,0.00280763,-0.00147186,-0.00052379,-0.0001022
 8,0.00106524,0.00036294,-0.00057412,-0.00009957,0.00019849,-0.00123471
 ,-0.00255054,0.00227074,0.00016176,0.00199437,0.00373234,0.11121710,0.
 00899952,-0.25659359,0.00277190,-0.00055560,-0.01043435,0.00565202,-0.
 00051901,-0.01836636,-0.00012820,0.00024205,-0.00009681,0.00002647,0.0
 0004727,-0.00013627,-0.00003871,0.00022649,-0.00007079,-0.00013796,-0.
 00040149,0.00015294,-0.11559862,-0.00503366,0.28017329,0.00052579,-0.0
 0006490,0.00016536,0.00072859,-0.00150358,-0.00024740,0.00098419,0.000
 55888,0.00020305,-0.00114395,0.00070264,0.00026429,-0.00010275,-0.0001
 0924,0.00003949,0.00171531,-0.00273339,0.00024381,-0.00862394,-0.00538
 830,0.00854693,-0.12345395,-0.10060956,0.08267702,0.01222831,0.0055994
 5,-0.01131392,-0.00008314,0.00006789,-0.00021036,0.00000760,0.00009859
 ,0.00014956,0.00002204,-0.00007020,0.00002051,-0.00017892,0.00001545,-
 0.00006587,0.00013533,0.00174944,-0.00014759,0.12236256,0.00085299,-0.
 00032706,-0.00048295,-0.00032426,0.00188702,0.00099550,-0.00049732,-0.
 00047056,-0.00041071,0.00010710,-0.00202326,-0.00018028,0.00046668,0.0
 0000095,-0.00012245,0.00225677,0.00077737,0.00110737,-0.00721604,-0.01
 233754,0.00401139,-0.09887465,-0.17844105,0.10092337,-0.00991008,-0.00
 801922,0.00830879,0.00009605,-0.00006020,-0.00014845,0.00003389,-0.000
 04298,-0.00006796,-0.00004200,0.00007626,-0.00001730,0.00004991,-0.000
 01871,-0.00001989,-0.00115232,0.00065098,-0.00051706,0.10879238,0.1915
 5697,0.00014896,0.00025992,0.00024921,0.00017614,-0.00163177,0.0007106
 9,0.00081470,0.00032424,0.00022803,-0.00137363,-0.00010889,0.00015271,
 0.00033839,-0.00027150,-0.00015719,0.00232642,-0.00305135,0.00101241,-
 0.01260364,-0.01334533,0.00672957,0.08342842,0.10155984,-0.12310282,0.
 00658234,0.00139360,-0.00666773,-0.00011082,0.00019400,-0.00036541,0.0
 0004385,0.00006351,0.00007026,0.00005032,-0.00001307,0.00002006,-0.000
 17550,-0.00002027,0.00002119,-0.00225883,0.00088501,0.00057165,-0.0863
 1872,-0.10488012,0.12755788,-0.00016970,-0.00033178,-0.00006712,0.0022
 7884,0.00175098,-0.00002118,-0.00110932,0.00065526,0.00019490,-0.00000
 388,0.00009396,0.00002796,-0.00030975,-0.00004027,0.00037024,0.0012582
 0,0.00144554,0.00007988,0.01078832,-0.00461381,-0.01523384,-0.13217095
 ,0.05289858,0.12917430,-0.01072827,0.00592062,0.01262105,-0.00003546,0
 .00009662,0.00006935,0.00022407,0.00019652,-0.00006597,-0.00004174,0.0
 0009575,-0.00001458,0.00000974,-0.00023546,0.00010779,0.00113417,-0.00
 337010,-0.00132145,-0.00628041,0.00671322,0.00939527,0.13469454,0.0008
 1528,0.00027330,-0.00025911,-0.00457339,0.00030373,-0.00129892,0.00044
 117,-0.00088390,0.00038903,0.00027417,-0.00005536,0.00014111,-0.000278
 17,0.00010574,-0.00024018,-0.00109083,0.00066270,0.00002079,0.01083201
 ,-0.00417070,-0.00754686,0.04988693,-0.08122194,-0.07696722,0.01195801
 ,-0.01305275,-0.01270254,-0.00000139,-0.00003724,0.00021633,-0.0002653
 9,-0.00021836,0.00000979,-0.00008466,-0.00010190,0.00013635,-0.0000565
 3,-0.00007646,0.00010328,0.00084298,-0.00246619,-0.00005693,-0.0111026
 7,0.01020325,0.01597458,-0.05954350,0.09055401,-0.00025250,-0.00010181
 ,0.00012834,0.00159109,0.00148343,0.00066935,-0.00068876,0.00064238,0.
 00020970,-0.00009599,0.00034383,-0.00017195,-0.00039877,-0.00004537,-0
 .00013398,-0.00011594,0.00040438,0.00151598,0.01089850,-0.00229199,-0.
 01451832,0.12862037,-0.07899985,-0.20809699,-0.00961590,0.00858233,0.0
 0896966,-0.00009588,0.00007582,-0.00005982,0.00021834,0.00016392,-0.00
 016257,-0.00002042,-0.00007309,0.00004154,-0.00001175,-0.00020910,0.00
 013301,0.00000591,-0.00422541,-0.00008885,0.00595373,-0.00661648,-0.00
 808621,-0.13430154,0.08157943,0.21904867,-0.00065355,0.00326286,0.0023
 6923,-0.01603638,-0.00683253,0.02135150,-0.00100482,-0.00120491,-0.001
 75552,0.00075541,-0.00192600,-0.00065174,0.00123167,-0.00062739,0.0003
 2191,0.00261291,0.00046398,-0.00015580,0.00939132,0.00882906,-0.020478
 65,-0.00286405,0.00019916,0.00244522,-0.10540906,-0.04033528,0.1207002
 7,-0.00133714,0.00161017,-0.00210869,0.00007210,0.00023983,0.00012601,
 -0.00000392,0.00040796,-0.00008630,-0.00009699,-0.00025601,0.00036439,
 -0.00282742,0.00266827,-0.00265592,0.00115733,-0.00135231,-0.00046367,
 0.00046159,0.00194596,-0.00169048,0.11455100,-0.00001515,-0.00161082,-
 0.00161372,0.01085062,0.00452852,-0.01424341,-0.00053940,-0.00282560,-
 0.00244350,0.00034932,-0.00212802,-0.00193096,0.00021415,-0.00031517,0
 .00012093,0.00083120,0.00013795,0.00092869,0.00136281,0.00023730,-0.00
 645811,-0.01046696,-0.01939632,0.02584872,-0.03713078,-0.06293011,0.07
 467982,0.00062183,-0.00039999,0.00127061,-0.00011049,-0.00004010,0.000
 14594,-0.00004268,0.00014123,-0.00000304,-0.00007606,0.00001383,0.0000
 3925,-0.00102055,0.00022341,-0.00124950,0.00399710,-0.00341221,0.00266
 759,-0.00173215,0.00018208,-0.00071240,0.03290717,0.08759403,0.0000162
 6,-0.00131776,-0.00057772,0.00490177,0.00240766,-0.00449908,0.00060243
 ,-0.00082962,0.00070058,0.00050532,-0.00059871,0.00110265,-0.00052538,
 -0.00045702,0.00042765,0.00196599,0.00197598,0.00179187,0.01038434,0.0
 0993886,-0.02445991,-0.00207713,-0.00354755,0.00160694,0.10733203,0.06
 905830,-0.21473677,0.00020953,0.00015507,-0.00004993,-0.00014926,-0.00
 016243,-0.00015139,-0.00001620,-0.00000631,0.00005194,-0.00068479,-0.0
 0035217,-0.00002010,-0.00385821,0.00216433,-0.00188170,0.00004011,-0.0
 0188278,0.00105569,-0.00101508,0.00050107,0.00060244,-0.11763174,-0.07
 704691,0.23903682\\-0.00000972,0.00001188,-0.00001331,0.00001768,0.000
 00893,0.00005019,-0.00001308,-0.00004393,-0.00002264,-0.00001394,0.000
 06993,0.00003092,0.00006411,0.00009365,-0.00012111,0.00006274,-0.00009
 429,0.00012009,-0.00010565,-0.00005789,-0.00008436,-0.00002596,-0.0000
 2237,0.00009580,0.00006449,-0.00002695,-0.00007926,-0.00001795,0.00000
 492,0.00000769,0.00000126,0.00000358,-0.00000078,-0.00001697,-0.000009
 98,0.00001936,-0.00001413,-0.00001057,0.00000958,0.00000271,0.00003103
 ,0.00000192,0.00000784,-0.00000554,-0.00000847,0.00001411,0.00003898,-
 0.00000879,-0.00001754,0.00000861,0.00000317\\\@


 SUPPORT THE RIGHT TO ARM BEARS!
 (ADD A CLAWS TO THE BILL OF RIGHTS)
 Job cpu time:       0 days  1 hours 39 minutes 30.2 seconds.
 Elapsed time:       0 days  0 hours 24 minutes 54.4 seconds.
 File lengths (MBytes):  RWF=    115 Int=      0 D2E=      0 Chk=      8 Scr=      1
 Normal termination of Gaussian 16 at Sun Jul  3 20:35:13 2022.
### All Done ###
