### Starting Gaussian ###
 Entering Gaussian System, Link 0=g16
 Initial command:
 /cluster/software/gaussian/gaussian-16-A.03/avx2/g16/l1.exe "/local/scratch/yxie/Gau-12495.inp" -scrdir="/local/scratch/yxie/"
 Entering Link 1 = /cluster/software/gaussian/gaussian-16-A.03/avx2/g16/l1.exe PID=     12499.
  
 Copyright (c) 1988,1990,1992,1993,1995,1998,2003,2009,2016,
            Gaussian, Inc.  All Rights Reserved.
  
 This is part of the Gaussian(R) 16 program.  It is based on
 the Gaussian(R) 09 system (copyright 2009, Gaussian, Inc.),
 the Gaussian(R) 03 system (copyright 2003, Gaussian, Inc.),
 the Gaussian(R) 98 system (copyright 1998, Gaussian, Inc.),
 the Gaussian(R) 94 system (copyright 1995, Gaussian, Inc.),
 the Gaussian 92(TM) system (copyright 1992, Gaussian, Inc.),
 the Gaussian 90(TM) system (copyright 1990, Gaussian, Inc.),
 the Gaussian 88(TM) system (copyright 1988, Gaussian, Inc.),
 the Gaussian 86(TM) system (copyright 1986, Carnegie Mellon
 University), and the Gaussian 82(TM) system (copyright 1983,
 Carnegie Mellon University). Gaussian is a federally registered
 trademark of Gaussian, Inc.
  
 This software contains proprietary and confidential information,
 including trade secrets, belonging to Gaussian, Inc.
  
 This software is provided under written license and may be
 used, copied, transmitted, or stored only in accord with that
 written license.
  
 The following legend is applicable only to US Government
 contracts under FAR:
  
                    RESTRICTED RIGHTS LEGEND
  
 Use, reproduction and disclosure by the US Government is
 subject to restrictions as set forth in subparagraphs (a)
 and (c) of the Commercial Computer Software - Restricted
 Rights clause in FAR 52.227-19.
  
 Gaussian, Inc.
 340 Quinnipiac St., Bldg. 40, Wallingford CT 06492
  
  
 ---------------------------------------------------------------
 Warning -- This program may not be used in any manner that
 competes with the business of Gaussian, Inc. or will provide
 assistance to any competitor of Gaussian, Inc.  The licensee
 of this program is prohibited from giving any competitor of
 Gaussian, Inc. access to this program.  By using this program,
 the user acknowledges that Gaussian, Inc. is engaged in the
 business of creating and licensing software in the field of
 computational chemistry and represents and warrants to the
 licensee that it is not a competitor of Gaussian, Inc. and that
 it will not use this program in any manner prohibited above.
 ---------------------------------------------------------------
  

 Cite this work as:
 Gaussian 16, Revision A.03,
 M. J. Frisch, G. W. Trucks, H. B. Schlegel, G. E. Scuseria, 
 M. A. Robb, J. R. Cheeseman, G. Scalmani, V. Barone, 
 G. A. Petersson, H. Nakatsuji, X. Li, M. Caricato, A. V. Marenich, 
 J. Bloino, B. G. Janesko, R. Gomperts, B. Mennucci, H. P. Hratchian, 
 J. V. Ortiz, A. F. Izmaylov, J. L. Sonnenberg, D. Williams-Young, 
 F. Ding, F. Lipparini, F. Egidi, J. Goings, B. Peng, A. Petrone, 
 T. Henderson, D. Ranasinghe, V. G. Zakrzewski, J. Gao, N. Rega, 
 G. Zheng, W. Liang, M. Hada, M. Ehara, K. Toyota, R. Fukuda, 
 J. Hasegawa, M. Ishida, T. Nakajima, Y. Honda, O. Kitao, H. Nakai, 
 T. Vreven, K. Throssell, J. A. Montgomery, Jr., J. E. Peralta, 
 F. Ogliaro, M. J. Bearpark, J. J. Heyd, E. N. Brothers, K. N. Kudin, 
 V. N. Staroverov, T. A. Keith, R. Kobayashi, J. Normand, 
 K. Raghavachari, A. P. Rendell, J. C. Burant, S. S. Iyengar, 
 J. Tomasi, M. Cossi, J. M. Millam, M. Klene, C. Adamo, R. Cammi, 
 J. W. Ochterski, R. L. Martin, K. Morokuma, O. Farkas, 
 J. B. Foresman, and D. J. Fox, Gaussian, Inc., Wallingford CT, 2016.
 
 ******************************************
 Gaussian 16:  ES64L-G16RevA.03 25-Dec-2016
                 4-Aug-2022 
 ******************************************
 %chk=Ndc1ccnncn1.chk
 %NProcShared=20
 Will use up to   20 processors via shared memory.
 -----------------------------
 # opt freq b3lyp/6-31g(2df,p)
 -----------------------------
 1/18=20,19=15,26=3,38=1/1,3;
 2/9=110,12=2,17=6,18=5,40=1/2;
 3/5=1,6=6,7=104,11=2,25=1,30=1,71=1,74=-5/1,2,3;
 4//1;
 5/5=2,38=5/2;
 6/7=2,8=2,9=2,10=2,28=1/1;
 7//1,2,3,16;
 1/18=20,19=15,26=3/3(2);
 2/9=110/2;
 99//99;
 2/9=110/2;
 3/5=1,6=6,7=104,11=2,25=1,30=1,71=1,74=-5/1,2,3;
 4/5=5,16=3,69=1/1;
 5/5=2,38=5/2;
 7//1,2,3,16;
 1/18=20,19=15,26=3/3(-5);
 2/9=110/2;
 6/7=2,8=2,9=2,10=2,19=2,28=1/1;
 99/9=1/99;
 -------------------
 Title Card Required
 -------------------
 Symbolic Z-matrix:
 Charge =  0 Multiplicity = 1
 N                     1.42798   0.08533  -0.13409 
 C                     2.79173   0.14398  -0.21144 
 C                     2.95719   1.01763  -1.32985 
 C                     4.27053   1.18916  -1.54969 
 N                     5.05321   1.91085  -2.47474 
 N                     6.65811   1.6067   -2.08489 
 C                     5.85945   1.00642  -1.31547 
 N                     4.34134   0.22561  -0.31399 
 H                     0.67454   0.55707  -0.73952 
 H                     2.24101   1.47211  -1.91238 
 H                     5.51088   0.30724  -0.41928 
 H                     6.47346   1.92159  -2.4885 
 

 GradGradGradGradGradGradGradGradGradGradGradGradGradGradGradGradGradGrad
 Berny optimization.
 Initialization pass.
                           ----------------------------
                           !    Initial Parameters    !
                           ! (Angstroms and Degrees)  !
 --------------------------                            --------------------------
 ! Name  Definition              Value          Derivative Info.                !
 --------------------------------------------------------------------------------
 ! R1    R(1,2)                  1.3672         estimate D2E/DX2                !
 ! R2    R(1,9)                  1.0755         estimate D2E/DX2                !
 ! R3    R(2,3)                  1.4288         estimate D2E/DX2                !
 ! R4    R(2,8)                  1.5551         estimate D2E/DX2                !
 ! R5    R(3,4)                  1.3426         estimate D2E/DX2                !
 ! R6    R(3,10)                 1.029          estimate D2E/DX2                !
 ! R7    R(4,5)                  1.4104         estimate D2E/DX2                !
 ! R8    R(4,7)                  1.6165         estimate D2E/DX2                !
 ! R9    R(4,8)                  1.5686         estimate D2E/DX2                !
 ! R10   R(5,6)                  1.6793         estimate D2E/DX2                !
 ! R11   R(5,7)                  1.6769         estimate D2E/DX2                !
 ! R12   R(6,7)                  1.261          estimate D2E/DX2                !
 ! R13   R(6,12)                 0.5442         estimate D2E/DX2                !
 ! R14   R(7,11)                 1.1889         estimate D2E/DX2                !
 ! R15   R(8,11)                 1.1771         estimate D2E/DX2                !
 ! A1    A(2,1,9)              130.3986         estimate D2E/DX2                !
 ! A2    A(1,2,3)              100.721          estimate D2E/DX2                !
 ! A3    A(3,2,8)               78.5155         estimate D2E/DX2                !
 ! A4    A(2,3,4)              108.6367         estimate D2E/DX2                !
 ! A5    A(2,3,10)             129.2425         estimate D2E/DX2                !
 ! A6    A(4,3,10)             122.1208         estimate D2E/DX2                !
 ! A7    A(3,4,5)              135.6938         estimate D2E/DX2                !
 ! A8    A(3,4,7)              157.4232         estimate D2E/DX2                !
 ! A9    A(3,4,8)               80.6007         estimate D2E/DX2                !
 ! A10   A(5,4,8)              143.7056         estimate D2E/DX2                !
 ! A11   A(7,4,8)               76.8225         estimate D2E/DX2                !
 ! A12   A(4,5,6)              106.5833         estimate D2E/DX2                !
 ! A13   A(5,6,12)              53.0417         estimate D2E/DX2                !
 ! A14   A(7,6,12)             120.8685         estimate D2E/DX2                !
 ! A15   A(4,7,6)              118.7068         estimate D2E/DX2                !
 ! A16   A(4,7,11)              83.5414         estimate D2E/DX2                !
 ! A17   A(5,7,11)             134.2138         estimate D2E/DX2                !
 ! A18   A(6,7,11)             157.7518         estimate D2E/DX2                !
 ! A19   A(2,8,4)               92.2472         estimate D2E/DX2                !
 ! A20   A(4,8,11)              86.0886         estimate D2E/DX2                !
 ! A21   A(7,11,8)             113.5474         estimate D2E/DX2                !
 ! A22   L(1,2,8,3,-1)         179.2364         estimate D2E/DX2                !
 ! A23   L(2,8,11,4,-1)        178.3358         estimate D2E/DX2                !
 ! A24   L(1,2,8,3,-2)         179.8953         estimate D2E/DX2                !
 ! A25   L(2,8,11,4,-2)        180.0665         estimate D2E/DX2                !
 ! D1    D(9,1,2,3)              0.1267         estimate D2E/DX2                !
 ! D2    D(9,1,8,4)              0.0192         estimate D2E/DX2                !
 ! D3    D(9,1,11,7)             0.0404         estimate D2E/DX2                !
 ! D4    D(1,2,3,4)            179.9475         estimate D2E/DX2                !
 ! D5    D(1,2,3,10)            -0.0916         estimate D2E/DX2                !
 ! D6    D(8,2,3,4)              0.0522         estimate D2E/DX2                !
 ! D7    D(8,2,3,10)          -179.9869         estimate D2E/DX2                !
 ! D8    D(3,2,8,4)             -0.0423         estimate D2E/DX2                !
 ! D9    D(3,2,11,7)            -0.0393         estimate D2E/DX2                !
 ! D10   D(2,3,4,5)            179.9626         estimate D2E/DX2                !
 ! D11   D(2,3,4,7)             -0.0345         estimate D2E/DX2                !
 ! D12   D(2,3,4,8)             -0.0514         estimate D2E/DX2                !
 ! D13   D(10,3,4,5)            -0.0016         estimate D2E/DX2                !
 ! D14   D(10,3,4,7)          -179.9987         estimate D2E/DX2                !
 ! D15   D(10,3,4,8)           179.9844         estimate D2E/DX2                !
 ! D16   D(3,4,5,6)           -179.999          estimate D2E/DX2                !
 ! D17   D(8,4,5,6)              0.0243         estimate D2E/DX2                !
 ! D18   D(3,4,7,6)            179.9981         estimate D2E/DX2                !
 ! D19   D(3,4,7,11)            -0.0021         estimate D2E/DX2                !
 ! D20   D(8,4,7,6)           -179.9848         estimate D2E/DX2                !
 ! D21   D(8,4,7,11)             0.015          estimate D2E/DX2                !
 ! D22   D(3,4,8,2)              0.0448         estimate D2E/DX2                !
 ! D23   D(3,4,8,11)           179.9782         estimate D2E/DX2                !
 ! D24   D(5,4,8,2)           -179.9717         estimate D2E/DX2                !
 ! D25   D(5,4,8,11)            -0.0383         estimate D2E/DX2                !
 ! D26   D(7,4,8,2)           -179.9486         estimate D2E/DX2                !
 ! D27   D(7,4,8,11)            -0.0151         estimate D2E/DX2                !
 ! D28   D(4,5,6,12)          -179.9992         estimate D2E/DX2                !
 ! D29   D(12,6,7,4)             0.0002         estimate D2E/DX2                !
 ! D30   D(12,6,7,11)         -179.9993         estimate D2E/DX2                !
 ! D31   D(4,7,11,8)            -0.0213         estimate D2E/DX2                !
 ! D32   D(5,7,11,8)            -0.0214         estimate D2E/DX2                !
 ! D33   D(6,7,11,8)           179.9783         estimate D2E/DX2                !
 ! D34   D(4,8,11,7)             0.0218         estimate D2E/DX2                !
 --------------------------------------------------------------------------------
 Trust Radius=3.00D-01 FncErr=1.00D-07 GrdErr=1.00D-06 EigMax=2.50D+02 EigMin=1.00D-04
 Number of steps in this run=     84 maximum allowed number of steps=    100.
 GradGradGradGradGradGradGradGradGradGradGradGradGradGradGradGradGradGrad

                          Input orientation:                          
 ---------------------------------------------------------------------
 Center     Atomic      Atomic             Coordinates (Angstroms)
 Number     Number       Type             X           Y           Z
 ---------------------------------------------------------------------
      1          7           0        1.427980    0.085330   -0.134090
      2          6           0        2.791730    0.143980   -0.211440
      3          6           0        2.957190    1.017630   -1.329850
      4          6           0        4.270530    1.189160   -1.549690
      5          7           0        5.053210    1.910850   -2.474740
      6          7           0        6.658110    1.606700   -2.084890
      7          6           0        5.859450    1.006420   -1.315470
      8          7           0        4.341340    0.225610   -0.313990
      9          1           0        0.674540    0.557070   -0.739520
     10          1           0        2.241010    1.472110   -1.912380
     11          1           0        5.510880    0.307240   -0.419280
     12          1           0        6.473460    1.921590   -2.488500
 ---------------------------------------------------------------------
                    Distance matrix (angstroms):
                    1          2          3          4          5
     1  N    0.000000
     2  C    1.367200   0.000000
     3  C    2.153488   1.428804   0.000000
     4  C    3.361912   2.251702   1.342615   0.000000
     5  N    4.685452   3.654948   2.549885   1.410369   0.000000
     6  N    5.785711   4.538530   3.822813   2.482200   1.679343
     7  C    4.677819   3.372475   2.902317   1.616453   1.676879
     8  N    2.922278   1.555143   1.890804   1.568565   2.831189
     9  H    1.075526   2.220812   2.402311   3.739927   4.900659
    10  H    2.397184   2.227200   1.028984   2.080999   2.901243
    11  H    4.098860   2.731964   2.802699   1.895805   2.646874
    12  H    5.862761   4.679747   3.811006   2.504140   1.420357
                    6          7          8          9         10
     6  N    0.000000
     7  C    1.261032   0.000000
     8  N    3.226596   1.979213   0.000000
     9  H    6.222126   5.236117   3.706260   0.000000
    10  H    4.422516   3.696793   2.918904   2.160261   0.000000
    11  H    2.403953   1.188911   1.177104   4.853365   3.778666
    12  H    0.544199   1.609517   3.485797   6.208729   4.295065
                   11         12
    11  H    0.000000
    12  H    2.795417   0.000000
 Stoichiometry    C4H4N4
 Framework group  C1[X(C4H4N4)]
 Deg. of freedom    30
 Full point group                 C1      NOp   1
 Largest Abelian subgroup         C1      NOp   1
 Largest concise Abelian subgroup C1      NOp   1
                         Standard orientation:                         
 ---------------------------------------------------------------------
 Center     Atomic      Atomic             Coordinates (Angstroms)
 Number     Number       Type             X           Y           Z
 ---------------------------------------------------------------------
      1          7           0        3.039529    0.042297   -0.000428
      2          6           0        1.781530   -0.493122    0.000908
      3          6           0        0.987187    0.694524    0.000020
      4          6           0       -0.308829    0.343874    0.000002
      5          7           0       -1.540371    1.031222   -0.000010
      6          7           0       -2.743290   -0.140606   -0.000003
      7          6           0       -1.587524   -0.644994    0.000012
      8          7           0        0.342610   -1.083019   -0.000375
      9          1           0        3.360143    1.068923    0.000034
     10          1           0        1.287713    1.678643    0.000004
     11          1           0       -0.759031   -1.497701    0.000028
     12          1           0       -2.812359    0.399192   -0.000014
 ---------------------------------------------------------------------
 Rotational constants (GHZ):           9.5318774           1.3567776           1.1877168
 Standard basis: 6-31G(2df,p) (6D, 7F)
 There are   268 symmetry adapted cartesian basis functions of A   symmetry.
 There are   244 symmetry adapted basis functions of A   symmetry.
   244 basis functions,   380 primitive gaussians,   268 cartesian basis functions
    28 alpha electrons       28 beta electrons
       nuclear repulsion energy       334.1984382141 Hartrees.
 NAtoms=   12 NActive=   12 NUniq=   12 SFac= 1.00D+00 NAtFMM=   60 NAOKFM=F Big=F
 Integral buffers will be    131072 words long.
 Raffenetti 2 integral format.
 Two-electron integral symmetry is turned on.
 One-electron integrals computed using PRISM.
 PrsmSu:  requested number of processors reduced to:  13 ShMem   1 Linda.
 NBasis=   244 RedAO= T EigKep=  1.65D-04  NBF=   244
 NBsUse=   244 1.00D-06 EigRej= -1.00D+00 NBFU=   244
 ExpMin= 1.61D-01 ExpMax= 4.17D+03 ExpMxC= 6.27D+02 IAcc=3 IRadAn=         5 AccDes= 0.00D+00
 Harris functional with IExCor=  402 and IRadAn=       5 diagonalized for initial guess.
 HarFok:  IExCor=  402 AccDes= 0.00D+00 IRadAn=         5 IDoV= 1 UseB2=F ITyADJ=14
 ICtDFT=  3500011 ScaDFX=  1.000000  1.000000  1.000000  1.000000
 FoFCou: FMM=F IPFlag=           0 FMFlag=      100000 FMFlg1=           0
         NFxFlg=           0 DoJE=T BraDBF=F KetDBF=T FulRan=T
         wScrn=  0.000000 ICntrl=       500 IOpCl=  0 I1Cent=   200000004 NGrid=           0
         NMat0=    1 NMatS0=      1 NMatT0=    0 NMatD0=    1 NMtDS0=    0 NMtDT0=    0
 Petite list used in FoFCou.
 Requested convergence on RMS density matrix=1.00D-08 within 128 cycles.
 Requested convergence on MAX density matrix=1.00D-06.
 Requested convergence on             energy=1.00D-06.
 No special actions if energy rises.
 Integral accuracy reduced to 1.0D-05 until final iterations.
 EnCoef did     3 forward-backward iterations
 EnCoef did     3 forward-backward iterations
 Problem detected with inexpensive integrals.
 Switching to full accuracy and repeating last cycle.
 EnCoef did   100 forward-backward iterations
 EnCoef did     2 forward-backward iterations
 EnCoef did     1 forward-backward iterations
 EnCoef did     5 forward-backward iterations
 Restarting incremental Fock formation.
 SCF Done:  E(RB3LYP) =  -372.524510526     A.U. after   28 cycles
            NFock= 28  Conv=0.40D-09     -V/T= 1.9984

 **********************************************************************

            Population analysis using the SCF density.

 **********************************************************************

 Orbital symmetries:
       Occupied  (A) (A) (A) (A) (A) (A) (A) (A) (A) (A) (A) (A)
                 (A) (A) (A) (A) (A) (A) (A) (A) (A) (A) (A) (A)
                 (A) (A) (A) (A)
       Virtual   (A) (A) (A) (A) (A) (A) (A) (A) (A) (A) (A) (A)
                 (A) (A) (A) (A) (A) (A) (A) (A) (A) (A) (A) (A)
                 (A) (A) (A) (A) (A) (A) (A) (A) (A) (A) (A) (A)
                 (A) (A) (A) (A) (A) (A) (A) (A) (A) (A) (A) (A)
                 (A) (A) (A) (A) (A) (A) (A) (A) (A) (A) (A) (A)
                 (A) (A) (A) (A) (A) (A) (A) (A) (A) (A) (A) (A)
                 (A) (A) (A) (A) (A) (A) (A) (A) (A) (A) (A) (A)
                 (A) (A) (A) (A) (A) (A) (A) (A) (A) (A) (A) (A)
                 (A) (A) (A) (A) (A) (A) (A) (A) (A) (A) (A) (A)
                 (A) (A) (A) (A) (A) (A) (A) (A) (A) (A) (A) (A)
                 (A) (A) (A) (A) (A) (A) (A) (A) (A) (A) (A) (A)
                 (A) (A) (A) (A) (A) (A) (A) (A) (A) (A) (A) (A)
                 (A) (A) (A) (A) (A) (A) (A) (A) (A) (A) (A) (A)
                 (A) (A) (A) (A) (A) (A) (A) (A) (A) (A) (A) (A)
                 (A) (A) (A) (A) (A) (A) (A) (A) (A) (A) (A) (A)
                 (A) (A) (A) (A) (A) (A) (A) (A) (A) (A) (A) (A)
                 (A) (A) (A) (A) (A) (A) (A) (A) (A) (A) (A) (A)
                 (A) (A) (A) (A) (A) (A) (A) (A) (A) (A) (A) (A)
 The electronic state is 1-A.
 Alpha  occ. eigenvalues --  -14.43284 -14.43007 -14.39398 -14.32778 -10.36190
 Alpha  occ. eigenvalues --  -10.28417 -10.27341 -10.17091  -1.18195  -0.99682
 Alpha  occ. eigenvalues --   -0.90497  -0.85176  -0.79648  -0.72986  -0.64979
 Alpha  occ. eigenvalues --   -0.54821  -0.53319  -0.51222  -0.49935  -0.45902
 Alpha  occ. eigenvalues --   -0.44134  -0.40295  -0.34849  -0.32109  -0.31780
 Alpha  occ. eigenvalues --   -0.27083  -0.20734  -0.18966
 Alpha virt. eigenvalues --   -0.13752  -0.11542  -0.04491  -0.01592  -0.01479
 Alpha virt. eigenvalues --    0.08931   0.10336   0.12281   0.17975   0.18215
 Alpha virt. eigenvalues --    0.21207   0.24063   0.29764   0.33097   0.37713
 Alpha virt. eigenvalues --    0.40082   0.42465   0.44534   0.44721   0.45712
 Alpha virt. eigenvalues --    0.47790   0.49521   0.51336   0.52839   0.55311
 Alpha virt. eigenvalues --    0.57087   0.60047   0.60990   0.61255   0.62522
 Alpha virt. eigenvalues --    0.63120   0.66110   0.69653   0.69894   0.70198
 Alpha virt. eigenvalues --    0.73256   0.74037   0.76414   0.77020   0.77400
 Alpha virt. eigenvalues --    0.79168   0.80466   0.80746   0.83066   0.85516
 Alpha virt. eigenvalues --    0.89561   0.93350   0.94839   0.97136   0.97403
 Alpha virt. eigenvalues --    0.98569   1.02643   1.03924   1.08539   1.11660
 Alpha virt. eigenvalues --    1.15770   1.16176   1.22391   1.22414   1.24286
 Alpha virt. eigenvalues --    1.25044   1.27332   1.29768   1.31644   1.35722
 Alpha virt. eigenvalues --    1.37493   1.39464   1.44371   1.45332   1.46429
 Alpha virt. eigenvalues --    1.50258   1.53469   1.56047   1.61215   1.62035
 Alpha virt. eigenvalues --    1.63480   1.66090   1.66122   1.68350   1.71976
 Alpha virt. eigenvalues --    1.72457   1.75611   1.77561   1.85340   1.94544
 Alpha virt. eigenvalues --    2.02077   2.05246   2.07750   2.19591   2.24897
 Alpha virt. eigenvalues --    2.27319   2.32535   2.40959   2.41047   2.45689
 Alpha virt. eigenvalues --    2.46163   2.59940   2.63676   2.66137   2.70846
 Alpha virt. eigenvalues --    2.71970   2.73397   2.78255   2.78817   2.80502
 Alpha virt. eigenvalues --    2.84702   2.90841   2.91365   2.95094   2.96132
 Alpha virt. eigenvalues --    3.00885   3.03271   3.04110   3.05217   3.10335
 Alpha virt. eigenvalues --    3.12889   3.17440   3.20766   3.25989   3.27328
 Alpha virt. eigenvalues --    3.28982   3.33617   3.34717   3.43213   3.46492
 Alpha virt. eigenvalues --    3.51490   3.54344   3.57340   3.59607   3.60042
 Alpha virt. eigenvalues --    3.61859   3.63371   3.69900   3.74321   3.74526
 Alpha virt. eigenvalues --    3.78884   3.79693   3.83107   3.83389   3.84536
 Alpha virt. eigenvalues --    3.87231   3.93125   3.94119   3.99992   4.00589
 Alpha virt. eigenvalues --    4.02662   4.04001   4.05231   4.13210   4.15452
 Alpha virt. eigenvalues --    4.17827   4.18595   4.20532   4.22994   4.27259
 Alpha virt. eigenvalues --    4.27926   4.30896   4.31544   4.35530   4.37715
 Alpha virt. eigenvalues --    4.38466   4.38809   4.41821   4.43326   4.43412
 Alpha virt. eigenvalues --    4.46168   4.46470   4.49777   4.51843   4.54093
 Alpha virt. eigenvalues --    4.54884   4.57806   4.57844   4.59920   4.61562
 Alpha virt. eigenvalues --    4.67604   4.70969   4.76037   4.77857   4.84889
 Alpha virt. eigenvalues --    4.85050   4.86635   4.86721   4.90248   4.94489
 Alpha virt. eigenvalues --    5.03242   5.04233   5.08997   5.15270   5.18860
 Alpha virt. eigenvalues --    5.22095   5.27416   5.36111   5.40795   5.42444
 Alpha virt. eigenvalues --    5.52975   5.57719   5.65886   5.79078   5.86816
 Alpha virt. eigenvalues --    5.89744   5.98238   6.15138   7.59075   8.98298
 Alpha virt. eigenvalues --   10.42495  10.59153  11.17149  11.19285  11.30511
 Alpha virt. eigenvalues --   11.32764  11.52745  12.25985  14.82224  17.57957
 Alpha virt. eigenvalues --   19.79419
          Condensed to atoms (all electrons):
               1          2          3          4          5          6
     1  N    6.865735   0.448197  -0.126756   0.004550  -0.000247   0.000004
     2  C    0.448197   4.798918   0.422328  -0.029346   0.005313   0.000121
     3  C   -0.126756   0.422328   5.235599   0.530383  -0.049920   0.003765
     4  C    0.004550  -0.029346   0.530383   4.526909   0.280063  -0.035837
     5  N   -0.000247   0.005313  -0.049920   0.280063   7.175996  -0.105259
     6  N    0.000004   0.000121   0.003765  -0.035837  -0.105259   5.994946
     7  C    0.000077   0.010529  -0.011487   0.148766   0.038561   0.697037
     8  N   -0.000097   0.262829  -0.116120   0.241495  -0.023136  -0.002329
     9  H    0.333057  -0.091025  -0.013691   0.000647  -0.000038   0.000000
    10  H    0.001806  -0.060966   0.347711  -0.024783  -0.012400  -0.000207
    11  H   -0.000596  -0.003836   0.014353  -0.099540   0.011838  -0.007336
    12  H   -0.000000  -0.000045  -0.000104  -0.021796   0.019268   0.359742
               7          8          9         10         11         12
     1  N    0.000077  -0.000097   0.333057   0.001806  -0.000596  -0.000000
     2  C    0.010529   0.262829  -0.091025  -0.060966  -0.003836  -0.000045
     3  C   -0.011487  -0.116120  -0.013691   0.347711   0.014353  -0.000104
     4  C    0.148766   0.241495   0.000647  -0.024783  -0.099540  -0.021796
     5  N    0.038561  -0.023136  -0.000038  -0.012400   0.011838   0.019268
     6  N    0.697037  -0.002329   0.000000  -0.000207  -0.007336   0.359742
     7  C    5.118775  -0.268156   0.000034   0.002818   0.193134   0.009226
     8  N   -0.268156   7.154280   0.000979   0.010761   0.135415  -0.003162
     9  H    0.000034   0.000979   0.486115   0.008237  -0.000030   0.000000
    10  H    0.002818   0.010761   0.008237   0.645348  -0.001430   0.000100
    11  H    0.193134   0.135415  -0.000030  -0.001430   0.457944   0.001846
    12  H    0.009226  -0.003162   0.000000   0.000100   0.001846   0.668801
 Mulliken charges:
               1
     1  N   -0.525729
     2  C    0.236984
     3  C   -0.236061
     4  C    0.478488
     5  N   -0.340041
     6  N    0.095353
     7  C    0.060686
     8  N   -0.392760
     9  H    0.275716
    10  H    0.083006
    11  H    0.298238
    12  H   -0.033877
 Sum of Mulliken charges =  -0.00000
 Mulliken charges with hydrogens summed into heavy atoms:
               1
     1  N   -0.250013
     2  C    0.236984
     3  C   -0.153056
     4  C    0.478488
     5  N   -0.340041
     6  N    0.061476
     7  C    0.060686
     8  N   -0.094523
 Electronic spatial extent (au):  <R**2>=            912.0515
 Charge=             -0.0000 electrons
 Dipole moment (field-independent basis, Debye):
    X=             -3.1133    Y=              0.9019    Z=              0.0023  Tot=              3.2413
 Quadrupole moment (field-independent basis, Debye-Ang):
   XX=            -48.2410   YY=            -43.5568   ZZ=            -46.8881
   XY=              6.1286   XZ=              0.0059   YZ=             -0.0027
 Traceless Quadrupole moment (field-independent basis, Debye-Ang):
   XX=             -2.0124   YY=              2.6718   ZZ=             -0.6595
   XY=              6.1286   XZ=              0.0059   YZ=             -0.0027
 Octapole moment (field-independent basis, Debye-Ang**2):
  XXX=            -41.1444  YYY=              2.8872  ZZZ=              0.0004  XYY=              4.2947
  XXY=             21.3342  XXZ=              0.0173  XZZ=             -3.4632  YZZ=             -0.2869
  YYZ=              0.0022  XYZ=             -0.0041
 Hexadecapole moment (field-independent basis, Debye-Ang**3):
 XXXX=          -1025.5397 YYYY=           -174.2962 ZZZZ=            -43.4305 XXXY=             59.9781
 XXXZ=              0.0606 YYYX=             12.8132 YYYZ=             -0.0024 ZZZX=             -0.0001
 ZZZY=             -0.0023 XXYY=           -169.9694 XXZZ=           -170.4743 YYZZ=            -40.2671
 XXYZ=             -0.0071 YYXZ=             -0.0001 ZZXY=              0.7194
 N-N= 3.341984382141D+02 E-N=-1.537275247548D+03  KE= 3.731293531744D+02
 PrsmSu:  requested number of processors reduced to:  13 ShMem   1 Linda.
 Calling FoFJK, ICntrl=      2127 FMM=F ISym2X=0 I1Cent= 0 IOpClX= 0 NMat=1 NMatS=1 NMatT=0.
 ***** Axes restored to original set *****
 -------------------------------------------------------------------
 Center     Atomic                   Forces (Hartrees/Bohr)
 Number     Number              X              Y              Z
 -------------------------------------------------------------------
      1        7           0.028649840   -0.063844097    0.081743920
      2        6          -0.083016914    0.075670639   -0.096496784
      3        6          -0.001539322    0.037688611   -0.048669921
      4        6          -0.011882222    0.001869593   -0.002491321
      5        7          -0.126139771    0.011805332   -0.014998063
      6        7           0.785834695   -1.452881567    1.862150903
      7        6           0.109113873    0.014176440   -0.018127091
      8        7          -0.046174413   -0.057000130    0.073091022
      9        1           0.056549995   -0.004512617    0.005729085
     10        1          -0.033329344    0.017510308   -0.022420426
     11        1           0.037823431   -0.028510955    0.036464377
     12        1          -0.715889848    1.448028441   -1.855975701
 -------------------------------------------------------------------
 Cartesian Forces:  Max     1.862150903 RMS     0.585367098

 GradGradGradGradGradGradGradGradGradGradGradGradGradGradGradGradGradGrad
 Berny optimization.
 FormGI is forming the generalized inverse of G from B-inverse, IUseBI=4.
 Internal  Forces:  Max     2.457280440 RMS     0.287491178
 Search for a local minimum.
 Step number   1 out of a maximum of   84
 All quantities printed in internal units (Hartrees-Bohrs-Radians)
 Mixed Optimization -- RFO/linear search
 Second derivative matrix not updated -- first step.
 ITU=  0
     Eigenvalues ---    0.00255   0.00602   0.00929   0.01188   0.01343
     Eigenvalues ---    0.01442   0.01774   0.02379   0.02606   0.10977
     Eigenvalues ---    0.15513   0.16000   0.16000   0.16000   0.19059
     Eigenvalues ---    0.19512   0.21230   0.23461   0.24514   0.25433
     Eigenvalues ---    0.25956   0.26535   0.36540   0.38089   0.39632
     Eigenvalues ---    0.42935   0.51518   0.51640   0.72762   5.60356
 RFO step:  Lambda=-9.82781850D-01 EMin= 2.54676165D-03
 Linear search not attempted -- first point.
 Maximum step size (   0.300) exceeded in Quadratic search.
    -- Step size scaled by   0.678
 Iteration  1 RMS(Cart)=  0.03465926 RMS(Int)=  0.00622503
 Iteration  2 RMS(Cart)=  0.00551553 RMS(Int)=  0.00007746
 Iteration  3 RMS(Cart)=  0.00005971 RMS(Int)=  0.00003281
 Iteration  4 RMS(Cart)=  0.00000001 RMS(Int)=  0.00003281
 Variable       Old X    -DE/DX   Delta X   Delta X   Delta X     New X
                                 (Linear)    (Quad)   (Total)
    R1        2.58363  -0.07710   0.00000  -0.03492  -0.03492   2.54872
    R2        2.03245  -0.04482   0.00000  -0.02255  -0.02255   2.00990
    R3        2.70005   0.04770   0.00000   0.02296   0.02304   2.72309
    R4        2.93880  -0.01546   0.00000  -0.01018  -0.01024   2.92856
    R5        2.53717   0.03338   0.00000   0.01601   0.01608   2.55326
    R6        1.94450   0.04362   0.00000   0.02096   0.02096   1.96545
    R7        2.66521  -0.01709   0.00000  -0.00840  -0.00845   2.65676
    R8        3.05465   0.05872   0.00000   0.03331   0.03332   3.08797
    R9        2.96416   0.03766   0.00000   0.02080   0.02068   2.98484
   R10        3.17350   0.08704   0.00000   0.05029   0.05026   3.22376
   R11        3.16884   0.03005   0.00000   0.01772   0.01780   3.18664
   R12        2.38300  -0.01487   0.00000  -0.00575  -0.00575   2.37726
   R13        1.02839   2.45728   0.00000   0.25309   0.25309   1.28147
   R14        2.24672   0.04425   0.00000   0.02445   0.02449   2.27120
   R15        2.22440   0.04728   0.00000   0.02544   0.02544   2.24984
    A1        2.27588  -0.07164   0.00000  -0.04252  -0.04252   2.23336
    A2        1.75791   0.09939   0.00000   0.06191   0.06191   1.81983
    A3        1.37035   0.03130   0.00000   0.01905   0.01905   1.38941
    A4        1.89607  -0.04291   0.00000  -0.02430  -0.02421   1.87186
    A5        2.25571   0.01744   0.00000   0.00976   0.00972   2.26543
    A6        2.13141   0.02547   0.00000   0.01453   0.01449   2.14590
    A7        2.36830  -0.02106   0.00000  -0.01212  -0.01210   2.35621
    A8        2.74755   0.02074   0.00000   0.01192   0.01192   2.75947
    A9        1.40675   0.01922   0.00000   0.01164   0.01164   1.41839
   A10        2.50814   0.00184   0.00000   0.00049   0.00045   2.50859
   A11        1.34081   0.00153   0.00000   0.00028   0.00027   1.34108
   A12        1.86023  -0.00114   0.00000  -0.00031  -0.00029   1.85994
   A13        0.92575   0.07051   0.00000   0.04192   0.04194   0.96769
   A14        2.10955   0.05836   0.00000   0.03458   0.03456   2.14411
   A15        2.07182   0.01297   0.00000   0.00745   0.00749   2.07931
   A16        1.45807   0.00085   0.00000   0.00055   0.00053   1.45861
   A17        2.34247  -0.01839   0.00000  -0.01002  -0.00997   2.33250
   A18        2.75329  -0.01382   0.00000  -0.00800  -0.00802   2.74526
   A19        1.61002  -0.00761   0.00000  -0.00639  -0.00649   1.60353
   A20        1.50253   0.00806   0.00000   0.00512   0.00512   1.50765
   A21        1.98178  -0.01043   0.00000  -0.00594  -0.00593   1.97584
   A22        3.12827   0.13069   0.00000   0.08096   0.08097   3.20923
   A23        3.11255   0.00045   0.00000  -0.00127  -0.00137   3.11118
   A24        3.13977  -0.00003   0.00000  -0.00002  -0.00002   3.13974
   A25        3.14275   0.00000   0.00000   0.00000   0.00000   3.14275
    D1        0.00221  -0.00007   0.00000  -0.00004  -0.00004   0.00217
    D2        0.00034   0.00002   0.00000   0.00001   0.00001   0.00035
    D3        0.00071   0.00004   0.00000   0.00002   0.00002   0.00073
    D4        3.14068  -0.00005   0.00000  -0.00003  -0.00003   3.14065
    D5       -0.00160  -0.00001   0.00000  -0.00001  -0.00001  -0.00161
    D6        0.00091  -0.00001   0.00000  -0.00001  -0.00001   0.00090
    D7       -3.14136   0.00002   0.00000   0.00001   0.00001  -3.14135
    D8       -0.00074  -0.00000   0.00000   0.00000   0.00000  -0.00074
    D9       -0.00069   0.00002   0.00000   0.00001   0.00001  -0.00067
   D10        3.14094   0.00004   0.00000   0.00003   0.00003   3.14097
   D11       -0.00060   0.00003   0.00000   0.00002   0.00002  -0.00058
   D12       -0.00090   0.00003   0.00000   0.00002   0.00002  -0.00088
   D13       -0.00003   0.00001   0.00000   0.00001   0.00001  -0.00002
   D14       -3.14157  -0.00000   0.00000  -0.00000  -0.00000  -3.14157
   D15        3.14132  -0.00001   0.00000  -0.00000  -0.00000   3.14132
   D16       -3.14158   0.00000   0.00000   0.00000   0.00000  -3.14157
   D17        0.00042   0.00003   0.00000   0.00002   0.00002   0.00044
   D18        3.14156  -0.00000   0.00000  -0.00000  -0.00000   3.14156
   D19       -0.00004   0.00000   0.00000   0.00000   0.00000  -0.00004
   D20       -3.14133  -0.00000   0.00000  -0.00000  -0.00000  -3.14133
   D21        0.00026   0.00000   0.00000   0.00000   0.00000   0.00026
   D22        0.00078   0.00001   0.00000   0.00000   0.00000   0.00078
   D23        3.14121   0.00000   0.00000   0.00000   0.00000   3.14121
   D24       -3.14110  -0.00002   0.00000  -0.00001  -0.00001  -3.14111
   D25       -0.00067  -0.00002   0.00000  -0.00001  -0.00001  -0.00068
   D26       -3.14070   0.00000   0.00000  -0.00000  -0.00000  -3.14070
   D27       -0.00026  -0.00000   0.00000  -0.00000  -0.00000  -0.00027
   D28       -3.14158  -0.00000   0.00000  -0.00000  -0.00000  -3.14158
   D29        0.00000   0.00002   0.00000   0.00001   0.00001   0.00002
   D30       -3.14158   0.00001   0.00000   0.00000   0.00000  -3.14158
   D31       -0.00037   0.00000   0.00000  -0.00000  -0.00000  -0.00037
   D32       -0.00037   0.00001   0.00000   0.00001   0.00001  -0.00037
   D33        3.14121   0.00001   0.00000   0.00001   0.00001   3.14122
   D34        0.00038   0.00000   0.00000   0.00000   0.00000   0.00038
         Item               Value     Threshold  Converged?
 Maximum Force            2.457280     0.000450     NO 
 RMS     Force            0.287491     0.000300     NO 
 Maximum Displacement     0.137946     0.001800     NO 
 RMS     Displacement     0.037366     0.001200     NO 
 Predicted change in Energy=-4.847796D-01
 GradGradGradGradGradGradGradGradGradGradGradGradGradGradGradGradGradGrad

                          Input orientation:                          
 ---------------------------------------------------------------------
 Center     Atomic      Atomic             Coordinates (Angstroms)
 Number     Number       Type             X           Y           Z
 ---------------------------------------------------------------------
      1          7           0        1.430750    0.057047   -0.097873
      2          6           0        2.768309    0.162563   -0.235198
      3          6           0        2.941204    1.043206   -1.362605
      4          6           0        4.270309    1.192646   -1.554150
      5          7           0        5.069490    1.904116   -2.466110
      6          7           0        6.691241    1.578524   -2.048807
      7          6           0        5.871386    0.991631   -1.296521
      8          7           0        4.315140    0.221783   -0.309052
      9          1           0        0.674235    0.516522   -0.687615
     10          1           0        2.227777    1.508743   -1.959303
     11          1           0        5.500721    0.288389   -0.395108
     12          1           0        6.498868    1.978520   -2.561498
 ---------------------------------------------------------------------
                    Distance matrix (angstroms):
                    1          2          3          4          5
     1  N    0.000000
     2  C    1.348723   0.000000
     3  C    2.203073   1.440997   0.000000
     4  C    3.387244   2.248713   1.351126   0.000000
     5  N    4.718118   3.647658   2.547252   1.405899   0.000000
     6  N    5.813244   4.547914   3.849703   2.500900   1.705940
     7  C    4.693555   3.382728   2.931381   1.634084   1.686300
     8  N    2.896798   1.549725   1.916353   1.579510   2.837638
     9  H    1.063592   2.171431   2.423253   3.760289   4.940317
    10  H    2.491505   2.253201   1.040073   2.106182   2.913504
    11  H    4.087362   2.739978   2.838473   1.917022   2.661877
    12  H    5.953766   4.756726   3.868996   2.568818   1.434488
                    6          7          8          9         10
     6  N    0.000000
     7  C    1.257990   0.000000
     8  N    3.242430   1.997415   0.000000
     9  H    6.259797   5.254225   3.672379   0.000000
    10  H    4.464907   3.739328   2.955787   2.239462   0.000000
    11  H    2.411744   1.201869   1.190565   4.840720   3.827288
    12  H    0.678127   1.722745   3.595596   6.290884   4.338842
                   11         12
    11  H    0.000000
    12  H    2.923369   0.000000
 Stoichiometry    C4H4N4
 Framework group  C1[X(C4H4N4)]
 Deg. of freedom    30
 Full point group                 C1      NOp   1
 Largest Abelian subgroup         C1      NOp   1
 Largest concise Abelian subgroup C1      NOp   1
                         Standard orientation:                         
 ---------------------------------------------------------------------
 Center     Atomic      Atomic             Coordinates (Angstroms)
 Number     Number       Type             X           Y           Z
 ---------------------------------------------------------------------
      1          7           0        3.055146   -0.004852   -0.000395
      2          6           0        1.784079   -0.455897    0.000884
      3          6           0        0.982337    0.741468   -0.000004
      4          6           0       -0.312772    0.356459   -0.000007
      5          7           0       -1.548965    1.026072   -0.000026
      6          7           0       -2.755459   -0.179997    0.000015
      7          6           0       -1.592507   -0.659666    0.000026
      8          7           0        0.361951   -1.071687   -0.000375
      9          1           0        3.391303    1.004220    0.000072
     10          1           0        1.275903    1.739251   -0.000037
     11          1           0       -0.744469   -1.511323    0.000047
     12          1           0       -2.878276    0.486915   -0.000012
 ---------------------------------------------------------------------
 Rotational constants (GHZ):           9.4272211           1.3438999           1.1762232
 Standard basis: 6-31G(2df,p) (6D, 7F)
 There are   268 symmetry adapted cartesian basis functions of A   symmetry.
 There are   244 symmetry adapted basis functions of A   symmetry.
   244 basis functions,   380 primitive gaussians,   268 cartesian basis functions
    28 alpha electrons       28 beta electrons
       nuclear repulsion energy       331.2145541593 Hartrees.
 NAtoms=   12 NActive=   12 NUniq=   12 SFac= 1.00D+00 NAtFMM=   60 NAOKFM=F Big=F
 Integral buffers will be    131072 words long.
 Raffenetti 2 integral format.
 Two-electron integral symmetry is turned on.
 One-electron integrals computed using PRISM.
 PrsmSu:  requested number of processors reduced to:  13 ShMem   1 Linda.
 NBasis=   244 RedAO= T EigKep=  1.71D-04  NBF=   244
 NBsUse=   244 1.00D-06 EigRej= -1.00D+00 NBFU=   244
 Initial guess from the checkpoint file:  "Ndc1ccnncn1.chk"
 B after Tr=     0.000000    0.000000    0.000000
         Rot=    0.999999    0.000010    0.000000   -0.001089 Ang=   0.12 deg.
 ExpMin= 1.61D-01 ExpMax= 4.17D+03 ExpMxC= 6.27D+02 IAcc=2 IRadAn=         4 AccDes= 0.00D+00
 Harris functional with IExCor=  402 and IRadAn=       4 diagonalized for initial guess.
 HarFok:  IExCor=  402 AccDes= 0.00D+00 IRadAn=         4 IDoV= 1 UseB2=F ITyADJ=14
 ICtDFT=  3500011 ScaDFX=  1.000000  1.000000  1.000000  1.000000
 FoFCou: FMM=F IPFlag=           0 FMFlag=      100000 FMFlg1=           0
         NFxFlg=           0 DoJE=T BraDBF=F KetDBF=T FulRan=T
         wScrn=  0.000000 ICntrl=       500 IOpCl=  0 I1Cent=   200000004 NGrid=           0
         NMat0=    1 NMatS0=      1 NMatT0=    0 NMatD0=    1 NMtDS0=    0 NMtDT0=    0
 Petite list used in FoFCou.
 Requested convergence on RMS density matrix=1.00D-08 within 128 cycles.
 Requested convergence on MAX density matrix=1.00D-06.
 Requested convergence on             energy=1.00D-06.
 No special actions if energy rises.
 Integral accuracy reduced to 1.0D-05 until final iterations.
 Initial convergence to 1.0D-05 achieved.  Increase integral accuracy.
 SCF Done:  E(RB3LYP) =  -372.976293260     A.U. after   17 cycles
            NFock= 17  Conv=0.98D-08     -V/T= 2.0020
 PrsmSu:  requested number of processors reduced to:  13 ShMem   1 Linda.
 Calling FoFJK, ICntrl=      2127 FMM=F ISym2X=0 I1Cent= 0 IOpClX= 0 NMat=1 NMatS=1 NMatT=0.
 ***** Axes restored to original set *****
 -------------------------------------------------------------------
 Center     Atomic                   Forces (Hartrees/Bohr)
 Number     Number              X              Y              Z
 -------------------------------------------------------------------
      1        7           0.037104005   -0.058064471    0.074318516
      2        6          -0.075697536    0.075054819   -0.095697060
      3        6           0.000155611    0.034595152   -0.044687716
      4        6          -0.024811322   -0.005013676    0.006347247
      5        7          -0.110450979    0.011796551   -0.014996200
      6        7           0.255754053   -0.601529596    0.770945429
      7        6           0.103100429    0.010199058   -0.013029512
      8        7          -0.041912470   -0.049871769    0.063928892
      9        1           0.049795282   -0.002402086    0.003033330
     10        1          -0.026730724    0.013246079   -0.016960190
     11        1           0.027781602   -0.026452818    0.033829691
     12        1          -0.194087951    0.598442756   -0.767032428
 -------------------------------------------------------------------
 Cartesian Forces:  Max     0.770945429 RMS     0.240283451

 GradGradGradGradGradGradGradGradGradGradGradGradGradGradGradGradGradGrad
 Berny optimization.
 Using GEDIIS/GDIIS optimizer.
 FormGI is forming the generalized inverse of G from B-inverse, IUseBI=4.
 Internal  Forces:  Max     0.987960315 RMS     0.118518583
 Search for a local minimum.
 Step number   2 out of a maximum of   84
 All quantities printed in internal units (Hartrees-Bohrs-Radians)
 Mixed Optimization -- RFO/linear search
 Update second derivatives using D2CorX and points    1    2
 DE= -4.52D-01 DEPred=-4.85D-01 R= 9.32D-01
 TightC=F SS=  1.41D+00  RLast= 3.00D-01 DXNew= 5.0454D-01 9.0000D-01
 Trust test= 9.32D-01 RLast= 3.00D-01 DXMaxT set to 5.05D-01
 ITU=  1  0
 Use linear search instead of GDIIS.
 Linear search step of   0.600 exceeds DXMaxT=   0.505 but not scaled.
 Quartic linear search produced a step of  2.00000.
 Iteration  1 RMS(Cart)=  0.06389129 RMS(Int)=  0.03500591
 Iteration  2 RMS(Cart)=  0.02098147 RMS(Int)=  0.01156534
 Iteration  3 RMS(Cart)=  0.01025408 RMS(Int)=  0.00020037
 Iteration  4 RMS(Cart)=  0.00004976 RMS(Int)=  0.00019558
 Iteration  5 RMS(Cart)=  0.00000001 RMS(Int)=  0.00019558
 Variable       Old X    -DE/DX   Delta X   Delta X   Delta X     New X
                                 (Linear)    (Quad)   (Total)
    R1        2.54872  -0.07357  -0.06983   0.00000  -0.06983   2.47888
    R2        2.00990  -0.03814  -0.04510   0.00000  -0.04510   1.96479
    R3        2.72309   0.03443   0.04608   0.00000   0.04654   2.76963
    R4        2.92856  -0.01996  -0.02048   0.00000  -0.02083   2.90773
    R5        2.55326   0.02343   0.03217   0.00000   0.03256   2.58582
    R6        1.96545   0.03399   0.04191   0.00000   0.04191   2.00737
    R7        2.65676  -0.01376  -0.01690   0.00000  -0.01717   2.63959
    R8        3.08797   0.05513   0.06663   0.00000   0.06666   3.15463
    R9        2.98484   0.02854   0.04137   0.00000   0.04069   3.02553
   R10        3.22376   0.07653   0.10052   0.00000   0.10031   3.32407
   R11        3.18664   0.02729   0.03560   0.00000   0.03611   3.22276
   R12        2.37726  -0.01124  -0.01150   0.00000  -0.01149   2.36577
   R13        1.28147   0.98796   0.50618   0.00000   0.50618   1.78765
   R14        2.27120   0.04018   0.04897   0.00000   0.04920   2.32040
   R15        2.24984   0.03906   0.05088   0.00000   0.05084   2.30068
    A1        2.23336  -0.06482  -0.08505   0.00000  -0.08505   2.14831
    A2        1.81983   0.09022   0.12383   0.00000   0.12381   1.94364
    A3        1.38941   0.03135   0.03810   0.00000   0.03813   1.42753
    A4        1.87186  -0.04021  -0.04841   0.00000  -0.04786   1.82400
    A5        2.26543   0.01550   0.01944   0.00000   0.01916   2.28459
    A6        2.14590   0.02472   0.02898   0.00000   0.02870   2.17460
    A7        2.35621  -0.01978  -0.02419   0.00000  -0.02402   2.33219
    A8        2.75947   0.02056   0.02384   0.00000   0.02384   2.78331
    A9        1.41839   0.01985   0.02329   0.00000   0.02332   1.44171
   A10        2.50859  -0.00007   0.00090   0.00000   0.00070   2.50929
   A11        1.34108   0.00071   0.00055   0.00000   0.00052   1.34160
   A12        1.85994   0.00067  -0.00057   0.00000  -0.00042   1.85953
   A13        0.96769   0.06303   0.08388   0.00000   0.08399   1.05168
   A14        2.14411   0.05214   0.06912   0.00000   0.06900   2.21312
   A15        2.07931   0.01100   0.01498   0.00000   0.01522   2.09454
   A16        1.45861  -0.00087   0.00107   0.00000   0.00100   1.45960
   A17        2.33250  -0.01768  -0.01994   0.00000  -0.01968   2.31282
   A18        2.74526  -0.01014  -0.01605   0.00000  -0.01622   2.72904
   A19        1.60353  -0.01099  -0.01298   0.00000  -0.01359   1.58994
   A20        1.50765   0.00983   0.01025   0.00000   0.01028   1.51794
   A21        1.97584  -0.00968  -0.01186   0.00000  -0.01180   1.96404
   A22        3.20923   0.12157   0.16193   0.00000   0.16194   3.37117
   A23        3.11118  -0.00116  -0.00273   0.00000  -0.00330   3.10788
   A24        3.13974  -0.00003  -0.00004   0.00000  -0.00004   3.13970
   A25        3.14275  -0.00000   0.00000   0.00000  -0.00000   3.14275
    D1        0.00217  -0.00006  -0.00008   0.00000  -0.00006   0.00211
    D2        0.00035   0.00001   0.00002   0.00000   0.00001   0.00036
    D3        0.00073   0.00004   0.00005   0.00000   0.00004   0.00077
    D4        3.14065  -0.00004  -0.00006   0.00000  -0.00006   3.14059
    D5       -0.00161  -0.00001  -0.00001   0.00000  -0.00001  -0.00162
    D6        0.00090  -0.00001  -0.00002   0.00000  -0.00002   0.00088
    D7       -3.14135   0.00002   0.00003   0.00000   0.00003  -3.14132
    D8       -0.00074   0.00000   0.00000   0.00000   0.00001  -0.00073
    D9       -0.00067   0.00002   0.00002   0.00000   0.00003  -0.00065
   D10        3.14097   0.00004   0.00005   0.00000   0.00005   3.14102
   D11       -0.00058   0.00003   0.00003   0.00000   0.00004  -0.00055
   D12       -0.00088   0.00002   0.00003   0.00000   0.00003  -0.00085
   D13       -0.00002   0.00001   0.00001   0.00000   0.00001  -0.00001
   D14       -3.14157  -0.00000  -0.00001   0.00000  -0.00000  -3.14158
   D15        3.14132  -0.00000  -0.00001   0.00000  -0.00001   3.14131
   D16       -3.14157   0.00000   0.00000   0.00000   0.00000  -3.14157
   D17        0.00044   0.00002   0.00004   0.00000   0.00004   0.00048
   D18        3.14156  -0.00000  -0.00001   0.00000  -0.00001   3.14155
   D19       -0.00004   0.00000   0.00000   0.00000   0.00000  -0.00004
   D20       -3.14133  -0.00000  -0.00000   0.00000  -0.00000  -3.14133
   D21        0.00026   0.00000   0.00000   0.00000   0.00000   0.00027
   D22        0.00078   0.00000   0.00000   0.00000  -0.00000   0.00078
   D23        3.14121   0.00000   0.00000   0.00000   0.00000   3.14122
   D24       -3.14111  -0.00002  -0.00003   0.00000  -0.00003  -3.14114
   D25       -0.00068  -0.00002  -0.00003   0.00000  -0.00003  -0.00071
   D26       -3.14070  -0.00000  -0.00000   0.00000  -0.00001  -3.14070
   D27       -0.00027  -0.00000  -0.00000   0.00000  -0.00000  -0.00027
   D28       -3.14158  -0.00001  -0.00001   0.00000  -0.00001  -3.14159
   D29        0.00002   0.00001   0.00002   0.00000   0.00002   0.00004
   D30       -3.14158   0.00000   0.00001   0.00000   0.00001  -3.14157
   D31       -0.00037   0.00000  -0.00000   0.00000  -0.00000  -0.00037
   D32       -0.00037   0.00001   0.00001   0.00000   0.00001  -0.00036
   D33        3.14122   0.00001   0.00001   0.00000   0.00001   3.14123
   D34        0.00038   0.00000   0.00000   0.00000   0.00000   0.00039
         Item               Value     Threshold  Converged?
 Maximum Force            0.987960     0.000450     NO 
 RMS     Force            0.118519     0.000300     NO 
 Maximum Displacement     0.283445     0.001800     NO 
 RMS     Displacement     0.075789     0.001200     NO 
 Predicted change in Energy=-1.716829D-01
 GradGradGradGradGradGradGradGradGradGradGradGradGradGradGradGradGradGrad

                          Input orientation:                          
 ---------------------------------------------------------------------
 Center     Atomic      Atomic             Coordinates (Angstroms)
 Number     Number       Type             X           Y           Z
 ---------------------------------------------------------------------
      1          7           0        1.447047    0.002721   -0.028314
      2          6           0        2.719466    0.197957   -0.280442
      3          6           0        2.905526    1.092824   -1.426152
      4          6           0        4.263050    1.198511   -1.561651
      5          7           0        5.092141    1.889970   -2.447980
      6          7           0        6.746473    1.522222   -1.976702
      7          6           0        5.887544    0.962021   -1.258582
      8          7           0        4.257972    0.214042   -0.299062
      9          1           0        0.684683    0.437184   -0.586050
     10          1           0        2.197368    1.579861   -2.050401
     11          1           0        5.473939    0.250881   -0.347014
     12          1           0        6.584222    2.095498   -2.711491
 ---------------------------------------------------------------------
                    Distance matrix (angstroms):
                    1          2          3          4          5
     1  N    0.000000
     2  C    1.311769   0.000000
     3  C    2.295526   1.465625   0.000000
     4  C    3.422121   2.241708   1.368357   0.000000
     5  N    4.764788   3.631902   2.541822   1.396813   0.000000
     6  N    5.847138   4.565935   3.903891   2.538592   1.759022
     7  C    4.706574   3.402539   2.989586   1.669359   1.705410
     8  N    2.831830   1.538702   1.967663   1.601042   2.849986
     9  H    1.039725   2.071466   2.463286   3.786308   5.000305
    10  H    2.671926   2.305429   1.062252   2.156698   2.938358
    11  H    4.047100   2.755785   2.910353   1.959489   2.691921
    12  H    6.161958   4.944390   4.023712   2.741269   1.529047
                    6          7          8          9         10
     6  N    0.000000
     7  C    1.251911   0.000000
     8  N    3.273905   2.033632   0.000000
     9  H    6.313203   5.272336   3.591734   0.000000
    10  H    4.550067   3.824409   3.029643   2.395465   0.000000
    11  H    2.427248   1.227903   1.217470   4.798836   3.924746
    12  H    0.945984   1.970044   3.843322   6.486298   4.466252
                   11         12
    11  H    0.000000
    12  H    3.197826   0.000000
 Stoichiometry    C4H4N4
 Framework group  C1[X(C4H4N4)]
 Deg. of freedom    30
 Full point group                 C1      NOp   1
 Largest Abelian subgroup         C1      NOp   1
 Largest concise Abelian subgroup C1      NOp   1
                         Standard orientation:                         
 ---------------------------------------------------------------------
 Center     Atomic      Atomic             Coordinates (Angstroms)
 Number     Number       Type             X           Y           Z
 ---------------------------------------------------------------------
      1          7           0        3.071145   -0.097300   -0.000325
      2          6           0        1.790541   -0.381535    0.000828
      3          6           0        0.973594    0.835287   -0.000048
      4          6           0       -0.317319    0.381474   -0.000023
      5          7           0       -1.561813    1.015762   -0.000051
      6          7           0       -2.773753   -0.259133    0.000054
      7          6           0       -1.598054   -0.689263    0.000049
      8          7           0        0.403680   -1.048034   -0.000385
      9          1           0        3.436542    0.876102    0.000156
     10          1           0        1.252577    1.860249   -0.000111
     11          1           0       -0.710800   -1.538101    0.000075
     12          1           0       -3.045706    0.646917   -0.000009
 ---------------------------------------------------------------------
 Rotational constants (GHZ):           9.1152159           1.3252518           1.1570322
 Standard basis: 6-31G(2df,p) (6D, 7F)
 There are   268 symmetry adapted cartesian basis functions of A   symmetry.
 There are   244 symmetry adapted basis functions of A   symmetry.
   244 basis functions,   380 primitive gaussians,   268 cartesian basis functions
    28 alpha electrons       28 beta electrons
       nuclear repulsion energy       326.6440594710 Hartrees.
 NAtoms=   12 NActive=   12 NUniq=   12 SFac= 1.00D+00 NAtFMM=   60 NAOKFM=F Big=F
 Integral buffers will be    131072 words long.
 Raffenetti 2 integral format.
 Two-electron integral symmetry is turned on.
 One-electron integrals computed using PRISM.
 PrsmSu:  requested number of processors reduced to:  13 ShMem   1 Linda.
 NBasis=   244 RedAO= T EigKep=  1.78D-04  NBF=   244
 NBsUse=   244 1.00D-06 EigRej= -1.00D+00 NBFU=   244
 Initial guess from the checkpoint file:  "Ndc1ccnncn1.chk"
 B after Tr=     0.000000    0.000000   -0.000000
         Rot=    0.999997    0.000016    0.000001   -0.002467 Ang=   0.28 deg.
 ExpMin= 1.61D-01 ExpMax= 4.17D+03 ExpMxC= 6.27D+02 IAcc=2 IRadAn=         4 AccDes= 0.00D+00
 Harris functional with IExCor=  402 and IRadAn=       4 diagonalized for initial guess.
 HarFok:  IExCor=  402 AccDes= 0.00D+00 IRadAn=         4 IDoV= 1 UseB2=F ITyADJ=14
 ICtDFT=  3500011 ScaDFX=  1.000000  1.000000  1.000000  1.000000
 FoFCou: FMM=F IPFlag=           0 FMFlag=      100000 FMFlg1=           0
         NFxFlg=           0 DoJE=T BraDBF=F KetDBF=T FulRan=T
         wScrn=  0.000000 ICntrl=       500 IOpCl=  0 I1Cent=   200000004 NGrid=           0
         NMat0=    1 NMatS0=      1 NMatT0=    0 NMatD0=    1 NMtDS0=    0 NMtDT0=    0
 Petite list used in FoFCou.
 Requested convergence on RMS density matrix=1.00D-08 within 128 cycles.
 Requested convergence on MAX density matrix=1.00D-06.
 Requested convergence on             energy=1.00D-06.
 No special actions if energy rises.
 Integral accuracy reduced to 1.0D-05 until final iterations.
 Initial convergence to 1.0D-05 achieved.  Increase integral accuracy.
 SCF Done:  E(RB3LYP) =  -373.260241848     A.U. after   18 cycles
            NFock= 18  Conv=0.53D-08     -V/T= 2.0055
 PrsmSu:  requested number of processors reduced to:  13 ShMem   1 Linda.
 Calling FoFJK, ICntrl=      2127 FMM=F ISym2X=0 I1Cent= 0 IOpClX= 0 NMat=1 NMatS=1 NMatT=0.
 ***** Axes restored to original set *****
 -------------------------------------------------------------------
 Center     Atomic                   Forces (Hartrees/Bohr)
 Number     Number              X              Y              Z
 -------------------------------------------------------------------
      1        7           0.043373823   -0.047314305    0.060520527
      2        6          -0.050667741    0.069903427   -0.089095186
      3        6           0.002488214    0.027818964   -0.035966729
      4        6          -0.047837327   -0.014909127    0.019057583
      5        7          -0.073651761    0.011288133   -0.014364883
      6        7           0.018356173   -0.065336922    0.083699071
      7        6           0.094800250    0.008052021   -0.010273915
      8        7          -0.034171995   -0.034042575    0.043595607
      9        1           0.033188937    0.001716501   -0.002228338
     10        1          -0.013703569    0.005497887   -0.007037349
     11        1           0.009658855   -0.021962227    0.028080239
     12        1           0.018166142    0.059288221   -0.075986628
 -------------------------------------------------------------------
 Cartesian Forces:  Max     0.094800250 RMS     0.044483607

 GradGradGradGradGradGradGradGradGradGradGradGradGradGradGradGradGradGrad
 Berny optimization.
 Using GEDIIS/GDIIS optimizer.
 FormGI is forming the generalized inverse of G from B-inverse, IUseBI=4.
 Internal  Forces:  Max     0.102592597 RMS     0.024753443
 Search for a local minimum.
 Step number   3 out of a maximum of   84
 All quantities printed in internal units (Hartrees-Bohrs-Radians)
 Mixed Optimization -- RFO/linear search
 Update second derivatives using D2CorX and points    2    3
 ITU=  0  1  0
 Use linear search instead of GDIIS.
 Linear search step of   0.984 exceeds DXMaxT=   0.505 but not scaled.
 Quartic linear search produced a step of  1.64009.
 Iteration  1 RMS(Cart)=  0.09375368 RMS(Int)=  0.07135774
 Iteration  2 RMS(Cart)=  0.02256997 RMS(Int)=  0.04764335
 Iteration  3 RMS(Cart)=  0.02077354 RMS(Int)=  0.02439396
 Iteration  4 RMS(Cart)=  0.02073898 RMS(Int)=  0.00126848
 Iteration  5 RMS(Cart)=  0.00103034 RMS(Int)=  0.00055678
 Iteration  6 RMS(Cart)=  0.00000062 RMS(Int)=  0.00055678
 Variable       Old X    -DE/DX   Delta X   Delta X   Delta X     New X
                                 (Linear)    (Quad)   (Total)
    R1        2.47888  -0.05628  -0.11453   0.00000  -0.11453   2.36435
    R2        1.96479  -0.02242  -0.07397   0.00000  -0.07397   1.89082
    R3        2.76963   0.01230   0.07633   0.00000   0.07763   2.84726
    R4        2.90773  -0.02690  -0.03416   0.00000  -0.03508   2.87265
    R5        2.58582   0.00603   0.05341   0.00000   0.05444   2.64026
    R6        2.00737   0.01579   0.06874   0.00000   0.06874   2.07611
    R7        2.63959  -0.00840  -0.02816   0.00000  -0.02892   2.61067
    R8        3.15463   0.04917   0.10933   0.00000   0.10938   3.26401
    R9        3.02553   0.01074   0.06673   0.00000   0.06479   3.09032
   R10        3.32407   0.05063   0.16452   0.00000   0.16390   3.48797
   R11        3.22276   0.02095   0.05923   0.00000   0.06067   3.28343
   R12        2.36577  -0.01233  -0.01884   0.00000  -0.01878   2.34699
   R13        1.78765   0.09184   0.83018   0.00000   0.83018   2.61783
   R14        2.32040   0.03212   0.08069   0.00000   0.08133   2.40173
   R15        2.30068   0.02483   0.08339   0.00000   0.08329   2.38398
    A1        2.14831  -0.04839  -0.13949   0.00000  -0.13949   2.00883
    A2        1.94364   0.07311   0.20307   0.00000   0.20303   2.14667
    A3        1.42753   0.02949   0.06253   0.00000   0.06261   1.49015
    A4        1.82400  -0.03450  -0.07849   0.00000  -0.07686   1.74714
    A5        2.28459   0.01298   0.03142   0.00000   0.03061   2.31519
    A6        2.17460   0.02153   0.04707   0.00000   0.04625   2.22085
    A7        2.33219  -0.01616  -0.03940   0.00000  -0.03887   2.29332
    A8        2.78331   0.01941   0.03910   0.00000   0.03906   2.82237
    A9        1.44171   0.01988   0.03824   0.00000   0.03827   1.47998
   A10        2.50929  -0.00372   0.00115   0.00000   0.00060   2.50989
   A11        1.34160  -0.00047   0.00086   0.00000   0.00079   1.34239
   A12        1.85953   0.00306  -0.00068   0.00000  -0.00026   1.85927
   A13        1.05168   0.03356   0.13776   0.00000   0.13808   1.18976
   A14        2.21312   0.02798   0.11317   0.00000   0.11285   2.32597
   A15        2.09454   0.00577   0.02497   0.00000   0.02567   2.12021
   A16        1.45960  -0.00431   0.00163   0.00000   0.00143   1.46103
   A17        2.31282  -0.01699  -0.03228   0.00000  -0.03154   2.28128
   A18        2.72904  -0.00146  -0.02660   0.00000  -0.02710   2.70194
   A19        1.58994  -0.01487  -0.02228   0.00000  -0.02403   1.56591
   A20        1.51794   0.01295   0.01687   0.00000   0.01696   1.53490
   A21        1.96404  -0.00817  -0.01936   0.00000  -0.01918   1.94486
   A22        3.37117   0.10259   0.26560   0.00000   0.26564   3.63681
   A23        3.10788  -0.00192  -0.00542   0.00000  -0.00707   3.10081
   A24        3.13970  -0.00001  -0.00006   0.00000  -0.00006   3.13965
   A25        3.14275  -0.00001  -0.00000   0.00000  -0.00001   3.14274
    D1        0.00211  -0.00004  -0.00010   0.00000  -0.00007   0.00204
    D2        0.00036   0.00000   0.00002   0.00000  -0.00001   0.00035
    D3        0.00077   0.00003   0.00007   0.00000   0.00007   0.00084
    D4        3.14059  -0.00002  -0.00009   0.00000  -0.00009   3.14050
    D5       -0.00162   0.00000  -0.00002   0.00000  -0.00001  -0.00163
    D6        0.00088  -0.00001  -0.00003   0.00000  -0.00003   0.00085
    D7       -3.14132   0.00001   0.00005   0.00000   0.00004  -3.14128
    D8       -0.00073   0.00001   0.00001   0.00000   0.00001  -0.00072
    D9       -0.00065   0.00002   0.00004   0.00000   0.00005  -0.00060
   D10        3.14102   0.00003   0.00008   0.00000   0.00008   3.14110
   D11       -0.00055   0.00002   0.00006   0.00000   0.00006  -0.00049
   D12       -0.00085   0.00002   0.00005   0.00000   0.00005  -0.00079
   D13       -0.00001   0.00001   0.00002   0.00000   0.00002   0.00000
   D14       -3.14158   0.00000  -0.00001   0.00000  -0.00000  -3.14158
   D15        3.14131   0.00000  -0.00001   0.00000  -0.00001   3.14130
   D16       -3.14157   0.00000   0.00001   0.00000   0.00001  -3.14156
   D17        0.00048   0.00002   0.00006   0.00000   0.00006   0.00053
   D18        3.14155  -0.00000  -0.00001   0.00000  -0.00001   3.14154
   D19       -0.00004   0.00000   0.00000   0.00000   0.00000  -0.00004
   D20       -3.14133  -0.00000  -0.00000   0.00000  -0.00000  -3.14133
   D21        0.00027   0.00000   0.00001   0.00000   0.00001   0.00028
   D22        0.00078  -0.00000  -0.00000   0.00000  -0.00001   0.00078
   D23        3.14122   0.00000   0.00000   0.00000   0.00000   3.14122
   D24       -3.14114  -0.00002  -0.00005   0.00000  -0.00005  -3.14120
   D25       -0.00071  -0.00001  -0.00004   0.00000  -0.00004  -0.00075
   D26       -3.14070  -0.00001  -0.00001   0.00000  -0.00002  -3.14072
   D27       -0.00027  -0.00000  -0.00001   0.00000  -0.00001  -0.00028
   D28       -3.14159  -0.00000  -0.00001   0.00000  -0.00001   3.14158
   D29        0.00004   0.00001   0.00004   0.00000   0.00004   0.00008
   D30       -3.14157   0.00000   0.00001   0.00000   0.00001  -3.14156
   D31       -0.00037  -0.00000  -0.00000   0.00000  -0.00000  -0.00037
   D32       -0.00036   0.00000   0.00002   0.00000   0.00001  -0.00034
   D33        3.14123   0.00001   0.00002   0.00000   0.00002   3.14125
   D34        0.00039   0.00000   0.00001   0.00000   0.00001   0.00039
         Item               Value     Threshold  Converged?
 Maximum Force            0.102593     0.000450     NO 
 RMS     Force            0.024753     0.000300     NO 
 Maximum Displacement     0.462240     0.001800     NO 
 RMS     Displacement     0.128496     0.001200     NO 
 Predicted change in Energy=-4.634031D-01
 GradGradGradGradGradGradGradGradGradGradGradGradGradGradGradGradGradGrad

                          Input orientation:                          
 ---------------------------------------------------------------------
 Center     Atomic      Atomic             Coordinates (Angstroms)
 Number     Number       Type             X           Y           Z
 ---------------------------------------------------------------------
      1          7           0        1.504650   -0.079075    0.076397
      2          6           0        2.635253    0.249790   -0.346672
      3          6           0        2.835467    1.168937   -1.523632
      4          6           0        4.231335    1.205901   -1.571096
      5          7           0        5.099423    1.866938   -2.418454
      6          7           0        6.805897    1.434176   -1.863942
      7          6           0        5.893134    0.916172   -1.199835
      8          7           0        4.153287    0.201523   -0.282910
      9          1           0        0.733066    0.312329   -0.426216
     10          1           0        2.133507    1.688802   -2.189947
     11          1           0        5.414746    0.191938   -0.271436
     12          1           0        6.819665    2.286258   -2.956098
 ---------------------------------------------------------------------
                    Distance matrix (angstroms):
                    1          2          3          4          5
     1  N    0.000000
     2  C    1.251160   0.000000
     3  C    2.426665   1.506703   0.000000
     4  C    3.435143   2.227294   1.397164   0.000000
     5  N    4.788908   3.602719   2.532471   1.381508   0.000000
     6  N    5.844489   4.593380   3.993805   2.601199   1.845757
     7  C    4.677401   3.433037   3.085136   1.727239   1.737517
     8  N    2.687585   1.520139   2.052299   1.635326   2.868681
     9  H    1.000579   1.904877   2.521545   3.787757   5.044888
    10  H    2.942306   2.391688   1.098628   2.239877   2.980035
    11  H    3.934880   2.781112   3.029060   2.029212   2.741303
    12  H    6.560503   5.335317   4.378835   3.128075   1.850438
                    6          7          8          9         10
     6  N    0.000000
     7  C    1.241975   0.000000
     8  N    3.324971   2.092497   0.000000
     9  H    6.340731   5.252563   3.425015   0.000000
    10  H    4.690665   3.963846   3.150921   2.639443   0.000000
    11  H    2.452454   1.270943   1.261547   4.685784   4.085072
    12  H    1.385293   2.412479   4.312960   6.880653   4.785814
                   11         12
    11  H    0.000000
    12  H    3.683393   0.000000
 Stoichiometry    C4H4N4
 Framework group  C1[X(C4H4N4)]
 Deg. of freedom    30
 Full point group                 C1      NOp   1
 Largest Abelian subgroup         C1      NOp   1
 Largest concise Abelian subgroup C1      NOp   1
                         Standard orientation:                         
 ---------------------------------------------------------------------
 Center     Atomic      Atomic             Coordinates (Angstroms)
 Number     Number       Type             X           Y           Z
 ---------------------------------------------------------------------
      1          7           0        3.055191   -0.243019   -0.000205
      2          6           0        1.804199   -0.263518    0.000718
      3          6           0        0.963108    0.986570   -0.000107
      4          6           0       -0.314948    0.422088   -0.000042
      5          7           0       -1.569323    1.000973   -0.000070
      6          7           0       -2.787558   -0.385649    0.000115
      7          6           0       -1.596122   -0.736338    0.000075
      8          7           0        0.478699   -1.007742   -0.000423
      9          1           0        3.464692    0.669926    0.000309
     10          1           0        1.218001    2.055219   -0.000194
     11          1           0       -0.645586   -1.580006    0.000091
     12          1           0       -3.413601    0.850113    0.000008
 ---------------------------------------------------------------------
 Rotational constants (GHZ):           8.3937810           1.3128523           1.1352850
 Standard basis: 6-31G(2df,p) (6D, 7F)
 There are   268 symmetry adapted cartesian basis functions of A   symmetry.
 There are   244 symmetry adapted basis functions of A   symmetry.
   244 basis functions,   380 primitive gaussians,   268 cartesian basis functions
    28 alpha electrons       28 beta electrons
       nuclear repulsion energy       321.3356011237 Hartrees.
 NAtoms=   12 NActive=   12 NUniq=   12 SFac= 1.00D+00 NAtFMM=   60 NAOKFM=F Big=F
 Integral buffers will be    131072 words long.
 Raffenetti 2 integral format.
 Two-electron integral symmetry is turned on.
 One-electron integrals computed using PRISM.
 PrsmSu:  requested number of processors reduced to:  13 ShMem   1 Linda.
 NBasis=   244 RedAO= T EigKep=  1.86D-04  NBF=   244
 NBsUse=   244 1.00D-06 EigRej= -1.00D+00 NBFU=   244
 Initial guess from the checkpoint file:  "Ndc1ccnncn1.chk"
 B after Tr=    -0.000000   -0.000000   -0.000000
         Rot=    0.999990    0.000014    0.000000   -0.004460 Ang=   0.51 deg.
 ExpMin= 1.61D-01 ExpMax= 4.17D+03 ExpMxC= 6.27D+02 IAcc=2 IRadAn=         4 AccDes= 0.00D+00
 Harris functional with IExCor=  402 and IRadAn=       4 diagonalized for initial guess.
 HarFok:  IExCor=  402 AccDes= 0.00D+00 IRadAn=         4 IDoV= 1 UseB2=F ITyADJ=14
 ICtDFT=  3500011 ScaDFX=  1.000000  1.000000  1.000000  1.000000
 FoFCou: FMM=F IPFlag=           0 FMFlag=      100000 FMFlg1=           0
         NFxFlg=           0 DoJE=T BraDBF=F KetDBF=T FulRan=T
         wScrn=  0.000000 ICntrl=       500 IOpCl=  0 I1Cent=   200000004 NGrid=           0
         NMat0=    1 NMatS0=      1 NMatT0=    0 NMatD0=    1 NMtDS0=    0 NMtDT0=    0
 Petite list used in FoFCou.
 Requested convergence on RMS density matrix=1.00D-08 within 128 cycles.
 Requested convergence on MAX density matrix=1.00D-06.
 Requested convergence on             energy=1.00D-06.
 No special actions if energy rises.
 Integral accuracy reduced to 1.0D-05 until final iterations.
 Initial convergence to 1.0D-05 achieved.  Increase integral accuracy.
 SCF Done:  E(RB3LYP) =  -373.293223969     A.U. after   24 cycles
            NFock= 24  Conv=0.90D-08     -V/T= 2.0074
 PrsmSu:  requested number of processors reduced to:  13 ShMem   1 Linda.
 Calling FoFJK, ICntrl=      2127 FMM=F ISym2X=0 I1Cent= 0 IOpClX= 0 NMat=1 NMatS=1 NMatT=0.
 ***** Axes restored to original set *****
 -------------------------------------------------------------------
 Center     Atomic                   Forces (Hartrees/Bohr)
 Number     Number              X              Y              Z
 -------------------------------------------------------------------
      1        7           0.023960621   -0.038656045    0.049430769
      2        6           0.019655168    0.060898493   -0.077592310
      3        6           0.002401603    0.016063219   -0.020878888
      4        6          -0.071798864   -0.022790265    0.029103093
      5        7          -0.034322906    0.006218369   -0.007808956
      6        7           0.016367057    0.045283585   -0.058142245
      7        6           0.079712882    0.007275392   -0.009235472
      8        7          -0.017716099   -0.005824441    0.007411268
      9        1          -0.004280278    0.008009551   -0.010274131
     10        1           0.005285402   -0.005912123    0.007590222
     11        1          -0.014700860   -0.014508414    0.018537348
     12        1          -0.004563726   -0.056057322    0.071859304
 -------------------------------------------------------------------
 Cartesian Forces:  Max     0.079712882 RMS     0.035404835

 GradGradGradGradGradGradGradGradGradGradGradGradGradGradGradGradGradGrad
 Berny optimization.
 Using GEDIIS/GDIIS optimizer.
 FormGI is forming the generalized inverse of G from B-inverse, IUseBI=4.
 Internal  Forces:  Max     0.091179136 RMS     0.017681805
 Search for a local minimum.
 Step number   4 out of a maximum of   84
 All quantities printed in internal units (Hartrees-Bohrs-Radians)
 Mixed Optimization -- RFO/linear search
 Update second derivatives using D2CorX and points    3    4
 ITU=  0  0  1  0
 Use linear search instead of GDIIS.
     Eigenvalues ---    0.00251   0.00529   0.00915   0.01161   0.01327
     Eigenvalues ---    0.01393   0.01728   0.02387   0.02908   0.11531
     Eigenvalues ---    0.15280   0.15993   0.16000   0.17014   0.18659
     Eigenvalues ---    0.19865   0.21070   0.22500   0.24376   0.25160
     Eigenvalues ---    0.25640   0.26445   0.27401   0.36930   0.39033
     Eigenvalues ---    0.40104   0.43364   0.51881   0.54012   0.73273
 RFO step:  Lambda=-6.93029768D-02 EMin= 2.50752136D-03
 Quartic linear search produced a step of -0.41479.
 Maximum step size (   0.505) exceeded in Quadratic search.
    -- Step size scaled by   0.925
 Iteration  1 RMS(Cart)=  0.06421496 RMS(Int)=  0.03571202
 Iteration  2 RMS(Cart)=  0.02266062 RMS(Int)=  0.01221896
 Iteration  3 RMS(Cart)=  0.01085387 RMS(Int)=  0.00020198
 Iteration  4 RMS(Cart)=  0.00002751 RMS(Int)=  0.00020086
 Iteration  5 RMS(Cart)=  0.00000000 RMS(Int)=  0.00020086
 Variable       Old X    -DE/DX   Delta X   Delta X   Delta X     New X
                                 (Linear)    (Quad)   (Total)
    R1        2.36435   0.00351   0.04751  -0.00804   0.03947   2.40382
    R2        1.89082   0.01159   0.03068   0.01260   0.04328   1.93410
    R3        2.84726  -0.01515  -0.03220  -0.03949  -0.07158   2.77568
    R4        2.87265  -0.03147   0.01455  -0.08832  -0.07320   2.79944
    R5        2.64026  -0.01503  -0.02258  -0.01245  -0.03558   2.60468
    R6        2.07611  -0.01078  -0.02851  -0.01589  -0.04440   2.03170
    R7        2.61067  -0.00576   0.01200  -0.00735   0.00488   2.61555
    R8        3.26401   0.04005  -0.04537   0.11120   0.06550   3.32951
    R9        3.09032  -0.01586  -0.02687  -0.01625  -0.04306   3.04726
   R10        3.48797   0.02374  -0.06799   0.07332   0.00554   3.49351
   R11        3.28343   0.01074  -0.02517   0.03933   0.01378   3.29721
   R12        2.34699  -0.01372   0.00779  -0.01050  -0.00272   2.34428
   R13        2.61783  -0.09118  -0.34435  -0.15561  -0.49996   2.11787
   R14        2.40173   0.01960  -0.03374   0.05232   0.01848   2.42021
   R15        2.38398   0.00436  -0.03455   0.00750  -0.02678   2.35720
    A1        2.00883  -0.01384   0.05786  -0.06891  -0.01105   1.99778
    A2        2.14667   0.04497  -0.08421   0.23108   0.14655   2.29321
    A3        1.49015   0.02237  -0.02597   0.09011   0.06478   1.55493
    A4        1.74714  -0.02416   0.03188  -0.08907  -0.05760   1.68954
    A5        2.31519   0.00992  -0.01270   0.03477   0.02228   2.33748
    A6        2.22085   0.01424  -0.01918   0.05430   0.03532   2.25617
    A7        2.29332  -0.00956   0.01612  -0.03332  -0.01698   2.27633
    A8        2.82237   0.01552  -0.01620   0.04736   0.03074   2.85311
    A9        1.47998   0.01726  -0.01587   0.05828   0.04194   1.52193
   A10        2.50989  -0.00771  -0.00025  -0.02497  -0.02496   2.48493
   A11        1.34239  -0.00174  -0.00033  -0.01092  -0.01121   1.33119
   A12        1.85927   0.00617   0.00011   0.01994   0.01983   1.87910
   A13        1.18976  -0.00398  -0.05727   0.00342  -0.05393   1.13584
   A14        2.32597  -0.00560  -0.04681  -0.00263  -0.04937   2.27660
   A15        2.12021   0.00142  -0.01065   0.00016  -0.01062   2.10959
   A16        1.46103  -0.00948  -0.00059  -0.02076  -0.02152   1.43952
   A17        2.28128  -0.01808   0.01308  -0.04305  -0.03034   2.25094
   A18        2.70194   0.00806   0.01124   0.02060   0.03214   2.73408
   A19        1.56591  -0.01548   0.00997  -0.05933  -0.04912   1.51679
   A20        1.53490   0.01687  -0.00703   0.04219   0.03529   1.57018
   A21        1.94486  -0.00565   0.00795  -0.01051  -0.00257   1.94230
   A22        3.63681   0.06735  -0.11019   0.32119   0.21133   3.84814
   A23        3.10081   0.00139   0.00293  -0.01714  -0.01383   3.08698
   A24        3.13965   0.00002   0.00002   0.00016   0.00018   3.13983
   A25        3.14274  -0.00001   0.00000  -0.00010  -0.00010   3.14264
    D1        0.00204  -0.00003   0.00003  -0.00022  -0.00021   0.00183
    D2        0.00035  -0.00001   0.00000  -0.00003  -0.00003   0.00032
    D3        0.00084   0.00002  -0.00003   0.00013   0.00011   0.00095
    D4        3.14050   0.00000   0.00004   0.00000   0.00004   3.14054
    D5       -0.00163   0.00002   0.00001   0.00018   0.00018  -0.00145
    D6        0.00085  -0.00001   0.00001  -0.00016  -0.00014   0.00071
    D7       -3.14128   0.00000  -0.00002   0.00002   0.00000  -3.14128
    D8       -0.00072   0.00001  -0.00001   0.00012   0.00011  -0.00060
    D9       -0.00060   0.00002  -0.00002   0.00020   0.00018  -0.00041
   D10        3.14110   0.00003  -0.00003   0.00028   0.00024   3.14134
   D11       -0.00049   0.00002  -0.00002   0.00019   0.00016  -0.00033
   D12       -0.00079   0.00002  -0.00002   0.00017   0.00014  -0.00065
   D13        0.00000   0.00002  -0.00001   0.00012   0.00011   0.00012
   D14       -3.14158   0.00000   0.00000   0.00003   0.00003  -3.14155
   D15        3.14130   0.00000   0.00000   0.00001   0.00001   3.14131
   D16       -3.14156   0.00001  -0.00000   0.00006   0.00006  -3.14151
   D17        0.00053   0.00003  -0.00002   0.00023   0.00021   0.00074
   D18        3.14154  -0.00001   0.00000  -0.00007  -0.00007   3.14147
   D19       -0.00004   0.00000  -0.00000   0.00001   0.00001  -0.00003
   D20       -3.14133  -0.00001   0.00000  -0.00005  -0.00004  -3.14138
   D21        0.00028   0.00000  -0.00000   0.00004   0.00003   0.00031
[...]
 ! R7    R(4,5)                  1.3602         -DE/DX =    0.0                 !
 ! R8    R(4,7)                  2.3358         -DE/DX =    0.0                 !
 ! R9    R(4,8)                  1.445          -DE/DX =    0.0                 !
 ! R10   R(5,6)                  2.4325         -DE/DX =    0.0                 !
 ! R11   R(5,7)                  1.2282         -DE/DX =    0.0                 !
 ! R12   R(6,7)                  1.2129         -DE/DX =    0.0                 !
 ! R13   R(6,12)                 1.0109         -DE/DX =    0.0                 !
 ! R14   R(7,11)                 3.1899         -DE/DX =    0.0                 !
 ! R15   R(8,11)                 1.0195         -DE/DX =    0.0                 !
 ! A1    A(2,1,9)              110.4962         -DE/DX =    0.0                 !
 ! A2    A(1,2,3)              143.3189         -DE/DX =    0.0                 !
 ! A3    A(3,2,8)               90.6119         -DE/DX =    0.0                 !
 ! A4    A(2,3,4)               87.4701         -DE/DX =    0.0                 !
 ! A5    A(2,3,10)             135.9672         -DE/DX =    0.0                 !
 ! A6    A(4,3,10)             135.9993         -DE/DX =    0.0                 !
 ! A7    A(3,4,5)              135.3578         -DE/DX =    0.0                 !
 ! A8    A(3,4,7)              159.2453         -DE/DX =    0.0                 !
 ! A9    A(3,4,8)               97.0342         -DE/DX =    0.0                 !
 ! A10   A(5,4,8)              127.5223         -DE/DX =    0.0                 !
 ! A11   A(7,4,8)              103.3715         -DE/DX =    0.0                 !
 ! A12   A(4,5,6)              131.9943         -DE/DX =    0.0                 !
 ! A13   A(5,6,12)             126.814          -DE/DX =    0.0                 !
 ! A14   A(7,6,12)             123.1542         -DE/DX =    0.0                 !
 ! A15   A(4,7,6)              158.3693         -DE/DX =    0.0                 !
 ! A16   A(4,7,11)              41.4344         -DE/DX =    0.0                 !
 ! A17   A(5,7,11)              66.7182         -DE/DX =    0.0                 !
 ! A18   A(6,7,11)             116.9877         -DE/DX =    0.0                 !
 ! A19   A(2,8,4)               84.5388         -DE/DX =    0.0                 !
 ! A20   A(4,8,11)             116.8726         -DE/DX =    0.0                 !
 ! A21   A(7,11,8)              71.0743         -DE/DX =    0.0                 !
 ! A22   L(1,2,8,3,-1)         233.9308         -DE/DX =    0.0                 !
 ! A23   L(2,8,11,4,-1)        201.4113         -DE/DX =    0.0                 !
 ! A24   L(1,2,8,3,-2)         182.2564         -DE/DX =    0.0                 !
 ! A25   L(2,8,11,4,-2)        244.9931         -DE/DX =    0.0                 !
 ! D1    D(9,1,2,3)             -2.4654         -DE/DX =    0.0                 !
 ! D2    D(9,1,8,4)             -5.6962         -DE/DX =    0.0                 !
 ! D3    D(9,1,11,7)            54.7774         -DE/DX =    0.0                 !
 ! D4    D(1,2,3,4)           -173.2939         -DE/DX =    0.0                 !
 ! D5    D(1,2,3,10)            14.7288         -DE/DX =    0.0                 !
 ! D6    D(8,2,3,4)              4.4497         -DE/DX =    0.0                 !
 ! D7    D(8,2,3,10)          -167.5276         -DE/DX =    0.0                 !
 ! D8    D(3,2,8,4)             -4.1862         -DE/DX =    0.0                 !
 ! D9    D(3,2,11,7)            22.5791         -DE/DX =    0.0                 !
 ! D10   D(2,3,4,5)            178.7753         -DE/DX =    0.0                 !
 ! D11   D(2,3,4,7)           -174.036          -DE/DX =    0.0                 !
 ! D12   D(2,3,4,8)             -4.566          -DE/DX =    0.0                 !
 ! D13   D(10,3,4,5)            -9.252          -DE/DX =    0.0                 !
 ! D14   D(10,3,4,7)            -2.0633         -DE/DX =    0.0                 !
 ! D15   D(10,3,4,8)           167.4066         -DE/DX =    0.0                 !
 ! D16   D(3,4,5,6)            178.5811         -DE/DX =    0.0                 !
 ! D17   D(8,4,5,6)              2.7637         -DE/DX =    0.0                 !
 ! D18   D(3,4,7,6)           -172.6264         -DE/DX =    0.0                 !
 ! D19   D(3,4,7,11)          -167.9223         -DE/DX =    0.0                 !
 ! D20   D(8,4,7,6)             18.1181         -DE/DX =    0.0                 !
 ! D21   D(8,4,7,11)            22.8222         -DE/DX =    0.0                 !
 ! D22   D(3,4,8,2)              4.6088         -DE/DX =    0.0                 !
 ! D23   D(3,4,8,11)           119.6157         -DE/DX =    0.0                 !
 ! D24   D(5,4,8,2)           -178.3511         -DE/DX =    0.0                 !
 ! D25   D(5,4,8,11)           -63.3442         -DE/DX =    0.0                 !
 ! D26   D(7,4,8,2)           -179.2079         -DE/DX =    0.0                 !
 ! D27   D(7,4,8,11)           -64.2011         -DE/DX =    0.0                 !
 ! D28   D(4,5,6,12)           -93.4332         -DE/DX =    0.0                 !
 ! D29   D(12,6,7,4)          -106.1539         -DE/DX =    0.0                 !
 ! D30   D(12,6,7,11)         -109.6455         -DE/DX =    0.0                 !
 ! D31   D(4,7,11,8)           -34.4305         -DE/DX =    0.0                 !
 ! D32   D(5,7,11,8)           -46.2312         -DE/DX =    0.0                 !
 ! D33   D(6,7,11,8)           143.6254         -DE/DX =    0.0                 !
 ! D34   D(4,8,11,7)            42.6918         -DE/DX =    0.0                 !
 --------------------------------------------------------------------------------
 GradGradGradGradGradGradGradGradGradGradGradGradGradGradGradGradGradGrad


 ----------------------------------------------------------------------

 Electric dipole moment (input orientation):
 (Debye = 10**-18 statcoulomb cm , SI units = C m)
                  (au)            (Debye)         (10**-30 SI)
   Tot        0.950301D+00      0.241542D+01      0.805699D+01
   x          0.545756D+00      0.138717D+01      0.462711D+01
   y          0.532857D+00      0.135439D+01      0.451775D+01
   z         -0.566821D+00     -0.144071D+01     -0.480571D+01

 Dipole polarizability, Alpha (input orientation).
 (esu units = cm**3 , SI units = C**2 m**2 J**-1)
 Alpha(0;0):
               (au)            (10**-24 esu)      (10**-40 SI)
   iso        0.761090D+02      0.112782D+02      0.125487D+02
   aniso      0.942126D+02      0.139609D+02      0.155336D+02
   xx         0.129495D+03      0.191892D+02      0.213508D+02
   yx         0.129533D+02      0.191948D+01      0.213570D+01
   yy         0.435677D+02      0.645607D+01      0.718335D+01
   zx        -0.200401D+02     -0.296963D+01     -0.330416D+01
   zy        -0.147493D+02     -0.218562D+01     -0.243183D+01
   zz         0.552645D+02      0.818935D+01      0.911188D+01

 ----------------------------------------------------------------------

 Dipole orientation:
     7          3.15940021          0.39777818          1.38080457
     6          3.17609627          0.68928410          3.74194487
     6          1.52337868          0.88318768          5.98978794
     6          3.62041594          1.45696714          7.34150779
     7          4.11073793          2.04824901          9.79430364
     7          8.02829103          2.97017835         12.01504742
     6          6.16090097          2.34980732         10.83960842
     7          5.42550242          1.10745685          5.32288556
     1          1.35548578          0.15019687          0.74343126
     1         -0.42459161          0.47679801          6.41270433
     1          6.48559910          2.63833152          4.82856366
     1          9.12252153          1.72719285         12.96748652

 Electric dipole moment (dipole orientation):
 (Debye = 10**-18 statcoulomb cm , SI units = C m)
                  (au)            (Debye)         (10**-30 SI)
   Tot        0.950301D+00      0.241542D+01      0.805699D+01
   x          0.000000D+00      0.000000D+00      0.000000D+00
   y          0.000000D+00      0.000000D+00      0.000000D+00
   z          0.950301D+00      0.241542D+01      0.805699D+01

 Dipole polarizability, Alpha (dipole orientation).
 (esu units = cm**3 , SI units = C**2 m**2 J**-1)
 Alpha(0;0):
               (au)            (10**-24 esu)      (10**-40 SI)
   iso        0.761090D+02      0.112782D+02      0.125487D+02
   aniso      0.942126D+02      0.139609D+02      0.155336D+02
   xx         0.825247D+02      0.122289D+02      0.136065D+02
   yx         0.129329D+02      0.191645D+01      0.213234D+01
   yy         0.377952D+02      0.560067D+01      0.623158D+01
   zx         0.357583D+02      0.529884D+01      0.589575D+01
   zy         0.157940D+02      0.234043D+01      0.260408D+01
   zz         0.108007D+03      0.160050D+02      0.178080D+02

 ----------------------------------------------------------------------
 1\1\GINC-LEWIS4-R630-HPC4-NODE537\Freq\RB3LYP\6-31G(2df,p)\C4H4N4\YXIE
 \04-Aug-2022\0\\#N Geom=AllCheck Guess=TCheck SCRF=Check GenChk RB3LYP
 /6-31G(2df,p) Freq\\Title Card Required\\0,1\N,1.7885763903,-0.0965594
 682,0.4062987974\C,2.5442653682,0.4783837951,-0.4203828084\C,2.5541964
 816,1.2393801784,-1.6896870512\C,3.9066841883,1.1727942392,-1.64928963
 67\N,4.9210792085,1.5969860604,-2.4499137147\N,7.3391785548,1.44598688
 13,-2.23385001\C,6.1317084053,1.5601662265,-2.2462720586\N,4.013777546
 4,0.5296755123,-0.3598578077\H,0.8110695421,0.0120801236,0.1327196888\
 H,1.8214840189,1.7454953975,-2.2945883735\H,4.4720412045,-0.3807160935
 ,-0.3359081982\H,7.9553690911,2.1400171474,-1.8331088271\\Version=ES64
 L-G16RevA.03\State=1-A\HF=-373.7639743\RMSD=2.204e-09\RMSF=2.903e-05\Z
 eroPoint=0.0835676\Thermal=0.0907109\Dipole=0.5457562,0.532857,-0.5668
 207\DipoleDeriv=-0.5726343,-0.1463204,0.2723713,-0.4214659,-0.5615522,
 0.1857298,0.659593,0.1751764,-0.7055777,0.7655694,0.2082992,-0.2843409
 ,0.4726923,0.3584732,-0.32759,-0.7386971,-0.3918458,0.8572138,-0.53757
 81,-0.0944909,0.0876378,-0.299973,-0.2285466,-0.0011625,0.3097586,0.07
 10377,-0.3939934,1.5603289,0.2252369,-0.3345213,0.3713134,0.3378754,-0
 .3571675,-0.3382433,-0.3166198,0.7776383,-2.2968343,-0.2790781,0.50591
 07,-0.1571468,-0.3092762,0.1780419,-0.0328659,0.1283022,-0.4598619,-2.
 3310095,-0.2489741,0.2528898,0.5677734,-0.247019,-0.0480778,0.1998853,
 0.1011779,-0.3987982,3.2230958,0.2554071,-0.3095077,-0.4678086,0.19248
 ,0.070677,0.248704,-0.0005769,0.2426524,-0.7221694,-0.0418167,-0.12390
 06,-0.1437004,-0.1736301,0.100891,-0.1628762,0.2595392,-0.7420324,0.08
 88643,0.0291982,-0.0616751,0.1041303,0.2339571,0.0008543,-0.1767964,-0
 .001253,0.2165325,0.0677511,0.0280564,-0.0245587,0.0686398,0.1117043,0
 .1198105,0.0054612,0.0734893,0.0824522,0.1732318,0.0139413,0.0599526,0
 .0951683,0.0530064,0.0789333,0.1015456,-0.0406894,0.2305244,0.5813842,
 0.0505411,-0.0402579,-0.1896228,0.2325277,-0.0009401,-0.0754687,-0.057
 7379,0.2932501\Polar=129.494808,12.9532616,43.567723,-20.0400534,-14.7
 492686,55.2644758\Quadrupole=6.7408281,0.2597846,-7.0006127,1.8417472,
 3.6837429,1.0839197\PG=C01 [X(C4H4N4)]\NImag=0\\0.71850379,0.13544086,
 0.20506688,-0.14539239,-0.21502774,0.38246459,-0.30676435,-0.13126464,
 0.18703668,0.62120330,-0.16476636,-0.17837384,0.17785185,0.17035246,0.
 36989284,0.23369683,0.18497940,-0.31129027,-0.26294977,-0.27531020,0.5
 7196107,0.00510461,-0.01663386,0.02949755,-0.08545065,0.01082106,-0.01
 491654,0.80096688,-0.00529336,0.01292181,0.02537914,0.01054594,-0.1026
 0732,0.05814575,-0.16074416,0.25215179,0.00995655,0.02161211,-0.012411
 37,-0.01746743,0.05819217,-0.15353305,0.18123667,-0.23063008,0.4336137
 4,-0.00461493,0.00603204,-0.01470867,-0.03086544,-0.05148838,0.0936352
 9,-0.44844958,0.04260848,-0.02738350,0.86245341,0.00633131,0.00213690,
 0.00521644,-0.05484833,-0.00064309,0.01987588,0.03217035,-0.07224845,0
 .01128365,0.03644321,0.25638429,-0.01311325,0.00280392,-0.00514420,0.0
 9063820,0.01311305,-0.02366392,-0.02186417,0.01534519,-0.07454868,-0.1
 2658612,-0.15103654,0.42357100,-0.00454436,-0.00600974,0.00923918,-0.0
 0782899,0.00562703,-0.00939781,-0.03272965,-0.02082976,0.03625977,-0.1
 9419937,-0.06706448,0.13437578,1.02049764,-0.00246329,-0.00241619,-0.0
 0019314,0.00141974,0.01004530,0.00674802,-0.00763750,0.00550059,0.0035
 1658,-0.04980664,-0.07838926,0.05418858,0.07560720,0.09525592,0.004989
 50,-0.00014970,-0.00128549,-0.00488710,0.00838743,-0.00214145,0.009513
 98,0.00366896,0.00256519,0.09991061,0.05059603,-0.14869573,-0.07782828
 ,-0.07315707,0.20712628,-0.00180390,-0.00278802,0.00502577,-0.00258006
 ,0.00389742,-0.00814422,-0.00461453,-0.00499208,0.00653672,0.02765043,
 0.01207745,-0.01276798,-0.08872524,0.00996509,-0.00490716,1.04608509,-
 0.00007777,0.00103281,-0.00111946,0.00230323,-0.00309333,0.00222832,0.
 00099565,0.00098796,-0.00230841,-0.00139477,0.00752656,0.00748102,0.00
 946008,0.01535100,-0.00561883,0.16490925,0.24605364,-0.00011457,0.0005
 0422,-0.00023992,-0.00000105,-0.00067376,0.00149591,0.00074351,0.00079
 377,0.00003108,0.00188348,-0.00526008,-0.00203054,-0.01792661,0.012234
 96,0.02309530,0.14987042,0.12277126,0.10367588,0.00545050,0.00394535,-
 0.00720738,-0.00190772,-0.00424078,0.01089000,0.01517924,0.00424208,-0
 .00528935,-0.10947096,-0.00772315,-0.00565066,-0.70103872,-0.01402544,
 -0.05817636,-0.81185122,-0.00655646,-0.03538315,1.64412123,0.00012022,
 -0.00133279,0.00073716,-0.00292077,0.00352106,-0.00140210,-0.00113700,
 0.00116619,0.00368080,-0.00890546,-0.01025512,-0.00170212,0.00038869,-
 0.05041619,0.00610389,0.03586847,-0.05834673,-0.00906769,-0.00272377,0
 .12193216,0.00045197,-0.00007649,-0.00082772,0.00200789,0.00070474,-0.
 00001547,0.00043727,0.00212783,-0.00148423,0.01563236,0.00135274,-0.00
 675294,-0.08352039,0.00213320,-0.06993260,-0.01485648,-0.00738604,-0.0
 5156614,0.09213176,0.00031261,0.13529477,-0.03538180,-0.01377294,0.013
 06236,-0.14700930,-0.00676088,-0.02850315,-0.05442202,0.03381331,-0.07
 014305,-0.09193858,0.03341300,-0.02113988,-0.00400054,-0.01450253,0.02
 996580,0.00050490,-0.00175383,-0.00079498,0.00966130,0.00030229,0.0022
 3793,0.43412072,-0.02687147,-0.00335980,-0.00546199,0.02991707,-0.0948
 7751,0.01436201,0.03520906,0.00843439,0.03565193,0.03111750,-0.0946230
 7,0.07307612,-0.00211607,0.00319702,0.00851113,-0.00021472,-0.00109162
 ,0.00018956,0.00025897,0.00119021,-0.00178734,-0.19872707,0.50287052,0
 .03492045,-0.00380683,0.00661847,-0.00915597,0.01980738,-0.07092955,-0
 .06906420,0.03350022,-0.05048753,-0.02535976,0.03560747,-0.16759926,0.
 00932229,0.00793348,-0.01215377,0.00383685,-0.00030863,0.00005541,-0.0
 0711146,-0.00093732,0.00104404,0.04191890,-0.13664418,0.31697890,-0.37
 800807,0.02558508,-0.07677870,-0.03528737,0.00762664,-0.01574059,0.004
 57159,-0.00001977,0.00114266,-0.00247588,0.00082067,-0.00168455,0.0009
 7437,-0.00017247,0.00064143,0.00066844,-0.00030825,-0.00005448,-0.0005
 4385,0.00028641,-0.00013432,0.00260408,-0.00316056,0.00420033,0.408044
 68,0.05829788,-0.03464595,0.01225623,-0.02733512,-0.00468534,-0.000574
 76,0.00011450,-0.00569523,-0.00412194,-0.00044865,0.00115354,0.0010915
 4,0.00051181,-0.00065400,-0.00015275,0.00027329,-0.00001291,-0.0003413
 9,-0.00017075,0.00010412,0.00019069,0.00040775,0.01070516,0.00651540,-
 0.03026967,0.03400829,-0.12799197,0.00828022,-0.05624897,0.03910950,0.
 00489654,-0.00695174,-0.00083641,-0.00545994,-0.00054226,0.00156453,-0
 .00028255,0.00272655,-0.00049686,-0.00026906,-0.00040183,-0.00054795,0
 .00015991,-0.00011022,0.00059494,-0.00007456,0.00010680,0.00133754,0.0
 0830343,0.00133235,0.08817995,-0.01590616,0.05982899,0.00047034,-0.000
 08904,0.00021714,0.00424548,-0.00286399,0.00246111,-0.20068475,0.09716
 409,-0.11373430,-0.00106327,0.01192695,-0.01580694,0.00065961,-0.00029
 686,0.00014029,0.00026736,-0.00011859,-0.00005074,-0.00060430,0.000041
 72,0.00009844,-0.00072353,0.00277014,0.00083942,-0.00043389,0.00017082
 ,-0.00037323,0.19818395,-0.00093812,-0.00096191,0.00061106,0.00874900,
 -0.00304797,-0.00576970,0.10577183,-0.10062046,0.09932857,-0.00745794,
 0.00051349,-0.00286134,0.00029336,-0.00152184,-0.00137020,-0.00007843,
 0.00022960,-0.00036663,0.00006123,-0.00016536,0.00040596,0.00355234,0.
 00671849,0.00923975,-0.00037292,0.00004238,0.00023054,-0.10848864,0.09
 703293,0.00021335,0.00060862,-0.00151753,-0.01196987,-0.00253625,0.002
 30016,-0.11411858,0.09568363,-0.14453026,0.00263619,-0.00166428,0.0002
 7621,-0.00060360,-0.00119179,-0.00039088,0.00041451,-0.00015462,-0.000
 31872,-0.00045710,0.00020158,0.00013563,-0.00161095,0.00751196,0.00580
 055,0.00038173,0.00010410,0.00018914,0.12783121,-0.09871614,0.13941118
 ,0.00115962,-0.00107608,0.00088604,-0.00783436,0.03286649,-0.00260570,
 -0.00109198,0.00267623,-0.00009865,-0.00252346,-0.00224944,-0.00939165
 ,-0.00128614,-0.00014151,0.00087370,-0.00133210,0.00037793,-0.00031636
 ,0.00203588,-0.00044302,0.00057470,-0.11343843,0.13186824,0.01602845,-
 0.00000490,-0.00146971,-0.00060948,-0.00026501,-0.00106699,-0.00261169
 ,0.12454907,0.00010331,0.00006009,-0.00061675,-0.00621196,0.00323607,-
 0.00243288,0.00094426,0.00018591,0.00316309,0.00490860,-0.00994679,-0.
 00901331,-0.00120231,0.00013956,0.00053177,-0.00097498,0.00062770,-0.0
 0027811,0.00104817,-0.00120363,0.00080791,0.16293695,-0.33942512,0.029
 09152,-0.00013166,-0.00025863,0.00020504,-0.00025183,0.00191521,0.0001
 5369,-0.16116668,0.34486062,0.00225337,0.00033934,-0.00017589,-0.01195
 933,-0.00410956,-0.00660439,-0.00061962,0.00203420,0.00126871,-0.01905
 981,0.02878744,-0.00112034,-0.00111324,-0.00138534,0.00028916,-0.00066
 284,0.00049680,-0.00000873,0.00211224,-0.00047081,0.00057700,0.0335511
 5,-0.00380318,-0.03022892,-0.00017823,0.00077293,-0.00000567,-0.001644
 12,-0.00092258,-0.00153620,-0.00286749,-0.02164853,0.03760788,0.000428
 56,0.00063098,-0.00087757,0.00007947,-0.00107070,0.00157456,0.00162083
 ,0.00082899,-0.00101609,-0.00450238,-0.00129754,0.00299122,0.01222138,
 0.00205421,-0.00023642,-0.16426916,-0.16783647,-0.09785546,-0.05103138
 ,-0.02087779,-0.01506115,0.00002319,-0.00005109,-0.00037531,-0.0001092
 0,-0.00008216,0.00006943,-0.00005198,-0.00002471,-0.00010519,0.0000317
 9,-0.00000189,0.00018792,0.20555888,0.00011679,-0.00012800,0.00036720,
 -0.00070662,0.00063312,-0.00084973,0.00012581,-0.00017718,0.00063153,-
 0.00160801,-0.00160901,-0.00248611,0.00533418,0.00390807,0.00264934,-0
 .21794272,-0.20926469,-0.12050611,0.02588454,-0.00619393,0.00121419,0.
 00109160,0.00026133,0.00000173,0.00011651,-0.00006143,-0.00008341,0.00
 003523,-0.00013458,-0.00000050,-0.00017547,-0.00019100,-0.00009070,0.1
 8772816,0.21295730,0.00013017,-0.00006708,0.00005831,-0.00040175,-0.00
 032339,-0.00062730,-0.00000946,-0.00058867,0.00005867,-0.00216461,0.00
 552380,0.00298186,0.00168976,-0.01055840,0.00192583,-0.12379765,-0.116
 24133,-0.07407930,0.01354652,0.00261856,-0.00657915,0.00011835,0.00009
 055,-0.00043068,0.00002476,0.00016612,0.00007687,0.00002171,0.00019071
 ,0.00018072,0.00013813,0.00003656,-0.00006260,0.11070406,0.11915257,0.
 07649679\\-0.00000177,-0.00001867,0.00001943,-0.00000287,0.00003939,-0
 .00005625,-0.00003182,0.00002757,0.00006764,-0.00002953,0.00000210,-0.
 00001506,0.00003836,-0.00002863,0.00004070,-0.00002616,-0.00000375,-0.
 00006185,0.00004166,-0.00003216,0.00003394,-0.00000007,0.00000296,-0.0
 0001712,-0.00001510,0.00000125,0.00000064,0.00001185,-0.00002634,-0.00
 001509,0.00003492,0.00001555,-0.00002265,-0.00001947,0.00002073,0.0000
 2568\\\@


 A COMPLEXITY IS MERELY A DISARRANGEMENT OF SIMPLICITIES.

                                    -- G. O. ABELL IN "EXPLORATION OF THE UNIVERSE"
 Job cpu time:       0 days  0 hours 47 minutes 25.9 seconds.
 Elapsed time:       0 days  0 hours 11 minutes 52.0 seconds.
 File lengths (MBytes):  RWF=     69 Int=      0 D2E=      0 Chk=      6 Scr=      1
 Normal termination of Gaussian 16 at Thu Aug  4 14:18:35 2022.
### All Done ###
