### Starting Gaussian ###
 Entering Gaussian System, Link 0=g16
 Initial command:
 /cluster/software/gaussian/gaussian-16-A.03/avx2/g16/l1.exe "/local/scratch/ks29c/Gau-4627.inp" -scrdir="/local/scratch/ks29c/"
 Entering Link 1 = /cluster/software/gaussian/gaussian-16-A.03/avx2/g16/l1.exe PID=      4628.
  
 Copyright (c) 1988,1990,1992,1993,1995,1998,2003,2009,2016,
            Gaussian, Inc.  All Rights Reserved.
  
 This is part of the Gaussian(R) 16 program.  It is based on
 the Gaussian(R) 09 system (copyright 2009, Gaussian, Inc.),
 the Gaussian(R) 03 system (copyright 2003, Gaussian, Inc.),
 the Gaussian(R) 98 system (copyright 1998, Gaussian, Inc.),
 the Gaussian(R) 94 system (copyright 1995, Gaussian, Inc.),
 the Gaussian 92(TM) system (copyright 1992, Gaussian, Inc.),
 the Gaussian 90(TM) system (copyright 1990, Gaussian, Inc.),
 the Gaussian 88(TM) system (copyright 1988, Gaussian, Inc.),
 the Gaussian 86(TM) system (copyright 1986, Carnegie Mellon
 University), and the Gaussian 82(TM) system (copyright 1983,
 Carnegie Mellon University). Gaussian is a federally registered
 trademark of Gaussian, Inc.
  
 This software contains proprietary and confidential information,
 including trade secrets, belonging to Gaussian, Inc.
  
 This software is provided under written license and may be
 used, copied, transmitted, or stored only in accord with that
 written license.
  
 The following legend is applicable only to US Government
 contracts under FAR:
  
                    RESTRICTED RIGHTS LEGEND
  
 Use, reproduction and disclosure by the US Government is
 subject to restrictions as set forth in subparagraphs (a)
 and (c) of the Commercial Computer Software - Restricted
 Rights clause in FAR 52.227-19.
  
 Gaussian, Inc.
 340 Quinnipiac St., Bldg. 40, Wallingford CT 06492
  
  
 ---------------------------------------------------------------
 Warning -- This program may not be used in any manner that
 competes with the business of Gaussian, Inc. or will provide
 assistance to any competitor of Gaussian, Inc.  The licensee
 of this program is prohibited from giving any competitor of
 Gaussian, Inc. access to this program.  By using this program,
 the user acknowledges that Gaussian, Inc. is engaged in the
 business of creating and licensing software in the field of
 computational chemistry and represents and warrants to the
 licensee that it is not a competitor of Gaussian, Inc. and that
 it will not use this program in any manner prohibited above.
 ---------------------------------------------------------------
  

 Cite this work as:
 Gaussian 16, Revision A.03,
 M. J. Frisch, G. W. Trucks, H. B. Schlegel, G. E. Scuseria, 
 M. A. Robb, J. R. Cheeseman, G. Scalmani, V. Barone, 
 G. A. Petersson, H. Nakatsuji, X. Li, M. Caricato, A. V. Marenich, 
 J. Bloino, B. G. Janesko, R. Gomperts, B. Mennucci, H. P. Hratchian, 
 J. V. Ortiz, A. F. Izmaylov, J. L. Sonnenberg, D. Williams-Young, 
 F. Ding, F. Lipparini, F. Egidi, J. Goings, B. Peng, A. Petrone, 
 T. Henderson, D. Ranasinghe, V. G. Zakrzewski, J. Gao, N. Rega, 
 G. Zheng, W. Liang, M. Hada, M. Ehara, K. Toyota, R. Fukuda, 
 J. Hasegawa, M. Ishida, T. Nakajima, Y. Honda, O. Kitao, H. Nakai, 
 T. Vreven, K. Throssell, J. A. Montgomery, Jr., J. E. Peralta, 
 F. Ogliaro, M. J. Bearpark, J. J. Heyd, E. N. Brothers, K. N. Kudin, 
 V. N. Staroverov, T. A. Keith, R. Kobayashi, J. Normand, 
 K. Raghavachari, A. P. Rendell, J. C. Burant, S. S. Iyengar, 
 J. Tomasi, M. Cossi, J. M. Millam, M. Klene, C. Adamo, R. Cammi, 
 J. W. Ochterski, R. L. Martin, K. Morokuma, O. Farkas, 
 J. B. Foresman, and D. J. Fox, Gaussian, Inc., Wallingford CT, 2016.
 
 ******************************************
 Gaussian 16:  ES64L-G16RevA.03 25-Dec-2016
                 3-Jul-2022 
 ******************************************
 %chk=NdC1C2CNpC2pC2CC12.chk
 %NProcShared=20
 Will use up to   20 processors via shared memory.
 -----------------------------
 # opt freq b3lyp/6-31g(2df,p)
 -----------------------------
 1/18=20,19=15,26=3,38=1/1,3;
 2/9=110,12=2,17=6,18=5,40=1/2;
 3/5=1,6=6,7=104,11=2,25=1,30=1,71=1,74=-5/1,2,3;
 4//1;
 5/5=2,38=5/2;
 6/7=2,8=2,9=2,10=2,28=1/1;
 7//1,2,3,16;
 1/18=20,19=15,26=3/3(2);
 2/9=110/2;
 99//99;
 2/9=110/2;
 3/5=1,6=6,7=104,11=2,25=1,30=1,71=1,74=-5/1,2,3;
 4/5=5,16=3,69=1/1;
 5/5=2,38=5/2;
 7//1,2,3,16;
 1/18=20,19=15,26=3/3(-5);
 2/9=110/2;
 6/7=2,8=2,9=2,10=2,19=2,28=1/1;
 99/9=1/99;
 -------------------
 Title Card Required
 -------------------
 Symbolic Z-matrix:
 Charge =  0 Multiplicity = 1
 N                     0.86547  -0.01316  -0.00112 
 C                     2.14473   0.00904  -0.00839 
 C                     3.07791   1.26856   0.11774 
 C                     4.55307   1.18824  -0.43928 
 N                     4.84311   0.28963   0.73579 
 C                     3.86174   1.22016   1.46365 
 C                     4.29223  -1.1075    0.46769 
 C                     3.95849  -1.5611   -0.96583 
 C                     2.86538  -1.26839   0.00396 
 H                     0.48549   0.93476   0.0852 
 H                     2.56585   2.20037  -0.13357 
 H                     5.12887   2.12427  -0.41425 
 H                     4.76201   0.76472  -1.42068 
 H                     4.29521   2.19326   1.74968 
 H                     3.34033   0.82372   2.33965 
 H                     4.56191  -1.82675   1.23898 
 H                     4.06767  -2.59     -1.28764 
 H                     3.93892  -0.91991  -1.84356 
 H                     2.30809  -2.14227   0.32578 
 

 GradGradGradGradGradGradGradGradGradGradGradGradGradGradGradGradGradGrad
 Berny optimization.
 Initialization pass.
                           ----------------------------
                           !    Initial Parameters    !
                           ! (Angstroms and Degrees)  !
 --------------------------                            --------------------------
 ! Name  Definition              Value          Derivative Info.                !
 --------------------------------------------------------------------------------
 ! R1    R(1,2)                  1.2795         estimate D2E/DX2                !
 ! R2    R(1,10)                 1.0249         estimate D2E/DX2                !
 ! R3    R(2,3)                  1.5726         estimate D2E/DX2                !
 ! R4    R(2,9)                  1.4667         estimate D2E/DX2                !
 ! R5    R(3,4)                  1.5789         estimate D2E/DX2                !
 ! R6    R(3,6)                  1.5583         estimate D2E/DX2                !
 ! R7    R(3,11)                 1.0925         estimate D2E/DX2                !
 ! R8    R(4,5)                  1.5075         estimate D2E/DX2                !
 ! R9    R(4,12)                 1.0992         estimate D2E/DX2                !
 ! R10   R(4,13)                 1.0891         estimate D2E/DX2                !
 ! R11   R(5,6)                  1.5358         estimate D2E/DX2                !
 ! R12   R(5,7)                  1.5256         estimate D2E/DX2                !
 ! R13   R(6,14)                 1.103          estimate D2E/DX2                !
 ! R14   R(6,15)                 1.0938         estimate D2E/DX2                !
 ! R15   R(7,8)                  1.5402         estimate D2E/DX2                !
 ! R16   R(7,9)                  1.5089         estimate D2E/DX2                !
 ! R17   R(7,16)                 1.0885         estimate D2E/DX2                !
 ! R18   R(8,9)                  1.4903         estimate D2E/DX2                !
 ! R19   R(8,17)                 1.0836         estimate D2E/DX2                !
 ! R20   R(8,18)                 1.0872         estimate D2E/DX2                !
 ! R21   R(9,19)                 1.0853         estimate D2E/DX2                !
 ! A1    A(2,1,10)             110.801          estimate D2E/DX2                !
 ! A2    A(1,2,3)              127.3538         estimate D2E/DX2                !
 ! A3    A(1,2,9)              118.4302         estimate D2E/DX2                !
 ! A4    A(3,2,9)              113.9106         estimate D2E/DX2                !
 ! A5    A(2,3,4)              119.0372         estimate D2E/DX2                !
 ! A6    A(2,3,6)              110.0526         estimate D2E/DX2                !
 ! A7    A(2,3,11)             112.738          estimate D2E/DX2                !
 ! A8    A(4,3,6)               80.3962         estimate D2E/DX2                !
 ! A9    A(4,3,11)             113.587          estimate D2E/DX2                !
 ! A10   A(6,3,11)             117.4468         estimate D2E/DX2                !
 ! A11   A(3,4,5)               86.2779         estimate D2E/DX2                !
 ! A12   A(3,4,12)             115.9801         estimate D2E/DX2                !
 ! A13   A(3,4,13)             121.1266         estimate D2E/DX2                !
 ! A14   A(5,4,12)             112.8967         estimate D2E/DX2                !
 ! A15   A(5,4,13)             115.7022         estimate D2E/DX2                !
 ! A16   A(12,4,13)            104.546          estimate D2E/DX2                !
 ! A17   A(4,5,6)               83.4141         estimate D2E/DX2                !
 ! A18   A(4,5,7)              109.8441         estimate D2E/DX2                !
 ! A19   A(6,5,7)              114.0433         estimate D2E/DX2                !
 ! A20   A(3,6,5)               86.0378         estimate D2E/DX2                !
 ! A21   A(3,6,14)             113.2195         estimate D2E/DX2                !
 ! A22   A(3,6,15)             117.5942         estimate D2E/DX2                !
 ! A23   A(5,6,14)             113.973          estimate D2E/DX2                !
 ! A24   A(5,6,15)             117.6814         estimate D2E/DX2                !
 ! A25   A(14,6,15)            107.422          estimate D2E/DX2                !
 ! A26   A(5,7,8)              120.7664         estimate D2E/DX2                !
 ! A27   A(5,7,9)              119.5459         estimate D2E/DX2                !
 ! A28   A(5,7,16)             113.0254         estimate D2E/DX2                !
 ! A29   A(8,7,16)             121.2366         estimate D2E/DX2                !
 ! A30   A(9,7,16)             112.4311         estimate D2E/DX2                !
 ! A31   A(7,8,17)             122.2929         estimate D2E/DX2                !
 ! A32   A(7,8,18)             125.5672         estimate D2E/DX2                !
 ! A33   A(9,8,17)             116.9789         estimate D2E/DX2                !
 ! A34   A(9,8,18)             113.3488         estimate D2E/DX2                !
 ! A35   A(17,8,18)            108.7878         estimate D2E/DX2                !
 ! A36   A(2,9,7)              111.9829         estimate D2E/DX2                !
 ! A37   A(2,9,8)              121.7325         estimate D2E/DX2                !
 ! A38   A(2,9,19)             116.8394         estimate D2E/DX2                !
 ! A39   A(7,9,19)             118.705          estimate D2E/DX2                !
 ! A40   A(8,9,19)             114.2961         estimate D2E/DX2                !
 ! D1    D(10,1,2,3)             0.9957         estimate D2E/DX2                !
 ! D2    D(10,1,2,9)           174.23           estimate D2E/DX2                !
 ! D3    D(1,2,3,4)           -157.2218         estimate D2E/DX2                !
 ! D4    D(1,2,3,6)            112.8067         estimate D2E/DX2                !
 ! D5    D(1,2,3,11)           -20.4281         estimate D2E/DX2                !
 ! D6    D(9,2,3,4)             29.2853         estimate D2E/DX2                !
 ! D7    D(9,2,3,6)            -60.6862         estimate D2E/DX2                !
 ! D8    D(9,2,3,11)           166.079          estimate D2E/DX2                !
 ! D9    D(1,2,9,7)           -160.219          estimate D2E/DX2                !
 ! D10   D(1,2,9,8)            130.2478         estimate D2E/DX2                !
 ! D11   D(1,2,9,19)           -18.5213         estimate D2E/DX2                !
 ! D12   D(3,2,9,7)             13.9014         estimate D2E/DX2                !
 ! D13   D(3,2,9,8)            -55.6318         estimate D2E/DX2                !
 ! D14   D(3,2,9,19)           155.5992         estimate D2E/DX2                !
 ! D15   D(2,3,4,5)            -72.0259         estimate D2E/DX2                !
 ! D16   D(2,3,4,12)           174.2695         estimate D2E/DX2                !
 ! D17   D(2,3,4,13)            45.906          estimate D2E/DX2                !
 ! D18   D(6,3,4,5)             35.661          estimate D2E/DX2                !
 ! D19   D(6,3,4,12)           -78.0436         estimate D2E/DX2                !
 ! D20   D(6,3,4,13)           153.5929         estimate D2E/DX2                !
 ! D21   D(11,3,4,5)           151.5236         estimate D2E/DX2                !
 ! D22   D(11,3,4,12)           37.819          estimate D2E/DX2                !
 ! D23   D(11,3,4,13)          -90.5445         estimate D2E/DX2                !
 ! D24   D(2,3,6,5)             82.6182         estimate D2E/DX2                !
 ! D25   D(2,3,6,14)          -162.9594         estimate D2E/DX2                !
 ! D26   D(2,3,6,15)           -36.6721         estimate D2E/DX2                !
 ! D27   D(4,3,6,5)            -34.9164         estimate D2E/DX2                !
 ! D28   D(4,3,6,14)            79.5061         estimate D2E/DX2                !
 ! D29   D(4,3,6,15)          -154.2066         estimate D2E/DX2                !
 ! D30   D(11,3,6,5)          -146.5961         estimate D2E/DX2                !
 ! D31   D(11,3,6,14)          -32.1737         estimate D2E/DX2                !
 ! D32   D(11,3,6,15)           94.1136         estimate D2E/DX2                !
 ! D33   D(3,4,5,6)            -35.951          estimate D2E/DX2                !
 ! D34   D(3,4,5,7)             77.2749         estimate D2E/DX2                !
 ! D35   D(12,4,5,6)            80.7322         estimate D2E/DX2                !
 ! D36   D(12,4,5,7)          -166.0419         estimate D2E/DX2                !
 ! D37   D(13,4,5,6)          -158.8795         estimate D2E/DX2                !
 ! D38   D(13,4,5,7)           -45.6536         estimate D2E/DX2                !
 ! D39   D(4,5,6,3)             36.5141         estimate D2E/DX2                !
 ! D40   D(4,5,6,14)           -77.1709         estimate D2E/DX2                !
 ! D41   D(4,5,6,15)           155.7228         estimate D2E/DX2                !
 ! D42   D(7,5,6,3)            -72.3106         estimate D2E/DX2                !
 ! D43   D(7,5,6,14)           174.0044         estimate D2E/DX2                !
 ! D44   D(7,5,6,15)            46.8981         estimate D2E/DX2                !
 ! D45   D(4,5,7,8)             18.758          estimate D2E/DX2                !
 ! D46   D(4,5,7,9)            -50.06           estimate D2E/DX2                !
 ! D47   D(4,5,7,16)           174.0932         estimate D2E/DX2                !
 ! D48   D(6,5,7,8)            110.3332         estimate D2E/DX2                !
 ! D49   D(6,5,7,9)             41.5152         estimate D2E/DX2                !
 ! D50   D(6,5,7,16)           -94.3316         estimate D2E/DX2                !
 ! D51   D(5,7,8,17)           147.4312         estimate D2E/DX2                !
 ! D52   D(5,7,8,18)            -9.5382         estimate D2E/DX2                !
 ! D53   D(16,7,8,17)           -5.8779         estimate D2E/DX2                !
 ! D54   D(16,7,8,18)         -162.8473         estimate D2E/DX2                !
 ! D55   D(5,7,9,2)             -5.2655         estimate D2E/DX2                !
 ! D56   D(5,7,9,19)          -146.1762         estimate D2E/DX2                !
 ! D57   D(16,7,9,2)           130.8219         estimate D2E/DX2                !
 ! D58   D(16,7,9,19)          -10.0888         estimate D2E/DX2                !
 ! D59   D(17,8,9,2)          -146.9611         estimate D2E/DX2                !
 ! D60   D(17,8,9,19)            2.5353         estimate D2E/DX2                !
 ! D61   D(18,8,9,2)           -19.1269         estimate D2E/DX2                !
 ! D62   D(18,8,9,19)          130.3695         estimate D2E/DX2                !
 --------------------------------------------------------------------------------
 Trust Radius=3.00D-01 FncErr=1.00D-07 GrdErr=1.00D-06 EigMax=2.50D+02 EigMin=1.00D-04
 Number of steps in this run=    114 maximum allowed number of steps=    114.
 GradGradGradGradGradGradGradGradGradGradGradGradGradGradGradGradGradGrad

                          Input orientation:                          
 ---------------------------------------------------------------------
 Center     Atomic      Atomic             Coordinates (Angstroms)
 Number     Number       Type             X           Y           Z
 ---------------------------------------------------------------------
      1          7           0        0.865470   -0.013160   -0.001120
      2          6           0        2.144730    0.009040   -0.008390
      3          6           0        3.077910    1.268560    0.117740
      4          6           0        4.553070    1.188240   -0.439280
      5          7           0        4.843110    0.289630    0.735790
      6          6           0        3.861740    1.220160    1.463650
      7          6           0        4.292230   -1.107500    0.467690
      8          6           0        3.958490   -1.561100   -0.965830
      9          6           0        2.865380   -1.268390    0.003960
     10          1           0        0.485490    0.934760    0.085200
     11          1           0        2.565850    2.200370   -0.133570
     12          1           0        5.128870    2.124270   -0.414250
     13          1           0        4.762010    0.764720   -1.420680
     14          1           0        4.295210    2.193260    1.749680
     15          1           0        3.340330    0.823720    2.339650
     16          1           0        4.561910   -1.826750    1.238980
     17          1           0        4.067670   -2.590000   -1.287640
     18          1           0        3.938920   -0.919910   -1.843560
     19          1           0        2.308090   -2.142270    0.325780
 ---------------------------------------------------------------------
                    Distance matrix (angstroms):
                    1          2          3          4          5
     1  N    0.000000
     2  C    1.279473   0.000000
     3  C    2.559653   1.572617   0.000000
     4  C    3.903042   2.715931   1.578867   0.000000
     5  N    4.056641   2.813146   2.110976   1.507452   0.000000
     6  C    3.555877   2.565509   1.558270   2.024870   1.535823
     7  C    3.627678   2.466793   2.691226   2.482147   1.525555
     8  C    3.590760   2.582974   3.155396   2.861757   2.665195
     9  C    2.361201   1.466737   2.548378   3.013269   2.621911
    10  H    1.024885   1.902313   2.614024   4.109080   4.452899
    11  H    2.794378   2.234936   1.092535   2.250980   3.097197
    12  H    4.787052   3.680219   2.285102   1.099238   2.184068
    13  H    4.219392   3.068513   2.335976   1.089115   2.209672
    14  H    4.438097   3.533581   2.236094   2.422417   2.225303
    15  H    3.507778   2.757980   2.281147   3.053861   2.261850
    16  H    4.300073   3.281587   3.611147   3.450623   2.193476
    17  H    4.306892   3.476951   4.224122   3.902618   3.603865
    18  H    3.696333   2.729453   3.062260   2.606430   2.988912
    19  H    2.592513   2.183229   3.502808   4.088710   3.536746
                    6          7          8          9         10
     6  C    0.000000
     7  C    2.568124   0.000000
     8  C    3.694204   1.540167   0.000000
     9  C    3.052263   1.508918   1.490323   0.000000
    10  H    3.657956   4.336865   4.404056   3.244125   0.000000
    11  H    2.278432   3.779405   4.096433   3.484384   2.444898
    12  H    2.439168   3.452843   3.905891   4.099808   4.819270
    13  H    3.055695   2.700341   2.502393   3.124154   4.537093
    14  H    1.103011   3.540978   4.645707   4.132187   4.343764
    15  H    1.093805   2.853061   4.122582   3.171427   3.639366
    16  H    3.134386   1.088548   2.301276   2.171464   5.057108
    17  H    4.704181   2.308553   1.083567   2.204628   5.209668
    18  H    3.939987   2.345612   1.087160   2.165007   4.368764
    19  H    3.874856   2.242253   2.174818   1.085268   3.584392
                   11         12         13         14         15
    11  H    0.000000
    12  H    2.579466   0.000000
    13  H    2.922475   1.730856   0.000000
    14  H    2.556828   2.319987   3.508534   0.000000
    15  H    2.934587   3.531893   4.020539   1.770734   0.000000
    16  H    4.699558   4.320321   3.718810   4.061087   3.119090
    17  H    5.151212   4.910529   3.428404   5.670685   5.033859
    18  H    3.813861   3.567344   1.922052   4.767614   4.571411
    19  H    4.374467   5.167960   4.185981   4.977244   3.730722
                   16         17         18         19
    16  H    0.000000
    17  H    2.685262   0.000000
    18  H    3.273000   1.764886   0.000000
    19  H    2.452181   2.428931   2.976543   0.000000
 Stoichiometry    C7H10N2
 Framework group  C1[X(C7H10N2)]
 Deg. of freedom    51
 Full point group                 C1      NOp   1
 Largest Abelian subgroup         C1      NOp   1
 Largest concise Abelian subgroup C1      NOp   1
                         Standard orientation:                         
 ---------------------------------------------------------------------
 Center     Atomic      Atomic             Coordinates (Angstroms)
 Number     Number       Type             X           Y           Z
 ---------------------------------------------------------------------
      1          7           0       -2.197883   -1.257366    0.004998
      2          6           0       -1.102991   -0.599526    0.079231
      3          6           0        0.324019   -1.158571    0.431704
      4          6           0        1.416697   -0.168871    0.996830
      5          7           0        1.483711    0.397754   -0.398468
      6          6           0        1.257315   -1.063763   -0.812552
      7          6           0        0.284045    1.306972   -0.646351
      8          6           0       -0.528410    1.877880    0.530975
      9          6           0       -1.104994    0.808374   -0.332024
     10          1           0       -2.044356   -2.245910    0.227704
     11          1           0        0.284576   -2.114084    0.959977
     12          1           0        2.362424   -0.628102    1.317817
     13          1           0        1.177229    0.543623    1.784979
     14          1           0        2.156631   -1.697159   -0.730867
     15          1           0        0.813155   -1.250724   -1.794477
     16          1           0        0.332898    1.825179   -1.602390
     17          1           0       -1.001826    2.851668    0.489371
     18          1           0       -0.425689    1.582698    1.572240
     19          1           0       -1.929934    1.135125   -0.956936
 ---------------------------------------------------------------------
 Rotational constants (GHZ):           2.4248591           2.0278936           1.4132957
 Standard basis: 6-31G(2df,p) (6D, 7F)
 There are   329 symmetry adapted cartesian basis functions of A   symmetry.
 There are   302 symmetry adapted basis functions of A   symmetry.
   302 basis functions,   466 primitive gaussians,   329 cartesian basis functions
    33 alpha electrons       33 beta electrons
       nuclear repulsion energy       456.5467267087 Hartrees.
 NAtoms=   19 NActive=   19 NUniq=   19 SFac= 1.00D+00 NAtFMM=   60 NAOKFM=F Big=F
 Integral buffers will be    131072 words long.
 Raffenetti 2 integral format.
 Two-electron integral symmetry is turned on.
 One-electron integrals computed using PRISM.
 PrsmSu:  requested number of processors reduced to:  13 ShMem   1 Linda.
 NBasis=   302 RedAO= T EigKep=  2.82D-04  NBF=   302
 NBsUse=   302 1.00D-06 EigRej= -1.00D+00 NBFU=   302
 ExpMin= 1.61D-01 ExpMax= 4.17D+03 ExpMxC= 6.27D+02 IAcc=3 IRadAn=         5 AccDes= 0.00D+00
 Harris functional with IExCor=  402 and IRadAn=       5 diagonalized for initial guess.
 HarFok:  IExCor=  402 AccDes= 0.00D+00 IRadAn=         5 IDoV= 1 UseB2=F ITyADJ=14
 ICtDFT=  3500011 ScaDFX=  1.000000  1.000000  1.000000  1.000000
 FoFCou: FMM=F IPFlag=           0 FMFlag=      100000 FMFlg1=           0
         NFxFlg=           0 DoJE=T BraDBF=F KetDBF=T FulRan=T
         wScrn=  0.000000 ICntrl=       500 IOpCl=  0 I1Cent=   200000004 NGrid=           0
         NMat0=    1 NMatS0=      1 NMatT0=    0 NMatD0=    1 NMtDS0=    0 NMtDT0=    0
 Petite list used in FoFCou.
 Requested convergence on RMS density matrix=1.00D-08 within 128 cycles.
 Requested convergence on MAX density matrix=1.00D-06.
 Requested convergence on             energy=1.00D-06.
 No special actions if energy rises.
 Integral accuracy reduced to 1.0D-05 until final iterations.
 Initial convergence to 1.0D-05 achieved.  Increase integral accuracy.
 SCF Done:  E(RB3LYP) =  -382.156780268     A.U. after   13 cycles
            NFock= 13  Conv=0.59D-08     -V/T= 2.0086

 **********************************************************************

            Population analysis using the SCF density.

 **********************************************************************

 Orbital symmetries:
       Occupied  (A) (A) (A) (A) (A) (A) (A) (A) (A) (A) (A) (A)
                 (A) (A) (A) (A) (A) (A) (A) (A) (A) (A) (A) (A)
                 (A) (A) (A) (A) (A) (A) (A) (A) (A)
       Virtual   (A) (A) (A) (A) (A) (A) (A) (A) (A) (A) (A) (A)
                 (A) (A) (A) (A) (A) (A) (A) (A) (A) (A) (A) (A)
                 (A) (A) (A) (A) (A) (A) (A) (A) (A) (A) (A) (A)
                 (A) (A) (A) (A) (A) (A) (A) (A) (A) (A) (A) (A)
                 (A) (A) (A) (A) (A) (A) (A) (A) (A) (A) (A) (A)
                 (A) (A) (A) (A) (A) (A) (A) (A) (A) (A) (A) (A)
                 (A) (A) (A) (A) (A) (A) (A) (A) (A) (A) (A) (A)
                 (A) (A) (A) (A) (A) (A) (A) (A) (A) (A) (A) (A)
                 (A) (A) (A) (A) (A) (A) (A) (A) (A) (A) (A) (A)
                 (A) (A) (A) (A) (A) (A) (A) (A) (A) (A) (A) (A)
                 (A) (A) (A) (A) (A) (A) (A) (A) (A) (A) (A) (A)
                 (A) (A) (A) (A) (A) (A) (A) (A) (A) (A) (A) (A)
                 (A) (A) (A) (A) (A) (A) (A) (A) (A) (A) (A) (A)
                 (A) (A) (A) (A) (A) (A) (A) (A) (A) (A) (A) (A)
                 (A) (A) (A) (A) (A) (A) (A) (A) (A) (A) (A) (A)
                 (A) (A) (A) (A) (A) (A) (A) (A) (A) (A) (A) (A)
                 (A) (A) (A) (A) (A) (A) (A) (A) (A) (A) (A) (A)
                 (A) (A) (A) (A) (A) (A) (A) (A) (A) (A) (A) (A)
                 (A) (A) (A) (A) (A) (A) (A) (A) (A) (A) (A) (A)
                 (A) (A) (A) (A) (A) (A) (A) (A) (A) (A) (A) (A)
                 (A) (A) (A) (A) (A) (A) (A) (A) (A) (A) (A) (A)
                 (A) (A) (A) (A) (A) (A) (A) (A) (A) (A) (A) (A)
                 (A) (A) (A) (A) (A)
 The electronic state is 1-A.
 Alpha  occ. eigenvalues --  -14.33521 -14.30489 -10.23513 -10.23250 -10.22328
 Alpha  occ. eigenvalues --  -10.21782 -10.20826 -10.20106 -10.18842  -0.95431
 Alpha  occ. eigenvalues --   -0.89227  -0.85319  -0.72842  -0.67768  -0.65019
 Alpha  occ. eigenvalues --   -0.61687  -0.58431  -0.53111  -0.51159  -0.47246
 Alpha  occ. eigenvalues --   -0.45842  -0.44301  -0.43007  -0.40518  -0.39432
 Alpha  occ. eigenvalues --   -0.37566  -0.34932  -0.34223  -0.31638  -0.30209
 Alpha  occ. eigenvalues --   -0.27868  -0.25503  -0.21147
 Alpha virt. eigenvalues --    0.00066   0.07935   0.08701   0.09714   0.10652
 Alpha virt. eigenvalues --    0.11677   0.12199   0.15031   0.15690   0.16559
 Alpha virt. eigenvalues --    0.17195   0.17679   0.19067   0.19609   0.21991
 Alpha virt. eigenvalues --    0.22663   0.23746   0.26586   0.27725   0.30449
 Alpha virt. eigenvalues --    0.33340   0.38759   0.42415   0.44905   0.45748
 Alpha virt. eigenvalues --    0.46151   0.47559   0.49084   0.50430   0.51406
 Alpha virt. eigenvalues --    0.52358   0.53224   0.53861   0.56478   0.57202
 Alpha virt. eigenvalues --    0.57849   0.60748   0.61777   0.62714   0.65042
 Alpha virt. eigenvalues --    0.68081   0.68403   0.71426   0.72662   0.73309
 Alpha virt. eigenvalues --    0.74327   0.74955   0.75565   0.77441   0.78545
 Alpha virt. eigenvalues --    0.79314   0.79647   0.81130   0.81625   0.82643
 Alpha virt. eigenvalues --    0.84305   0.85974   0.86942   0.90633   0.91750
 Alpha virt. eigenvalues --    0.94421   0.96569   1.02121   1.04264   1.05749
 Alpha virt. eigenvalues --    1.09629   1.12751   1.13395   1.16432   1.18786
 Alpha virt. eigenvalues --    1.22920   1.25505   1.28824   1.29568   1.31665
 Alpha virt. eigenvalues --    1.34348   1.34554   1.35778   1.36660   1.39365
 Alpha virt. eigenvalues --    1.42467   1.42909   1.44071   1.47041   1.47986
 Alpha virt. eigenvalues --    1.48461   1.49882   1.52393   1.55368   1.55718
 Alpha virt. eigenvalues --    1.57200   1.59846   1.63031   1.64381   1.66575
 Alpha virt. eigenvalues --    1.69085   1.69715   1.71050   1.74705   1.77469
 Alpha virt. eigenvalues --    1.77645   1.79438   1.82160   1.83671   1.88586
 Alpha virt. eigenvalues --    1.94412   1.96395   2.01265   2.02938   2.06127
 Alpha virt. eigenvalues --    2.07895   2.10423   2.17959   2.23809   2.28775
 Alpha virt. eigenvalues --    2.30144   2.32055   2.33575   2.34840   2.36053
 Alpha virt. eigenvalues --    2.40641   2.44029   2.45504   2.50923   2.54286
 Alpha virt. eigenvalues --    2.57019   2.58361   2.66002   2.67710   2.68772
 Alpha virt. eigenvalues --    2.70761   2.73754   2.76035   2.76608   2.80013
 Alpha virt. eigenvalues --    2.83675   2.84816   2.85669   2.86847   2.89898
 Alpha virt. eigenvalues --    2.90600   2.91797   2.94961   2.96906   3.00051
 Alpha virt. eigenvalues --    3.01000   3.02653   3.06258   3.06919   3.08477
 Alpha virt. eigenvalues --    3.11556   3.13570   3.15032   3.17374   3.17724
 Alpha virt. eigenvalues --    3.19544   3.21681   3.24873   3.25211   3.27135
 Alpha virt. eigenvalues --    3.31268   3.31883   3.34799   3.37241   3.39496
 Alpha virt. eigenvalues --    3.42596   3.44326   3.45186   3.48961   3.51264
 Alpha virt. eigenvalues --    3.54009   3.56608   3.58086   3.59348   3.63223
 Alpha virt. eigenvalues --    3.68451   3.72760   3.73888   3.77522   3.79219
 Alpha virt. eigenvalues --    3.83352   3.85732   3.89974   3.91198   3.94500
 Alpha virt. eigenvalues --    3.98561   3.99976   4.04409   4.05913   4.08079
 Alpha virt. eigenvalues --    4.11382   4.14139   4.16998   4.19218   4.22894
 Alpha virt. eigenvalues --    4.23249   4.26964   4.28573   4.30250   4.35040
 Alpha virt. eigenvalues --    4.36230   4.38168   4.39594   4.41971   4.42943
 Alpha virt. eigenvalues --    4.43872   4.46421   4.47712   4.51316   4.52820
 Alpha virt. eigenvalues --    4.54226   4.57701   4.59442   4.59941   4.63091
 Alpha virt. eigenvalues --    4.63635   4.64864   4.67469   4.67933   4.69326
 Alpha virt. eigenvalues --    4.71327   4.72943   4.74994   4.76770   4.80340
 Alpha virt. eigenvalues --    4.81382   4.84854   4.85547   4.89671   4.90635
 Alpha virt. eigenvalues --    4.93446   4.96943   5.00890   5.02447   5.04799
 Alpha virt. eigenvalues --    5.06538   5.08665   5.09324   5.13632   5.15153
 Alpha virt. eigenvalues --    5.19078   5.24914   5.33804   5.36325   5.37566
 Alpha virt. eigenvalues --    5.40090   5.42858   5.46610   5.48354   5.55922
 Alpha virt. eigenvalues --    5.58047   5.62364   5.64003   5.73405   5.88346
 Alpha virt. eigenvalues --    5.96484   6.37813   6.57069  10.45085  10.99109
 Alpha virt. eigenvalues --   11.07389  11.32404  11.46049  11.85690  12.12099
 Alpha virt. eigenvalues --   12.42751  12.56495  13.18951  16.91415
          Condensed to atoms (all electrons):
               1          2          3          4          5          6
     1  N    6.601581   0.671968  -0.076460   0.004038   0.000533  -0.001359
     2  C    0.671968   4.387499   0.431935  -0.000747  -0.015068  -0.013810
     3  C   -0.076460   0.431935   5.073957   0.317274  -0.109054   0.331388
     4  C    0.004038  -0.000747   0.317274   5.050825   0.323183  -0.119555
     5  N    0.000533  -0.015068  -0.109054   0.323183   6.349130   0.321860
     6  C   -0.001359  -0.013810   0.331388  -0.119555   0.321860   5.016179
     7  C   -0.001089  -0.013242   0.000680  -0.054828   0.412920  -0.060536
     8  C   -0.000364   0.000417  -0.006445  -0.004661  -0.007899   0.003569
     9  C   -0.021364   0.402269  -0.048179  -0.011361  -0.033646  -0.004385
    10  H    0.340312  -0.107338  -0.014729   0.000249   0.000091   0.000595
    11  H   -0.004281  -0.035042   0.330376  -0.042011   0.011679  -0.030923
    12  H   -0.000083   0.001082  -0.027873   0.367891  -0.024773  -0.002199
    13  H    0.000157  -0.003379  -0.026765   0.356880  -0.019475   0.011494
    14  H   -0.000100   0.001361  -0.030203  -0.003887  -0.017874   0.370713
    15  H    0.001055  -0.003114  -0.028881   0.010953  -0.020187   0.356469
    16  H    0.000017   0.002503  -0.000478   0.003831  -0.028988  -0.000730
    17  H   -0.000006   0.001811   0.000208  -0.000094   0.001264  -0.000070
    18  H   -0.000002  -0.006583   0.001604  -0.000894  -0.006112   0.000331
    19  H   -0.005876  -0.028954   0.004860  -0.000130   0.001844   0.000439
               7          8          9         10         11         12
     1  N   -0.001089  -0.000364  -0.021364   0.340312  -0.004281  -0.000083
     2  C   -0.013242   0.000417   0.402269  -0.107338  -0.035042   0.001082
     3  C    0.000680  -0.006445  -0.048179  -0.014729   0.330376  -0.027873
     4  C   -0.054828  -0.004661  -0.011361   0.000249  -0.042011   0.367891
     5  N    0.412920  -0.007899  -0.033646   0.000091   0.011679  -0.024773
     6  C   -0.060536   0.003569  -0.004385   0.000595  -0.030923  -0.002199
     7  C    4.868713   0.304803   0.247769  -0.000561  -0.000117   0.003204
     8  C    0.304803   5.064854   0.282148  -0.000171   0.000237   0.000291
     9  C    0.247769   0.282148   4.906791   0.011015   0.004674   0.000075
    10  H   -0.000561  -0.000171   0.011015   0.553401   0.007662  -0.000016
    11  H   -0.000117   0.000237   0.004674   0.007662   0.697465  -0.001361
    12  H    0.003204   0.000291   0.000075  -0.000016  -0.001361   0.609656
    13  H   -0.008386   0.002720   0.000623   0.000028   0.001833  -0.046173
    14  H    0.002435  -0.000101  -0.000015  -0.000069  -0.001448   0.004489
    15  H   -0.001708   0.000073   0.002332   0.000145   0.001642   0.000007
    16  H    0.387443  -0.022783  -0.050467   0.000007   0.000018  -0.000092
    17  H   -0.015243   0.374002  -0.015007   0.000004   0.000010  -0.000019
    18  H   -0.010500   0.374366  -0.023486  -0.000071  -0.000286  -0.000013
    19  H   -0.027500  -0.046632   0.375306  -0.000463  -0.000102   0.000018
              13         14         15         16         17         18
     1  N    0.000157  -0.000100   0.001055   0.000017  -0.000006  -0.000002
     2  C   -0.003379   0.001361  -0.003114   0.002503   0.001811  -0.006583
     3  C   -0.026765  -0.030203  -0.028881  -0.000478   0.000208   0.001604
     4  C    0.356880  -0.003887   0.010953   0.003831  -0.000094  -0.000894
     5  N   -0.019475  -0.017874  -0.020187  -0.028988   0.001264  -0.006112
     6  C    0.011494   0.370713   0.356469  -0.000730  -0.000070   0.000331
     7  C   -0.008386   0.002435  -0.001708   0.387443  -0.015243  -0.010500
     8  C    0.002720  -0.000101   0.000073  -0.022783   0.374002   0.374366
     9  C    0.000623  -0.000015   0.002332  -0.050467  -0.015007  -0.023486
    10  H    0.000028  -0.000069   0.000145   0.000007   0.000004  -0.000071
    11  H    0.001833  -0.001448   0.001642   0.000018   0.000010  -0.000286
    12  H   -0.046173   0.004489   0.000007  -0.000092  -0.000019  -0.000013
    13  H    0.620336  -0.000010  -0.000721  -0.000082   0.000121   0.003376
    14  H   -0.000010   0.594636  -0.043696  -0.000074   0.000002  -0.000003
    15  H   -0.000721  -0.043696   0.616350   0.000938  -0.000002   0.000020
    16  H   -0.000082  -0.000074   0.000938   0.601996  -0.002854   0.001562
    17  H    0.000121   0.000002  -0.000002  -0.002854   0.580693  -0.040387
    18  H    0.003376  -0.000003   0.000020   0.001562  -0.040387   0.567842
    19  H   -0.000037   0.000019  -0.000213  -0.006104  -0.009074   0.003426
              19
     1  N   -0.005876
     2  C   -0.028954
     3  C    0.004860
     4  C   -0.000130
     5  N    0.001844
     6  C    0.000439
     7  C   -0.027500
     8  C   -0.046632
     9  C    0.375306
    10  H   -0.000463
    11  H   -0.000102
    12  H    0.000018
    13  H   -0.000037
    14  H    0.000019
    15  H   -0.000213
    16  H   -0.006104
    17  H   -0.009074
    18  H    0.003426
    19  H    0.640475
 Mulliken charges:
               1
     1  N   -0.508677
     2  C    0.326432
     3  C   -0.123214
     4  C   -0.196954
     5  N   -0.139428
     6  C   -0.179469
     7  C   -0.034256
     8  C   -0.318424
     9  C   -0.025093
    10  H    0.209909
    11  H    0.059974
    12  H    0.115891
    13  H    0.107459
    14  H    0.123824
    15  H    0.108538
    16  H    0.114337
    17  H    0.124642
    18  H    0.135811
    19  H    0.098698
 Sum of Mulliken charges =  -0.00000
 Mulliken charges with hydrogens summed into heavy atoms:
               1
     1  N   -0.298767
     2  C    0.326432
     3  C   -0.063240
     4  C    0.026396
     5  N   -0.139428
     6  C    0.052893
     7  C    0.080080
     8  C   -0.057970
     9  C    0.073605
 Electronic spatial extent (au):  <R**2>=            968.4720
 Charge=             -0.0000 electrons
 Dipole moment (field-independent basis, Debye):
    X=              1.2433    Y=             -0.4111    Z=              0.6636  Tot=              1.4680
 Quadrupole moment (field-independent basis, Debye-Ang):
   XX=            -62.9082   YY=            -49.0749   ZZ=            -51.3192
   XY=             -5.8663   XZ=              1.1411   YZ=             -0.4231
 Traceless Quadrupole moment (field-independent basis, Debye-Ang):
   XX=             -8.4741   YY=              5.3592   ZZ=              3.1149
   XY=             -5.8663   XZ=              1.1411   YZ=             -0.4231
 Octapole moment (field-independent basis, Debye-Ang**2):
  XXX=             19.0694  YYY=             -6.6773  ZZZ=             -0.8374  XYY=             -6.6936
  XXY=             -1.0892  XXZ=              4.9959  XZZ=              1.3542  YZZ=              2.0183
  YYZ=             -0.1380  XYZ=              3.1023
 Hexadecapole moment (field-independent basis, Debye-Ang**3):
 XXXX=           -654.3380 YYYY=           -472.6502 ZZZZ=           -200.2911 XXXY=            -35.2347
 XXXZ=              8.0976 YYYX=              2.6421 YYYZ=             -4.9485 ZZZX=             -0.0596
 ZZZY=              0.3418 XXYY=           -171.7704 XXZZ=           -130.8848 YYZZ=           -113.1398
 XXYZ=             -2.7559 YYXZ=             -4.9466 ZZXY=             -1.8388
 N-N= 4.565467267087D+02 E-N=-1.799645987001D+03  KE= 3.788992481628D+02
 PrsmSu:  requested number of processors reduced to:  13 ShMem   1 Linda.
 Calling FoFJK, ICntrl=      2127 FMM=F ISym2X=0 I1Cent= 0 IOpClX= 0 NMat=1 NMatS=1 NMatT=0.
 ***** Axes restored to original set *****
 -------------------------------------------------------------------
 Center     Atomic                   Forces (Hartrees/Bohr)
 Number     Number              X              Y              Z
 -------------------------------------------------------------------
      1        7           0.007580688    0.010822008    0.003633241
      2        6           0.003153129    0.013269881   -0.007669335
      3        6          -0.000308117    0.025707054   -0.007066197
      4        6          -0.015952034   -0.026082508   -0.012739704
      5        7           0.015207424   -0.003555506    0.001706560
      6        6          -0.019019641   -0.028229900    0.001473003
      7        6           0.006245459    0.022346794   -0.003509615
      8        6           0.003567119    0.002738109   -0.001605879
      9        6          -0.012123479   -0.004495927    0.011480687
     10        1           0.000110839    0.000425690   -0.002735693
     11        1          -0.010018080   -0.000919557    0.001990221
     12        1          -0.006674523   -0.000921298    0.010009645
     13        1          -0.002046707   -0.002843621   -0.000479094
     14        1           0.004931931   -0.008896472   -0.006293137
     15        1           0.001689175   -0.005507802    0.000019474
     16        1           0.010943247    0.001274012   -0.007668547
     17        1           0.003678201   -0.003247229    0.008458388
     18        1           0.012784225    0.003539862    0.006310903
     19        1          -0.003748855    0.004576409    0.004685079
 -------------------------------------------------------------------
 Cartesian Forces:  Max     0.028229900 RMS     0.009837711

 GradGradGradGradGradGradGradGradGradGradGradGradGradGradGradGradGradGrad
 Berny optimization.
 FormGI is forming the generalized inverse of G from B-inverse, IUseBI=4.
 Internal  Forces:  Max     0.033727695 RMS     0.007354754
 Search for a local minimum.
 Step number   1 out of a maximum of  114
 All quantities printed in internal units (Hartrees-Bohrs-Radians)
 Mixed Optimization -- RFO/linear search
 Second derivative matrix not updated -- first step.
 ITU=  0
     Eigenvalues ---    0.00845   0.01345   0.01526   0.01963   0.02183
     Eigenvalues ---    0.02218   0.02512   0.02798   0.02956   0.03074
     Eigenvalues ---    0.03286   0.03971   0.04556   0.04869   0.05709
     Eigenvalues ---    0.05806   0.06491   0.07265   0.07551   0.08184
     Eigenvalues ---    0.08932   0.09516   0.10082   0.10512   0.11021
     Eigenvalues ---    0.12274   0.14560   0.16000   0.17591   0.20506
     Eigenvalues ---    0.21603   0.23047   0.23928   0.24716   0.25253
     Eigenvalues ---    0.25996   0.28140   0.29232   0.30959   0.33351
     Eigenvalues ---    0.33767   0.34377   0.34521   0.34711   0.34915
     Eigenvalues ---    0.34981   0.35143   0.35365   0.35567   0.43568
     Eigenvalues ---    0.73232
 RFO step:  Lambda=-4.05741043D-02 EMin= 8.45491489D-03
 Linear search not attempted -- first point.
 Maximum step size (   0.300) exceeded in Quadratic search.
    -- Step size scaled by   0.900
 Iteration  1 RMS(Cart)=  0.08134059 RMS(Int)=  0.00236634
 Iteration  2 RMS(Cart)=  0.00265546 RMS(Int)=  0.00120574
 Iteration  3 RMS(Cart)=  0.00000286 RMS(Int)=  0.00120574
 Iteration  4 RMS(Cart)=  0.00000000 RMS(Int)=  0.00120574
 Variable       Old X    -DE/DX   Delta X   Delta X   Delta X     New X
                                 (Linear)    (Quad)   (Total)
    R1        2.41785  -0.00788   0.00000  -0.00917  -0.00917   2.40868
    R2        1.93675   0.00012   0.00000   0.00023   0.00023   1.93698
    R3        2.97182  -0.02872   0.00000  -0.08701  -0.08665   2.88517
    R4        2.77173   0.00797   0.00000   0.03121   0.03029   2.80202
    R5        2.98363  -0.00635   0.00000  -0.03310  -0.03332   2.95030
    R6        2.94470   0.00012   0.00000   0.00214   0.00445   2.94915
    R7        2.06459   0.00345   0.00000   0.00805   0.00805   2.07265
    R8        2.84867  -0.00031   0.00000   0.00280   0.00320   2.85187
    R9        2.07726  -0.00405   0.00000  -0.00964  -0.00964   2.06762
   R10        2.05813   0.00114   0.00000   0.00264   0.00264   2.06077
   R11        2.90229  -0.00559   0.00000  -0.02846  -0.02893   2.87335
   R12        2.88288  -0.03373   0.00000  -0.09467  -0.09487   2.78801
   R13        2.08439  -0.00754   0.00000  -0.01814  -0.01814   2.06625
   R14        2.06699   0.00121   0.00000   0.00282   0.00282   2.06982
   R15        2.91049  -0.01907   0.00000  -0.08177  -0.08261   2.82789
   R16        2.85144   0.01016   0.00000   0.04362   0.04230   2.89374
   R17        2.05706  -0.00356   0.00000  -0.00821  -0.00821   2.04884
   R18        2.81630   0.01323   0.00000   0.05014   0.05094   2.86724
   R19        2.04764   0.00094   0.00000   0.00214   0.00214   2.04978
   R20        2.05444  -0.00324   0.00000  -0.00743  -0.00743   2.04700
   R21        2.05086  -0.00037   0.00000  -0.00085  -0.00085   2.05001
    A1        1.93384  -0.00037   0.00000  -0.00164  -0.00164   1.93220
    A2        2.22274  -0.01092   0.00000  -0.04294  -0.04291   2.17983
    A3        2.06700   0.01514   0.00000   0.04131   0.04096   2.10796
    A4        1.98811  -0.00456   0.00000  -0.00328  -0.00414   1.98398
    A5        2.07759  -0.00378   0.00000  -0.04857  -0.04863   2.02896
    A6        1.92078  -0.00847   0.00000  -0.06417  -0.06256   1.85822
    A7        1.96765  -0.00213   0.00000  -0.00715  -0.00685   1.96080
    A8        1.40318  -0.00074   0.00000   0.02193   0.01756   1.42074
    A9        1.98247   0.00680   0.00000   0.05689   0.05675   2.03922
   A10        2.04983   0.00896   0.00000   0.04645   0.04486   2.09470
   A11        1.50583   0.01013   0.00000   0.05301   0.05062   1.55645
   A12        2.02423  -0.01184   0.00000  -0.06587  -0.06571   1.95853
   A13        2.11406   0.00189   0.00000   0.01066   0.01057   2.12462
   A14        1.97042  -0.00912   0.00000  -0.05688  -0.05594   1.91448
   A15        2.01938  -0.00002   0.00000   0.01522   0.01509   2.03447
   A16        1.82467   0.00711   0.00000   0.03474   0.03472   1.85940
   A17        1.45585  -0.00082   0.00000   0.02179   0.01784   1.47369
   A18        1.91714  -0.00271   0.00000  -0.01938  -0.01719   1.89995
   A19        1.99043  -0.00603   0.00000  -0.08149  -0.08147   1.90896
   A20        1.50164   0.00963   0.00000   0.05106   0.04805   1.54970
   A21        1.97605  -0.00887   0.00000  -0.02977  -0.02873   1.94732
   A22        2.05241   0.00542   0.00000   0.03453   0.03559   2.08800
   A23        1.98920  -0.01146   0.00000  -0.07221  -0.07237   1.91683
   A24        2.05393  -0.00075   0.00000  -0.00940  -0.00998   2.04395
   A25        1.87487   0.00498   0.00000   0.02200   0.02073   1.89560
   A26        2.10777   0.00047   0.00000   0.00733   0.00687   2.11464
   A27        2.08647  -0.00617   0.00000  -0.02010  -0.02053   2.06594
   A28        1.97267  -0.00043   0.00000  -0.00819  -0.00834   1.96433
   A29        2.11598  -0.00239   0.00000  -0.02709  -0.02837   2.08761
   A30        1.96229   0.00458   0.00000   0.04702   0.04765   2.00995
   A31        2.13441  -0.00549   0.00000  -0.03908  -0.03958   2.09484
   A32        2.19156  -0.00421   0.00000  -0.03719  -0.03981   2.15175
   A33        2.04167   0.00159   0.00000   0.01322   0.01318   2.05485
   A34        1.97831  -0.00291   0.00000   0.03295   0.03470   2.01301
   A35        1.89871   0.00657   0.00000   0.03638   0.03219   1.93089
   A36        1.95447   0.00654   0.00000   0.02593   0.02419   1.97866
   A37        2.12463   0.00426   0.00000   0.01325   0.01337   2.13800
   A38        2.03923  -0.00532   0.00000  -0.02348  -0.02372   2.01552
   A39        2.07179   0.00157   0.00000   0.00964   0.01076   2.08255
   A40        1.99484   0.00381   0.00000   0.02090   0.02118   2.01602
    D1        0.01738   0.00442   0.00000   0.05752   0.05772   0.07510
    D2        3.04089   0.00058   0.00000   0.00376   0.00356   3.04445
    D3       -2.74404   0.00037   0.00000   0.01473   0.01526  -2.72877
    D4        1.96885   0.00735   0.00000   0.04173   0.04280   2.01165
    D5       -0.35654   0.00444   0.00000   0.04175   0.04207  -0.31446
    D6        0.51113   0.00290   0.00000   0.06371   0.06318   0.57430
    D7       -1.05917   0.00988   0.00000   0.09070   0.09072  -0.96846
    D8        2.89863   0.00697   0.00000   0.09073   0.08999   2.98861
    D9       -2.79635  -0.00178   0.00000  -0.01488  -0.01400  -2.81035
   D10        2.27325   0.00927   0.00000   0.03296   0.03373   2.30698
   D11       -0.32326   0.00273   0.00000   0.00569   0.00581  -0.31745
   D12        0.24262  -0.00577   0.00000  -0.06478  -0.06548   0.17714
   D13       -0.97096   0.00528   0.00000  -0.01694  -0.01775  -0.98871
   D14        2.71572  -0.00126   0.00000  -0.04420  -0.04567   2.67004
   D15       -1.25709  -0.00315   0.00000  -0.04493  -0.04617  -1.30326
   D16        3.04158   0.00367   0.00000   0.00158   0.00126   3.04284
   D17        0.80121   0.00386   0.00000   0.01027   0.00969   0.81091
   D18        0.62240  -0.01323   0.00000  -0.10669  -0.10724   0.51516
   D19       -1.36212  -0.00641   0.00000  -0.06019  -0.05981  -1.42192
   D20        2.68070  -0.00622   0.00000  -0.05149  -0.05137   2.62933
   D21        2.64459  -0.00359   0.00000  -0.04581  -0.04593   2.59865
   D22        0.66007   0.00323   0.00000   0.00069   0.00150   0.66156
   D23       -1.58030   0.00342   0.00000   0.00939   0.00993  -1.57037
   D24        1.44196   0.00735   0.00000   0.05175   0.05323   1.49519
   D25       -2.84418  -0.00201   0.00000  -0.00838  -0.00855  -2.85273
   D26       -0.64005   0.00165   0.00000   0.02654   0.02649  -0.61356
   D27       -0.60941   0.01161   0.00000   0.09632   0.09840  -0.51100
   D28        1.38764   0.00225   0.00000   0.03620   0.03662   1.42427
   D29       -2.69141   0.00592   0.00000   0.07112   0.07167  -2.61975
   D30       -2.55859   0.00409   0.00000   0.02028   0.02120  -2.53739
   D31       -0.56154  -0.00527   0.00000  -0.03984  -0.04058  -0.60212
   D32        1.64259  -0.00161   0.00000  -0.00492  -0.00554   1.63705
   D33       -0.62746   0.01197   0.00000   0.09933   0.10114  -0.52632
   D34        1.34870   0.00519   0.00000   0.01958   0.02040   1.36910
   D35        1.40904   0.00220   0.00000   0.04264   0.04311   1.45215
   D36       -2.89798  -0.00458   0.00000  -0.03711  -0.03763  -2.93561
   D37       -2.77297   0.00444   0.00000   0.05552   0.05599  -2.71698
   D38       -0.79681  -0.00233   0.00000  -0.02423  -0.02475  -0.82155
   D39        0.63729  -0.01383   0.00000  -0.11022  -0.11067   0.52662
   D40       -1.34689  -0.00708   0.00000  -0.09207  -0.09069  -1.43758
   D41        2.71788  -0.00234   0.00000  -0.04384  -0.04431   2.67356
   D42       -1.26206  -0.01033   0.00000  -0.09595  -0.09732  -1.35938
   D43        3.03695  -0.00358   0.00000  -0.07780  -0.07734   2.95961
   D44        0.81853   0.00116   0.00000  -0.02957  -0.03096   0.78756
   D45        0.32739   0.00841   0.00000   0.06371   0.06327   0.39066
   D46       -0.87371   0.00203   0.00000   0.03490   0.03497  -0.83874
   D47        3.03850   0.00233   0.00000  -0.00878  -0.00900   3.02950
   D48        1.92568   0.00397   0.00000   0.04966   0.04729   1.97297
   D49        0.72458  -0.00241   0.00000   0.02085   0.01899   0.74357
   D50       -1.64640  -0.00211   0.00000  -0.02283  -0.02498  -1.67138
   D51        2.57316  -0.00237   0.00000  -0.03013  -0.02819   2.54497
   D52       -0.16647   0.00659   0.00000   0.09399   0.09293  -0.07355
   D53       -0.10259   0.00365   0.00000   0.04272   0.04332  -0.05927
   D54       -2.84222   0.01261   0.00000   0.16685   0.16443  -2.67779
   D55       -0.09190   0.00626   0.00000   0.03419   0.03252  -0.05938
   D56       -2.55126   0.00451   0.00000   0.02697   0.02609  -2.52517
   D57        2.28327   0.00396   0.00000   0.05546   0.05403   2.33730
   D58       -0.17608   0.00222   0.00000   0.04824   0.04759  -0.12849
   D59       -2.56496  -0.00605   0.00000  -0.04656  -0.04866  -2.61361
   D60        0.04425  -0.00230   0.00000  -0.03264  -0.03357   0.01068
   D61       -0.33383   0.00221   0.00000   0.05147   0.05169  -0.28214
   D62        2.27538   0.00597   0.00000   0.06540   0.06678   2.34216
         Item               Value     Threshold  Converged?
 Maximum Force            0.033728     0.000450     NO 
 RMS     Force            0.007355     0.000300     NO 
 Maximum Displacement     0.360313     0.001800     NO 
 RMS     Displacement     0.081623     0.001200     NO 
 Predicted change in Energy=-2.602443D-02
 GradGradGradGradGradGradGradGradGradGradGradGradGradGradGradGradGradGrad

                          Input orientation:                          
 ---------------------------------------------------------------------
 Center     Atomic      Atomic             Coordinates (Angstroms)
 Number     Number       Type             X           Y           Z
 ---------------------------------------------------------------------
      1          7           0        0.862573    0.101395   -0.012120
      2          6           0        2.136703    0.069891   -0.028067
      3          6           0        3.042386    1.291303    0.109418
      4          6           0        4.479164    1.156145   -0.486275
      5          7           0        4.859096    0.283420    0.684845
      6          6           0        3.831754    1.108846    1.443266
      7          6           0        4.326974   -1.074189    0.460317
      8          6           0        4.000139   -1.559770   -0.916914
      9          6           0        2.864552   -1.220614    0.030478
     10          1           0        0.524479    1.067921    0.034304
     11          1           0        2.510195    2.229525   -0.089264
     12          1           0        5.035972    2.096912   -0.440941
     13          1           0        4.651390    0.741124   -1.479913
     14          1           0        4.282589    2.048014    1.775320
     15          1           0        3.343705    0.633051    2.300650
     16          1           0        4.659268   -1.780652    1.212634
     17          1           0        4.148496   -2.603060   -1.174028
     18          1           0        4.069650   -0.935545   -1.799463
     19          1           0        2.287394   -2.066066    0.389553
 ---------------------------------------------------------------------
                    Distance matrix (angstroms):
                    1          2          3          4          5
     1  N    0.000000
     2  C    1.274619   0.000000
     3  C    2.486411   1.526765   0.000000
     4  C    3.796980   2.622409   1.561233   0.000000
     5  N    4.060922   2.822280   2.155777   1.509145   0.000000
     6  C    3.456753   2.473347   1.560622   2.035806   1.520513
     7  C    3.688803   2.518874   2.714562   2.427671   1.475354
     8  C    3.663665   2.630254   3.177934   2.791255   2.588588
     9  C    2.399467   1.482766   2.519441   2.919416   2.582348
    10  H    1.025005   1.897160   2.528912   3.989777   4.452813
    11  H    2.692499   2.192547   1.096797   2.277412   3.147047
    12  H    4.645777   3.561607   2.219524   1.094136   2.141829
    13  H    4.113248   2.980279   2.327566   1.090514   2.222343
    14  H    4.322127   3.430744   2.210418   2.439034   2.152971
    15  H    3.433305   2.682709   2.307724   3.054480   2.242649
    16  H    4.411011   3.365589   3.642568   3.397574   2.139834
    17  H    4.411507   3.536270   4.246972   3.835878   3.506013
    18  H    3.815126   2.808030   3.107724   2.503464   2.877653
    19  H    2.624756   2.181611   3.452595   3.994193   3.495845
                    6          7          8          9         10
     6  C    0.000000
     7  C    2.444805   0.000000
     8  C    3.566554   1.496454   0.000000
     9  C    2.890992   1.531300   1.517279   0.000000
    10  H    3.595123   4.385098   4.459797   3.273125   0.000000
    11  H    2.313241   3.810151   4.154961   3.470356   2.303836
    12  H    2.444719   3.372065   3.830251   3.992904   4.651693
    13  H    3.058103   2.676770   2.456666   3.053275   4.408066
    14  H    1.093412   3.388119   4.510433   3.967270   4.256185
    15  H    1.095299   2.695981   3.948681   2.969738   3.643278
    16  H    3.014494   1.084201   2.240137   2.220843   5.157452
    17  H    4.552889   2.245080   1.084699   2.238415   5.298081
    18  H    3.840758   2.278605   1.083227   2.209573   4.465962
    19  H    3.684484   2.269078   2.212846   1.084820   3.613301
                   11         12         13         14         15
    11  H    0.000000
    12  H    2.553589   0.000000
    13  H    2.955328   1.750865   0.000000
    14  H    2.578953   2.341322   3.527112   0.000000
    15  H    2.992517   3.538782   4.001797   1.777525   0.000000
    16  H    4.732334   4.232225   3.689068   3.888083   2.956425
    17  H    5.216764   4.838881   3.395590   5.509004   4.815962
    18  H    3.921015   3.460514   1.803262   4.661120   4.449541
    19  H    4.327934   5.057153   4.118701   4.777741   3.471789
                   16         17         18         19
    16  H    0.000000
    17  H    2.575539   0.000000
    18  H    3.183486   1.782692   0.000000
    19  H    2.526799   2.489347   3.040774   0.000000
 Stoichiometry    C7H10N2
 Framework group  C1[X(C7H10N2)]
 Deg. of freedom    51
 Full point group                 C1      NOp   1
 Largest Abelian subgroup         C1      NOp   1
 Largest concise Abelian subgroup C1      NOp   1
                         Standard orientation:                         
 ---------------------------------------------------------------------
 Center     Atomic      Atomic             Coordinates (Angstroms)
 Number     Number       Type             X           Y           Z
 ---------------------------------------------------------------------
      1          7           0       -2.527069   -0.145879   -0.010966
      2          6           0       -1.259999   -0.042154    0.080840
      3          6           0       -0.310202   -1.194089    0.400127
      4          6           0        1.068474   -0.801184    1.018453
      5          7           0        1.516662   -0.321406   -0.340392
      6          6           0        0.579683   -1.397562   -0.865671
      7          6           0        0.927856    1.007155   -0.595152
      8          6           0        0.475350    1.882436    0.531123
      9          6           0       -0.568489    1.201957   -0.334606
     10          1           0       -2.831357   -1.094833    0.228891
     11          1           0       -0.828713   -2.049698    0.849620
     12          1           0        1.654846   -1.677020    1.312075
     13          1           0        1.146564   -0.086330    1.838272
     14          1           0        1.083851   -2.367690   -0.850962
     15          1           0        0.149355   -1.242339   -1.860862
     16          1           0        1.299328    1.458354   -1.508344
     17          1           0        0.571131    2.960089    0.453266
     18          1           0        0.491082    1.571816    1.568740
     19          1           0       -1.139274    1.859293   -0.981869
 ---------------------------------------------------------------------
 Rotational constants (GHZ):           2.4708799           2.0687491           1.4496317
 Standard basis: 6-31G(2df,p) (6D, 7F)
 There are   329 symmetry adapted cartesian basis functions of A   symmetry.
 There are   302 symmetry adapted basis functions of A   symmetry.
   302 basis functions,   466 primitive gaussians,   329 cartesian basis functions
    33 alpha electrons       33 beta electrons
       nuclear repulsion energy       460.5483458354 Hartrees.
 NAtoms=   19 NActive=   19 NUniq=   19 SFac= 1.00D+00 NAtFMM=   60 NAOKFM=F Big=F
 Integral buffers will be    131072 words long.
 Raffenetti 2 integral format.
 Two-electron integral symmetry is turned on.
 One-electron integrals computed using PRISM.
 PrsmSu:  requested number of processors reduced to:  13 ShMem   1 Linda.
 NBasis=   302 RedAO= T EigKep=  2.70D-04  NBF=   302
 NBsUse=   302 1.00D-06 EigRej= -1.00D+00 NBFU=   302
 Initial guess from the checkpoint file:  "NdC1C2CNpC2pC2CC12.chk"
 B after Tr=    -0.000000   -0.000000   -0.000000
         Rot=    0.969629   -0.012716    0.006716    0.244158 Ang= -28.31 deg.
 ExpMin= 1.61D-01 ExpMax= 4.17D+03 ExpMxC= 6.27D+02 IAcc=2 IRadAn=         4 AccDes= 0.00D+00
 Harris functional with IExCor=  402 and IRadAn=       4 diagonalized for initial guess.
 HarFok:  IExCor=  402 AccDes= 0.00D+00 IRadAn=         4 IDoV= 1 UseB2=F ITyADJ=14
 ICtDFT=  3500011 ScaDFX=  1.000000  1.000000  1.000000  1.000000
 FoFCou: FMM=F IPFlag=           0 FMFlag=      100000 FMFlg1=           0
         NFxFlg=           0 DoJE=T BraDBF=F KetDBF=T FulRan=T
         wScrn=  0.000000 ICntrl=       500 IOpCl=  0 I1Cent=   200000004 NGrid=           0
         NMat0=    1 NMatS0=      1 NMatT0=    0 NMatD0=    1 NMtDS0=    0 NMtDT0=    0
 Petite list used in FoFCou.
 Requested convergence on RMS density matrix=1.00D-08 within 128 cycles.
 Requested convergence on MAX density matrix=1.00D-06.
 Requested convergence on             energy=1.00D-06.
 No special actions if energy rises.
 Integral accuracy reduced to 1.0D-05 until final iterations.
 Initial convergence to 1.0D-05 achieved.  Increase integral accuracy.
 SCF Done:  E(RB3LYP) =  -382.180030638     A.U. after   12 cycles
            NFock= 12  Conv=0.49D-08     -V/T= 2.0081
 PrsmSu:  requested number of processors reduced to:  13 ShMem   1 Linda.
 Calling FoFJK, ICntrl=      2127 FMM=F ISym2X=0 I1Cent= 0 IOpClX= 0 NMat=1 NMatS=1 NMatT=0.
 ***** Axes restored to original set *****
 -------------------------------------------------------------------
 Center     Atomic                   Forces (Hartrees/Bohr)
 Number     Number              X              Y              Z
 -------------------------------------------------------------------
      1        7          -0.000513537   -0.000071430    0.000139442
      2        6           0.004715731    0.005134618   -0.004987306
      3        6           0.005355304    0.009071616   -0.002333630
      4        6          -0.004438104   -0.004685110   -0.005013105
      5        7          -0.003260925    0.003352880   -0.004245202
      6        6          -0.001646060   -0.006557506    0.004277284
      7        6          -0.000225531    0.007680607    0.001708841
      8        6          -0.002978747   -0.002516779   -0.006409007
      9        6          -0.003946025   -0.004863817    0.005056002
     10        1           0.000846815   -0.000781266   -0.001673855
     11        1          -0.002012721   -0.002238801    0.003540546
     12        1          -0.001614143    0.000741165    0.003728762
     13        1          -0.001576827    0.000718197    0.001708361
     14        1           0.001979834   -0.000725933   -0.000291610
     15        1           0.000408972   -0.003192686   -0.002936262
     16        1           0.004434136   -0.001500088   -0.002770000
     17        1          -0.000862112   -0.001561786    0.005301916
     18        1           0.006598241   -0.000209079    0.003212046
     19        1          -0.001264299    0.002205199    0.001986780
 -------------------------------------------------------------------
 Cartesian Forces:  Max     0.009071616 RMS     0.003606294

 GradGradGradGradGradGradGradGradGradGradGradGradGradGradGradGradGradGrad
 Berny optimization.
 Using GEDIIS/GDIIS optimizer.
 FormGI is forming the generalized inverse of G from B-inverse, IUseBI=4.
 Internal  Forces:  Max     0.005773082 RMS     0.002155389
 Search for a local minimum.
 Step number   2 out of a maximum of  114
 All quantities printed in internal units (Hartrees-Bohrs-Radians)
 Mixed Optimization -- RFO/linear search
 Update second derivatives using D2CorX and points    1    2
 DE= -2.33D-02 DEPred=-2.60D-02 R= 8.93D-01
 TightC=F SS=  1.41D+00  RLast= 5.36D-01 DXNew= 5.0454D-01 1.6081D+00
 Trust test= 8.93D-01 RLast= 5.36D-01 DXMaxT set to 5.05D-01
 ITU=  1  0
 Use linear search instead of GDIIS.
     Eigenvalues ---    0.00876   0.01420   0.01616   0.01785   0.02218
     Eigenvalues ---    0.02300   0.02403   0.02979   0.03059   0.03114
     Eigenvalues ---    0.03285   0.03930   0.04870   0.04948   0.05656
     Eigenvalues ---    0.06255   0.06447   0.07418   0.07495   0.08280
     Eigenvalues ---    0.09340   0.09900   0.10116   0.10731   0.11810
     Eigenvalues ---    0.12306   0.14259   0.16000   0.17928   0.19827
     Eigenvalues ---    0.21727   0.23203   0.24073   0.24598   0.25768
     Eigenvalues ---    0.26757   0.28222   0.29585   0.31007   0.33405
     Eigenvalues ---    0.33778   0.34393   0.34604   0.34678   0.34950
     Eigenvalues ---    0.35052   0.35185   0.35366   0.35567   0.43578
     Eigenvalues ---    0.73231
 RFO step:  Lambda=-9.15611397D-03 EMin= 8.75549291D-03
 Quartic linear search produced a step of  0.34146.
 Iteration  1 RMS(Cart)=  0.10236117 RMS(Int)=  0.00476292
 Iteration  2 RMS(Cart)=  0.00563113 RMS(Int)=  0.00156880
 Iteration  3 RMS(Cart)=  0.00001386 RMS(Int)=  0.00156876
 Iteration  4 RMS(Cart)=  0.00000002 RMS(Int)=  0.00156876
 Variable       Old X    -DE/DX   Delta X   Delta X   Delta X     New X
                                 (Linear)    (Quad)   (Total)
    R1        2.40868  -0.00037  -0.00313   0.00175  -0.00138   2.40730
    R2        1.93698  -0.00109   0.00008  -0.00324  -0.00317   1.93381
    R3        2.88517  -0.00289  -0.02959   0.01106  -0.01836   2.86681
    R4        2.80202   0.00148   0.01034   0.00477   0.01538   2.81740
    R5        2.95030  -0.00405  -0.01138  -0.02618  -0.03823   2.91207
    R6        2.94915  -0.00014   0.00152   0.00932   0.01366   2.96281
    R7        2.07265  -0.00158   0.00275  -0.00802  -0.00527   2.06738
    R8        2.85187   0.00039   0.00109   0.00219   0.00242   2.85429
    R9        2.06762  -0.00003  -0.00329   0.00259  -0.00070   2.06692
   R10        2.06077  -0.00208   0.00090  -0.00823  -0.00733   2.05344
   R11        2.87335  -0.00374  -0.00988  -0.01769  -0.02914   2.84421
   R12        2.78801  -0.00364  -0.03239   0.00822  -0.02441   2.76361
   R13        2.06625   0.00011  -0.00619   0.00550  -0.00069   2.06556
   R14        2.06982  -0.00110   0.00096  -0.00481  -0.00384   2.06597
   R15        2.82789  -0.00282  -0.02821  -0.00150  -0.02993   2.79795
   R16        2.89374   0.00209   0.01444   0.00081   0.01333   2.90707
   R17        2.04884   0.00041  -0.00280   0.00379   0.00099   2.04983
   R18        2.86724   0.00190   0.01739   0.00507   0.02461   2.89185
   R19        2.04978   0.00013   0.00073  -0.00014   0.00059   2.05037
   R20        2.04700  -0.00232  -0.00254  -0.00623  -0.00876   2.03824
   R21        2.05001  -0.00039  -0.00029  -0.00115  -0.00143   2.04858
    A1        1.93220  -0.00103  -0.00056  -0.00737  -0.00792   1.92428
    A2        2.17983  -0.00027  -0.01465  -0.00232  -0.01516   2.16467
    A3        2.10796  -0.00161   0.01399  -0.03260  -0.01703   2.09093
    A4        1.98398   0.00155  -0.00141   0.02679   0.01900   2.00298
    A5        2.02896  -0.00047  -0.01661  -0.00997  -0.02907   1.99988
    A6        1.85822  -0.00277  -0.02136   0.00592  -0.01630   1.84191
    A7        1.96080  -0.00007  -0.00234  -0.00468  -0.00490   1.95590
    A8        1.42074   0.00040   0.00600   0.01017   0.01587   1.43661
    A9        2.03922   0.00136   0.01938   0.01583   0.03535   2.07457
   A10        2.09470   0.00137   0.01532  -0.01591  -0.00189   2.09280
   A11        1.55645   0.00088   0.01728  -0.01151   0.00285   1.55930
   A12        1.95853  -0.00224  -0.02244  -0.01035  -0.03190   1.92663
   A13        2.12462  -0.00031   0.00361  -0.00274   0.00061   2.12524
   A14        1.91448  -0.00146  -0.01910  -0.00904  -0.02702   1.88746
   A15        2.03447   0.00060   0.00515   0.01677   0.02220   2.05667
   A16        1.85940   0.00197   0.01186   0.01231   0.02395   1.88335
   A17        1.47369   0.00020   0.00609   0.01048   0.01778   1.49147
   A18        1.89995   0.00232  -0.00587   0.08306   0.07802   1.97796
   A19        1.90896  -0.00198  -0.02782  -0.03731  -0.06807   1.84089
   A20        1.54970   0.00090   0.01641  -0.01701  -0.00452   1.54518
   A21        1.94732  -0.00174  -0.00981   0.01489   0.00652   1.95384
   A22        2.08800   0.00148   0.01215  -0.00913   0.00331   2.09131
   A23        1.91683  -0.00150  -0.02471   0.01081  -0.01257   1.90427
   A24        2.04395  -0.00126  -0.00341  -0.02140  -0.02447   2.01948
   A25        1.89560   0.00154   0.00708   0.01750   0.02336   1.91895
   A26        2.11464   0.00497   0.00234   0.05000   0.05193   2.16657
   A27        2.06594  -0.00090  -0.00701  -0.01220  -0.02158   2.04437
   A28        1.96433  -0.00056  -0.00285  -0.00974  -0.01123   1.95310
   A29        2.08761  -0.00468  -0.00969  -0.04233  -0.05270   2.03490
   A30        2.00995   0.00086   0.01627   0.01825   0.03569   2.04564
   A31        2.09484  -0.00025  -0.01351  -0.01474  -0.02726   2.06757
   A32        2.15175  -0.00383  -0.01359  -0.02213  -0.03885   2.11290
   A33        2.05485  -0.00021   0.00450  -0.02816  -0.02364   2.03120
   A34        2.01301   0.00004   0.01185   0.04733   0.06034   2.07335
   A35        1.93089   0.00265   0.01099   0.01727   0.02428   1.95517
   A36        1.97866  -0.00114   0.00826  -0.00731  -0.00156   1.97711
   A37        2.13800   0.00360   0.00457   0.02424   0.02915   2.16715
   A38        2.01552  -0.00104  -0.00810  -0.01185  -0.02004   1.99548
   A39        2.08255   0.00219   0.00367   0.01672   0.02209   2.10465
   A40        2.01602  -0.00166   0.00723  -0.01149  -0.00368   2.01234
    D1        0.07510   0.00268   0.01971   0.05777   0.07750   0.15260
    D2        3.04445   0.00027   0.00122  -0.00066   0.00053   3.04498
    D3       -2.72877   0.00065   0.00521   0.07842   0.08397  -2.64480
    D4        2.01165   0.00166   0.01462   0.06666   0.08146   2.09312
    D5       -0.31446   0.00222   0.01437   0.08671   0.10110  -0.21336
    D6        0.57430   0.00317   0.02157   0.13821   0.16042   0.73472
    D7       -0.96846   0.00418   0.03098   0.12645   0.15791  -0.81055
    D8        2.98861   0.00473   0.03073   0.14651   0.17755  -3.11702
    D9       -2.81035  -0.00131  -0.00478  -0.06886  -0.07359  -2.88393
   D10        2.30698   0.00085   0.01152  -0.06784  -0.05488   2.25210
   D11       -0.31745  -0.00046   0.00198  -0.06562  -0.06419  -0.38164
   D12        0.17714  -0.00359  -0.02236  -0.12311  -0.14654   0.03061
   D13       -0.98871  -0.00143  -0.00606  -0.12209  -0.12783  -1.11654
   D14        2.67004  -0.00274  -0.01560  -0.11987  -0.13714   2.53290
   D15       -1.30326   0.00044  -0.01577  -0.00715  -0.02207  -1.32534
   D16        3.04284   0.00196   0.00043   0.00914   0.01008   3.05291
   D17        0.81091   0.00169   0.00331   0.00427   0.00759   0.81849
   D18        0.51516  -0.00245  -0.03662   0.00455  -0.03206   0.48311
   D19       -1.42192  -0.00093  -0.02042   0.02083   0.00009  -1.42183
   D20        2.62933  -0.00120  -0.01754   0.01597  -0.00240   2.62693
   D21        2.59865  -0.00055  -0.01568  -0.00656  -0.02103   2.57762
   D22        0.66156   0.00097   0.00051   0.00972   0.01112   0.67269
   D23       -1.57037   0.00070   0.00339   0.00485   0.00863  -1.56174
   D24        1.49519   0.00132   0.01818  -0.01647   0.00007   1.49526
   D25       -2.85273  -0.00015  -0.00292  -0.00991  -0.01463  -2.86736
   D26       -0.61356   0.00177   0.00905   0.02298   0.03112  -0.58244
   D27       -0.51100   0.00162   0.03360  -0.00850   0.02590  -0.48510
   D28        1.42427   0.00015   0.01251  -0.00194   0.01120   1.43547
   D29       -2.61975   0.00207   0.02447   0.03095   0.05695  -2.56280
   D30       -2.53739  -0.00034   0.00724  -0.03084  -0.02407  -2.56146
   D31       -0.60212  -0.00181  -0.01386  -0.02428  -0.03877  -0.64089
   D32        1.63705   0.00011  -0.00189   0.00861   0.00697   1.64403
   D33       -0.52632   0.00176   0.03453  -0.01039   0.02446  -0.50187
   D34        1.36910  -0.00023   0.00697  -0.04537  -0.04004   1.32906
   D35        1.45215  -0.00050   0.01472  -0.02714  -0.01189   1.44026
   D36       -2.93561  -0.00249  -0.01285  -0.06212  -0.07639  -3.01199
   D37       -2.71698   0.00139   0.01912  -0.00592   0.01407  -2.70291
   D38       -0.82155  -0.00060  -0.00845  -0.04090  -0.05042  -0.87198
   D39        0.52662  -0.00254  -0.03779   0.00351  -0.03399   0.49264
   D40       -1.43758  -0.00083  -0.03097  -0.00732  -0.03772  -1.47530
   D41        2.67356  -0.00066  -0.01513  -0.02386  -0.03993   2.63363
   D42       -1.35938  -0.00504  -0.03323  -0.08763  -0.11963  -1.47900
   D43        2.95961  -0.00333  -0.02641  -0.09846  -0.12336   2.83624
   D44        0.78756  -0.00316  -0.01057  -0.11500  -0.12557   0.66199
   D45        0.39066   0.00343   0.02161   0.06193   0.08287   0.47353
   D46       -0.83874   0.00097   0.01194   0.04685   0.06008  -0.77866
   D47        3.02950   0.00136  -0.00307   0.04376   0.04129   3.07078
   D48        1.97297   0.00379   0.01615   0.09026   0.10122   2.07419
   D49        0.74357   0.00134   0.00648   0.07518   0.07842   0.82199
   D50       -1.67138   0.00173  -0.00853   0.07209   0.05963  -1.61175
   D51        2.54497   0.00249  -0.00962   0.06361   0.05675   2.60172
   D52       -0.07355   0.00498   0.03173   0.10386   0.13526   0.06171
   D53       -0.05927   0.00328   0.01479   0.07137   0.08664   0.02737
   D54       -2.67779   0.00577   0.05615   0.11162   0.16515  -2.51264
   D55       -0.05938   0.00224   0.01111   0.03418   0.04260  -0.01678
   D56       -2.52517   0.00273   0.00891   0.04281   0.05030  -2.47487
   D57        2.33730   0.00125   0.01845   0.02575   0.04205   2.37936
   D58       -0.12849   0.00173   0.01625   0.03438   0.04975  -0.07874
   D59       -2.61361  -0.00419  -0.01661  -0.02946  -0.04930  -2.66291
   D60        0.01068  -0.00272  -0.01146  -0.03178  -0.04421  -0.03353
   D61       -0.28214  -0.00010   0.01765   0.02160   0.03840  -0.24374
   D62        2.34216   0.00137   0.02280   0.01929   0.04349   2.38564
         Item               Value     Threshold  Converged?
 Maximum Force            0.005773     0.000450     NO 
 RMS     Force            0.002155     0.000300     NO 
 Maximum Displacement     0.366349     0.001800     NO 
 RMS     Displacement     0.102399     0.001200     NO 
 Predicted change in Energy=-7.715184D-03
 GradGradGradGradGradGradGradGradGradGradGradGradGradGradGradGradGradGrad

                          Input orientation:                          
 ---------------------------------------------------------------------
 Center     Atomic      Atomic             Coordinates (Angstroms)
 Number     Number       Type             X           Y           Z
 ---------------------------------------------------------------------
      1          7           0        0.882881    0.147256   -0.109126
      2          6           0        2.156044    0.114280   -0.081627
      3          6           0        3.032274    1.333216    0.137121
      4          6           0        4.424716    1.247649   -0.517454
      5          7           0        4.864613    0.309807    0.581785
      6          6           0        3.856399    1.030265    1.436039
      7          6           0        4.345113   -1.048420    0.426653
      8          6           0        3.988431   -1.657951   -0.874679
      9          6           0        2.860750   -1.193012    0.049437
     10          1           0        0.553540    1.116141   -0.109545
     11          1           0        2.466601    2.266035    0.055150
     12          1           0        4.962206    2.192287   -0.394608
     13          1           0        4.554424    0.920675   -1.545578
     14          1           0        4.315973    1.932407    1.847962
     15          1           0        3.407521    0.440166    2.239483
     16          1           0        4.731086   -1.718629    1.187223
     17          1           0        4.104011   -2.730344   -0.992409
     18          1           0        4.152721   -1.129409   -1.800426
     19          1           0        2.257175   -1.984769    0.478397
 ---------------------------------------------------------------------
                    Distance matrix (angstroms):
                    1          2          3          4          5
     1  N    0.000000
     2  C    1.273887   0.000000
     3  C    2.467190   1.517048   0.000000
     4  C    3.731246   2.573197   1.541001   0.000000
     5  N    4.044499   2.795477   2.145357   1.510425   0.000000
     6  C    3.465407   2.456328   1.567849   2.046064   1.505093
     7  C    3.701858   2.530266   2.734879   2.483869   1.462439
     8  C    3.672776   2.669715   3.299251   2.959808   2.600203
     9  C    2.394457   1.490906   2.533562   2.953672   2.560728
    10  H    1.023330   1.890112   2.500417   3.894828   4.439984
    11  H    2.650355   2.178350   1.094010   2.280176   3.139209
    12  H    4.572148   3.505797   2.178388   1.093768   2.122875
    13  H    4.017686   2.923295   2.306210   1.086634   2.234961
    14  H    4.336252   3.419678   2.221237   2.464937   2.130032
    15  H    3.460573   2.657057   2.314795   3.047527   2.210898
    16  H    4.468862   3.405933   3.647251   3.434908   2.121070
    17  H    4.408679   3.565948   4.351664   4.019062   3.507010
    18  H    3.896437   2.913374   3.327763   2.714848   2.872815
    19  H    2.603728   2.174825   3.424365   4.017273   3.474838
                    6          7          8          9         10
     6  C    0.000000
     7  C    2.361913   0.000000
     8  C    3.547303   1.480613   0.000000
     9  C    2.803024   1.538354   1.530302   0.000000
    10  H    3.647613   4.398734   4.481015   3.268131   0.000000
    11  H    2.316360   3.827850   4.310246   3.481435   2.238121
    12  H    2.434003   3.399625   4.000380   4.009182   4.547052
    13  H    3.064195   2.794788   2.723925   3.143291   4.255288
    14  H    1.093046   3.302469   4.517823   3.888523   4.319031
    15  H    1.093266   2.526128   3.799678   2.786131   3.757670
    16  H    2.895411   1.084722   2.192409   2.251441   5.212430
    17  H    4.483398   2.213760   1.085009   2.234845   5.308554
    18  H    3.902141   2.236840   1.078589   2.257261   4.566802
    19  H    3.544718   2.288867   2.221458   1.084062   3.586599
                   11         12         13         14         15
    11  H    0.000000
    12  H    2.536880   0.000000
    13  H    2.954882   1.762956   0.000000
    14  H    2.597241   2.348249   3.549165   0.000000
    15  H    2.998407   3.524969   3.984089   1.790351   0.000000
    16  H    4.720914   4.225029   3.803332   3.733492   2.742166
    17  H    5.361184   5.032510   3.720055   5.463870   4.580650
    18  H    4.220806   3.696654   2.104556   4.765722   4.397698
    19  H    4.276954   5.052438   4.220834   4.632346   3.210145
                   16         17         18         19
    16  H    0.000000
    17  H    2.483462   0.000000
    18  H    3.099634   1.793950   0.000000
    19  H    2.587180   2.475875   3.085088   0.000000
 Stoichiometry    C7H10N2
 Framework group  C1[X(C7H10N2)]
 Deg. of freedom    51
 Full point group                 C1      NOp   1
 Largest Abelian subgroup         C1      NOp   1
 Largest concise Abelian subgroup C1      NOp   1
                         Standard orientation:                         
 ---------------------------------------------------------------------
 Center     Atomic      Atomic             Coordinates (Angstroms)
 Number     Number       Type             X           Y           Z
 ---------------------------------------------------------------------
      1          7           0       -2.516965    0.095442   -0.008439
      2          6           0       -1.246980    0.057196    0.083556
      3          6           0       -0.449515   -1.214933    0.300748
      4          6           0        0.886795   -1.015276    1.041758
      5          7           0        1.484722   -0.450098   -0.224907
      6          6           0        0.499122   -1.333141   -0.941937
[...]
 17106,-0.00270272,-0.00188360,-0.00208896,-0.00335497,0.00264878,0.005
 26716,0.04828301,-0.01346970,-0.07279533,-0.04261643,0.08005842,0.5993
 7020,-0.00034106,-0.00011125,-0.00049862,0.00600973,-0.00297720,0.0053
 2397,-0.05928821,0.06438427,-0.01041028,-0.06222654,0.00236901,-0.0136
 6448,0.29824319,-0.00083122,0.00210403,-0.00055272,0.00281145,-0.00769
 589,0.00066263,0.04580700,-0.02709073,0.00869018,0.02602449,-0.1051977
 8,0.02516668,-0.02827025,0.47131232,0.00159548,0.00028303,0.00021917,-
 0.00159828,-0.00243538,-0.00074249,-0.00744521,0.01501514,-0.00879618,
 -0.06045130,0.01883385,-0.10986136,-0.00233558,-0.01876667,0.31044071,
 0.00227438,-0.00089385,0.00299033,-0.01836308,-0.00889239,-0.02458991,
 -0.06572545,0.00107946,-0.05078926,-0.00559693,0.00554739,0.01899354,-
 0.09973142,0.02775959,0.06797562,0.38607883,-0.00599958,-0.00439759,0.
 00551933,-0.00653863,0.00965276,-0.02562875,-0.00391338,-0.08007806,0.
 01526630,0.00168072,0.01129341,0.01960994,0.00357719,-0.09161920,-0.01
 453970,0.14169912,0.55857871,0.00376657,0.00112395,0.00157508,-0.01000
 945,-0.00696035,-0.01167144,-0.04303022,0.01471045,-0.11098232,0.02751
 874,-0.00033510,-0.09260283,0.01689015,-0.01005739,-0.07593470,-0.0341
 4610,-0.02068358,0.56720793,0.00267559,0.00103463,-0.00059448,-0.02641
 837,0.01052454,-0.01011131,-0.00375621,0.00295213,0.00206282,-0.003167
 57,0.00585470,0.00269090,-0.06449328,-0.06025023,-0.00834817,0.0012606
 6,0.01393797,-0.00194632,0.36761237,0.00382780,-0.00748881,-0.00023561
 ,0.02027776,0.01502870,0.02035262,-0.00049497,0.00024587,0.00063403,-0
 .00631138,-0.03264641,0.00760535,-0.01828554,-0.17784134,0.00348857,-0
 .00173500,-0.03429598,-0.01738566,-0.02100071,0.54751607,-0.00276621,0
 .00206671,-0.00027740,0.00038705,-0.00576659,-0.00745640,-0.00055622,0
 .00134459,-0.00147023,0.00926942,0.03121916,0.00422113,-0.00046176,-0.
 00538652,-0.08994394,-0.01006705,-0.03460659,-0.00911891,0.17198274,-0
 .07392206,0.54380218,0.00554634,-0.00142213,0.00168228,-0.01714860,0.0
 1499803,0.00896073,-0.00053906,-0.00094067,-0.00019392,0.00305354,0.00
 048109,0.00039154,-0.00376563,-0.00382435,-0.00844768,0.00026795,0.001
 00521,0.00051886,-0.02691273,-0.01617048,-0.02801397,0.23070610,0.0000
 0829,0.00031192,-0.00159961,0.00457202,-0.00542988,-0.02503479,0.00010
 531,-0.00139343,0.00139485,-0.00126459,-0.00269311,-0.00083986,0.01008
 996,-0.01161886,-0.02582426,-0.00450002,-0.00602329,-0.00215312,-0.035
 16925,-0.09208917,-0.04204945,-0.01593937,0.63990407,-0.00098900,0.000
 87761,0.00044257,-0.00410309,0.00025747,0.00592146,-0.00042769,0.00004
 181,0.00030522,-0.00037046,-0.00247872,0.00167488,0.00066398,-0.004316
 41,0.00298579,-0.00198871,0.00127486,-0.00057258,-0.07336817,-0.046805
 92,-0.20624182,-0.07565797,-0.03152021,0.61899038,-0.03970331,0.040992
 88,-0.00419153,-0.08709574,0.02649307,-0.00078043,0.01302926,-0.012033
 84,-0.00211823,0.00097084,0.00323221,-0.00116354,-0.02194471,-0.019045
 25,-0.00268746,0.00048929,0.00319944,0.00402507,-0.15471947,-0.0123963
 0,-0.06242792,-0.10082420,0.04705504,0.10823618,0.54861444,0.01995902,
 -0.00026703,0.00257167,0.03743465,-0.18993463,0.01156036,0.00770738,-0
 .02798708,0.00227698,-0.00016682,-0.00174291,-0.00055271,-0.03433822,-
 0.00908889,0.00086923,-0.00094558,0.00190671,0.00169385,0.00600054,-0.
 06800035,0.01838781,0.01108672,-0.07121334,-0.00766620,0.04276767,0.56
 893357,-0.00215412,0.00482568,-0.00341560,-0.00484882,0.02495875,-0.07
 152973,-0.00147786,-0.00357204,0.00581670,0.00084010,-0.00079357,0.000
 91786,-0.00284102,-0.00384484,-0.00056438,0.00014368,-0.00110779,0.000
 41408,-0.01143935,0.01563688,-0.03816781,0.05809468,-0.01248593,-0.092
 24716,-0.09813326,-0.10404509,0.27275718,-0.06926089,0.07774842,-0.002
 38803,-0.02984006,0.04897801,-0.00308865,0.00178732,0.00274252,0.00229
 109,-0.00054513,-0.00002360,0.00041784,0.00085485,-0.00064321,0.000068
 43,0.00013779,0.00043802,-0.00048994,-0.00012791,0.00221315,-0.0005184
 4,0.00017139,-0.00042110,-0.00014335,-0.00457270,-0.00254393,-0.002829
 75,0.10145536,0.13680461,-0.36172131,0.00810459,-0.00961178,-0.0114670
 0,-0.00225775,-0.00451233,0.00385596,-0.00041685,-0.00042706,-0.000288
 07,-0.00019520,-0.00005964,0.00080985,0.00046213,0.00009054,-0.0003296
 9,-0.00000563,-0.00040425,-0.00140951,-0.00038667,0.00063347,0.0000334
 6,0.00024495,0.00298892,0.00303103,0.00018266,-0.12642622,0.36620003,0
 .00052159,-0.00230519,-0.03490473,-0.00612606,0.00644905,0.00126663,0.
 00218592,0.00171888,-0.01147618,0.00141181,0.00150649,0.00064997,0.000
 17150,0.00048820,0.00002495,-0.00136519,-0.00212301,-0.00067594,-0.000
 63829,-0.00185478,0.00216277,-0.00235361,0.00280867,-0.00117187,-0.001
 03609,-0.00005091,0.01500120,0.00654057,-0.00550364,0.02990848,0.00377
 743,-0.00114182,0.00057180,0.00708862,-0.01707764,0.00057210,-0.116666
 32,0.11560753,-0.00480270,-0.00331962,0.01719226,-0.00571484,-0.011305
 89,0.00642239,-0.00302215,-0.00469768,0.00820771,0.00425160,-0.0017109
 2,-0.00222808,0.00001010,-0.00058746,-0.00026416,-0.00006727,-0.001163
 39,-0.00288747,-0.00048252,-0.00014338,0.00111989,-0.00008583,0.127200
 59,0.00078325,0.00302745,0.00022536,0.01637513,-0.02312445,0.00208734,
 0.11276824,-0.23793894,0.01181626,-0.00191692,0.00188146,-0.00004245,0
 .00208841,0.00107054,-0.00007451,-0.00166043,-0.00074019,-0.00123126,-
 0.00060267,0.00130022,0.00002231,-0.00020380,-0.00037149,0.00024582,-0
 .00389047,-0.00162569,-0.00103534,-0.00207694,0.00092394,-0.00027341,-
 0.12388185,0.25581659,0.00112331,0.00001290,-0.00070281,0.00278781,-0.
 00575493,-0.00011127,-0.00509381,0.01206935,-0.05476185,0.00112446,-0.
 01319807,0.00080472,-0.00301450,0.00189721,0.00378234,-0.00424129,0.01
 858423,0.00447962,-0.00065766,-0.00081835,0.00010438,-0.00003944,0.000
 35299,-0.00028669,-0.00139754,-0.00090737,0.00144236,-0.00022372,0.000
 33985,0.00023800,0.00913473,-0.01201631,0.04439481,-0.00117663,-0.0021
 8289,-0.00188002,-0.00334889,0.00520107,0.00500877,-0.01821537,-0.0267
 1761,-0.00108906,-0.12185262,-0.12356539,-0.00498000,0.01189649,0.0154
 2141,0.00088368,-0.00043423,0.00080872,-0.00202983,-0.00069291,0.00254
 046,-0.00266226,-0.00061570,-0.00016217,-0.00035692,0.00058436,-0.0000
 8298,-0.00069732,0.00020524,-0.00005028,0.00057778,0.00099971,0.000592
 91,-0.00094996,0.12962758,0.00002392,0.00031799,0.00061209,0.00126698,
 0.00001425,-0.00152835,0.00289516,0.00655413,-0.00058193,-0.11873249,-
 0.22904170,-0.01586282,-0.00423152,-0.02230758,0.00410869,0.00044437,-
 0.00022990,-0.00048763,0.00026817,-0.00002651,0.00338958,0.00069920,0.
 00021067,0.00055495,-0.00023154,0.00012899,0.00040949,-0.00000301,0.00
 005967,-0.00010080,-0.00066919,0.00029832,0.00056738,0.12671659,0.2530
 7838,0.00048893,0.00053896,0.00054658,0.00049422,-0.00124101,-0.001764
 18,0.00679546,0.00962902,0.00023567,-0.00723981,-0.01915733,-0.0502397
 4,0.00712037,0.02388628,-0.00216413,0.00074697,0.00206963,0.00059874,0
 .00074216,0.00019413,-0.00427578,-0.00017772,-0.00089363,-0.00034109,0
 .00002031,0.00084327,-0.00026773,-0.00004147,0.00000529,-0.00011732,-0
 .00024199,-0.00020061,0.00072855,0.00685968,0.00923435,0.05613731,-0.0
 0041866,-0.00008757,-0.00008348,0.00282755,0.00169190,-0.00042112,0.00
 443965,0.00972474,0.02159351,-0.05295018,0.00538660,0.00376321,-0.0005
 0497,-0.00741680,-0.00928037,-0.00374305,0.00028210,0.00228261,0.00079
 308,-0.00135556,0.00058009,0.00001791,-0.00050083,0.00063519,-0.000178
 74,-0.00022858,0.00021680,0.00010476,0.00009364,-0.00004546,-0.0009413
 4,0.00007329,0.00126378,0.00158683,-0.00716308,-0.01565587,0.04609655,
 0.00038146,-0.00004949,-0.00000692,-0.00065840,0.00071911,0.00040616,-
 0.00314217,-0.00154927,-0.00064711,0.00461784,-0.09038906,-0.09723501,
 -0.00138545,0.00987519,0.01738272,0.00103533,-0.00109717,0.00170588,-0
 .00029062,0.00185055,-0.00063106,-0.00062803,-0.00349654,0.00081686,0.
 00005390,0.00007960,-0.00011507,-0.00002100,-0.00007352,0.00004813,0.0
 0026069,-0.00001709,-0.00037540,0.00059485,-0.00880812,-0.02485060,0.0
 0080318,0.09641137,0.00072658,0.00059833,-0.00014885,-0.00057570,-0.00
 153804,0.00037918,-0.00027598,-0.00106717,-0.00497989,0.00208304,-0.09
 013176,-0.27752342,0.00185842,-0.00626542,-0.01538637,0.00152039,0.003
 53396,-0.00519619,-0.00036080,-0.00367496,-0.00045127,0.00015123,-0.00
 173723,0.00000104,0.00024868,0.00061378,-0.00044744,-0.00014234,0.0000
 2556,0.00008403,0.00020626,0.00011487,-0.00046634,0.00049487,-0.001154
 19,-0.00041134,-0.00574970,0.10289895,0.30236570,-0.00136293,-0.001515
 22,0.00108261,-0.00036091,0.00384000,-0.00391064,-0.01013423,-0.018248
 00,-0.00826343,-0.00070132,0.00160635,0.00135525,0.01070292,0.02194795
 ,0.00968900,-0.09761315,-0.10286392,-0.04279094,-0.00149807,0.00169758
 ,0.00505913,-0.00051790,0.00173905,-0.00025001,0.00035222,-0.00037514,
 -0.00012961,0.00028551,-0.00006037,-0.00053586,0.00045952,0.00033773,0
 .00085459,0.00052222,-0.00016227,-0.00001945,0.00006572,0.00003825,-0.
 00013006,0.10293175,0.00057504,0.00062447,-0.00072164,0.00007034,-0.00
 132154,0.00240118,0.00378769,0.00845402,0.00491487,0.00043987,-0.00013
 235,0.00064439,-0.00199275,-0.01532104,-0.00627676,-0.09773202,-0.2232
 5451,-0.07446872,0.00067569,-0.00038223,-0.00480445,0.00083310,-0.0013
 6505,0.00009269,0.00078873,0.00091462,0.00047806,-0.00007663,0.0001035
 8,0.00021147,-0.00041719,0.00035214,-0.00093327,0.00002616,0.00008447,
 -0.00048237,-0.00000787,0.00020563,-0.00033109,0.10135966,0.24313339,-
 0.00165948,-0.00115666,0.00102704,0.00079194,0.00282237,-0.00351938,-0
 .01049384,-0.01819960,-0.00884993,-0.00134183,-0.00162789,0.00103733,-
 0.00150671,-0.01436235,-0.00537942,-0.03957882,-0.07395478,-0.08398391
 ,0.00064925,0.00040623,-0.00279013,0.00010687,-0.00097371,0.00050415,-
 0.00051247,0.00042695,0.00044429,0.00022393,0.00003128,-0.00050305,-0.
 00002584,0.00033199,0.00111167,0.00059210,0.00055619,-0.00047092,0.000
 22496,0.00059347,0.00020006,0.04289682,0.08655426,0.09157370,-0.000149
 15,0.00019377,0.00008906,0.00194565,0.00065414,0.00070826,0.00988589,0
 .01072443,-0.01091109,-0.00249299,0.00185063,-0.00044775,-0.00762730,-
 0.01224385,0.01386905,-0.09332087,-0.05538983,0.07411564,0.00053975,-0
 .00316678,-0.00093262,0.00041129,-0.00001559,-0.00022915,0.00024029,0.
 00027364,-0.00018058,0.00001597,0.00011482,0.00003179,-0.00027769,0.00
 021140,-0.00112944,0.00004075,-0.00008778,-0.00032254,0.00172156,-0.00
 091360,0.00022253,-0.00376427,-0.00778631,0.00968823,0.09285256,0.0006
 1784,0.00028568,0.00005539,-0.00095927,-0.00032475,-0.00095853,-0.0035
 5928,-0.00266260,0.00080284,0.00169667,-0.00067261,0.00013936,0.005923
 27,0.00872344,-0.01323253,-0.06045267,-0.13910282,0.11229516,0.0011362
 0,0.00179026,-0.00155196,-0.00008643,0.00000044,0.00042226,-0.00000759
 ,0.00010046,-0.00038395,-0.00007296,-0.00009504,-0.00001593,0.00001445
 ,-0.00008533,0.00069462,0.00035502,0.00027662,-0.00047747,-0.00056165,
 0.00083245,-0.00102031,-0.00950130,-0.01216075,0.01882567,0.06519467,0
 .14269432,-0.00072322,-0.00056632,-0.00022372,0.00106464,0.00245452,0.
 00100475,0.00740903,0.00776399,-0.01105154,0.00008884,-0.00187517,-0.0
 0647714,0.00455862,0.00585210,-0.01155440,0.07550320,0.10652533,-0.184
 28973,0.00206425,0.00218390,0.00076484,-0.00003397,-0.00003674,0.00059
 691,-0.00143251,-0.00054706,-0.00008199,0.00014405,0.00000855,0.000077
 60,-0.00009527,0.00009052,-0.00106999,0.00013029,0.00026359,0.00016208
 ,0.00109835,0.00092645,-0.00118215,-0.00513689,-0.00677628,0.00977108,
 -0.08445806,-0.11559149,0.20333217,-0.00153139,0.00207036,-0.00005182,
 -0.00122986,-0.00549389,-0.00445471,0.00016602,-0.00035730,-0.00015790
 ,-0.00053404,-0.00267134,-0.00061238,0.00504525,-0.01181086,0.01099164
 ,-0.00005176,0.00021225,0.00002615,-0.08292017,0.06877446,-0.08005837,
 -0.00032665,-0.00580077,0.00410454,-0.01083657,0.01919799,-0.01951223,
 -0.00051007,0.00028242,0.00076996,0.00035671,0.00005499,0.00001865,0.0
 0052736,-0.00057518,0.00042565,-0.00007822,0.00020572,0.00004573,0.000
 05825,-0.00013631,0.00018192,-0.00015091,0.00018907,0.00010555,0.08951
 594,-0.00017911,0.00038984,0.00008917,0.00051354,-0.00086536,-0.000398
 51,0.00007245,0.00027711,0.00032482,-0.00146021,-0.00325679,-0.0032107
 2,0.00412829,-0.02578216,0.02054125,-0.00038460,0.00023239,0.00133730,
 0.06702969,-0.15089743,0.12031266,-0.00451788,0.00816517,-0.01052032,-
 0.00068942,0.00019496,-0.00019012,-0.00006672,-0.00007097,0.00000203,0
 .00037977,0.00007708,-0.00010814,0.00077208,-0.00080308,0.00074466,-0.
 00006400,0.00009248,0.00015427,0.00009622,0.00001655,-0.00015251,0.000
 40504,0.00009142,-0.00061751,-0.06447678,0.17057304,0.00045828,-0.0003
 8691,0.00003172,0.00107651,0.00056643,0.00098733,-0.00023788,0.0001097
 1,0.00059226,0.00088957,-0.00162781,0.00097278,0.00193596,-0.00157958,
 0.00453313,0.00004022,0.00035477,0.00001797,-0.07881666,0.12172548,-0.
 17886906,-0.01076758,0.01550319,-0.01728410,0.00217291,-0.00718005,0.0
 0179554,0.00020234,-0.00013054,-0.00022762,-0.00012982,0.00005040,-0.0
 0009166,0.00000125,0.00003398,0.00010272,-0.00010108,-0.00012750,0.000
 08590,-0.00010613,0.00010539,0.00002910,-0.00003380,0.00019323,-0.0000
 2362,0.08591156,-0.12707200,0.18721272,-0.00112480,0.00074243,0.000254
 43,0.00089923,-0.00220118,0.00581327,-0.00038451,0.00049067,-0.0004954
 4,-0.00034552,0.00059411,-0.00068332,0.00181027,-0.00231811,-0.0040773
 8,-0.00126850,-0.00103137,-0.00030703,-0.00005739,-0.01977940,0.003889
 45,-0.03792845,0.02776808,0.00338942,-0.00495476,0.03115395,0.00221802
 ,-0.00004180,0.00005722,-0.00074208,0.00025246,0.00022644,-0.00008838,
 0.00018569,-0.00017178,-0.00003188,0.00004378,0.00029621,-0.00007615,0
 .00054881,-0.00035310,-0.00023620,0.00001644,0.00004658,-0.00009006,0.
 00003131,0.00105901,0.00195398,0.04061135,0.00007365,0.00003252,-0.000
 08666,-0.00041790,0.00056532,-0.00021490,-0.00002175,0.00017365,0.0000
 0566,-0.00034381,0.00024503,0.00009165,0.00109442,0.00054629,-0.000651
 32,-0.00042754,-0.00048328,-0.00022486,0.00166430,-0.00671292,0.001214
 91,0.02855535,-0.33306579,-0.02628666,-0.00101872,-0.00194417,-0.00040
 071,-0.00004310,0.00000560,0.00003425,0.00006019,-0.00001197,-0.000034
 41,0.00003682,-0.00010871,-0.00018061,0.00004393,-0.00001119,-0.000398
 65,0.00019084,-0.00008637,-0.00003405,-0.00001461,0.00001168,0.0000074
 9,-0.00022504,0.00106765,0.00026964,-0.03076373,0.35015313,0.00034400,
 -0.00001112,0.00007877,-0.00179243,0.00058484,-0.00162455,0.00013389,-
 0.00035138,0.00005421,0.00033964,0.00101589,-0.00132552,0.00288408,-0.
 00009701,-0.00312129,-0.00090090,-0.00138022,-0.00044380,0.00198626,-0
 .02226510,-0.00250936,0.00446875,-0.02263890,-0.05023735,0.00276796,-0
 .00877524,-0.00454197,-0.00002598,0.00002391,-0.00000232,-0.00008048,-
 0.00009102,0.00003764,-0.00004391,0.00007551,0.00044672,-0.00012042,0.
 00004502,0.00087981,0.00031199,-0.00041961,-0.00019496,-0.00003786,-0.
 00002396,0.00013158,-0.00147884,0.00006265,0.00153750,-0.00658410,0.03
 004117,0.05405396,-0.00072821,0.00028904,-0.00093237,0.00249641,-0.002
 33541,-0.00242632,0.00007067,0.00019415,0.00050308,-0.00014549,-0.0011
 0561,0.00041542,0.00039093,0.00147201,0.00236137,0.00006198,0.00029337
 ,0.00034109,0.00029123,0.01593860,-0.01420391,-0.04122377,-0.02243583,
 0.03717361,-0.00411563,-0.01656020,0.02134800,-0.00006087,-0.00008155,
 0.00063042,0.00005347,0.00001345,0.00006207,-0.00002921,-0.00000555,-0
 .00008499,0.00100061,-0.00115276,-0.00022767,-0.00007332,-0.00000145,0
 .00005425,-0.00010470,0.00005923,-0.00004705,0.00080098,-0.00214506,-0
 .00355556,0.00050093,0.00163240,-0.00335131,0.04174604,0.00004104,-0.0
 0024494,0.00003657,0.00016444,0.00185626,0.00019379,0.00003288,-0.0000
 5833,0.00001185,-0.00040553,-0.00320655,-0.00237771,-0.00056038,-0.000
 68646,0.00142416,-0.00005760,0.00011659,0.00050655,0.00394906,0.006811
 90,-0.00914647,-0.02267848,-0.12819442,0.13115107,0.00108596,0.0013589
 4,-0.00772765,0.00007458,-0.00010819,-0.00001142,0.00000758,0.00002131
 ,0.00004647,-0.00021373,0.00029615,0.00020853,-0.00067374,-0.00453792,
 -0.00075150,-0.00008553,0.00001060,0.00008744,0.00003313,0.00025556,0.
 00019767,0.00030001,-0.00039000,-0.00098920,-0.00478476,-0.01152935,0.
 02478603,0.02378143,0.13818186,0.00064215,-0.00076218,0.00028074,-0.00
 001226,0.00204266,0.00110972,0.00016227,-0.00009633,-0.00002787,0.0003
 2764,0.00089457,-0.00099572,-0.00081909,0.00136964,0.00146613,0.000015
 47,0.00021761,0.00011761,0.00573502,0.01098529,-0.01587037,0.03730696,
 0.12834173,-0.25197226,-0.00014141,-0.00010941,-0.00793623,0.00018403,
 -0.00008957,-0.00033368,-0.00006248,-0.00007794,0.00013206,0.00003589,
 0.00011733,0.00080184,-0.00022489,-0.00064292,0.00194772,-0.00010872,-
 0.00012239,0.00003459,-0.00012668,-0.00010165,0.00028969,0.00182676,-0
 .00140101,-0.00163736,-0.00105483,-0.00325869,0.00524191,-0.04264882,-
 0.13691555,0.26786469,0.00037097,0.00015257,0.00087350,0.01034610,0.01
 155377,-0.00685601,-0.00157049,0.00205817,-0.00050342,-0.00104800,0.00
 054638,-0.00037028,-0.00372460,-0.00101218,0.00025931,-0.00002475,0.00
 039491,0.00101334,-0.00669768,-0.01234560,0.01149076,-0.00978438,-0.00
 486410,0.00374889,-0.13417146,-0.11745266,0.06186516,0.00008463,-0.000
 55207,0.00008714,0.00062520,0.00070785,0.00046635,0.00018934,-0.000281
 01,0.00012198,0.00011717,-0.00009541,-0.00001931,0.00009919,-0.0000526
 8,-0.00005508,0.00021774,-0.00003183,-0.00014979,0.00166782,-0.0004722
 9,-0.00089409,0.00120544,-0.00007569,0.00117967,-0.00093205,-0.0000103
 5,-0.00103701,0.14302981,-0.00134795,0.00267122,-0.00060300,-0.0151597
 7,-0.02073380,0.00858672,0.00356456,-0.00239927,0.00077746,0.00037548,
 0.00063812,-0.00029479,-0.00144263,-0.00019177,-0.00060763,0.00002590,
 -0.00012889,0.00062017,0.00269011,-0.00275291,0.00029407,0.00811945,0.
 00832863,-0.00638588,-0.11934468,-0.20484479,0.08921059,0.00022371,0.0
 0054018,-0.00102809,-0.00070507,-0.00085389,-0.00041874,-0.00009103,0.
 00000595,0.00012951,-0.00003971,-0.00003702,0.00013059,-0.00004187,0.0
 0012437,-0.00017430,-0.00003734,0.00004156,-0.00026355,0.00026018,0.00
 088810,0.00018138,-0.00103127,0.00115287,-0.00058145,0.00214972,0.0000
 4698,-0.00039120,0.12183220,0.21750437,-0.00139547,-0.00008628,-0.0002
 8684,0.00518206,-0.00145332,-0.00057929,-0.00015121,-0.00025247,0.0006
 2897,-0.00090550,0.00040606,-0.00100602,-0.00585502,-0.00278401,-0.000
 00354,-0.00026220,0.00106846,0.00106134,-0.00163216,-0.01625004,0.0063
 8720,0.01400398,0.01938602,-0.01106748,0.05855129,0.09059015,-0.079389
 18,-0.00018061,-0.00044291,-0.00000093,0.00006460,0.00005798,0.0002344
 4,0.00010495,-0.00020737,0.00029201,0.00002390,-0.00019204,0.00024979,
 0.00013234,-0.00006573,-0.00004128,0.00008501,-0.00007077,-0.00017644,
 0.00191814,0.00010202,0.00023477,-0.00305171,0.00010676,0.00153903,0.0
 0458870,-0.00073062,-0.00051321,-0.07122109,-0.08918188,0.08243666\\-0
 .00000045,0.00000530,0.00000415,-0.00000068,-0.00000806,-0.00000512,0.
 00000672,0.00001029,0.00002798,0.00001348,-0.00001823,-0.00000752,0.00
 000621,0.00003258,0.00001273,-0.00002922,-0.00003215,-0.00004700,-0.00
 005224,-0.00004490,-0.00002494,0.00001466,0.00002951,0.00001316,-0.000
 00134,0.00002485,0.00001419,0.00000342,-0.00000456,-0.00000429,0.00000
 295,-0.00000177,-0.00000152,-0.00000076,0.00000259,0.00000389,0.000002
 27,-0.00000102,0.00000071,0.00000704,0.00000530,0.00000504,0.00000605,
 0.00000685,0.00001116,0.00001261,0.00001288,0.00000966,-0.00000104,-0.
 00000273,0.00000065,0.00000719,-0.00001255,-0.00000746,0.00000313,-0.0
 0000419,-0.00000547\\\@


 LAWS OF PROGRAMMING DEFINITION:  A WORKING PROGRAM
                                  IS ONE THAT HAS
                                  ONLY UNOBSERVED
                                  BUGS.
 Job cpu time:       0 days  2 hours 22 minutes 40.6 seconds.
 Elapsed time:       0 days  0 hours 35 minutes 41.0 seconds.
 File lengths (MBytes):  RWF=    135 Int=      0 D2E=      0 Chk=      9 Scr=      1
 Normal termination of Gaussian 16 at Sun Jul  3 22:53:47 2022.
### All Done ###
