### Starting Gaussian ###
 Entering Gaussian System, Link 0=g16
 Initial command:
 /cluster/software/gaussian/gaussian-16-A.03/avx2/g16/l1.exe "/local/scratch/yxie/Gau-23413.inp" -scrdir="/local/scratch/yxie/"
 Entering Link 1 = /cluster/software/gaussian/gaussian-16-A.03/avx2/g16/l1.exe PID=     23414.
  
 Copyright (c) 1988,1990,1992,1993,1995,1998,2003,2009,2016,
            Gaussian, Inc.  All Rights Reserved.
  
 This is part of the Gaussian(R) 16 program.  It is based on
 the Gaussian(R) 09 system (copyright 2009, Gaussian, Inc.),
 the Gaussian(R) 03 system (copyright 2003, Gaussian, Inc.),
 the Gaussian(R) 98 system (copyright 1998, Gaussian, Inc.),
 the Gaussian(R) 94 system (copyright 1995, Gaussian, Inc.),
 the Gaussian 92(TM) system (copyright 1992, Gaussian, Inc.),
 the Gaussian 90(TM) system (copyright 1990, Gaussian, Inc.),
 the Gaussian 88(TM) system (copyright 1988, Gaussian, Inc.),
 the Gaussian 86(TM) system (copyright 1986, Carnegie Mellon
 University), and the Gaussian 82(TM) system (copyright 1983,
 Carnegie Mellon University). Gaussian is a federally registered
 trademark of Gaussian, Inc.
  
 This software contains proprietary and confidential information,
 including trade secrets, belonging to Gaussian, Inc.
  
 This software is provided under written license and may be
 used, copied, transmitted, or stored only in accord with that
 written license.
  
 The following legend is applicable only to US Government
 contracts under FAR:
  
                    RESTRICTED RIGHTS LEGEND
  
 Use, reproduction and disclosure by the US Government is
 subject to restrictions as set forth in subparagraphs (a)
 and (c) of the Commercial Computer Software - Restricted
 Rights clause in FAR 52.227-19.
  
 Gaussian, Inc.
 340 Quinnipiac St., Bldg. 40, Wallingford CT 06492
  
  
 ---------------------------------------------------------------
 Warning -- This program may not be used in any manner that
 competes with the business of Gaussian, Inc. or will provide
 assistance to any competitor of Gaussian, Inc.  The licensee
 of this program is prohibited from giving any competitor of
 Gaussian, Inc. access to this program.  By using this program,
 the user acknowledges that Gaussian, Inc. is engaged in the
 business of creating and licensing software in the field of
 computational chemistry and represents and warrants to the
 licensee that it is not a competitor of Gaussian, Inc. and that
 it will not use this program in any manner prohibited above.
 ---------------------------------------------------------------
  

 Cite this work as:
 Gaussian 16, Revision A.03,
 M. J. Frisch, G. W. Trucks, H. B. Schlegel, G. E. Scuseria, 
 M. A. Robb, J. R. Cheeseman, G. Scalmani, V. Barone, 
 G. A. Petersson, H. Nakatsuji, X. Li, M. Caricato, A. V. Marenich, 
 J. Bloino, B. G. Janesko, R. Gomperts, B. Mennucci, H. P. Hratchian, 
 J. V. Ortiz, A. F. Izmaylov, J. L. Sonnenberg, D. Williams-Young, 
 F. Ding, F. Lipparini, F. Egidi, J. Goings, B. Peng, A. Petrone, 
 T. Henderson, D. Ranasinghe, V. G. Zakrzewski, J. Gao, N. Rega, 
 G. Zheng, W. Liang, M. Hada, M. Ehara, K. Toyota, R. Fukuda, 
 J. Hasegawa, M. Ishida, T. Nakajima, Y. Honda, O. Kitao, H. Nakai, 
 T. Vreven, K. Throssell, J. A. Montgomery, Jr., J. E. Peralta, 
 F. Ogliaro, M. J. Bearpark, J. J. Heyd, E. N. Brothers, K. N. Kudin, 
 V. N. Staroverov, T. A. Keith, R. Kobayashi, J. Normand, 
 K. Raghavachari, A. P. Rendell, J. C. Burant, S. S. Iyengar, 
 J. Tomasi, M. Cossi, J. M. Millam, M. Klene, C. Adamo, R. Cammi, 
 J. W. Ochterski, R. L. Martin, K. Morokuma, O. Farkas, 
 J. B. Foresman, and D. J. Fox, Gaussian, Inc., Wallingford CT, 2016.
 
 ******************************************
 Gaussian 16:  ES64L-G16RevA.03 25-Dec-2016
                 4-Aug-2022 
 ******************************************
 %chk=Ndc1ccncnn1.chk
 %NProcShared=20
 Will use up to   20 processors via shared memory.
 -----------------------------
 # opt freq b3lyp/6-31g(2df,p)
 -----------------------------
 1/18=20,19=15,26=3,38=1/1,3;
 2/9=110,12=2,17=6,18=5,40=1/2;
 3/5=1,6=6,7=104,11=2,25=1,30=1,71=1,74=-5/1,2,3;
 4//1;
 5/5=2,38=5/2;
 6/7=2,8=2,9=2,10=2,28=1/1;
 7//1,2,3,16;
 1/18=20,19=15,26=3/3(2);
 2/9=110/2;
 99//99;
 2/9=110/2;
 3/5=1,6=6,7=104,11=2,25=1,30=1,71=1,74=-5/1,2,3;
 4/5=5,16=3,69=1/1;
 5/5=2,38=5/2;
 7//1,2,3,16;
 1/18=20,19=15,26=3/3(-5);
 2/9=110/2;
 6/7=2,8=2,9=2,10=2,19=2,28=1/1;
 99/9=1/99;
 -------------------
 Title Card Required
 -------------------
 Symbolic Z-matrix:
 Charge =  0 Multiplicity = 1
 N                     1.12554  -0.02467  -0.05532 
 C                     2.50316  -0.03139  -0.06762 
 C                     2.84267  -0.78155  -1.23421 
 C                     4.16313  -0.9213   -1.45174 
 N                     5.04929  -1.56511  -2.45395 
 C                     6.24275  -1.34335  -2.10874 
 N                     5.68777  -0.69533  -1.09999 
 N                     4.08523  -0.05398  -0.10105 
 H                     0.48003  -0.47954  -0.76409 
 H                     2.28107  -1.23402  -1.93854 
 H                     5.27236  -0.10702  -0.18418 
 H                     7.10888  -0.90043  -1.41926 
 

 GradGradGradGradGradGradGradGradGradGradGradGradGradGradGradGradGradGrad
 Berny optimization.
 Initialization pass.
                           ----------------------------
                           !    Initial Parameters    !
                           ! (Angstroms and Degrees)  !
 --------------------------                            --------------------------
 ! Name  Definition              Value          Derivative Info.                !
 --------------------------------------------------------------------------------
 ! R1    R(1,2)                  1.3777         estimate D2E/DX2                !
 ! R2    R(1,9)                  1.0611         estimate D2E/DX2                !
 ! R3    R(2,3)                  1.4279         estimate D2E/DX2                !
 ! R4    R(2,8)                  1.5826         estimate D2E/DX2                !
 ! R5    R(3,4)                  1.3455         estimate D2E/DX2                !
 ! R6    R(3,10)                 1.0081         estimate D2E/DX2                !
 ! R7    R(4,5)                  1.4847         estimate D2E/DX2                !
 ! R8    R(4,7)                  1.5809         estimate D2E/DX2                !
 ! R9    R(4,8)                  1.6071         estimate D2E/DX2                !
 ! R10   R(5,6)                  1.262          estimate D2E/DX2                !
 ! R11   R(6,7)                  1.3212         estimate D2E/DX2                !
 ! R12   R(6,12)                 1.1924         estimate D2E/DX2                !
 ! R13   R(7,11)                 1.1651         estimate D2E/DX2                !
 ! R14   R(8,11)                 1.1912         estimate D2E/DX2                !
 ! A1    A(2,1,9)              126.8879         estimate D2E/DX2                !
 ! A2    A(1,2,3)              104.3362         estimate D2E/DX2                !
 ! A3    A(3,2,8)               74.7848         estimate D2E/DX2                !
 ! A4    A(2,3,4)              114.8334         estimate D2E/DX2                !
 ! A5    A(2,3,10)             132.3895         estimate D2E/DX2                !
 ! A6    A(4,3,10)             112.7772         estimate D2E/DX2                !
 ! A7    A(3,4,5)              137.7254         estimate D2E/DX2                !
 ! A8    A(3,4,7)              153.5869         estimate D2E/DX2                !
 ! A9    A(3,4,8)               76.143          estimate D2E/DX2                !
 ! A10   A(5,4,7)               68.6877         estimate D2E/DX2                !
 ! A11   A(5,4,8)              146.1316         estimate D2E/DX2                !
 ! A12   A(7,4,8)               77.444          estimate D2E/DX2                !
 ! A13   A(4,5,6)              107.6742         estimate D2E/DX2                !
 ! A14   A(5,6,7)               84.1339         estimate D2E/DX2                !
 ! A15   A(5,6,12)             155.5575         estimate D2E/DX2                !
 ! A16   A(7,6,12)              71.4237         estimate D2E/DX2                !
 ! A17   A(4,7,6)               99.5042         estimate D2E/DX2                !
 ! A18   A(4,7,11)              84.4457         estimate D2E/DX2                !
 ! A19   A(2,8,4)               94.2389         estimate D2E/DX2                !
 ! A20   A(4,8,11)              82.4732         estimate D2E/DX2                !
 ! A21   A(7,11,8)             115.6371         estimate D2E/DX2                !
 ! A22   L(1,2,8,3,-1)         179.1209         estimate D2E/DX2                !
 ! A23   L(6,7,11,4,-1)        183.9499         estimate D2E/DX2                !
 ! A24   L(2,8,11,4,-1)        176.7121         estimate D2E/DX2                !
 ! A25   L(1,2,8,3,-2)         180.0774         estimate D2E/DX2                !
 ! A26   L(6,7,11,4,-2)        179.9998         estimate D2E/DX2                !
 ! A27   L(2,8,11,4,-2)        179.9518         estimate D2E/DX2                !
 ! D1    D(9,1,2,3)             -0.0927         estimate D2E/DX2                !
 ! D2    D(9,1,8,4)             -0.015          estimate D2E/DX2                !
 ! D3    D(9,1,11,7)            -0.0301         estimate D2E/DX2                !
 ! D4    D(1,2,3,4)           -179.9622         estimate D2E/DX2                !
 ! D5    D(1,2,3,10)             0.0714         estimate D2E/DX2                !
 ! D6    D(8,2,3,4)             -0.0396         estimate D2E/DX2                !
 ! D7    D(8,2,3,10)           179.994          estimate D2E/DX2                !
 ! D8    D(3,2,8,4)              0.0302         estimate D2E/DX2                !
 ! D9    D(3,2,11,7)             0.0283         estimate D2E/DX2                !
 ! D10   D(2,3,4,5)           -179.9717         estimate D2E/DX2                !
 ! D11   D(2,3,4,7)              0.0265         estimate D2E/DX2                !
 ! D12   D(2,3,4,8)              0.0388         estimate D2E/DX2                !
 ! D13   D(10,3,4,5)             0.0014         estimate D2E/DX2                !
 ! D14   D(10,3,4,7)           179.9995         estimate D2E/DX2                !
 ! D15   D(10,3,4,8)          -179.9881         estimate D2E/DX2                !
 ! D16   D(3,4,5,6)            179.9994         estimate D2E/DX2                !
 ! D17   D(7,4,5,6)              0.0003         estimate D2E/DX2                !
 ! D18   D(8,4,5,6)             -0.0189         estimate D2E/DX2                !
 ! D19   D(3,4,7,6)           -179.9989         estimate D2E/DX2                !
 ! D20   D(3,4,7,11)             0.0013         estimate D2E/DX2                !
 ! D21   D(5,4,7,6)             -0.0003         estimate D2E/DX2                !
 ! D22   D(5,4,7,11)           180.0            estimate D2E/DX2                !
 ! D23   D(8,4,7,6)            179.9888         estimate D2E/DX2                !
 ! D24   D(8,4,7,11)            -0.011          estimate D2E/DX2                !
 ! D25   D(3,4,8,2)             -0.0318         estimate D2E/DX2                !
 ! D26   D(3,4,8,11)          -179.9836         estimate D2E/DX2                !
 ! D27   D(5,4,8,2)            179.9808         estimate D2E/DX2                !
 ! D28   D(5,4,8,11)             0.029          estimate D2E/DX2                !
 ! D29   D(7,4,8,2)            179.9625         estimate D2E/DX2                !
 ! D30   D(7,4,8,11)             0.0108         estimate D2E/DX2                !
 ! D31   D(4,5,6,7)             -0.0003         estimate D2E/DX2                !
 ! D32   D(4,5,6,12)            -0.0004         estimate D2E/DX2                !
 ! D33   D(5,6,7,4)              0.0003         estimate D2E/DX2                !
 ! D34   D(12,6,7,4)          -179.9998         estimate D2E/DX2                !
 ! D35   D(5,6,11,8)             0.0166         estimate D2E/DX2                !
 ! D36   D(12,6,11,8)         -179.9835         estimate D2E/DX2                !
 ! D37   D(4,7,11,8)             0.016          estimate D2E/DX2                !
 ! D38   D(4,8,11,7)            -0.0158         estimate D2E/DX2                !
 --------------------------------------------------------------------------------
 Trust Radius=3.00D-01 FncErr=1.00D-07 GrdErr=1.00D-06 EigMax=2.50D+02 EigMin=1.00D-04
 Number of steps in this run=     89 maximum allowed number of steps=    100.
 GradGradGradGradGradGradGradGradGradGradGradGradGradGradGradGradGradGrad

                          Input orientation:                          
 ---------------------------------------------------------------------
 Center     Atomic      Atomic             Coordinates (Angstroms)
 Number     Number       Type             X           Y           Z
 ---------------------------------------------------------------------
      1          7           0        1.125540   -0.024670   -0.055320
      2          6           0        2.503160   -0.031390   -0.067620
      3          6           0        2.842670   -0.781550   -1.234210
      4          6           0        4.163130   -0.921300   -1.451740
      5          7           0        5.049290   -1.565110   -2.453950
      6          6           0        6.242750   -1.343350   -2.108740
      7          7           0        5.687770   -0.695330   -1.099990
      8          7           0        4.085230   -0.053980   -0.101050
      9          1           0        0.480030   -0.479540   -0.764090
     10          1           0        2.281070   -1.234020   -1.938540
     11          1           0        5.272360   -0.107020   -0.184180
     12          1           0        7.108880   -0.900430   -1.419260
 ---------------------------------------------------------------------
                    Distance matrix (angstroms):
                    1          2          3          4          5
     1  N    0.000000
     2  C    1.377691   0.000000
     3  C    2.216119   1.427914   0.000000
     4  C    3.461342   2.337355   1.345535   0.000000
     5  N    4.849969   3.811777   2.640247   1.484653   0.000000
     6  C    5.669329   4.457796   3.555414   2.221395   1.262020
     7  N    4.728114   3.412967   2.849569   1.580923   1.731295
     8  N    2.960188   1.582584   1.832311   1.607071   2.957882
     9  H    1.061105   2.186084   2.427816   3.772697   4.991215
    10  H    2.518788   2.235170   1.008070   1.968989   2.835191
    11  H    4.149639   2.772684   2.731473   1.870869   2.706962
    12  H    6.199004   4.877993   4.271876   2.946003   2.398811
                    6          7          8          9         10
     6  C    0.000000
     7  N    1.321177   0.000000
     8  N    3.216860   1.994328   0.000000
     9  H    5.980234   5.223021   3.690283   0.000000
    10  H    3.966841   3.549501   2.832641   2.278666   0.000000
    11  H    2.484774   1.165067   1.191218   4.841642   3.646330
    12  H    1.192368   1.470902   3.405380   6.674432   4.867102
                   11         12
    11  H    0.000000
    12  H    2.351112   0.000000
 Stoichiometry    C4H4N4
 Framework group  C1[X(C4H4N4)]
 Deg. of freedom    30
 Full point group                 C1      NOp   1
 Largest Abelian subgroup         C1      NOp   1
 Largest concise Abelian subgroup C1      NOp   1
                         Standard orientation:                         
 ---------------------------------------------------------------------
 Center     Atomic      Atomic             Coordinates (Angstroms)
 Number     Number       Type             X           Y           Z
 ---------------------------------------------------------------------
      1          7           0        3.066618   -0.110967   -0.000322
      2          6           0        1.812246    0.458754    0.000668
      3          6           0        0.918225   -0.654649    0.000020
      4          6           0       -0.387740   -0.330734    0.000005
      5          7           0       -1.694393   -1.035613   -0.000009
      6          6           0       -2.602505   -0.159242   -0.000009
      7          7           0       -1.592694    0.692692    0.000011
      8          7           0        0.361450    1.091022   -0.000276
      9          1           0        3.295577   -1.147077    0.000041
     10          1           0        1.073268   -1.650724    0.000002
     11          1           0       -0.756069    1.503519    0.000024
     12          1           0       -3.040992    0.949573   -0.000001
 ---------------------------------------------------------------------
 Rotational constants (GHZ):           9.2173862           1.3878654           1.2062412
 Standard basis: 6-31G(2df,p) (6D, 7F)
 There are   268 symmetry adapted cartesian basis functions of A   symmetry.
 There are   244 symmetry adapted basis functions of A   symmetry.
   244 basis functions,   380 primitive gaussians,   268 cartesian basis functions
    28 alpha electrons       28 beta electrons
       nuclear repulsion energy       333.4352205888 Hartrees.
 NAtoms=   12 NActive=   12 NUniq=   12 SFac= 1.00D+00 NAtFMM=   60 NAOKFM=F Big=F
 Integral buffers will be    131072 words long.
 Raffenetti 2 integral format.
 Two-electron integral symmetry is turned on.
 One-electron integrals computed using PRISM.
 PrsmSu:  requested number of processors reduced to:  13 ShMem   1 Linda.
 NBasis=   244 RedAO= T EigKep=  1.71D-04  NBF=   244
 NBsUse=   244 1.00D-06 EigRej= -1.00D+00 NBFU=   244
 ExpMin= 1.61D-01 ExpMax= 4.17D+03 ExpMxC= 6.27D+02 IAcc=3 IRadAn=         5 AccDes= 0.00D+00
 Harris functional with IExCor=  402 and IRadAn=       5 diagonalized for initial guess.
 HarFok:  IExCor=  402 AccDes= 0.00D+00 IRadAn=         5 IDoV= 1 UseB2=F ITyADJ=14
 ICtDFT=  3500011 ScaDFX=  1.000000  1.000000  1.000000  1.000000
 FoFCou: FMM=F IPFlag=           0 FMFlag=      100000 FMFlg1=           0
         NFxFlg=           0 DoJE=T BraDBF=F KetDBF=T FulRan=T
         wScrn=  0.000000 ICntrl=       500 IOpCl=  0 I1Cent=   200000004 NGrid=           0
         NMat0=    1 NMatS0=      1 NMatT0=    0 NMatD0=    1 NMtDS0=    0 NMtDT0=    0
 Petite list used in FoFCou.
 Requested convergence on RMS density matrix=1.00D-08 within 128 cycles.
 Requested convergence on MAX density matrix=1.00D-06.
 Requested convergence on             energy=1.00D-06.
 No special actions if energy rises.
 Integral accuracy reduced to 1.0D-05 until final iterations.
 EnCoef did     2 forward-backward iterations
 EnCoef did     3 forward-backward iterations
 Initial convergence to 1.0D-05 achieved.  Increase integral accuracy.
 SCF Done:  E(RB3LYP) =  -373.142971758     A.U. after   20 cycles
            NFock= 20  Conv=0.83D-08     -V/T= 2.0049

 **********************************************************************

            Population analysis using the SCF density.

 **********************************************************************

 Orbital symmetries:
       Occupied  (A) (A) (A) (A) (A) (A) (A) (A) (A) (A) (A) (A)
                 (A) (A) (A) (A) (A) (A) (A) (A) (A) (A) (A) (A)
                 (A) (A) (A) (A)
       Virtual   (A) (A) (A) (A) (A) (A) (A) (A) (A) (A) (A) (A)
                 (A) (A) (A) (A) (A) (A) (A) (A) (A) (A) (A) (A)
                 (A) (A) (A) (A) (A) (A) (A) (A) (A) (A) (A) (A)
                 (A) (A) (A) (A) (A) (A) (A) (A) (A) (A) (A) (A)
                 (A) (A) (A) (A) (A) (A) (A) (A) (A) (A) (A) (A)
                 (A) (A) (A) (A) (A) (A) (A) (A) (A) (A) (A) (A)
                 (A) (A) (A) (A) (A) (A) (A) (A) (A) (A) (A) (A)
                 (A) (A) (A) (A) (A) (A) (A) (A) (A) (A) (A) (A)
                 (A) (A) (A) (A) (A) (A) (A) (A) (A) (A) (A) (A)
                 (A) (A) (A) (A) (A) (A) (A) (A) (A) (A) (A) (A)
                 (A) (A) (A) (A) (A) (A) (A) (A) (A) (A) (A) (A)
                 (A) (A) (A) (A) (A) (A) (A) (A) (A) (A) (A) (A)
                 (A) (A) (A) (A) (A) (A) (A) (A) (A) (A) (A) (A)
                 (A) (A) (A) (A) (A) (A) (A) (A) (A) (A) (A) (A)
                 (A) (A) (A) (A) (A) (A) (A) (A) (A) (A) (A) (A)
                 (A) (A) (A) (A) (A) (A) (A) (A) (A) (A) (A) (A)
                 (A) (A) (A) (A) (A) (A) (A) (A) (A) (A) (A) (A)
                 (A) (A) (A) (A) (A) (A) (A) (A) (A) (A) (A) (A)
 The electronic state is 1-A.
 Alpha  occ. eigenvalues --  -14.39713 -14.39590 -14.36895 -14.34092 -10.30197
 Alpha  occ. eigenvalues --  -10.28874 -10.27082 -10.21050  -1.12129  -0.96106
 Alpha  occ. eigenvalues --   -0.86862  -0.83385  -0.74310  -0.70726  -0.59235
 Alpha  occ. eigenvalues --   -0.56440  -0.52798  -0.50199  -0.48694  -0.46173
 Alpha  occ. eigenvalues --   -0.40509  -0.39211  -0.33925  -0.28082  -0.27185
 Alpha  occ. eigenvalues --   -0.26739  -0.22920  -0.19882
 Alpha virt. eigenvalues --   -0.11378  -0.09004  -0.03363  -0.01716   0.00573
 Alpha virt. eigenvalues --    0.08729   0.09368   0.11863   0.16812   0.18379
 Alpha virt. eigenvalues --    0.20771   0.23188   0.29190   0.32925   0.38561
 Alpha virt. eigenvalues --    0.40885   0.42585   0.43044   0.43797   0.45107
 Alpha virt. eigenvalues --    0.47174   0.49357   0.50133   0.50244   0.56248
 Alpha virt. eigenvalues --    0.56825   0.60224   0.61845   0.63378   0.64591
 Alpha virt. eigenvalues --    0.66265   0.66680   0.68857   0.70675   0.71067
 Alpha virt. eigenvalues --    0.71354   0.72213   0.72921   0.77042   0.77721
 Alpha virt. eigenvalues --    0.79105   0.79890   0.80341   0.83753   0.87411
 Alpha virt. eigenvalues --    0.87974   0.91996   0.96134   0.96141   0.97974
 Alpha virt. eigenvalues --    0.98325   1.02448   1.03481   1.07910   1.08880
 Alpha virt. eigenvalues --    1.14422   1.14484   1.17616   1.24036   1.24498
 Alpha virt. eigenvalues --    1.28823   1.29021   1.32388   1.32942   1.37980
 Alpha virt. eigenvalues --    1.39560   1.40855   1.43779   1.46430   1.48688
 Alpha virt. eigenvalues --    1.49769   1.51093   1.56415   1.61140   1.61719
 Alpha virt. eigenvalues --    1.62430   1.64180   1.68286   1.69137   1.72872
 Alpha virt. eigenvalues --    1.75120   1.76681   1.82185   1.86503   1.90906
 Alpha virt. eigenvalues --    1.96732   2.00750   2.01951   2.15448   2.16777
 Alpha virt. eigenvalues --    2.24649   2.25436   2.28699   2.30069   2.39639
 Alpha virt. eigenvalues --    2.43308   2.45110   2.50612   2.50709   2.64290
 Alpha virt. eigenvalues --    2.70047   2.72794   2.72815   2.82193   2.86249
 Alpha virt. eigenvalues --    2.87374   2.87852   2.91596   2.94973   2.98249
 Alpha virt. eigenvalues --    3.00004   3.00132   3.03356   3.03606   3.08698
 Alpha virt. eigenvalues --    3.09154   3.14963   3.16696   3.18223   3.22858
 Alpha virt. eigenvalues --    3.24851   3.29331   3.33123   3.35518   3.40341
 Alpha virt. eigenvalues --    3.42432   3.44792   3.55062   3.56083   3.59482
 Alpha virt. eigenvalues --    3.65964   3.67933   3.71367   3.75975   3.76514
 Alpha virt. eigenvalues --    3.78639   3.80947   3.81858   3.84785   3.87643
 Alpha virt. eigenvalues --    3.88010   3.90856   3.93375   3.95965   4.03993
 Alpha virt. eigenvalues --    4.04491   4.06843   4.07328   4.08924   4.14416
 Alpha virt. eigenvalues --    4.16072   4.17972   4.18508   4.21954   4.23602
 Alpha virt. eigenvalues --    4.31196   4.31590   4.32667   4.33713   4.35008
 Alpha virt. eigenvalues --    4.36411   4.37738   4.38778   4.41582   4.46022
 Alpha virt. eigenvalues --    4.47600   4.47897   4.49026   4.52515   4.54597
 Alpha virt. eigenvalues --    4.56449   4.56556   4.58013   4.59344   4.61795
 Alpha virt. eigenvalues --    4.62284   4.66533   4.68626   4.70883   4.78092
 Alpha virt. eigenvalues --    4.82623   4.85777   4.90418   4.93282   4.94024
 Alpha virt. eigenvalues --    4.98132   4.98811   5.02693   5.04307   5.10778
 Alpha virt. eigenvalues --    5.17720   5.24890   5.26094   5.30667   5.38276
 Alpha virt. eigenvalues --    5.41597   5.50549   5.62905   5.66059   5.68817
 Alpha virt. eigenvalues --    5.77355   5.78877   5.94403   6.08884   8.98955
 Alpha virt. eigenvalues --   10.27555  10.56149  10.97467  11.20019  11.29938
 Alpha virt. eigenvalues --   11.32682  11.42861  12.24002  13.06050  16.01622
 Alpha virt. eigenvalues --   20.10197
          Condensed to atoms (all electrons):
               1          2          3          4          5          6
     1  N    6.798517   0.481893  -0.094213   0.011056  -0.000150   0.000007
     2  C    0.481893   4.816178   0.402747  -0.038932   0.003860  -0.000527
     3  C   -0.094213   0.402747   5.010517   0.532813  -0.005625   0.000699
     4  C    0.011056  -0.038932   0.532813   4.674284   0.263163  -0.153218
     5  N   -0.000150   0.003860  -0.005625   0.263163   6.572747   0.626384
     6  C    0.000007  -0.000527   0.000699  -0.153218   0.626384   5.036688
     7  N   -0.000002   0.002885  -0.011064   0.279965  -0.206619   0.323436
     8  N   -0.007750   0.281509  -0.101188   0.132788  -0.029229   0.017388
     9  H    0.333247  -0.084294  -0.009273   0.001239  -0.000028  -0.000001
    10  H   -0.003101  -0.062394   0.315282  -0.037190  -0.008090  -0.000043
    11  H   -0.000422  -0.002985   0.017772  -0.088416   0.029843  -0.015533
    12  H   -0.000000  -0.000015  -0.000018   0.011454  -0.002307   0.305121
               7          8          9         10         11         12
     1  N   -0.000002  -0.007750   0.333247  -0.003101  -0.000422  -0.000000
     2  C    0.002885   0.281509  -0.084294  -0.062394  -0.002985  -0.000015
     3  C   -0.011064  -0.101188  -0.009273   0.315282   0.017772  -0.000018
     4  C    0.279965   0.132788   0.001239  -0.037190  -0.088416   0.011454
     5  N   -0.206619  -0.029229  -0.000028  -0.008090   0.029843  -0.002307
     6  C    0.323436   0.017388  -0.000001  -0.000043  -0.015533   0.305121
     7  N    6.967912  -0.221692   0.000012   0.003084   0.142181  -0.032008
     8  N   -0.221692   7.182782   0.000699   0.017679   0.128758  -0.000388
     9  H    0.000012   0.000699   0.476943   0.004805  -0.000029  -0.000000
    10  H    0.003084   0.017679   0.004805   0.674187  -0.002532   0.000002
    11  H    0.142181   0.128758  -0.000029  -0.002532   0.489712   0.001015
    12  H   -0.032008  -0.000388  -0.000000   0.000002   0.001015   0.392511
 Mulliken charges:
               1
     1  N   -0.519081
     2  C    0.200075
     3  C   -0.058447
     4  C    0.410993
     5  N   -0.243949
     6  C   -0.140402
     7  N   -0.248091
     8  N   -0.401357
     9  H    0.276679
    10  H    0.098311
    11  H    0.300634
    12  H    0.324634
 Sum of Mulliken charges =  -0.00000
 Mulliken charges with hydrogens summed into heavy atoms:
               1
     1  N   -0.242401
     2  C    0.200075
     3  C    0.039864
     4  C    0.410993
     5  N   -0.243949
     6  C    0.184232
     7  N    0.052542
     8  N   -0.401357
 Electronic spatial extent (au):  <R**2>=            900.4211
 Charge=             -0.0000 electrons
 Dipole moment (field-independent basis, Debye):
    X=             -3.1055    Y=             -0.1190    Z=              0.0017  Tot=              3.1077
 Quadrupole moment (field-independent basis, Debye-Ang):
   XX=            -45.1446   YY=            -43.4010   ZZ=            -47.2881
   XY=            -11.0843   XZ=              0.0042   YZ=              0.0017
 Traceless Quadrupole moment (field-independent basis, Debye-Ang):
   XX=              0.1333   YY=              1.8769   ZZ=             -2.0102
   XY=            -11.0843   XZ=              0.0042   YZ=              0.0017
 Octapole moment (field-independent basis, Debye-Ang**2):
  XXX=            -46.6816  YYY=              1.7725  ZZZ=              0.0002  XYY=              3.9251
  XXY=             -3.0577  XXZ=              0.0132  XZZ=             -0.6825  YZZ=             -0.4772
  YYZ=              0.0019  XYZ=              0.0026
 Hexadecapole moment (field-independent basis, Debye-Ang**3):
 XXXX=          -1036.4963 YYYY=           -179.7895 ZZZZ=            -43.7957 XXXY=           -110.4923
 XXXZ=              0.0377 YYYX=            -27.7503 YYYZ=              0.0020 ZZZX=             -0.0003
 ZZZY=              0.0012 XXYY=           -159.8254 XXZZ=           -173.9782 YYZZ=            -41.2218
 XXYZ=              0.0018 YYXZ=              0.0006 ZZXY=             -2.2261
 N-N= 3.334352205888D+02 E-N=-1.536372787297D+03  KE= 3.713384583237D+02
 PrsmSu:  requested number of processors reduced to:  13 ShMem   1 Linda.
 Calling FoFJK, ICntrl=      2127 FMM=F ISym2X=0 I1Cent= 0 IOpClX= 0 NMat=1 NMatS=1 NMatT=0.
 ***** Axes restored to original set *****
 -------------------------------------------------------------------
 Center     Atomic                   Forces (Hartrees/Bohr)
 Number     Number              X              Y              Z
 -------------------------------------------------------------------
      1        7           0.047143700    0.046861781    0.072855758
      2        6          -0.040399715   -0.049791687   -0.077170572
      3        6           0.050182247   -0.045069505   -0.070419859
      4        6           0.000843568    0.019900612    0.030914480
      5        7          -0.087520495   -0.078061201   -0.121434109
      6        6           0.100825930    0.040269233    0.062711930
      7        7          -0.019843465    0.038966589    0.060593246
      8        7          -0.082262754    0.064331471    0.100259679
      9        1           0.047665183    0.004325549    0.006701312
     10        1          -0.057520321   -0.026366996   -0.041013120
     11        1           0.021134444    0.026821459    0.041685397
     12        1           0.019751678   -0.042187306   -0.065684141
 -------------------------------------------------------------------
 Cartesian Forces:  Max     0.121434109 RMS     0.057451643

 GradGradGradGradGradGradGradGradGradGradGradGradGradGradGradGradGradGrad
 Berny optimization.
 FormGI is forming the generalized inverse of G from B-inverse, IUseBI=4.
 Internal  Forces:  Max     0.112599059 RMS     0.035696591
 Search for a local minimum.
 Step number   1 out of a maximum of   89
 All quantities printed in internal units (Hartrees-Bohrs-Radians)
 Mixed Optimization -- RFO/linear search
 Second derivative matrix not updated -- first step.
 ITU=  0
     Eigenvalues ---    0.00230   0.00514   0.00776   0.01025   0.01280
     Eigenvalues ---    0.01334   0.01754   0.02297   0.03095   0.10920
     Eigenvalues ---    0.14517   0.15600   0.16000   0.16000   0.16000
     Eigenvalues ---    0.23061   0.23656   0.24689   0.24757   0.25231
     Eigenvalues ---    0.25243   0.26690   0.31874   0.37902   0.38377
     Eigenvalues ---    0.46297   0.49527   0.51105   0.56037   0.70058
 RFO step:  Lambda=-2.15074667D-01 EMin= 2.30000085D-03
 Linear search not attempted -- first point.
 Maximum step size (   0.300) exceeded in Quadratic search.
    -- Step size scaled by   0.419
 Iteration  1 RMS(Cart)=  0.04935589 RMS(Int)=  0.00172535
 Iteration  2 RMS(Cart)=  0.00263947 RMS(Int)=  0.00011818
 Iteration  3 RMS(Cart)=  0.00000261 RMS(Int)=  0.00011817
 Iteration  4 RMS(Cart)=  0.00000000 RMS(Int)=  0.00011817
 Variable       Old X    -DE/DX   Delta X   Delta X   Delta X     New X
                                 (Linear)    (Quad)   (Total)
    R1        2.60346  -0.09384   0.00000  -0.05535  -0.05535   2.54811
    R2        2.00520  -0.03533   0.00000  -0.02472  -0.02472   1.98048
    R3        2.69837   0.06111   0.00000   0.03940   0.03980   2.73816
    R4        2.99065  -0.05999   0.00000  -0.05942  -0.05963   2.93102
    R5        2.54269  -0.00232   0.00000   0.00163   0.00190   2.54459
    R6        1.90498   0.07254   0.00000   0.04482   0.04482   1.94980
    R7        2.80559   0.04121   0.00000   0.02795   0.02796   2.83355
    R8        2.98751   0.03585   0.00000   0.02659   0.02661   3.01412
    R9        3.03692   0.06544   0.00000   0.06180   0.06144   3.09836
   R10        2.38487   0.08907   0.00000   0.04009   0.04008   2.42495
   R11        2.49666   0.09635   0.00000   0.05150   0.05148   2.54815
   R12        2.25325  -0.03930   0.00000  -0.03523  -0.03523   2.21802
   R13        2.20166   0.04300   0.00000   0.03903   0.03903   2.24068
   R14        2.25108   0.02619   0.00000   0.02390   0.02389   2.27497
    A1        2.21461  -0.06613   0.00000  -0.07387  -0.07387   2.14074
    A2        1.82101   0.07006   0.00000   0.09631   0.09623   1.91724
    A3        1.30524   0.04254   0.00000   0.04970   0.04986   1.35510
    A4        2.00422  -0.05076   0.00000  -0.05261  -0.05221   1.95201
    A5        2.31063   0.00576   0.00000   0.00438   0.00418   2.31481
    A6        1.96833   0.04501   0.00000   0.04823   0.04803   2.01636
    A7        2.40376  -0.05317   0.00000  -0.04409  -0.04405   2.35971
    A8        2.68060   0.01155   0.00000   0.01546   0.01537   2.69597
    A9        1.32895   0.02089   0.00000   0.02318   0.02310   1.35205
   A10        1.19883   0.04162   0.00000   0.02864   0.02868   1.22750
   A11        2.55048   0.03227   0.00000   0.02092   0.02095   2.57143
   A12        1.35165  -0.00934   0.00000  -0.00772  -0.00773   1.34392
   A13        1.87927  -0.02942   0.00000  -0.02526  -0.02528   1.85399
   A14        1.46841   0.01006   0.00000   0.02070   0.02065   1.48907
   A15        2.71499   0.08421   0.00000   0.09880   0.09878   2.81377
   A16        1.24658   0.07415   0.00000   0.07810   0.07812   1.32470
   A17        1.73668  -0.02226   0.00000  -0.02407  -0.02405   1.71263
   A18        1.47386   0.01546   0.00000   0.01560   0.01553   1.48939
   A19        1.64478  -0.01267   0.00000  -0.02026  -0.02076   1.62402
   A20        1.43943   0.00810   0.00000   0.00542   0.00561   1.44504
   A21        2.01825  -0.01422   0.00000  -0.01330  -0.01341   2.00483
   A22        3.12625   0.11260   0.00000   0.14600   0.14609   3.27234
   A23        3.21053  -0.00680   0.00000  -0.00847  -0.00852   3.20201
   A24        3.08421  -0.00457   0.00000  -0.01484  -0.01514   3.06906
   A25        3.14294   0.00004   0.00000   0.00006   0.00006   3.14301
   A26        3.14159  -0.00001   0.00000  -0.00001  -0.00001   3.14157
   A27        3.14075  -0.00002   0.00000  -0.00003  -0.00003   3.14072
    D1       -0.00162   0.00004   0.00000   0.00004   0.00004  -0.00158
    D2       -0.00026  -0.00001   0.00000  -0.00000   0.00000  -0.00026
    D3       -0.00053  -0.00002   0.00000  -0.00002  -0.00002  -0.00054
    D4       -3.14093   0.00003   0.00000   0.00006   0.00006  -3.14088
    D5        0.00125   0.00001   0.00000   0.00001   0.00001   0.00126
    D6       -0.00069  -0.00001   0.00000  -0.00000  -0.00000  -0.00070
    D7        3.14149  -0.00003   0.00000  -0.00005  -0.00005   3.14144
    D8        0.00053   0.00001   0.00000   0.00000   0.00000   0.00053
    D9        0.00049  -0.00000   0.00000  -0.00001  -0.00001   0.00049
   D10       -3.14110  -0.00002   0.00000  -0.00003  -0.00003  -3.14113
   D11        0.00046  -0.00002   0.00000  -0.00004  -0.00004   0.00043
   D12        0.00068  -0.00002   0.00000  -0.00002  -0.00002   0.00066
   D13        0.00002  -0.00000   0.00000  -0.00000  -0.00000   0.00002
   D14        3.14158  -0.00000   0.00000  -0.00001  -0.00001   3.14158
   D15       -3.14139  -0.00000   0.00000   0.00001   0.00001  -3.14137
   D16        3.14158   0.00000   0.00000   0.00000  -0.00000   3.14158
   D17        0.00000   0.00000   0.00000   0.00000   0.00000   0.00001
   D18       -0.00033  -0.00002   0.00000  -0.00004  -0.00004  -0.00037
   D19       -3.14157  -0.00000   0.00000   0.00000   0.00000  -3.14157
   D20        0.00002   0.00001   0.00000   0.00002   0.00002   0.00004
   D21       -0.00000  -0.00000   0.00000  -0.00000  -0.00000  -0.00001
   D22        3.14159   0.00000   0.00000   0.00001   0.00001  -3.14158
   D23        3.14140  -0.00001   0.00000  -0.00002  -0.00002   3.14138
   D24       -0.00019   0.00000   0.00000  -0.00000  -0.00000  -0.00020
   D25       -0.00056  -0.00002   0.00000  -0.00002  -0.00002  -0.00057
   D26       -3.14131   0.00000   0.00000   0.00001   0.00001  -3.14130
   D27        3.14126   0.00001   0.00000   0.00002   0.00002   3.14128
   D28        0.00051   0.00003   0.00000   0.00005   0.00005   0.00055
   D29        3.14094  -0.00002   0.00000  -0.00002  -0.00002   3.14092
   D30        0.00019   0.00000   0.00000   0.00001   0.00001   0.00019
   D31       -0.00001  -0.00000   0.00000  -0.00000  -0.00000  -0.00001
   D32       -0.00001  -0.00001   0.00000  -0.00001  -0.00001  -0.00002
   D33        0.00001   0.00000   0.00000   0.00000   0.00000   0.00001
   D34       -3.14159   0.00000   0.00000  -0.00000  -0.00000  -3.14159
   D35        0.00029   0.00000   0.00000   0.00001   0.00001   0.00030
   D36       -3.14130  -0.00000   0.00000   0.00000   0.00000  -3.14130
   D37        0.00028  -0.00000   0.00000   0.00001   0.00001   0.00029
   D38       -0.00028   0.00000   0.00000  -0.00000  -0.00000  -0.00028
         Item               Value     Threshold  Converged?
 Maximum Force            0.112599     0.000450     NO 
 RMS     Force            0.035697     0.000300     NO 
 Maximum Displacement     0.161568     0.001800     NO 
 RMS     Displacement     0.048871     0.001200     NO 
 Predicted change in Energy=-8.091123D-02
 GradGradGradGradGradGradGradGradGradGradGradGradGradGradGradGradGradGrad

                          Input orientation:                          
 ---------------------------------------------------------------------
 Center     Atomic      Atomic             Coordinates (Angstroms)
 Number     Number       Type             X           Y           Z
 ---------------------------------------------------------------------
      1          7           0        1.146703    0.013915    0.004702
      2          6           0        2.487320   -0.063494   -0.117524
      3          6           0        2.830254   -0.824899   -1.301662
      4          6           0        4.163187   -0.928093   -1.462306
      5          7           0        5.066615   -1.574895   -2.469189
      6          6           0        6.266019   -1.328328   -2.085381
      7          7           0        5.685367   -0.670562   -1.061453
      8          7           0        4.037930   -0.044798   -0.086687
      9          1           0        0.489795   -0.427112   -0.682558
     10          1           0        2.258063   -1.288962   -2.024038
     11          1           0        5.240330   -0.076572   -0.136766
     12          1           0        7.170297   -0.923891   -1.455828
 ---------------------------------------------------------------------
                    Distance matrix (angstroms):
                    1          2          3          4          5
     1  N    0.000000
     2  C    1.348401   0.000000
     3  C    2.290095   1.448973   0.000000
     4  C    3.484059   2.316139   1.346538   0.000000
     5  N    4.900016   3.803607   2.631905   1.499449   0.000000
     6  C    5.690119   4.444191   3.559795   2.229420   1.283228
     7  N    4.712182   3.389253   2.869353   1.595004   1.783926
     8  N    2.893266   1.551029   1.882339   1.639581   3.012591
     9  H    1.048026   2.107507   2.453420   3.788508   5.045467
    10  H    2.654881   2.277966   1.031788   2.018730   2.857951
    11  H    4.097070   2.753109   2.779468   1.908502   2.777651
    12  H    6.268677   4.945869   4.343908   3.007120   2.424085
                    6          7          8          9         10
     6  C    0.000000
     7  N    1.348422   0.000000
     8  N    3.256779   2.013902   0.000000
     9  H    6.012060   5.215055   3.618077   0.000000
    10  H    4.008619   3.613226   2.910189   2.380992   0.000000
    11  H    2.532989   1.185719   1.203863   4.794617   3.731703
    12  H    1.173723   1.557153   3.529742   6.743430   4.958446
                   11         12
    11  H    0.000000
    12  H    2.486493   0.000000
 Stoichiometry    C4H4N4
 Framework group  C1[X(C4H4N4)]
 Deg. of freedom    30
 Full point group                 C1      NOp   1
 Largest Abelian subgroup         C1      NOp   1
 Largest concise Abelian subgroup C1      NOp   1
                         Standard orientation:                         
 ---------------------------------------------------------------------
 Center     Atomic      Atomic             Coordinates (Angstroms)
 Number     Number       Type             X           Y           Z
 ---------------------------------------------------------------------
      1          7           0        3.075390   -0.049131   -0.000286
      2          6           0        1.800904    0.391174    0.000646
      3          6           0        0.890837   -0.736346   -0.000005
      4          6           0       -0.396408   -0.341166   -0.000005
      5          7           0       -1.723617   -1.038921   -0.000029
      6          6           0       -2.614345   -0.115191   -0.000001
      7          7           0       -1.570514    0.738422    0.000037
      8          7           0        0.413439    1.084448   -0.000284
      9          1           0        3.321767   -1.067786    0.000077
     10          1           0        1.042678   -1.756900   -0.000046
     11          1           0       -0.699633    1.543094    0.000051
     12          1           0       -3.113628    0.947043    0.000039
 ---------------------------------------------------------------------
 Rotational constants (GHZ):           8.9557133           1.3805173           1.1961340
 Standard basis: 6-31G(2df,p) (6D, 7F)
 There are   268 symmetry adapted cartesian basis functions of A   symmetry.
 There are   244 symmetry adapted basis functions of A   symmetry.
   244 basis functions,   380 primitive gaussians,   268 cartesian basis functions
    28 alpha electrons       28 beta electrons
       nuclear repulsion energy       330.8179196566 Hartrees.
 NAtoms=   12 NActive=   12 NUniq=   12 SFac= 1.00D+00 NAtFMM=   60 NAOKFM=F Big=F
 Integral buffers will be    131072 words long.
 Raffenetti 2 integral format.
 Two-electron integral symmetry is turned on.
 One-electron integrals computed using PRISM.
 PrsmSu:  requested number of processors reduced to:  13 ShMem   1 Linda.
 NBasis=   244 RedAO= T EigKep=  1.75D-04  NBF=   244
 NBsUse=   244 1.00D-06 EigRej= -1.00D+00 NBFU=   244
 Initial guess from the checkpoint file:  "Ndc1ccncnn1.chk"
 B after Tr=     0.000000   -0.000000    0.000000
         Rot=    0.999993   -0.000012    0.000001    0.003856 Ang=  -0.44 deg.
 ExpMin= 1.61D-01 ExpMax= 4.17D+03 ExpMxC= 6.27D+02 IAcc=2 IRadAn=         4 AccDes= 0.00D+00
 Harris functional with IExCor=  402 and IRadAn=       4 diagonalized for initial guess.
 HarFok:  IExCor=  402 AccDes= 0.00D+00 IRadAn=         4 IDoV= 1 UseB2=F ITyADJ=14
 ICtDFT=  3500011 ScaDFX=  1.000000  1.000000  1.000000  1.000000
 FoFCou: FMM=F IPFlag=           0 FMFlag=      100000 FMFlg1=           0
         NFxFlg=           0 DoJE=T BraDBF=F KetDBF=T FulRan=T
         wScrn=  0.000000 ICntrl=       500 IOpCl=  0 I1Cent=   200000004 NGrid=           0
         NMat0=    1 NMatS0=      1 NMatT0=    0 NMatD0=    1 NMtDS0=    0 NMtDT0=    0
 Petite list used in FoFCou.
 Requested convergence on RMS density matrix=1.00D-08 within 128 cycles.
 Requested convergence on MAX density matrix=1.00D-06.
 Requested convergence on             energy=1.00D-06.
 No special actions if energy rises.
 Integral accuracy reduced to 1.0D-05 until final iterations.
 Initial convergence to 1.0D-05 achieved.  Increase integral accuracy.
 SCF Done:  E(RB3LYP) =  -373.225855432     A.U. after   15 cycles
            NFock= 15  Conv=0.60D-08     -V/T= 2.0059
 PrsmSu:  requested number of processors reduced to:  13 ShMem   1 Linda.
 Calling FoFJK, ICntrl=      2127 FMM=F ISym2X=0 I1Cent= 0 IOpClX= 0 NMat=1 NMatS=1 NMatT=0.
 ***** Axes restored to original set *****
 -------------------------------------------------------------------
 Center     Atomic                   Forces (Hartrees/Bohr)
 Number     Number              X              Y              Z
 -------------------------------------------------------------------
      1        7           0.055216776    0.037118403    0.057663361
      2        6          -0.030321725   -0.043024607   -0.066609988
      3        6           0.042805080   -0.036820858   -0.057572562
      4        6           0.007960116    0.016803640    0.026102383
      5        7          -0.053677962   -0.064524984   -0.100364402
      6        6           0.053175344    0.052447269    0.081662608
      7        7          -0.011124525    0.020006366    0.031080895
      8        7          -0.089202032    0.052581773    0.081934101
      9        1           0.037462822    0.002493349    0.003861011
     10        1          -0.040216280   -0.016726378   -0.026004107
     11        1           0.011969633    0.021266048    0.033046461
     12        1           0.015952752   -0.041620020   -0.064799761
 -------------------------------------------------------------------
 Cartesian Forces:  Max     0.100364402 RMS     0.047914881

 GradGradGradGradGradGradGradGradGradGradGradGradGradGradGradGradGradGrad
 Berny optimization.
 Using GEDIIS/GDIIS optimizer.
 FormGI is forming the generalized inverse of G from B-inverse, IUseBI=4.
 Internal  Forces:  Max     0.097351100 RMS     0.029290169
 Search for a local minimum.
 Step number   2 out of a maximum of   89
 All quantities printed in internal units (Hartrees-Bohrs-Radians)
 Mixed Optimization -- RFO/linear search
 Update second derivatives using D2CorX and points    1    2
 DE= -8.29D-02 DEPred=-8.09D-02 R= 1.02D+00
 TightC=F SS=  1.41D+00  RLast= 3.00D-01 DXNew= 5.0454D-01 8.9998D-01
 Trust test= 1.02D+00 RLast= 3.00D-01 DXMaxT set to 5.05D-01
 ITU=  1  0
 Use linear search instead of GDIIS.
 Linear search step of   0.600 exceeds DXMaxT=   0.505 but not scaled.
 Quartic linear search produced a step of  2.00000.
 Iteration  1 RMS(Cart)=  0.08487507 RMS(Int)=  0.00832650
 Iteration  2 RMS(Cart)=  0.01534322 RMS(Int)=  0.00075914
 Iteration  3 RMS(Cart)=  0.00029341 RMS(Int)=  0.00071754
 Iteration  4 RMS(Cart)=  0.00000011 RMS(Int)=  0.00071754
 Variable       Old X    -DE/DX   Delta X   Delta X   Delta X     New X
                                 (Linear)    (Quad)   (Total)
    R1        2.54811  -0.08429  -0.11070   0.00000  -0.11070   2.43741
    R2        1.98048  -0.02706  -0.04943   0.00000  -0.04943   1.93105
    R3        2.73816   0.04292   0.07959   0.00000   0.08198   2.82014
    R4        2.93102  -0.06466  -0.11926   0.00000  -0.12031   2.81071
    R5        2.54459  -0.00705   0.00379   0.00000   0.00520   2.54979
    R6        1.94980   0.04803   0.08964   0.00000   0.08964   2.03944
    R7        2.83355   0.02846   0.05592   0.00000   0.05601   2.88956
    R8        3.01412   0.02171   0.05322   0.00000   0.05329   3.06741
    R9        3.09836   0.05069   0.12287   0.00000   0.12056   3.21892
   R10        2.42495   0.05655   0.08015   0.00000   0.08009   2.50504
   R11        2.54815   0.05920   0.10297   0.00000   0.10287   2.65101
   R12        2.21802  -0.03681  -0.07047   0.00000  -0.07047   2.14755
   R13        2.24068   0.03715   0.07805   0.00000   0.07807   2.31876
   R14        2.27497   0.02050   0.04779   0.00000   0.04779   2.32276
    A1        2.14074  -0.05211  -0.14774   0.00000  -0.14774   1.99300
    A2        1.91724   0.06126   0.19245   0.00000   0.19193   2.10917
    A3        1.35510   0.03609   0.09972   0.00000   0.10077   1.45587
    A4        1.95201  -0.03994  -0.10442   0.00000  -0.10190   1.85011
    A5        2.31481   0.00406   0.00836   0.00000   0.00711   2.32192
    A6        2.01636   0.03588   0.09605   0.00000   0.09480   2.11116
    A7        2.35971  -0.04192  -0.08810   0.00000  -0.08776   2.27195
    A8        2.69597   0.00967   0.03075   0.00000   0.03014   2.72611
    A9        1.35205   0.01378   0.04621   0.00000   0.04563   1.39768
   A10        1.22750   0.03225   0.05736   0.00000   0.05762   1.28512
   A11        2.57143   0.02814   0.04189   0.00000   0.04213   2.61356
   A12        1.34392  -0.00411  -0.01546   0.00000  -0.01549   1.32843
   A13        1.85399  -0.02750  -0.05056   0.00000  -0.05067   1.80331
   A14        1.48907   0.01484   0.04131   0.00000   0.04106   1.53012
   A15        2.81377   0.08450   0.19755   0.00000   0.19742   3.01119
   A16        1.32470   0.06966   0.15624   0.00000   0.15637   1.48107
   A17        1.71263  -0.01959  -0.04810   0.00000  -0.04800   1.66463
   A18        1.48939   0.01084   0.03106   0.00000   0.03068   1.52006
   A19        1.62402  -0.00993  -0.04151   0.00000  -0.04449   1.57953
   A20        1.44504   0.00391   0.01122   0.00000   0.01234   1.45738
   A21        2.00483  -0.01063  -0.02683   0.00000  -0.02753   1.97731
   A22        3.27234   0.09735   0.29217   0.00000   0.29270   3.56503
   A23        3.20201  -0.00875  -0.01704   0.00000  -0.01732   3.18469
   A24        3.06906  -0.00602  -0.03029   0.00000  -0.03215   3.03691
   A25        3.14301   0.00003   0.00012   0.00000   0.00012   3.14312
   A26        3.14157  -0.00000  -0.00003   0.00000  -0.00002   3.14155
   A27        3.14072  -0.00002  -0.00005   0.00000  -0.00005   3.14068
    D1       -0.00158   0.00003   0.00007   0.00000   0.00005  -0.00154
    D2       -0.00026  -0.00000   0.00000   0.00000   0.00002  -0.00024
    D3       -0.00054  -0.00001  -0.00003   0.00000  -0.00003  -0.00057
    D4       -3.14088   0.00002   0.00011   0.00000   0.00011  -3.14077
    D5        0.00126  -0.00000   0.00002   0.00000   0.00002   0.00127
    D6       -0.00070  -0.00001  -0.00001   0.00000  -0.00001  -0.00071
    D7        3.14144  -0.00003  -0.00010   0.00000  -0.00010   3.14134
    D8        0.00053   0.00000   0.00001   0.00000   0.00001   0.00054
    D9        0.00049  -0.00001  -0.00002   0.00000  -0.00002   0.00046
   D10       -3.14113  -0.00002  -0.00007   0.00000  -0.00006  -3.14119
   D11        0.00043  -0.00002  -0.00007   0.00000  -0.00007   0.00035
   D12        0.00066  -0.00002  -0.00004   0.00000  -0.00004   0.00062
   D13        0.00002  -0.00000  -0.00001   0.00000  -0.00001   0.00001
   D14        3.14158  -0.00001  -0.00002   0.00000  -0.00002   3.14156
   D15       -3.14137  -0.00000   0.00002   0.00000   0.00002  -3.14136
   D16        3.14158   0.00000  -0.00000   0.00000  -0.00000   3.14158
   D17        0.00001   0.00000   0.00000   0.00000   0.00000   0.00001
   D18       -0.00037  -0.00002  -0.00008   0.00000  -0.00008  -0.00045
   D19       -3.14157   0.00000   0.00001   0.00000   0.00001  -3.14156
   D20        0.00004   0.00001   0.00003   0.00000   0.00003   0.00007
   D21       -0.00001  -0.00000  -0.00000   0.00000  -0.00000  -0.00001
   D22       -3.14158   0.00000   0.00003   0.00000   0.00002  -3.14156
   D23        3.14138  -0.00000  -0.00003   0.00000  -0.00003   3.14135
   D24       -0.00020   0.00000  -0.00001   0.00000  -0.00001  -0.00020
   D25       -0.00057  -0.00002  -0.00003   0.00000  -0.00003  -0.00060
   D26       -3.14130   0.00000   0.00002   0.00000   0.00002  -3.14128
   D27        3.14128   0.00001   0.00004   0.00000   0.00005   3.14133
   D28        0.00055   0.00003   0.00010   0.00000   0.00010   0.00065
   D29        3.14092  -0.00002  -0.00004   0.00000  -0.00004   3.14088
   D30        0.00019   0.00000   0.00001   0.00000   0.00001   0.00020
   D31       -0.00001  -0.00000  -0.00000   0.00000  -0.00000  -0.00001
   D32       -0.00002  -0.00001  -0.00002   0.00000  -0.00002  -0.00004
   D33        0.00001   0.00000   0.00000   0.00000   0.00000   0.00001
   D34       -3.14159   0.00000  -0.00000   0.00000   0.00000  -3.14159
   D35        0.00030   0.00000   0.00002   0.00000   0.00002   0.00031
   D36       -3.14130   0.00000   0.00001   0.00000   0.00001  -3.14129
   D37        0.00029  -0.00000   0.00001   0.00000   0.00001   0.00030
   D38       -0.00028   0.00000  -0.00001   0.00000  -0.00000  -0.00028
         Item               Value     Threshold  Converged?
 Maximum Force            0.097351     0.000450     NO 
 RMS     Force            0.029290     0.000300     NO 
 Maximum Displacement     0.312635     0.001800     NO 
 RMS     Displacement     0.094940     0.001200     NO 
 Predicted change in Energy=-1.217630D-01
 GradGradGradGradGradGradGradGradGradGradGradGradGradGradGradGradGradGrad

                          Input orientation:                          
 ---------------------------------------------------------------------
 Center     Atomic      Atomic             Coordinates (Angstroms)
 Number     Number       Type             X           Y           Z
 ---------------------------------------------------------------------
      1          7           0        1.227138    0.082662    0.111625
      2          6           0        2.458747   -0.123727   -0.211139
      3          6           0        2.808835   -0.908276   -1.431403
      4          6           0        4.156906   -0.939257   -1.479670
      5          7           0        5.092766   -1.592810   -2.497090
      6          6           0        6.299835   -1.296642   -2.036107
      7          7           0        5.668517   -0.619546   -0.982075
      8          7           0        3.935079   -0.026784   -0.058516
      9          1           0        0.550432   -0.330826   -0.532822
     10          1           0        2.214798   -1.395275   -2.189477
     11          1           0        5.164049   -0.015044   -0.040959
     12          1           0        7.264779   -0.972165   -1.531056
 ---------------------------------------------------------------------
                    Distance matrix (angstroms):
                    1          2          3          4          5
     1  N    0.000000
     2  C    1.289819   0.000000
     3  C    2.421705   1.492355   0.000000
     4  C    3.487130   2.271124   1.349291   0.000000
     5  N    4.955368   3.784420   2.611631   1.529088   0.000000
     6  C    5.678687   4.411371   3.564208   2.242653   1.325608
     7  N    4.627648   3.338084   2.909131   1.623202   1.890503
     8  N    2.715488   1.487363   1.982492   1.703377   3.120788
     9  H    1.021868   1.946288   2.498256   3.778011   5.107225
    10  H    2.907721   2.364354   1.079224   2.117442   2.901093
    11  H    3.941078   2.712827   2.877191   1.984539   2.920104
    12  H    6.345405   5.055687   4.457516   3.108472   2.456840
                    6          7          8          9         10
     6  C    0.000000
     7  N    1.402856   0.000000
     8  N    3.333988   2.051618   0.000000
     9  H    6.020656   5.145871   3.431216   0.000000
    10  H    4.089104   3.740020   3.061557   2.578309   0.000000
    11  H    2.629281   1.227033   1.229151   4.650495   3.901185
    12  H    1.136433   1.724462   3.761518   6.818375   5.110269
                   11         12
    11  H    0.000000
    12  H    2.747642   0.000000
 Stoichiometry    C4H4N4
 Framework group  C1[X(C4H4N4)]
 Deg. of freedom    30
 Full point group                 C1      NOp   1
 Largest Abelian subgroup         C1      NOp   1
 Largest concise Abelian subgroup C1      NOp   1
                         Standard orientation:                         
 ---------------------------------------------------------------------
 Center     Atomic      Atomic             Coordinates (Angstroms)
 Number     Number       Type             X           Y           Z
 ---------------------------------------------------------------------
      1          7           0        3.053138    0.064550   -0.000206
      2          6           0        1.777740    0.256889    0.000586
      3          6           0        0.830049   -0.895935   -0.000051
      4          6           0       -0.408093   -0.359662   -0.000019
      5          7           0       -1.777620   -1.039739   -0.000055
      6          6           0       -2.624916   -0.020265    0.000021
      7          7           0       -1.510464    0.831793    0.000082
      8          7           0        0.528036    1.063418   -0.000314
      9          1           0        3.328192   -0.919604    0.000162
     10          1           0        0.971690   -1.965824   -0.000126
     11          1           0       -0.568705    1.618368    0.000089
     12          1           0       -3.231481    0.940754    0.000097
 ---------------------------------------------------------------------
 Rotational constants (GHZ):           8.3230235           1.3856344           1.1878746
 Standard basis: 6-31G(2df,p) (6D, 7F)
 There are   268 symmetry adapted cartesian basis functions of A   symmetry.
 There are   244 symmetry adapted basis functions of A   symmetry.
   244 basis functions,   380 primitive gaussians,   268 cartesian basis functions
    28 alpha electrons       28 beta electrons
       nuclear repulsion energy       326.8224358159 Hartrees.
 NAtoms=   12 NActive=   12 NUniq=   12 SFac= 1.00D+00 NAtFMM=   60 NAOKFM=F Big=F
 Integral buffers will be    131072 words long.
 Raffenetti 2 integral format.
 Two-electron integral symmetry is turned on.
 One-electron integrals computed using PRISM.
 PrsmSu:  requested number of processors reduced to:  13 ShMem   1 Linda.
 NBasis=   244 RedAO= T EigKep=  1.68D-04  NBF=   244
 NBsUse=   244 1.00D-06 EigRej= -1.00D+00 NBFU=   244
 Initial guess from the checkpoint file:  "Ndc1ccncnn1.chk"
 B after Tr=     0.000000   -0.000000   -0.000000
         Rot=    0.999958   -0.000016    0.000001    0.009202 Ang=  -1.05 deg.
 ExpMin= 1.61D-01 ExpMax= 4.17D+03 ExpMxC= 6.27D+02 IAcc=2 IRadAn=         4 AccDes= 0.00D+00
 Harris functional with IExCor=  402 and IRadAn=       4 diagonalized for initial guess.
 HarFok:  IExCor=  402 AccDes= 0.00D+00 IRadAn=         4 IDoV= 1 UseB2=F ITyADJ=14
 ICtDFT=  3500011 ScaDFX=  1.000000  1.000000  1.000000  1.000000
 FoFCou: FMM=F IPFlag=           0 FMFlag=      100000 FMFlg1=           0
         NFxFlg=           0 DoJE=T BraDBF=F KetDBF=T FulRan=T
         wScrn=  0.000000 ICntrl=       500 IOpCl=  0 I1Cent=   200000004 NGrid=           0
         NMat0=    1 NMatS0=      1 NMatT0=    0 NMatD0=    1 NMtDS0=    0 NMtDT0=    0
 Petite list used in FoFCou.
 Requested convergence on RMS density matrix=1.00D-08 within 128 cycles.
 Requested convergence on MAX density matrix=1.00D-06.
 Requested convergence on             energy=1.00D-06.
 No special actions if energy rises.
 Integral accuracy reduced to 1.0D-05 until final iterations.
 Initial convergence to 1.0D-05 achieved.  Increase integral accuracy.
 SCF Done:  E(RB3LYP) =  -373.345495157     A.U. after   17 cycles
            NFock= 17  Conv=0.16D-08     -V/T= 2.0072
 PrsmSu:  requested number of processors reduced to:  13 ShMem   1 Linda.
 Calling FoFJK, ICntrl=      2127 FMM=F ISym2X=0 I1Cent= 0 IOpClX= 0 NMat=1 NMatS=1 NMatT=0.
 ***** Axes restored to original set *****
 -------------------------------------------------------------------
 Center     Atomic                   Forces (Hartrees/Bohr)
 Number     Number              X              Y              Z
 -------------------------------------------------------------------
      1        7           0.038195860    0.021417885    0.033213558
      2        6           0.009281110   -0.026736574   -0.041258996
      3        6           0.027594751   -0.020208202   -0.031697271
      4        6           0.018784695    0.007618209    0.011816138
      5        7          -0.001143612   -0.036417310   -0.056607000
      6        6          -0.028447588    0.062801476    0.097771275
      7        7           0.010246339   -0.007889867   -0.012345806
      8        7          -0.084490728    0.027370444    0.042650025
      9        1           0.011968470   -0.001151526   -0.001794367
     10        1          -0.010718577   -0.000530792   -0.000792906
     11        1          -0.001847414    0.010118621    0.015703758
     12        1           0.010576694   -0.036392364   -0.056658408
 -------------------------------------------------------------------
 Cartesian Forces:  Max     0.097771275 RMS     0.034311684

 GradGradGradGradGradGradGradGradGradGradGradGradGradGradGradGradGradGrad
 Berny optimization.
 Using GEDIIS/GDIIS optimizer.
 FormGI is forming the generalized inverse of G from B-inverse, IUseBI=4.
 Internal  Forces:  Max     0.078770564 RMS     0.018336499
 Search for a local minimum.
 Step number   3 out of a maximum of   89
 All quantities printed in internal units (Hartrees-Bohrs-Radians)
 Mixed Optimization -- RFO/linear search
 Update second derivatives using D2CorX and points    2    3
 ITU=  0  1  0
 Use linear search instead of GDIIS.
 Linear search step of   0.729 exceeds DXMaxT=   0.505 but not scaled.
 Quartic linear search produced a step of  1.21599.
 Iteration  1 RMS(Cart)=  0.00939208 RMS(Int)=  0.07499244
 Iteration  2 RMS(Cart)=  0.00271333 RMS(Int)=  0.07295665
 Iteration  3 RMS(Cart)=  0.00254682 RMS(Int)=  0.07104967
 Iteration  4 RMS(Cart)=  0.00239941 RMS(Int)=  0.06925704
 Iteration  5 RMS(Cart)=  0.00226810 RMS(Int)=  0.06756651
 Iteration  6 RMS(Cart)=  0.00214462 RMS(Int)=  0.06597337
 Iteration  7 RMS(Cart)=  0.00202188 RMS(Int)=  0.06447507
 Iteration  8 RMS(Cart)=  0.00190627 RMS(Int)=  0.06306521
 Iteration  9 RMS(Cart)=  0.00180207 RMS(Int)=  0.06173499
 Iteration 10 RMS(Cart)=  0.00170772 RMS(Int)=  0.06047684
 Iteration 11 RMS(Cart)=  0.00162196 RMS(Int)=  0.05928416
 Iteration 12 RMS(Cart)=  0.00154369 RMS(Int)=  0.05815118
 Iteration 13 RMS(Cart)=  0.00147201 RMS(Int)=  0.05707285
 Iteration 14 RMS(Cart)=  0.00140615 RMS(Int)=  0.05604468
 Iteration 15 RMS(Cart)=  0.00134545 RMS(Int)=  0.05506271
 Iteration 16 RMS(Cart)=  0.00128936 RMS(Int)=  0.05412340
 Iteration 17 RMS(Cart)=  0.00123738 RMS(Int)=  0.05322359
 Iteration 18 RMS(Cart)=  0.00118909 RMS(Int)=  0.05236046
 Iteration 19 RMS(Cart)=  0.00114414 RMS(Int)=  0.05153144
 Iteration 20 RMS(Cart)=  0.00110218 RMS(Int)=  0.05073423
 Iteration 21 RMS(Cart)=  0.00106296 RMS(Int)=  0.04996674
 Iteration 22 RMS(Cart)=  0.00102621 RMS(Int)=  0.04922708
 Iteration 23 RMS(Cart)=  0.00099172 RMS(Int)=  0.04851351
 Iteration 24 RMS(Cart)=  0.00095929 RMS(Int)=  0.04782445
 Iteration 25 RMS(Cart)=  0.00092876 RMS(Int)=  0.04715845
 Iteration 26 RMS(Cart)=  0.00089995 RMS(Int)=  0.04651420
 Iteration 27 RMS(Cart)=  0.00087216 RMS(Int)=  0.04589089
 Iteration 28 RMS(Cart)=  0.00084645 RMS(Int)=  0.04528695
 Iteration 29 RMS(Cart)=  0.00082211 RMS(Int)=  0.04470135
 Iteration 30 RMS(Cart)=  0.00079901 RMS(Int)=  0.04413313
 Iteration 31 RMS(Cart)=  0.00077709 RMS(Int)=  0.04358139
 Iteration 32 RMS(Cart)=  0.00075441 RMS(Int)=  0.04304645
 Iteration 33 RMS(Cart)=  0.00072516 RMS(Int)=  0.04253221
 Iteration 34 RMS(Cart)=  0.00069775 RMS(Int)=  0.04203736
 Iteration 35 RMS(Cart)=  0.00067203 RMS(Int)=  0.04156073
 Iteration 36 RMS(Cart)=  0.00064785 RMS(Int)=  0.04110121
 Iteration 37 RMS(Cart)=  0.00062508 RMS(Int)=  0.04065781
 Iteration 38 RMS(Cart)=  0.00060362 RMS(Int)=  0.04022961
 Iteration 39 RMS(Cart)=  0.00058335 RMS(Int)=  0.03981575
 Iteration 40 RMS(Cart)=  0.00056420 RMS(Int)=  0.03941547
 Iteration 41 RMS(Cart)=  0.00054607 RMS(Int)=  0.03902802
 Iteration 42 RMS(Cart)=  0.00052890 RMS(Int)=  0.35556760
 Iteration 43 RMS(Cart)=  0.00386538 RMS(Int)=  0.03647466
 Iteration 44 RMS(Cart)=  0.00067975 RMS(Int)=  0.35339366
 Iteration 45 RMS(Cart)=  0.00347010 RMS(Int)=  0.03424659
 Iteration 46 RMS(Cart)=  0.00086804 RMS(Int)=  0.35086589
 Iteration 47 RMS(Cart)=  0.00312023 RMS(Int)=  0.34569823
 Iteration 48 RMS(Cart)=  0.00284891 RMS(Int)=  0.03109251
 Iteration 49 RMS(Cart)=  0.00106445 RMS(Int)=  0.34709530
 Iteration 50 RMS(Cart)=  0.00256914 RMS(Int)=  0.34368487
 Iteration 51 RMS(Cart)=  0.00235838 RMS(Int)=  0.04036429
 New curvilinear step failed, DQL= 3.15D+00 SP=-6.09D-01.
 ITry= 1 IFail=1 DXMaxC= 2.53D-01 DCOld= 1.00D+10 DXMaxT= 5.05D-01 DXLimC= 3.00D+00 Rises=F
 Iteration  1 RMS(Cart)=  0.00939208 RMS(Int)=  0.07499244
 Iteration  2 RMS(Cart)=  0.00271333 RMS(Int)=  0.07295665
 Iteration  3 RMS(Cart)=  0.00254682 RMS(Int)=  0.07104967
 Iteration  4 RMS(Cart)=  0.00239941 RMS(Int)=  0.06925704
 Iteration  5 RMS(Cart)=  0.00226810 RMS(Int)=  0.06756651
 Iteration  6 RMS(Cart)=  0.00214462 RMS(Int)=  0.06597337
 Iteration  7 RMS(Cart)=  0.00202188 RMS(Int)=  0.06447507
 Iteration  8 RMS(Cart)=  0.00190627 RMS(Int)=  0.06306521
 Iteration  9 RMS(Cart)=  0.00180207 RMS(Int)=  0.06173499
 Iteration 10 RMS(Cart)=  0.00170772 RMS(Int)=  0.06047684
 Iteration 11 RMS(Cart)=  0.00162196 RMS(Int)=  0.05928416
 Iteration 12 RMS(Cart)=  0.00154369 RMS(Int)=  0.05815118
 Iteration 13 RMS(Cart)=  0.00147201 RMS(Int)=  0.05707285
 Iteration 14 RMS(Cart)=  0.00140615 RMS(Int)=  0.05604468
 Iteration 15 RMS(Cart)=  0.00134545 RMS(Int)=  0.05506271
 Iteration 16 RMS(Cart)=  0.00128936 RMS(Int)=  0.05412340
 Iteration 17 RMS(Cart)=  0.00123738 RMS(Int)=  0.05322359
 Iteration 18 RMS(Cart)=  0.00118909 RMS(Int)=  0.05236046
 Iteration 19 RMS(Cart)=  0.00114414 RMS(Int)=  0.05153144
 Iteration 20 RMS(Cart)=  0.00110218 RMS(Int)=  0.05073423
 Iteration 21 RMS(Cart)=  0.00106296 RMS(Int)=  0.04996674
 Iteration 22 RMS(Cart)=  0.00102621 RMS(Int)=  0.04922708
 Iteration 23 RMS(Cart)=  0.00099172 RMS(Int)=  0.04851351
 Iteration 24 RMS(Cart)=  0.00095929 RMS(Int)=  0.04782445
 Iteration 25 RMS(Cart)=  0.00092876 RMS(Int)=  0.04715845
 Iteration 26 RMS(Cart)=  0.00089995 RMS(Int)=  0.04651420
 Iteration 27 RMS(Cart)=  0.00087216 RMS(Int)=  0.04589089
 Iteration 28 RMS(Cart)=  0.00084645 RMS(Int)=  0.04528695
 Iteration 29 RMS(Cart)=  0.00082211 RMS(Int)=  0.04470135
 Iteration 30 RMS(Cart)=  0.00079901 RMS(Int)=  0.04413313
 Iteration 31 RMS(Cart)=  0.00077709 RMS(Int)=  0.04358139
 Iteration 32 RMS(Cart)=  0.00075441 RMS(Int)=  0.04304645
 Iteration 33 RMS(Cart)=  0.00072516 RMS(Int)=  0.04253221
 Iteration 34 RMS(Cart)=  0.00069775 RMS(Int)=  0.04203736
 Iteration 35 RMS(Cart)=  0.00067203 RMS(Int)=  0.04156073
 Iteration 36 RMS(Cart)=  0.00064785 RMS(Int)=  0.04110121
 Iteration 37 RMS(Cart)=  0.00062508 RMS(Int)=  0.04065781
 Iteration 38 RMS(Cart)=  0.00060362 RMS(Int)=  0.04022961
 Iteration 39 RMS(Cart)=  0.00058335 RMS(Int)=  0.03981575
 Iteration 40 RMS(Cart)=  0.00056420 RMS(Int)=  0.03941547
 Iteration 41 RMS(Cart)=  0.00054607 RMS(Int)=  0.03902802
 Iteration 42 RMS(Cart)=  0.00052890 RMS(Int)=  0.35556760
 Iteration 43 RMS(Cart)=  0.00386538 RMS(Int)=  0.03647466
 Iteration 44 RMS(Cart)=  0.00067975 RMS(Int)=  0.35339366
 Iteration 45 RMS(Cart)=  0.00347010 RMS(Int)=  0.03424659
 Iteration 46 RMS(Cart)=  0.00086804 RMS(Int)=  0.35086589
 Iteration 47 RMS(Cart)=  0.00312023 RMS(Int)=  0.34569823
 Iteration 48 RMS(Cart)=  0.00284891 RMS(Int)=  0.03109251
 Iteration 49 RMS(Cart)=  0.00106445 RMS(Int)=  0.34709530
 Iteration 50 RMS(Cart)=  0.00256914 RMS(Int)=  0.34368487
 Iteration 51 RMS(Cart)=  0.00235838 RMS(Int)=  0.04036429
 New curvilinear step failed, DQL= 3.15D+00 SP=-6.09D-01.
 ITry= 2 IFail=1 DXMaxC= 2.53D-01 DCOld= 1.00D+10 DXMaxT= 5.05D-01 DXLimC= 3.00D+00 Rises=F
 Iteration  1 RMS(Cart)=  0.00939208 RMS(Int)=  0.07499244
 Iteration  2 RMS(Cart)=  0.00271333 RMS(Int)=  0.07295665
 Iteration  3 RMS(Cart)=  0.00254682 RMS(Int)=  0.07104967
 Iteration  4 RMS(Cart)=  0.00239941 RMS(Int)=  0.06925704
 Iteration  5 RMS(Cart)=  0.00226810 RMS(Int)=  0.06756651
 Iteration  6 RMS(Cart)=  0.00214462 RMS(Int)=  0.06597337
 Iteration  7 RMS(Cart)=  0.00202188 RMS(Int)=  0.06447507
 Iteration  8 RMS(Cart)=  0.00190627 RMS(Int)=  0.06306521
 Iteration  9 RMS(Cart)=  0.00180207 RMS(Int)=  0.06173499
 Iteration 10 RMS(Cart)=  0.00170772 RMS(Int)=  0.06047684
 Iteration 11 RMS(Cart)=  0.00162196 RMS(Int)=  0.05928416
 Iteration 12 RMS(Cart)=  0.00154369 RMS(Int)=  0.05815118
 Iteration 13 RMS(Cart)=  0.00147201 RMS(Int)=  0.05707285
 Iteration 14 RMS(Cart)=  0.00140615 RMS(Int)=  0.05604468
 Iteration 15 RMS(Cart)=  0.00134545 RMS(Int)=  0.05506271
 Iteration 16 RMS(Cart)=  0.00128936 RMS(Int)=  0.05412340
 Iteration 17 RMS(Cart)=  0.00123738 RMS(Int)=  0.05322359
 Iteration 18 RMS(Cart)=  0.00118909 RMS(Int)=  0.05236046
 Iteration 19 RMS(Cart)=  0.00114414 RMS(Int)=  0.05153144
 Iteration 20 RMS(Cart)=  0.00110218 RMS(Int)=  0.05073423
 Iteration 21 RMS(Cart)=  0.00106296 RMS(Int)=  0.04996674
 Iteration 22 RMS(Cart)=  0.00102621 RMS(Int)=  0.04922708
 Iteration 23 RMS(Cart)=  0.00099172 RMS(Int)=  0.04851351
 Iteration 24 RMS(Cart)=  0.00095929 RMS(Int)=  0.04782445
 Iteration 25 RMS(Cart)=  0.00092876 RMS(Int)=  0.04715845
 Iteration 26 RMS(Cart)=  0.00089995 RMS(Int)=  0.04651420
 Iteration 27 RMS(Cart)=  0.00087216 RMS(Int)=  0.04589089
 Iteration 28 RMS(Cart)=  0.00084645 RMS(Int)=  0.04528695
 Iteration 29 RMS(Cart)=  0.00082211 RMS(Int)=  0.04470135
 Iteration 30 RMS(Cart)=  0.00079901 RMS(Int)=  0.04413313
 Iteration 31 RMS(Cart)=  0.00077709 RMS(Int)=  0.04358139
 Iteration 32 RMS(Cart)=  0.00075441 RMS(Int)=  0.04304645
 Iteration 33 RMS(Cart)=  0.00072516 RMS(Int)=  0.04253221
 Iteration 34 RMS(Cart)=  0.00069775 RMS(Int)=  0.04203736
 Iteration 35 RMS(Cart)=  0.00067203 RMS(Int)=  0.04156073
 Iteration 36 RMS(Cart)=  0.00064785 RMS(Int)=  0.04110121
 Iteration 37 RMS(Cart)=  0.00062508 RMS(Int)=  0.04065781
 Iteration 38 RMS(Cart)=  0.00060362 RMS(Int)=  0.04022961
 Iteration 39 RMS(Cart)=  0.00058335 RMS(Int)=  0.03981575
 Iteration 40 RMS(Cart)=  0.00056420 RMS(Int)=  0.03941547
 Iteration 41 RMS(Cart)=  0.00054607 RMS(Int)=  0.03902802
 Iteration 42 RMS(Cart)=  0.00052890 RMS(Int)=  0.35556760
 Iteration 43 RMS(Cart)=  0.00386538 RMS(Int)=  0.03647466
 Iteration 44 RMS(Cart)=  0.00067975 RMS(Int)=  0.35339366
 Iteration 45 RMS(Cart)=  0.00347010 RMS(Int)=  0.03424659
 Iteration 46 RMS(Cart)=  0.00086804 RMS(Int)=  0.35086589
 Iteration 47 RMS(Cart)=  0.00312023 RMS(Int)=  0.34569823
 Iteration 48 RMS(Cart)=  0.00284891 RMS(Int)=  0.03109251
 Iteration 49 RMS(Cart)=  0.00106445 RMS(Int)=  0.34709530
 Iteration 50 RMS(Cart)=  0.00256914 RMS(Int)=  0.34368487
 Iteration 51 RMS(Cart)=  0.00235838 RMS(Int)=  0.04036429
 New curvilinear step failed, DQL= 3.15D+00 SP=-6.09D-01.
 ITry= 3 IFail=1 DXMaxC= 2.53D-01 DCOld= 1.00D+10 DXMaxT= 5.05D-01 DXLimC= 3.00D+00 Rises=F
 Iteration  1 RMS(Cart)=  0.00939208 RMS(Int)=  0.07499244
 Iteration  2 RMS(Cart)=  0.00271333 RMS(Int)=  0.07295665
 Iteration  3 RMS(Cart)=  0.00254682 RMS(Int)=  0.07104967
 Iteration  4 RMS(Cart)=  0.00239941 RMS(Int)=  0.06925704
 Iteration  5 RMS(Cart)=  0.00226810 RMS(Int)=  0.06756651
 Iteration  6 RMS(Cart)=  0.00214462 RMS(Int)=  0.06597337
 Iteration  7 RMS(Cart)=  0.00202188 RMS(Int)=  0.06447507
 Iteration  8 RMS(Cart)=  0.00190627 RMS(Int)=  0.06306521
 Iteration  9 RMS(Cart)=  0.00180207 RMS(Int)=  0.06173499
 Iteration 10 RMS(Cart)=  0.00170772 RMS(Int)=  0.06047684
 Iteration 11 RMS(Cart)=  0.00162196 RMS(Int)=  0.05928416
 Iteration 12 RMS(Cart)=  0.00154369 RMS(Int)=  0.05815118
 Iteration 13 RMS(Cart)=  0.00147201 RMS(Int)=  0.05707285
 Iteration 14 RMS(Cart)=  0.00140615 RMS(Int)=  0.05604468
 Iteration 15 RMS(Cart)=  0.00134545 RMS(Int)=  0.05506271
 Iteration 16 RMS(Cart)=  0.00128936 RMS(Int)=  0.05412340
 Iteration 17 RMS(Cart)=  0.00123738 RMS(Int)=  0.05322359
 Iteration 18 RMS(Cart)=  0.00118909 RMS(Int)=  0.05236046
 Iteration 19 RMS(Cart)=  0.00114414 RMS(Int)=  0.05153144
 Iteration 20 RMS(Cart)=  0.00110218 RMS(Int)=  0.05073423
 Iteration 21 RMS(Cart)=  0.00106296 RMS(Int)=  0.04996674
 Iteration 22 RMS(Cart)=  0.00102621 RMS(Int)=  0.04922708
 Iteration 23 RMS(Cart)=  0.00099172 RMS(Int)=  0.04851351
 Iteration 24 RMS(Cart)=  0.00095929 RMS(Int)=  0.04782445
 Iteration 25 RMS(Cart)=  0.00092876 RMS(Int)=  0.04715845
 Iteration 26 RMS(Cart)=  0.00089995 RMS(Int)=  0.04651420
 Iteration 27 RMS(Cart)=  0.00087216 RMS(Int)=  0.04589089
 Iteration 28 RMS(Cart)=  0.00084645 RMS(Int)=  0.04528695
 Iteration 29 RMS(Cart)=  0.00082211 RMS(Int)=  0.04470135
 Iteration 30 RMS(Cart)=  0.00079901 RMS(Int)=  0.04413313
 Iteration 31 RMS(Cart)=  0.00077709 RMS(Int)=  0.04358139
 Iteration 32 RMS(Cart)=  0.00075441 RMS(Int)=  0.04304645
 Iteration 33 RMS(Cart)=  0.00072516 RMS(Int)=  0.04253221
 Iteration 34 RMS(Cart)=  0.00069775 RMS(Int)=  0.04203736
 Iteration 35 RMS(Cart)=  0.00067203 RMS(Int)=  0.04156073
 Iteration 36 RMS(Cart)=  0.00064785 RMS(Int)=  0.04110121
 Iteration 37 RMS(Cart)=  0.00062508 RMS(Int)=  0.04065781
 Iteration 38 RMS(Cart)=  0.00060362 RMS(Int)=  0.04022961
 Iteration 39 RMS(Cart)=  0.00058335 RMS(Int)=  0.03981575
 Iteration 40 RMS(Cart)=  0.00056420 RMS(Int)=  0.03941547
 Iteration 41 RMS(Cart)=  0.00054607 RMS(Int)=  0.03902802
 Iteration 42 RMS(Cart)=  0.00052890 RMS(Int)=  0.35556760
 Iteration 43 RMS(Cart)=  0.00386538 RMS(Int)=  0.03647466
 Iteration 44 RMS(Cart)=  0.00067975 RMS(Int)=  0.35339366
 Iteration 45 RMS(Cart)=  0.00347010 RMS(Int)=  0.03424659
 Iteration 46 RMS(Cart)=  0.00086804 RMS(Int)=  0.35086589
 Iteration 47 RMS(Cart)=  0.00312023 RMS(Int)=  0.34569823
 Iteration 48 RMS(Cart)=  0.00284891 RMS(Int)=  0.03109251
 Iteration 49 RMS(Cart)=  0.00106445 RMS(Int)=  0.34709530
 Iteration 50 RMS(Cart)=  0.00256914 RMS(Int)=  0.34368487
 Iteration 51 RMS(Cart)=  0.00235838 RMS(Int)=  0.04036429
 New curvilinear step failed, DQL= 3.15D+00 SP=-6.09D-01.
 ITry= 4 IFail=1 DXMaxC= 2.53D-01 DCOld= 1.00D+10 DXMaxT= 5.05D-01 DXLimC= 3.00D+00 Rises=F
 Iteration  1 RMS(Cart)=  0.00939208 RMS(Int)=  0.07499244
 Iteration  2 RMS(Cart)=  0.00271333 RMS(Int)=  0.07295665
 Iteration  3 RMS(Cart)=  0.00254682 RMS(Int)=  0.07104967
 Iteration  4 RMS(Cart)=  0.00239941 RMS(Int)=  0.06925704
 Iteration  5 RMS(Cart)=  0.00226810 RMS(Int)=  0.06756651
 Iteration  6 RMS(Cart)=  0.00214462 RMS(Int)=  0.06597337
 Iteration  7 RMS(Cart)=  0.00202188 RMS(Int)=  0.06447507
 Iteration  8 RMS(Cart)=  0.00190627 RMS(Int)=  0.06306521
 Iteration  9 RMS(Cart)=  0.00180207 RMS(Int)=  0.06173499
 Iteration 10 RMS(Cart)=  0.00170772 RMS(Int)=  0.06047684
 Iteration 11 RMS(Cart)=  0.00162196 RMS(Int)=  0.05928416
 Iteration 12 RMS(Cart)=  0.00154369 RMS(Int)=  0.05815118
 Iteration 13 RMS(Cart)=  0.00147201 RMS(Int)=  0.05707285
 Iteration 14 RMS(Cart)=  0.00140615 RMS(Int)=  0.05604468
 Iteration 15 RMS(Cart)=  0.00134545 RMS(Int)=  0.05506271
 Iteration 16 RMS(Cart)=  0.00128936 RMS(Int)=  0.05412340
 Iteration 17 RMS(Cart)=  0.00123738 RMS(Int)=  0.05322359
 Iteration 18 RMS(Cart)=  0.00118909 RMS(Int)=  0.05236046
 Iteration 19 RMS(Cart)=  0.00114414 RMS(Int)=  0.05153144
 Iteration 20 RMS(Cart)=  0.00110218 RMS(Int)=  0.05073423
 Iteration 21 RMS(Cart)=  0.00106296 RMS(Int)=  0.04996674
 Iteration 22 RMS(Cart)=  0.00102621 RMS(Int)=  0.04922708
 Iteration 23 RMS(Cart)=  0.00099172 RMS(Int)=  0.04851351
 Iteration 24 RMS(Cart)=  0.00095929 RMS(Int)=  0.04782445
 Iteration 25 RMS(Cart)=  0.00092876 RMS(Int)=  0.04715845
 Iteration 26 RMS(Cart)=  0.00089995 RMS(Int)=  0.04651420
 Iteration 27 RMS(Cart)=  0.00087216 RMS(Int)=  0.04589089
 Iteration 28 RMS(Cart)=  0.00084645 RMS(Int)=  0.04528695
 Iteration 29 RMS(Cart)=  0.00082211 RMS(Int)=  0.04470135
 Iteration 30 RMS(Cart)=  0.00079901 RMS(Int)=  0.04413313
 Iteration 31 RMS(Cart)=  0.00077709 RMS(Int)=  0.04358139
 Iteration 32 RMS(Cart)=  0.00075441 RMS(Int)=  0.04304645
 Iteration 33 RMS(Cart)=  0.00072516 RMS(Int)=  0.04253221
 Iteration 34 RMS(Cart)=  0.00069775 RMS(Int)=  0.04203736
 Iteration 35 RMS(Cart)=  0.00067203 RMS(Int)=  0.04156073
 Iteration 36 RMS(Cart)=  0.00064785 RMS(Int)=  0.04110121
 Iteration 37 RMS(Cart)=  0.00062508 RMS(Int)=  0.04065781
 Iteration 38 RMS(Cart)=  0.00060362 RMS(Int)=  0.04022961
 Iteration 39 RMS(Cart)=  0.00058335 RMS(Int)=  0.03981575
 Iteration 40 RMS(Cart)=  0.00056420 RMS(Int)=  0.03941547
 Iteration 41 RMS(Cart)=  0.00054607 RMS(Int)=  0.03902802
 Iteration 42 RMS(Cart)=  0.00052890 RMS(Int)=  0.35556760
 Iteration 43 RMS(Cart)=  0.00386538 RMS(Int)=  0.03647466
 Iteration 44 RMS(Cart)=  0.00067975 RMS(Int)=  0.35339366
 Iteration 45 RMS(Cart)=  0.00347010 RMS(Int)=  0.03424659
 Iteration 46 RMS(Cart)=  0.00086804 RMS(Int)=  0.35086589
 Iteration 47 RMS(Cart)=  0.00312023 RMS(Int)=  0.34569823
 Iteration 48 RMS(Cart)=  0.00284891 RMS(Int)=  0.03109251
 Iteration 49 RMS(Cart)=  0.00106445 RMS(Int)=  0.34709530
 Iteration 50 RMS(Cart)=  0.00256914 RMS(Int)=  0.34368487
 Iteration 51 RMS(Cart)=  0.00235838 RMS(Int)=  0.04036429
 New curvilinear step failed, DQL= 3.15D+00 SP=-6.09D-01.
 ITry= 5 IFail=1 DXMaxC= 2.53D-01 DCOld= 1.00D+10 DXMaxT= 5.05D-01 DXLimC= 3.00D+00 Rises=F
 Iteration  1 RMS(Cart)=  0.00939208 RMS(Int)=  0.07499244
 Iteration  2 RMS(Cart)=  0.00271333 RMS(Int)=  0.07295665
 Iteration  3 RMS(Cart)=  0.00254682 RMS(Int)=  0.07104967
 Iteration  4 RMS(Cart)=  0.00239941 RMS(Int)=  0.06925704
 Iteration  5 RMS(Cart)=  0.00226810 RMS(Int)=  0.06756651
 Iteration  6 RMS(Cart)=  0.00214462 RMS(Int)=  0.06597337
 Iteration  7 RMS(Cart)=  0.00202188 RMS(Int)=  0.06447507
 Iteration  8 RMS(Cart)=  0.00190627 RMS(Int)=  0.06306521
 Iteration  9 RMS(Cart)=  0.00180207 RMS(Int)=  0.06173499
 Iteration 10 RMS(Cart)=  0.00170772 RMS(Int)=  0.06047684
 Iteration 11 RMS(Cart)=  0.00162196 RMS(Int)=  0.05928416
 Iteration 12 RMS(Cart)=  0.00154369 RMS(Int)=  0.05815118
 Iteration 13 RMS(Cart)=  0.00147201 RMS(Int)=  0.05707285
 Iteration 14 RMS(Cart)=  0.00140615 RMS(Int)=  0.05604468
 Iteration 15 RMS(Cart)=  0.00134545 RMS(Int)=  0.05506271
 Iteration 16 RMS(Cart)=  0.00128936 RMS(Int)=  0.05412340
 Iteration 17 RMS(Cart)=  0.00123738 RMS(Int)=  0.05322359
 Iteration 18 RMS(Cart)=  0.00118909 RMS(Int)=  0.05236046
 Iteration 19 RMS(Cart)=  0.00114414 RMS(Int)=  0.05153144
 Iteration 20 RMS(Cart)=  0.00110218 RMS(Int)=  0.05073423
 Iteration 21 RMS(Cart)=  0.00106296 RMS(Int)=  0.04996674
 Iteration 22 RMS(Cart)=  0.00102621 RMS(Int)=  0.04922708
 Iteration 23 RMS(Cart)=  0.00099172 RMS(Int)=  0.04851351
 Iteration 24 RMS(Cart)=  0.00095929 RMS(Int)=  0.04782445
 Iteration 25 RMS(Cart)=  0.00092876 RMS(Int)=  0.04715845
 Iteration 26 RMS(Cart)=  0.00089995 RMS(Int)=  0.04651420
 Iteration 27 RMS(Cart)=  0.00087216 RMS(Int)=  0.04589089
 Iteration 28 RMS(Cart)=  0.00084645 RMS(Int)=  0.04528695
 Iteration 29 RMS(Cart)=  0.00082211 RMS(Int)=  0.04470135
 Iteration 30 RMS(Cart)=  0.00079901 RMS(Int)=  0.04413313
 Iteration 31 RMS(Cart)=  0.00077709 RMS(Int)=  0.04358139
 Iteration 32 RMS(Cart)=  0.00075441 RMS(Int)=  0.04304645
 Iteration 33 RMS(Cart)=  0.00072516 RMS(Int)=  0.04253221
 Iteration 34 RMS(Cart)=  0.00069775 RMS(Int)=  0.04203736
 Iteration 35 RMS(Cart)=  0.00067203 RMS(Int)=  0.04156073
 Iteration 36 RMS(Cart)=  0.00064785 RMS(Int)=  0.04110121
 Iteration 37 RMS(Cart)=  0.00062508 RMS(Int)=  0.04065781
 Iteration 38 RMS(Cart)=  0.00060362 RMS(Int)=  0.04022961
 Iteration 39 RMS(Cart)=  0.00058335 RMS(Int)=  0.03981575
 Iteration 40 RMS(Cart)=  0.00056420 RMS(Int)=  0.03941547
 Iteration 41 RMS(Cart)=  0.00054607 RMS(Int)=  0.03902802
 Iteration 42 RMS(Cart)=  0.00052890 RMS(Int)=  0.35556760
 Iteration 43 RMS(Cart)=  0.00386538 RMS(Int)=  0.03647466
 Iteration 44 RMS(Cart)=  0.00067975 RMS(Int)=  0.35339366
 Iteration 45 RMS(Cart)=  0.00347010 RMS(Int)=  0.03424659
 Iteration 46 RMS(Cart)=  0.00086804 RMS(Int)=  0.35086589
 Iteration 47 RMS(Cart)=  0.00312023 RMS(Int)=  0.34569823
 Iteration 48 RMS(Cart)=  0.00284891 RMS(Int)=  0.03109251
 Iteration 49 RMS(Cart)=  0.00106445 RMS(Int)=  0.34709530
 Iteration 50 RMS(Cart)=  0.00256914 RMS(Int)=  0.34368487
 Iteration 51 RMS(Cart)=  0.00235838 RMS(Int)=  0.04036429
 New curvilinear step failed, DQL= 3.15D+00 SP=-6.09D-01.
 ITry= 6 IFail=1 DXMaxC= 2.53D-01 DCOld= 1.00D+10 DXMaxT= 5.05D-01 DXLimC= 3.00D+00 Rises=F
 Iteration  1 RMS(Cart)=  0.00939208 RMS(Int)=  0.07499244
 Iteration  2 RMS(Cart)=  0.00271333 RMS(Int)=  0.07295665
 Iteration  3 RMS(Cart)=  0.00254682 RMS(Int)=  0.07104967
[...]
 ! R12   R(6,12)                 1.0838         -DE/DX =    0.0                 !
 ! R13   R(7,11)                 1.0148         -DE/DX =    0.0                 !
 ! R14   R(8,11)                 3.1386         -DE/DX =    0.0                 !
 ! A1    A(2,1,9)              119.9223         -DE/DX =    0.0                 !
 ! A2    A(1,2,3)              158.2785         -DE/DX =    0.0                 !
 ! A3    A(3,2,8)               26.4914         -DE/DX =    0.0                 !
 ! A4    A(2,3,4)              144.0322         -DE/DX =    0.0                 !
 ! A5    A(2,3,10)              97.0495         -DE/DX =    0.0                 !
 ! A6    A(4,3,10)             118.9164         -DE/DX =    0.0001              !
 ! A7    A(3,4,5)              133.2384         -DE/DX =    0.0                 !
 ! A8    A(3,4,7)              133.8015         -DE/DX =    0.0                 !
 ! A9    A(3,4,8)               30.1862         -DE/DX =    0.0                 !
 ! A10   A(5,4,7)               92.9344         -DE/DX =    0.0                 !
 ! A11   A(5,4,8)              163.3278         -DE/DX =    0.0                 !
 ! A12   A(7,4,8)              103.6163         -DE/DX =    0.0                 !
 ! A13   A(4,5,6)               85.4852         -DE/DX =    0.0                 !
 ! A14   A(5,6,7)               99.9648         -DE/DX =    0.0                 !
 ! A15   A(5,6,12)             131.1708         -DE/DX =    0.0                 !
 ! A16   A(7,6,12)             128.711          -DE/DX =    0.0                 !
 ! A17   A(4,7,6)               81.0639         -DE/DX =    0.0                 !
 ! A18   A(4,7,11)             121.0112         -DE/DX =    0.0                 !
 ! A19   A(2,8,4)              159.2137         -DE/DX =    0.0                 !
 ! A20   A(4,8,11)              43.2387         -DE/DX =    0.0                 !
 ! A21   A(7,11,8)              75.6145         -DE/DX =    0.0                 !
 ! A22   L(1,2,8,3,-1)         184.7699         -DE/DX =    0.0                 !
 ! A23   L(6,7,11,4,-1)        202.0751         -DE/DX =    0.0                 !
 ! A24   L(2,8,11,4,-1)        202.4525         -DE/DX =    0.0                 !
 ! A25   L(1,2,8,3,-2)         160.5536         -DE/DX =    0.0                 !
 ! A26   L(6,7,11,4,-2)        237.2914         -DE/DX =    0.0                 !
 ! A27   L(2,8,11,4,-2)        167.3843         -DE/DX =    0.0                 !
 ! D1    D(9,1,2,3)            107.2677         -DE/DX =    0.0                 !
 ! D2    D(9,1,8,4)             98.5253         -DE/DX =    0.0                 !
 ! D3    D(9,1,11,7)            62.3514         -DE/DX =    0.0                 !
 ! D4    D(1,2,3,4)            163.9612         -DE/DX =    0.0                 !
 ! D5    D(1,2,3,10)           -16.6211         -DE/DX =    0.0                 !
 ! D6    D(8,2,3,4)              3.4075         -DE/DX =    0.0                 !
 ! D7    D(8,2,3,10)          -177.1747         -DE/DX =    0.0                 !
 ! D8    D(3,2,8,4)             -3.1737         -DE/DX =    0.0                 !
 ! D9    D(3,2,11,7)           -31.1746         -DE/DX =    0.0                 !
 ! D10   D(2,3,4,5)           -178.6142         -DE/DX =    0.0                 !
 ! D11   D(2,3,4,7)             -0.9786         -DE/DX =    0.0                 !
 ! D12   D(2,3,4,8)             -1.5585         -DE/DX =    0.0                 !
 ! D13   D(10,3,4,5)             2.0459         -DE/DX =    0.0                 !
 ! D14   D(10,3,4,7)           179.6816         -DE/DX =    0.0                 !
 ! D15   D(10,3,4,8)           179.1017         -DE/DX =    0.0                 !
 ! D16   D(3,4,5,6)            172.6526         -DE/DX =    0.0                 !
 ! D17   D(7,4,5,6)             -5.6389         -DE/DX =    0.0                 !
 ! D18   D(8,4,5,6)            167.4878         -DE/DX =    0.0                 !
 ! D19   D(3,4,7,6)           -173.0255         -DE/DX =    0.0                 !
 ! D20   D(3,4,7,11)           -50.3169         -DE/DX =    0.0                 !
 ! D21   D(5,4,7,6)              5.25           -DE/DX =    0.0                 !
 ! D22   D(5,4,7,11)           127.9586         -DE/DX =    0.0                 !
 ! D23   D(8,4,7,6)           -172.7255         -DE/DX =    0.0                 !
 ! D24   D(8,4,7,11)           -50.0169         -DE/DX =    0.0                 !
 ! D25   D(3,4,8,2)              5.0111         -DE/DX =    0.0                 !
 ! D26   D(3,4,8,11)          -162.3733         -DE/DX =    0.0                 !
 ! D27   D(5,4,8,2)             12.5054         -DE/DX =    0.0                 !
 ! D28   D(5,4,8,11)          -154.8789         -DE/DX =    0.0                 !
 ! D29   D(7,4,8,2)           -174.5583         -DE/DX =    0.0                 !
 ! D30   D(7,4,8,11)            18.0574         -DE/DX =    0.0                 !
 ! D31   D(4,5,6,7)              5.8419         -DE/DX =    0.0                 !
 ! D32   D(4,5,6,12)          -178.4577         -DE/DX =    0.0                 !
 ! D33   D(5,6,7,4)             -5.8326         -DE/DX =    0.0                 !
 ! D34   D(12,6,7,4)           178.3149         -DE/DX =    0.0                 !
 ! D35   D(5,6,11,8)            14.8928         -DE/DX =    0.0                 !
 ! D36   D(12,6,11,8)         -178.2568         -DE/DX =    0.0                 !
 ! D37   D(4,7,11,8)            35.4258         -DE/DX =    0.0                 !
 ! D38   D(4,8,11,7)           -26.2863         -DE/DX =    0.0                 !
 --------------------------------------------------------------------------------
 GradGradGradGradGradGradGradGradGradGradGradGradGradGradGradGradGradGrad


 ----------------------------------------------------------------------

 Electric dipole moment (input orientation):
 (Debye = 10**-18 statcoulomb cm , SI units = C m)
                  (au)            (Debye)         (10**-30 SI)
   Tot        0.593259D+00      0.150791D+01      0.502986D+01
   x          0.874885D-01      0.222374D+00      0.741759D+00
   y          0.187921D+00      0.477647D+00      0.159326D+01
   z          0.555867D+00      0.141287D+01      0.471283D+01

 Dipole polarizability, Alpha (input orientation).
 (esu units = cm**3 , SI units = C**2 m**2 J**-1)
 Alpha(0;0):
               (au)            (10**-24 esu)      (10**-40 SI)
   iso        0.783624D+02      0.116121D+02      0.129202D+02
   aniso      0.107637D+03      0.159502D+02      0.177470D+02
   xx         0.137701D+03      0.204052D+02      0.227039D+02
   yx        -0.201481D+02     -0.298565D+01     -0.332198D+01
   yy         0.426236D+02      0.631616D+01      0.702768D+01
   zx        -0.242624D+02     -0.359531D+01     -0.400033D+01
   zy         0.137719D+02      0.204078D+01      0.227067D+01
   zz         0.547624D+02      0.811495D+01      0.902910D+01

 ----------------------------------------------------------------------

 Dipole orientation:
     7          0.88717016          0.62738286          0.51682934
     6          3.06586617         -0.00142031          0.07417501
     6          6.75109834         -0.81584675         -2.33097750
     6          9.23362233         -1.20452599         -2.18796507
     7         11.14821172         -1.64003538         -4.04404494
     6         12.73741803         -1.44337723         -2.16791665
     7         11.02251318         -1.26361928         -0.12561558
     7          5.33578191         -0.32274771         -0.17981297
     1         -0.42038514         -0.70074074          0.95440681
     1          5.84473335         -0.86508062         -4.17158382
     1         11.09540130          0.15739889          1.16007363
     1         14.78293264         -1.53449902         -2.11806912

 Electric dipole moment (dipole orientation):
 (Debye = 10**-18 statcoulomb cm , SI units = C m)
                  (au)            (Debye)         (10**-30 SI)
   Tot        0.593259D+00      0.150791D+01      0.502986D+01
   x          0.000000D+00      0.000000D+00      0.000000D+00
   y          0.000000D+00      0.000000D+00      0.000000D+00
   z          0.593259D+00      0.150791D+01      0.502986D+01

 Dipole polarizability, Alpha (dipole orientation).
 (esu units = cm**3 , SI units = C**2 m**2 J**-1)
 Alpha(0;0):
               (au)            (10**-24 esu)      (10**-40 SI)
   iso        0.783624D+02      0.116121D+02      0.129202D+02
   aniso      0.107637D+03      0.159502D+02      0.177470D+02
   xx         0.143977D+03      0.213352D+02      0.237386D+02
   yx        -0.149096D+02     -0.220937D+01     -0.245826D+01
   yy         0.361748D+02      0.536056D+01      0.596443D+01
   zx        -0.169571D+02     -0.251278D+01     -0.279585D+01
   zy         0.593087D+01      0.878864D+00      0.977869D+00
   zz         0.549357D+02      0.814063D+01      0.905767D+01

 ----------------------------------------------------------------------
 1\1\GINC-LEWIS4-R630-HPC4RC-NODE361\Freq\RB3LYP\6-31G(2df,p)\C4H4N4\YX
 IE\04-Aug-2022\0\\#N Geom=AllCheck Guess=TCheck SCRF=Check GenChk RB3L
 YP/6-31G(2df,p) Freq\\Title Card Required\\0,1\N,0.4965250723,0.390109
 0575,0.0818597859\C,1.6099774719,-0.0274055419,-0.2022392796\C,3.36092
 22934,-0.8862439153,-1.5458448638\C,4.6759883789,-1.088979343,-1.60351
 66704\N,5.5384825798,-1.6430567749,-2.6002157877\C,6.5139123674,-1.250
 1811271,-1.8269698064\N,5.7736965302,-0.7957644602,-0.7106512048\N,2.7
 819585304,-0.2601789339,-0.4514514469\H,-0.1365374454,-0.1862627749,0.
 6234835499\H,2.7436701658,-1.20790725,-2.3794775799\H,5.8940323695,0.1
 318330372,-0.3170579605\H,7.5892516858,-1.3136519732,-1.9466087359\\Ve
 rsion=ES64L-G16RevA.03\State=1-A\HF=-373.7513804\RMSD=2.320e-09\RMSF=4
 .782e-05\ZeroPoint=0.0832299\Thermal=0.0905049\Dipole=0.0874885,0.1879
 207,0.5558667\DipoleDeriv=-2.0178736,0.4166033,0.499888,0.9980403,-0.5
 415508,-0.4058981,0.2319388,-0.1052772,-0.4964691,2.9397618,-0.7052941
 ,-0.7835909,-0.8615461,0.4310458,0.2744111,-0.3405086,0.1007256,0.3482
 55,0.560237,-0.1818144,-0.2047097,-0.3017117,0.122792,0.2652513,-0.510
 7577,0.3201844,0.4939228,0.5465415,0.0123917,0.0802705,0.1750774,0.035
 6711,-0.0112057,0.183374,0.0244373,0.2046438,-0.3396809,-0.0699398,-0.
 1666909,-0.1276536,-0.3426946,-0.0942577,-0.0761336,-0.0867029,-0.5139
 502,0.1139388,0.0088327,0.0190571,-0.1457231,0.1703572,0.2377821,-0.03
 70519,0.262938,0.6991139,-0.4538825,0.0823763,0.0901496,0.0423742,-0.1
 035602,0.0012369,-0.0801962,-0.2400951,-0.892794,-1.9476793,0.4827649,
 0.5085596,0.3782795,-0.3362327,-0.1456539,0.4553101,-0.1989272,-0.4767
 083,0.454685,-0.0567045,-0.0474492,-0.2603254,0.2651446,0.1341014,0.04
 29067,0.0174108,0.2680869,-0.0012399,-0.0005607,-0.0306022,0.0455631,0
 .0945037,-0.0764579,0.0701401,-0.0889603,-0.0353938,0.1682445,0.008860
 3,0.0190416,-0.0248817,0.0947034,-0.1559997,0.0821143,0.0104507,0.3098
 08,-0.0230524,0.0024841,0.0160765,0.0825071,0.1098206,-0.0233098,-0.02
 11359,-0.0161842,0.091485\Polar=137.7013233,-20.1481497,42.6235941,-24
 .262381,13.7718621,54.7624133\Quadrupole=7.7042958,-4.1669717,-3.53732
 41,5.6779997,-0.7184849,-1.7101743\PG=C01 [X(C4H4N4)]\NImag=0\\0.88748
 425,-0.04970154,0.24267861,-0.34248986,-0.07767944,0.21625099,-0.65131
 797,0.16765188,0.19527086,1.42702012,0.20452688,-0.12172694,-0.0625641
 8,-0.34929838,0.22143702,0.17731997,-0.04063903,-0.10622129,-0.3933146
 5,0.11252830,0.24649230,0.01361024,-0.00039386,-0.00596155,-0.07087147
 ,0.02736666,0.04216710,0.84436934,-0.00830350,0.00341958,-0.00754989,0
 .00831469,-0.01254175,-0.00756242,-0.08212668,0.21479564,-0.01246971,0
 .00487201,0.00919813,0.01053239,-0.00793886,-0.02097151,0.03613838,0.1
 9144614,0.51140884,0.00247092,-0.00231275,0.00021952,0.00398710,-0.000
 95586,-0.00421896,-0.50991750,0.06581659,0.00212954,0.95756374,0.00278
 877,-0.00054796,-0.00069952,-0.00253695,0.00113594,-0.00093169,0.05926
 028,-0.06449954,-0.01997046,-0.09930866,0.21921412,0.00379577,-0.00247
 497,-0.00060542,0.00014601,-0.00155493,-0.00245975,-0.00716101,-0.0194
 7023,-0.08792701,-0.01744241,0.10503040,0.33648663,-0.00014630,0.00024
 386,-0.00006453,-0.00309018,0.00082678,0.00118789,-0.02451795,0.017389
 53,0.03208454,-0.08143013,0.03493698,0.06039457,0.40879551,-0.00161107
 ,-0.00009532,0.00115024,0.00303209,0.00138289,-0.00140699,0.00473097,-
 0.00034893,-0.00045559,0.01465926,-0.10175038,-0.04977317,0.06269624,0
 .18640498,-0.00055191,0.00091635,-0.00035408,0.00003423,-0.00097541,0.
 00107244,0.00604557,0.00282290,0.00610377,0.02727351,-0.04645025,-0.15
 151105,0.14011170,0.21116498,0.48783896,-0.00293788,0.00189977,0.00041
 383,0.00579103,-0.00187352,-0.00065430,0.00803500,-0.00199911,-0.00428
 645,-0.18499703,0.00950575,0.01867669,-0.29844162,-0.08291640,-0.15898
 725,0.93188623,-0.00045491,0.00002532,0.00021627,0.00159216,-0.0002344
 9,-0.00049560,-0.00024475,-0.00227743,-0.00879566,0.02481802,0.0335256
 2,0.01183876,-0.09994788,-0.11128748,-0.08636020,0.03047338,0.22358882
 ,-0.00014394,-0.00027699,0.00022916,0.00199494,-0.00012877,-0.00068009
 ,-0.00141857,-0.00875486,-0.01630152,0.02348335,0.01420917,0.04333725,
 -0.19055098,-0.08180521,-0.22547310,0.04312392,0.15798661,0.44341474,-
 0.00112448,0.00047663,0.00047349,0.00212068,-0.00008030,-0.00000933,-0
 .02394761,-0.01202195,-0.03012556,-0.14195169,0.00370250,-0.07549731,0
 .00384789,-0.00230253,-0.01748543,-0.12516379,0.01096945,0.09575972,0.
 35832665,0.00052406,-0.00021699,-0.00047876,-0.00100733,-0.00004834,0.
 00078887,0.00604508,0.00646763,0.00427724,-0.02501192,-0.09045632,-0.0
 3375362,-0.00603610,0.00919242,-0.08352089,0.02597848,-0.09081154,-0.0
 7320887,0.03801847,0.52076838,0.00026509,-0.00016571,0.00008685,-0.001
 21032,0.00089228,0.00056845,0.00306523,0.00041144,0.00639209,-0.055300
 77,-0.02018843,-0.11231684,-0.02346191,-0.08187714,-0.12792244,0.07363
 792,-0.04430224,-0.16505904,0.01908934,0.31436594,0.44988701,-0.073798
 73,0.01800000,0.01901125,-0.67606230,0.13180802,0.15473634,-0.07870317
 ,0.05426701,0.09257320,-0.03188388,0.02637060,0.04302574,0.00008525,-0
 .00164512,-0.00426910,-0.00493532,0.00064894,0.00206950,0.00382525,-0.
 00130968,-0.00038626,0.84568571,0.03330645,0.01729877,0.00753817,0.145
 82020,-0.08377259,-0.04750468,0.03280615,-0.08843153,-0.09611971,0.016
 60338,-0.00822086,-0.01533033,-0.00288562,0.00972930,-0.00086138,0.003
 52531,0.00039398,0.00031110,-0.00045051,-0.00310478,0.00291874,-0.2324
 0530,0.16207660,0.01399549,-0.00525618,0.01313403,0.19146442,-0.050305
 12,-0.10802100,0.05016476,-0.09014328,-0.20299631,0.02684023,-0.011095
 87,-0.01276545,-0.00440173,-0.00114938,0.00542204,0.00498547,-0.000568
 12,-0.00129476,-0.00242945,0.00247298,0.00145757,-0.29769720,0.1659665
 6,0.31741400,-0.17252249,-0.13573101,0.13410556,-0.04528073,-0.0123038
 4,0.02042211,-0.00202111,0.00458401,0.00134218,0.00083320,-0.00023564,
 -0.00041409,-0.00022167,-0.00017060,0.00022353,0.00051099,0.00006363,0
 .00005140,-0.00004853,0.00001447,-0.00019663,0.00935113,-0.00460034,-0
 .00003474,0.20945003,-0.18343024,-0.14011841,0.14066255,0.03302516,-0.
 00647911,-0.01597374,-0.00255031,0.00242284,-0.00171487,0.00088310,0.0
 0040134,0.00076453,-0.00003705,-0.00041200,-0.00012808,-0.00053901,0.0
 0000809,0.00009893,-0.00013741,0.00013020,-0.00009098,0.00426642,-0.00
 280437,0.00522603,0.14849243,0.14693410,0.15674167,0.12134610,-0.13101
 365,0.00369044,0.00782338,-0.01136388,0.00179624,0.00434231,-0.0025751
 2,-0.00044289,-0.00005628,0.00028898,0.00015979,-0.00015184,-0.0000517
 7,-0.00014028,-0.00003184,-0.00006702,-0.00013247,0.00009887,-0.000086
 18,-0.00641999,-0.00509155,0.00949808,-0.15530053,-0.12847057,0.135374
 38,-0.00196942,-0.00000405,-0.00068602,0.00845991,-0.00039704,0.001738
 09,-0.15598970,-0.04492388,-0.12561241,-0.01394289,-0.01030401,-0.0260
 5642,0.00223814,0.00011122,0.00157329,0.00052268,-0.00086240,-0.002063
 29,-0.00342941,0.00215320,0.00197012,0.00580219,0.00788050,0.01626245,
 -0.00001891,0.00005283,-0.00004415,0.15875480,0.00170492,-0.00057585,-
 0.00035872,-0.00524578,0.00074223,0.00076317,-0.04487507,-0.06022899,-
 0.06676317,0.00097831,0.00457394,0.00500388,0.00015651,-0.00373058,0.0
 0139291,0.00019331,0.00017751,-0.00081462,0.00077233,0.00781536,-0.003
 26383,-0.00045063,-0.00213149,-0.01582485,-0.00008350,-0.00013784,0.00
 020181,0.04593521,0.05415657,0.00324332,-0.00027012,-0.00068050,-0.008
 30349,0.00184324,0.00157623,-0.12687395,-0.06673349,-0.20639590,-0.000
 36022,-0.00001546,0.00201857,-0.00090139,0.00209655,-0.00053766,-0.000
 01574,0.00033954,0.00144960,0.00312695,-0.00414189,0.00204986,-0.00185
 494,-0.01252219,-0.02146107,-0.00015674,-0.00045722,-0.00002529,0.1324
 9224,0.07965159,0.22232864,0.00030150,-0.00009583,-0.00034820,-0.00071
 940,0.00028689,0.00061350,0.00019503,-0.00125156,-0.00314979,0.0053918
 9,-0.02318338,0.00208000,0.00400041,-0.00067142,-0.00003238,0.00762537
 ,0.01832605,-0.00536175,-0.07094305,-0.03857698,-0.01330642,0.00090169
 ,0.00035873,0.00106570,-0.00002278,-0.00004303,0.00010054,-0.00028215,
 0.00089878,-0.00036957,0.05441260,0.00016326,0.00004420,-0.00001250,-0
 .00041200,0.00009538,0.00012323,-0.00014526,0.00011148,0.00003996,0.00
 506896,-0.00363167,0.00612428,0.00000721,0.00531323,-0.00344395,-0.005
 02825,-0.00670785,0.00854049,-0.04457500,-0.36317491,-0.17119479,0.000
 34235,-0.00010028,0.00046350,-0.00002774,-0.00005364,-0.00004675,0.000
 32640,0.00000163,-0.00003827,0.04418419,0.36818093,0.00065270,-0.00052
 739,-0.00013359,-0.00076396,0.00032396,0.00004207,0.00104655,0.0004949
 9,0.00149514,-0.00013798,-0.01168733,-0.01097375,0.00157632,-0.0022798
 5,-0.00536860,-0.00827338,-0.01832151,-0.01416231,-0.01191080,-0.12734
 281,-0.06011626,0.00004259,-0.00025054,-0.00063675,-0.00005085,0.00016
 970,0.00003573,-0.00012328,-0.00001624,-0.00020783,0.01767732,0.159540
 51,0.09032145,-0.00004966,-0.00003309,0.00005566,-0.00003680,0.0000937
 2,0.00001225,-0.00024110,0.00025485,0.00084367,-0.00612374,-0.00099625
 ,-0.00154753,-0.01111934,0.00408735,0.00606424,-0.33789566,0.01461832,
 0.03305569,-0.00151189,-0.00079173,-0.00416538,-0.00026781,0.00004104,
 -0.00021539,-0.00000914,0.00001710,-0.00000835,-0.00014525,0.00001560,
 -0.00002647,-0.00086111,0.00009589,0.00026477,0.35826149,0.00048691,-0
 .00018500,-0.00022422,-0.00093573,0.00000975,0.00031058,0.00012681,0.0
 0111099,0.00112297,-0.00123843,0.01025577,-0.00640460,-0.00735044,0.00
 560187,0.00544303,0.02078027,-0.04640053,-0.01615697,0.00562832,0.0034
 3889,0.00249472,0.00010739,-0.00093274,0.00021372,-0.00000187,0.000108
 79,0.00003635,0.00003203,-0.00066250,0.00024772,-0.00023244,-0.0000785
 0,-0.00010346,-0.01740282,0.02773321,-0.00035858,0.00015539,0.00010938
 ,0.00045914,0.00005611,-0.00003397,0.00099126,0.00069640,0.00256940,-0
 .00204291,-0.00814426,-0.00357216,-0.01613426,0.00448740,0.01078149,0.
 03151957,-0.01150602,-0.06539290,0.01914085,0.00044295,0.00505893,-0.0
 0083112,0.00094582,0.00024962,0.00000880,-0.00008628,-0.00001427,0.000
 54938,0.00002807,-0.00011464,0.00103105,-0.00009572,-0.00029532,-0.034
 33316,0.01302015,0.05065444\\0.00001337,0.00004715,0.00000212,-0.00001
 379,-0.00010667,-0.00002473,-0.00005230,0.00016586,0.00007872,0.000029
 43,-0.00008683,0.00003306,0.00004025,-0.00002712,-0.00003582,-0.000061
 71,0.00001282,-0.00001165,0.00006901,0.00000532,-0.00002872,0.00002594
 ,0.00004140,-0.00001147,-0.00003086,-0.00001090,0.00001571,0.00000136,
 -0.00004230,-0.00004422,-0.00001182,-0.00000551,0.00000388,-0.00000889
 ,0.00000678,0.00002312\\\@


 The theorems and results in mathematical physics are
 not theorems and results about Nature, but about our
 description of it.
                   --Gerard 't Hooft
 Job cpu time:       0 days  1 hours  1 minutes 49.4 seconds.
 Elapsed time:       0 days  0 hours 15 minutes 34.4 seconds.
 File lengths (MBytes):  RWF=     69 Int=      0 D2E=      0 Chk=      6 Scr=      1
 Normal termination of Gaussian 16 at Thu Aug  4 23:37:51 2022.
### All Done ###
