### Starting Gaussian ###
 Entering Gaussian System, Link 0=g16
 Initial command:
 /cluster/software/gaussian/gaussian-16-A.03/avx2/g16/l1.exe "/local/scratch/ks29c/Gau-29286.inp" -scrdir="/local/scratch/ks29c/"
 Entering Link 1 = /cluster/software/gaussian/gaussian-16-A.03/avx2/g16/l1.exe PID=     29287.
  
 Copyright (c) 1988,1990,1992,1993,1995,1998,2003,2009,2016,
            Gaussian, Inc.  All Rights Reserved.
  
 This is part of the Gaussian(R) 16 program.  It is based on
 the Gaussian(R) 09 system (copyright 2009, Gaussian, Inc.),
 the Gaussian(R) 03 system (copyright 2003, Gaussian, Inc.),
 the Gaussian(R) 98 system (copyright 1998, Gaussian, Inc.),
 the Gaussian(R) 94 system (copyright 1995, Gaussian, Inc.),
 the Gaussian 92(TM) system (copyright 1992, Gaussian, Inc.),
 the Gaussian 90(TM) system (copyright 1990, Gaussian, Inc.),
 the Gaussian 88(TM) system (copyright 1988, Gaussian, Inc.),
 the Gaussian 86(TM) system (copyright 1986, Carnegie Mellon
 University), and the Gaussian 82(TM) system (copyright 1983,
 Carnegie Mellon University). Gaussian is a federally registered
 trademark of Gaussian, Inc.
  
 This software contains proprietary and confidential information,
 including trade secrets, belonging to Gaussian, Inc.
  
 This software is provided under written license and may be
 used, copied, transmitted, or stored only in accord with that
 written license.
  
 The following legend is applicable only to US Government
 contracts under FAR:
  
                    RESTRICTED RIGHTS LEGEND
  
 Use, reproduction and disclosure by the US Government is
 subject to restrictions as set forth in subparagraphs (a)
 and (c) of the Commercial Computer Software - Restricted
 Rights clause in FAR 52.227-19.
  
 Gaussian, Inc.
 340 Quinnipiac St., Bldg. 40, Wallingford CT 06492
  
  
 ---------------------------------------------------------------
 Warning -- This program may not be used in any manner that
 competes with the business of Gaussian, Inc. or will provide
 assistance to any competitor of Gaussian, Inc.  The licensee
 of this program is prohibited from giving any competitor of
 Gaussian, Inc. access to this program.  By using this program,
 the user acknowledges that Gaussian, Inc. is engaged in the
 business of creating and licensing software in the field of
 computational chemistry and represents and warrants to the
 licensee that it is not a competitor of Gaussian, Inc. and that
 it will not use this program in any manner prohibited above.
 ---------------------------------------------------------------
  

 Cite this work as:
 Gaussian 16, Revision A.03,
 M. J. Frisch, G. W. Trucks, H. B. Schlegel, G. E. Scuseria, 
 M. A. Robb, J. R. Cheeseman, G. Scalmani, V. Barone, 
 G. A. Petersson, H. Nakatsuji, X. Li, M. Caricato, A. V. Marenich, 
 J. Bloino, B. G. Janesko, R. Gomperts, B. Mennucci, H. P. Hratchian, 
 J. V. Ortiz, A. F. Izmaylov, J. L. Sonnenberg, D. Williams-Young, 
 F. Ding, F. Lipparini, F. Egidi, J. Goings, B. Peng, A. Petrone, 
 T. Henderson, D. Ranasinghe, V. G. Zakrzewski, J. Gao, N. Rega, 
 G. Zheng, W. Liang, M. Hada, M. Ehara, K. Toyota, R. Fukuda, 
 J. Hasegawa, M. Ishida, T. Nakajima, Y. Honda, O. Kitao, H. Nakai, 
 T. Vreven, K. Throssell, J. A. Montgomery, Jr., J. E. Peralta, 
 F. Ogliaro, M. J. Bearpark, J. J. Heyd, E. N. Brothers, K. N. Kudin, 
 V. N. Staroverov, T. A. Keith, R. Kobayashi, J. Normand, 
 K. Raghavachari, A. P. Rendell, J. C. Burant, S. S. Iyengar, 
 J. Tomasi, M. Cossi, J. M. Millam, M. Klene, C. Adamo, R. Cammi, 
 J. W. Ochterski, R. L. Martin, K. Morokuma, O. Farkas, 
 J. B. Foresman, and D. J. Fox, Gaussian, Inc., Wallingford CT, 2016.
 
 ******************************************
 Gaussian 16:  ES64L-G16RevA.03 25-Dec-2016
                 3-Jul-2022 
 ******************************************
 %chk=Ndc1ccpFpcpOpno1.chk
 %NProcShared=20
 Will use up to   20 processors via shared memory.
 -----------------------------
 # opt freq b3lyp/6-31g(2df,p)
 -----------------------------
 1/18=20,19=15,26=3,38=1/1,3;
 2/9=110,12=2,17=6,18=5,40=1/2;
 3/5=1,6=6,7=104,11=2,25=1,30=1,71=1,74=-5/1,2,3;
 4//1;
 5/5=2,38=5/2;
 6/7=2,8=2,9=2,10=2,28=1/1;
 7//1,2,3,16;
 1/18=20,19=15,26=3/3(2);
 2/9=110/2;
 99//99;
 2/9=110/2;
 3/5=1,6=6,7=104,11=2,25=1,30=1,71=1,74=-5/1,2,3;
 4/5=5,16=3,69=1/1;
 5/5=2,38=5/2;
 7//1,2,3,16;
 1/18=20,19=15,26=3/3(-5);
 2/9=110/2;
 6/7=2,8=2,9=2,10=2,19=2,28=1/1;
 99/9=1/99;
 -------------------
 Title Card Required
 -------------------
 Symbolic Z-matrix:
 Charge =  0 Multiplicity = 1
 N                     0.98528  -0.16668  -0.0445 
 C                     2.27339  -0.08502  -0.04416 
 C                     2.97059   1.19735  -0.04397 
 C                     4.29489   1.19727  -0.04351 
 F                     5.03986   2.3163   -0.04486 
 C                     4.96721  -0.08541  -0.03974 
 O                     6.31147  -0.00125  -0.03441 
 N                     4.4024   -1.23736  -0.04027 
 O                     2.98095  -1.24843  -0.04528 
 H                     0.54193   0.75402  -0.044 
 H                     2.40007   2.11324  -0.04501 
 H                     6.63991   0.91258  -0.03348 
 

 GradGradGradGradGradGradGradGradGradGradGradGradGradGradGradGradGradGrad
 Berny optimization.
 Initialization pass.
                           ----------------------------
                           !    Initial Parameters    !
                           ! (Angstroms and Degrees)  !
 --------------------------                            --------------------------
 ! Name  Definition              Value          Derivative Info.                !
 --------------------------------------------------------------------------------
 ! R1    R(1,2)                  1.2907         estimate D2E/DX2                !
 ! R2    R(1,10)                 1.0219         estimate D2E/DX2                !
 ! R3    R(2,3)                  1.4596         estimate D2E/DX2                !
 ! R4    R(2,9)                  1.3617         estimate D2E/DX2                !
 ! R5    R(3,4)                  1.3243         estimate D2E/DX2                !
 ! R6    R(3,11)                 1.079          estimate D2E/DX2                !
 ! R7    R(4,5)                  1.3443         estimate D2E/DX2                !
 ! R8    R(4,6)                  1.4482         estimate D2E/DX2                !
 ! R9    R(6,7)                  1.3469         estimate D2E/DX2                !
 ! R10   R(6,8)                  1.283          estimate D2E/DX2                !
 ! R11   R(7,12)                 0.9711         estimate D2E/DX2                !
 ! R12   R(8,9)                  1.4215         estimate D2E/DX2                !
 ! A1    A(2,1,10)             112.085          estimate D2E/DX2                !
 ! A2    A(1,2,3)              122.1595         estimate D2E/DX2                !
 ! A3    A(1,2,9)              117.6796         estimate D2E/DX2                !
 ! A4    A(3,2,9)              120.1609         estimate D2E/DX2                !
 ! A5    A(2,3,4)              118.5286         estimate D2E/DX2                !
 ! A6    A(2,3,11)             119.5486         estimate D2E/DX2                !
 ! A7    A(4,3,11)             121.9228         estimate D2E/DX2                !
 ! A8    A(3,4,5)              123.6493         estimate D2E/DX2                !
 ! A9    A(3,4,6)              117.6648         estimate D2E/DX2                !
 ! A10   A(5,4,6)              118.6858         estimate D2E/DX2                !
 ! A11   A(4,6,7)              114.0793         estimate D2E/DX2                !
 ! A12   A(4,6,8)              126.2193         estimate D2E/DX2                !
 ! A13   A(7,6,8)              119.7014         estimate D2E/DX2                !
 ! A14   A(6,7,12)             113.3514         estimate D2E/DX2                !
 ! A15   A(6,8,9)              116.5652         estimate D2E/DX2                !
 ! A16   A(2,9,8)              120.8604         estimate D2E/DX2                !
 ! D1    D(10,1,2,3)            -0.0371         estimate D2E/DX2                !
 ! D2    D(10,1,2,9)          -179.9752         estimate D2E/DX2                !
 ! D3    D(1,2,3,4)            179.9945         estimate D2E/DX2                !
 ! D4    D(1,2,3,11)            -0.0546         estimate D2E/DX2                !
 ! D5    D(9,2,3,4)             -0.0688         estimate D2E/DX2                !
 ! D6    D(9,2,3,11)           179.8821         estimate D2E/DX2                !
 ! D7    D(1,2,9,8)           -179.7784         estimate D2E/DX2                !
 ! D8    D(3,2,9,8)              0.2822         estimate D2E/DX2                !
 ! D9    D(2,3,4,5)            179.92           estimate D2E/DX2                !
 ! D10   D(2,3,4,6)             -0.1556         estimate D2E/DX2                !
 ! D11   D(11,3,4,5)            -0.0297         estimate D2E/DX2                !
 ! D12   D(11,3,4,6)           179.8947         estimate D2E/DX2                !
 ! D13   D(3,4,6,7)           -179.7626         estimate D2E/DX2                !
 ! D14   D(3,4,6,8)              0.1943         estimate D2E/DX2                !
 ! D15   D(5,4,6,7)              0.1657         estimate D2E/DX2                !
 ! D16   D(5,4,6,8)           -179.8774         estimate D2E/DX2                !
 ! D17   D(4,6,7,12)             0.0239         estimate D2E/DX2                !
 ! D18   D(8,6,7,12)          -179.936          estimate D2E/DX2                !
 ! D19   D(4,6,8,9)              0.0117         estimate D2E/DX2                !
 ! D20   D(7,6,8,9)            179.9664         estimate D2E/DX2                !
 ! D21   D(6,8,9,2)             -0.2501         estimate D2E/DX2                !
 --------------------------------------------------------------------------------
 Trust Radius=3.00D-01 FncErr=1.00D-07 GrdErr=1.00D-06 EigMax=2.50D+02 EigMin=1.00D-04
 Number of steps in this run=     59 maximum allowed number of steps=    100.
 GradGradGradGradGradGradGradGradGradGradGradGradGradGradGradGradGradGrad

                          Input orientation:                          
 ---------------------------------------------------------------------
 Center     Atomic      Atomic             Coordinates (Angstroms)
 Number     Number       Type             X           Y           Z
 ---------------------------------------------------------------------
      1          7           0        0.985280   -0.166680   -0.044500
      2          6           0        2.273390   -0.085020   -0.044160
      3          6           0        2.970590    1.197350   -0.043970
      4          6           0        4.294890    1.197270   -0.043510
      5          9           0        5.039860    2.316300   -0.044860
      6          6           0        4.967210   -0.085410   -0.039740
      7          8           0        6.311470   -0.001250   -0.034410
      8          7           0        4.402400   -1.237360   -0.040270
      9          8           0        2.980950   -1.248430   -0.045280
     10          1           0        0.541930    0.754020   -0.044000
     11          1           0        2.400070    2.113240   -0.045010
     12          1           0        6.639910    0.912580   -0.033480
 ---------------------------------------------------------------------
                    Distance matrix (angstroms):
                    1          2          3          4          5
     1  N    0.000000
     2  C    1.290696   0.000000
     3  C    2.408741   1.459644   0.000000
     4  C    3.579648   2.393894   1.324300   0.000000
     5  F    4.754451   3.663290   2.352430   1.344325   0.000000
     6  C    3.982762   2.693824   2.373180   1.448205   2.402814
     7  O    5.328768   4.038961   3.549396   2.345875   2.643509
     8  N    3.580933   2.420865   2.824519   2.437005   3.610384
     9  O    2.269996   1.361677   2.445802   2.776309   4.116602
    10  H    1.021885   1.924043   2.468791   3.779045   4.761522
    11  H    2.683219   2.201907   1.079050   2.104601   2.647588
    12  H    5.756715   4.479042   3.680369   2.362259   2.128549
                    6          7          8          9         10
     6  C    0.000000
     7  O    1.346902   0.000000
     8  N    1.282965   2.274324   0.000000
     9  O    2.301711   3.556394   1.421502   0.000000
    10  H    4.504194   5.818773   4.343827   3.155729   0.000000
    11  H    3.379985   4.446373   3.903315   3.411487   2.302209
    12  H    1.947806   0.971061   3.103021   4.249481   6.100050
                   11         12
    11  H    0.000000
    12  H    4.406582   0.000000
 Stoichiometry    C4H3FN2O2
 Framework group  C1[X(C4H3FN2O2)]
 Deg. of freedom    30
 Full point group                 C1      NOp   1
 Largest Abelian subgroup         C1      NOp   1
 Largest concise Abelian subgroup C1      NOp   1
                         Standard orientation:                         
 ---------------------------------------------------------------------
 Center     Atomic      Atomic             Coordinates (Angstroms)
 Number     Number       Type             X           Y           Z
 ---------------------------------------------------------------------
      1          7           0       -2.876718    0.346541    0.002164
      2          6           0       -1.614267    0.078008    0.000359
      3          6           0       -0.597241    1.125012    0.000849
      4          6           0        0.678030    0.768010   -0.000995
      5          9           0        1.697033    1.644847   -0.002321
      6          6           0        0.979765   -0.648412    0.000093
      7          8           0        2.296969   -0.929680    0.003184
      8          7           0        0.125380   -1.605505   -0.000812
      9          8           0       -1.246457   -1.233048   -0.003363
     10          1           0       -3.055511    1.352660    0.004520
     11          1           0       -0.899797    2.160776    0.001881
     12          1           0        2.859552   -0.138190    0.004621
 ---------------------------------------------------------------------
 Rotational constants (GHZ):           3.1428546           1.4377742           0.9864859
 Standard basis: 6-31G(2df,p) (6D, 7F)
 There are   294 symmetry adapted cartesian basis functions of A   symmetry.
 There are   267 symmetry adapted basis functions of A   symmetry.
   267 basis functions,   417 primitive gaussians,   294 cartesian basis functions
    33 alpha electrons       33 beta electrons
       nuclear repulsion energy       439.5948115190 Hartrees.
 NAtoms=   12 NActive=   12 NUniq=   12 SFac= 1.00D+00 NAtFMM=   60 NAOKFM=F Big=F
 Integral buffers will be    131072 words long.
 Raffenetti 2 integral format.
 Two-electron integral symmetry is turned on.
 One-electron integrals computed using PRISM.
 PrsmSu:  requested number of processors reduced to:  13 ShMem   1 Linda.
 NBasis=   267 RedAO= T EigKep=  2.10D-04  NBF=   267
 NBsUse=   267 1.00D-06 EigRej= -1.00D+00 NBFU=   267
 ExpMin= 1.61D-01 ExpMax= 7.00D+03 ExpMxC= 1.05D+03 IAcc=3 IRadAn=         5 AccDes= 0.00D+00
 Harris functional with IExCor=  402 and IRadAn=       5 diagonalized for initial guess.
 HarFok:  IExCor=  402 AccDes= 0.00D+00 IRadAn=         5 IDoV= 1 UseB2=F ITyADJ=14
 ICtDFT=  3500011 ScaDFX=  1.000000  1.000000  1.000000  1.000000
 FoFCou: FMM=F IPFlag=           0 FMFlag=      100000 FMFlg1=           0
         NFxFlg=           0 DoJE=T BraDBF=F KetDBF=T FulRan=T
         wScrn=  0.000000 ICntrl=       500 IOpCl=  0 I1Cent=   200000004 NGrid=           0
         NMat0=    1 NMatS0=      1 NMatT0=    0 NMatD0=    1 NMtDS0=    0 NMtDT0=    0
 Petite list used in FoFCou.
 Requested convergence on RMS density matrix=1.00D-08 within 128 cycles.
 Requested convergence on MAX density matrix=1.00D-06.
 Requested convergence on             energy=1.00D-06.
 No special actions if energy rises.
 Integral accuracy reduced to 1.0D-05 until final iterations.
 Initial convergence to 1.0D-05 achieved.  Increase integral accuracy.
 SCF Done:  E(RB3LYP) =  -513.945399159     A.U. after   15 cycles
            NFock= 15  Conv=0.76D-08     -V/T= 2.0064

 **********************************************************************

            Population analysis using the SCF density.

 **********************************************************************

 Orbital symmetries:
       Occupied  (A) (A) (A) (A) (A) (A) (A) (A) (A) (A) (A) (A)
                 (A) (A) (A) (A) (A) (A) (A) (A) (A) (A) (A) (A)
                 (A) (A) (A) (A) (A) (A) (A) (A) (A)
       Virtual   (A) (A) (A) (A) (A) (A) (A) (A) (A) (A) (A) (A)
                 (A) (A) (A) (A) (A) (A) (A) (A) (A) (A) (A) (A)
                 (A) (A) (A) (A) (A) (A) (A) (A) (A) (A) (A) (A)
                 (A) (A) (A) (A) (A) (A) (A) (A) (A) (A) (A) (A)
                 (A) (A) (A) (A) (A) (A) (A) (A) (A) (A) (A) (A)
                 (A) (A) (A) (A) (A) (A) (A) (A) (A) (A) (A) (A)
                 (A) (A) (A) (A) (A) (A) (A) (A) (A) (A) (A) (A)
                 (A) (A) (A) (A) (A) (A) (A) (A) (A) (A) (A) (A)
                 (A) (A) (A) (A) (A) (A) (A) (A) (A) (A) (A) (A)
                 (A) (A) (A) (A) (A) (A) (A) (A) (A) (A) (A) (A)
                 (A) (A) (A) (A) (A) (A) (A) (A) (A) (A) (A) (A)
                 (A) (A) (A) (A) (A) (A) (A) (A) (A) (A) (A) (A)
                 (A) (A) (A) (A) (A) (A) (A) (A) (A) (A) (A) (A)
                 (A) (A) (A) (A) (A) (A) (A) (A) (A) (A) (A) (A)
                 (A) (A) (A) (A) (A) (A) (A) (A) (A) (A) (A) (A)
                 (A) (A) (A) (A) (A) (A) (A) (A) (A) (A) (A) (A)
                 (A) (A) (A) (A) (A) (A) (A) (A) (A) (A) (A) (A)
                 (A) (A) (A) (A) (A) (A) (A) (A) (A) (A) (A) (A)
                 (A) (A) (A) (A) (A) (A) (A) (A) (A) (A) (A) (A)
                 (A) (A) (A) (A) (A) (A)
 The electronic state is 1-A.
 Alpha  occ. eigenvalues --  -24.76562 -19.23031 -19.20991 -14.40320 -14.30913
 Alpha  occ. eigenvalues --  -10.31972 -10.31794 -10.30006 -10.24133  -1.28182
 Alpha  occ. eigenvalues --   -1.13370  -1.10245  -0.92573  -0.88746  -0.82983
 Alpha  occ. eigenvalues --   -0.70227  -0.67413  -0.62180  -0.58999  -0.56298
 Alpha  occ. eigenvalues --   -0.52628  -0.50724  -0.49369  -0.47661  -0.45648
 Alpha  occ. eigenvalues --   -0.42765  -0.40953  -0.40259  -0.34783  -0.32066
 Alpha  occ. eigenvalues --   -0.31676  -0.27456  -0.24150
 Alpha virt. eigenvalues --   -0.08034   0.00657   0.01627   0.07335   0.09098
 Alpha virt. eigenvalues --    0.10961   0.12066   0.14137   0.19164   0.26425
 Alpha virt. eigenvalues --    0.28686   0.29119   0.32834   0.35945   0.39355
 Alpha virt. eigenvalues --    0.41673   0.44099   0.45118   0.48387   0.50745
 Alpha virt. eigenvalues --    0.51081   0.52826   0.53337   0.53657   0.54340
 Alpha virt. eigenvalues --    0.56261   0.59043   0.59670   0.63191   0.64493
 Alpha virt. eigenvalues --    0.65036   0.68608   0.69707   0.72033   0.72427
 Alpha virt. eigenvalues --    0.73334   0.74154   0.75739   0.78563   0.80151
 Alpha virt. eigenvalues --    0.83155   0.85323   0.86686   0.88183   0.88589
 Alpha virt. eigenvalues --    0.89119   0.91272   0.92904   0.95640   0.97045
 Alpha virt. eigenvalues --    1.00970   1.02173   1.02647   1.03535   1.04898
 Alpha virt. eigenvalues --    1.06090   1.07300   1.12967   1.15855   1.21999
 Alpha virt. eigenvalues --    1.24787   1.26671   1.27468   1.28666   1.32877
 Alpha virt. eigenvalues --    1.33723   1.36300   1.38355   1.39752   1.45114
 Alpha virt. eigenvalues --    1.45770   1.46608   1.47136   1.48967   1.50053
 Alpha virt. eigenvalues --    1.51336   1.52774   1.57095   1.59111   1.65523
 Alpha virt. eigenvalues --    1.67062   1.68518   1.70478   1.77958   1.80245
 Alpha virt. eigenvalues --    1.86335   1.88280   1.91137   1.91394   1.94372
 Alpha virt. eigenvalues --    1.97348   2.01906   2.08695   2.12553   2.17505
 Alpha virt. eigenvalues --    2.24689   2.26289   2.28525   2.33696   2.40893
 Alpha virt. eigenvalues --    2.41259   2.48538   2.58070   2.68255   2.72940
 Alpha virt. eigenvalues --    2.76195   2.77134   2.77439   2.83170   2.85325
 Alpha virt. eigenvalues --    2.92563   2.92926   2.95773   2.98730   3.02159
 Alpha virt. eigenvalues --    3.03596   3.04539   3.06952   3.08367   3.11960
 Alpha virt. eigenvalues --    3.12402   3.16124   3.21738   3.23549   3.24276
 Alpha virt. eigenvalues --    3.34017   3.35444   3.43913   3.47006   3.50314
 Alpha virt. eigenvalues --    3.54702   3.58644   3.60762   3.66467   3.71635
 Alpha virt. eigenvalues --    3.73499   3.82581   3.83418   3.84856   3.88831
 Alpha virt. eigenvalues --    3.90176   3.92477   3.92776   3.96349   4.00697
 Alpha virt. eigenvalues --    4.02458   4.04794   4.04899   4.05338   4.11881
 Alpha virt. eigenvalues --    4.13730   4.17951   4.18583   4.20384   4.24354
 Alpha virt. eigenvalues --    4.25198   4.25303   4.29042   4.30853   4.32613
 Alpha virt. eigenvalues --    4.32991   4.34583   4.38485   4.39185   4.41050
 Alpha virt. eigenvalues --    4.42105   4.43284   4.45984   4.47636   4.48990
 Alpha virt. eigenvalues --    4.52616   4.53232   4.55037   4.55275   4.59759
 Alpha virt. eigenvalues --    4.61914   4.63236   4.65946   4.70525   4.70938
 Alpha virt. eigenvalues --    4.78145   4.79069   4.79194   4.82856   4.86700
 Alpha virt. eigenvalues --    4.92100   4.97059   5.00597   5.03714   5.11748
 Alpha virt. eigenvalues --    5.17074   5.21243   5.24272   5.31517   5.33574
 Alpha virt. eigenvalues --    5.35186   5.38769   5.44189   5.44584   5.45199
 Alpha virt. eigenvalues --    5.60461   5.66005   5.71494   5.75644   5.80828
 Alpha virt. eigenvalues --    5.81552   5.83760   5.91057   5.93153   6.12403
 Alpha virt. eigenvalues --    6.25344   6.36972   6.57590   6.58313   6.64649
 Alpha virt. eigenvalues --    6.72666   6.80200   6.84309   7.08423   7.10525
 Alpha virt. eigenvalues --    7.17894   7.49818   7.80707   9.79916   9.84866
 Alpha virt. eigenvalues --   10.48646  10.84665  11.31069  11.35089  12.00606
 Alpha virt. eigenvalues --   12.18560  13.23888  13.76454  15.35192
          Condensed to atoms (all electrons):
               1          2          3          4          5          6
     1  N    6.614083   0.601916  -0.053372   0.007288  -0.000012  -0.000812
     2  C    0.601916   4.419509   0.402098  -0.002363   0.001203  -0.011324
     3  C   -0.053372   0.402098   5.380960   0.360431  -0.035630  -0.021942
     4  C    0.007288  -0.002363   0.360431   4.669830   0.508766   0.304692
     5  F   -0.000012   0.001203  -0.035630   0.508766   8.642657  -0.058017
     6  C   -0.000812  -0.011324  -0.021942   0.304692  -0.058017   4.615515
     7  O   -0.000004  -0.000834   0.005462  -0.043809  -0.003194   0.372633
     8  N    0.000998  -0.053274  -0.028759  -0.005622   0.000739   0.550163
     9  O   -0.007862   0.321137  -0.027623  -0.016023   0.000001  -0.049796
    10  H    0.356523  -0.096758  -0.005749   0.002094  -0.000005  -0.000109
    11  H   -0.003400  -0.024653   0.346549  -0.013448  -0.002145   0.004137
    12  H    0.000000  -0.000096   0.001666   0.009192   0.018364  -0.076446
               7          8          9         10         11         12
     1  N   -0.000004   0.000998  -0.007862   0.356523  -0.003400   0.000000
     2  C   -0.000834  -0.053274   0.321137  -0.096758  -0.024653  -0.000096
     3  C    0.005462  -0.028759  -0.027623  -0.005749   0.346549   0.001666
     4  C   -0.043809  -0.005622  -0.016023   0.002094  -0.013448   0.009192
     5  F   -0.003194   0.000739   0.000001  -0.000005  -0.002145   0.018364
     6  C    0.372633   0.550163  -0.049796  -0.000109   0.004137  -0.076446
     7  O    7.763972  -0.010611   0.000793  -0.000000  -0.000063   0.323568
     8  N   -0.010611   6.447197   0.254075  -0.000219  -0.000162   0.003627
     9  O    0.000793   0.254075   7.778393   0.004083   0.001589  -0.000118
    10  H   -0.000000  -0.000219   0.004083   0.508592   0.002052   0.000000
    11  H   -0.000063  -0.000162   0.001589   0.002052   0.542417  -0.000025
    12  H    0.323568   0.003627  -0.000118   0.000000  -0.000025   0.393756
 Mulliken charges:
               1
     1  N   -0.515346
     2  C    0.443439
     3  C   -0.324090
     4  C    0.218971
     5  F   -0.072725
     6  C    0.371306
     7  O   -0.407914
     8  N   -0.158151
     9  O   -0.258650
    10  H    0.229495
    11  H    0.147153
    12  H    0.326512
 Sum of Mulliken charges =  -0.00000
 Mulliken charges with hydrogens summed into heavy atoms:
               1
     1  N   -0.285852
     2  C    0.443439
     3  C   -0.176937
     4  C    0.218971
     5  F   -0.072725
     6  C    0.371306
     7  O   -0.081402
     8  N   -0.158151
     9  O   -0.258650
 Electronic spatial extent (au):  <R**2>=           1062.4355
 Charge=             -0.0000 electrons
 Dipole moment (field-independent basis, Debye):
    X=              3.2477    Y=              4.4792    Z=              0.0063  Tot=              5.5327
 Quadrupole moment (field-independent basis, Debye-Ang):
   XX=            -52.7867   YY=            -51.1882   ZZ=            -48.6653
   XY=             -3.2222   XZ=              0.0053   YZ=              0.0112
 Traceless Quadrupole moment (field-independent basis, Debye-Ang):
   XX=             -1.9066   YY=             -0.3082   ZZ=              2.2148
   XY=             -3.2222   XZ=              0.0053   YZ=              0.0112
 Octapole moment (field-independent basis, Debye-Ang**2):
  XXX=             67.4300  YYY=             22.3867  ZZZ=             -0.0199  XYY=             -7.7532
  XXY=             19.8814  XXZ=              0.0477  XZZ=              7.0479  YZZ=              1.1166
  YYZ=              0.0138  XYZ=             -0.0039
 Hexadecapole moment (field-independent basis, Debye-Ang**3):
 XXXX=           -856.2824 YYYY=           -381.9026 ZZZZ=            -40.8033 XXXY=             -5.8656
 XXXZ=              0.1352 YYYX=              2.2778 YYYZ=              0.0152 ZZZX=              0.0186
 ZZZY=             -0.0202 XXYY=           -193.1157 XXZZ=           -145.6948 YYZZ=            -70.5009
 XXYZ=              0.0913 YYXZ=             -0.0486 ZZXY=              7.1282
 N-N= 4.395948115190D+02 E-N=-2.085193508539D+03  KE= 5.106647366915D+02
 PrsmSu:  requested number of processors reduced to:  13 ShMem   1 Linda.
 Calling FoFJK, ICntrl=      2127 FMM=F ISym2X=0 I1Cent= 0 IOpClX= 0 NMat=1 NMatS=1 NMatT=0.
 ***** Axes restored to original set *****
 -------------------------------------------------------------------
 Center     Atomic                   Forces (Hartrees/Bohr)
 Number     Number              X              Y              Z
 -------------------------------------------------------------------
      1        7           0.018669004   -0.010730205    0.000033083
      2        6          -0.041023491    0.019752462   -0.000006902
      3        6           0.002460390   -0.000782726   -0.000064665
      4        6          -0.008539174    0.004091562   -0.000001488
      5        9          -0.001218368   -0.011778075    0.000061396
      6        6           0.018859314    0.019770772    0.000024434
      7        8           0.009610007   -0.016358905    0.000025010
      8        7          -0.005550481    0.000423785   -0.000016668
      9        8           0.015402324    0.003304322    0.000055737
     10        1           0.005743184   -0.003323763   -0.000025562
     11        1          -0.003030513    0.000532205   -0.000019829
     12        1          -0.011382198   -0.004901433   -0.000064546
 -------------------------------------------------------------------
 Cartesian Forces:  Max     0.041023491 RMS     0.011012675

 GradGradGradGradGradGradGradGradGradGradGradGradGradGradGradGradGradGrad
 Berny optimization.
 FormGI is forming the generalized inverse of G from B-inverse, IUseBI=4.
 Internal  Forces:  Max     0.023516254 RMS     0.008149792
 Search for a local minimum.
 Step number   1 out of a maximum of   59
 All quantities printed in internal units (Hartrees-Bohrs-Radians)
 Mixed Optimization -- RFO/linear search
 Second derivative matrix not updated -- first step.
 ITU=  0
     Eigenvalues ---    0.01632   0.01761   0.02018   0.02069   0.02236
     Eigenvalues ---    0.02391   0.02394   0.02697   0.03138   0.16000
     Eigenvalues ---    0.16000   0.16000   0.23459   0.25000   0.25000
     Eigenvalues ---    0.25000   0.25000   0.25000   0.36055   0.36109
     Eigenvalues ---    0.37669   0.41286   0.44039   0.51070   0.53161
     Eigenvalues ---    0.55686   0.56247   0.59150   0.69766   0.69845
 RFO step:  Lambda=-1.08512682D-02 EMin= 1.63234424D-02
 Linear search not attempted -- first point.
 Iteration  1 RMS(Cart)=  0.04777915 RMS(Int)=  0.00133596
 Iteration  2 RMS(Cart)=  0.00193553 RMS(Int)=  0.00004492
 Iteration  3 RMS(Cart)=  0.00000074 RMS(Int)=  0.00004492
 Variable       Old X    -DE/DX   Delta X   Delta X   Delta X     New X
                                 (Linear)    (Quad)   (Total)
    R1        2.43906  -0.02347   0.00000  -0.03309  -0.03309   2.40597
    R2        1.93108  -0.00549   0.00000  -0.01216  -0.01216   1.91892
    R3        2.75833   0.00036   0.00000   0.00215   0.00218   2.76051
    R4        2.57320   0.00436   0.00000   0.00787   0.00794   2.58114
    R5        2.50256   0.01021   0.00000   0.01744   0.01739   2.51996
    R6        2.03911   0.00205   0.00000   0.00552   0.00552   2.04463
    R7        2.54041  -0.01048   0.00000  -0.01828  -0.01828   2.52213
    R8        2.73671   0.00652   0.00000   0.01673   0.01666   2.75337
    R9        2.54528  -0.00310   0.00000  -0.00546  -0.00546   2.53982
   R10        2.42445  -0.00539   0.00000  -0.00797  -0.00800   2.41646
   R11        1.83504  -0.00846   0.00000  -0.01560  -0.01560   1.81944
   R12        2.68625  -0.00846   0.00000  -0.02092  -0.02087   2.66538
    A1        1.95625  -0.00721   0.00000  -0.04218  -0.04218   1.91407
    A2        2.13209   0.02080   0.00000   0.07881   0.07877   2.21085
    A3        2.05390  -0.00997   0.00000  -0.03916  -0.03920   2.01470
    A4        2.09720  -0.01082   0.00000  -0.03966  -0.03957   2.05764
    A5        2.06871  -0.00283   0.00000  -0.00674  -0.00677   2.06194
    A6        2.08652  -0.00092   0.00000  -0.01030  -0.01029   2.07623
    A7        2.12795   0.00375   0.00000   0.01704   0.01706   2.14501
    A8        2.15809   0.00304   0.00000   0.00985   0.00992   2.16801
    A9        2.05364   0.00793   0.00000   0.03398   0.03385   2.08749
   A10        2.07146  -0.01097   0.00000  -0.04383  -0.04377   2.02769
   A11        1.99106   0.02352   0.00000   0.09055   0.09060   2.08166
   A12        2.20294  -0.00992   0.00000  -0.03883  -0.03893   2.16401
   A13        2.08918  -0.01359   0.00000  -0.05171  -0.05166   2.03752
   A14        1.97836  -0.01661   0.00000  -0.09724  -0.09724   1.88111
   A15        2.03445   0.00231   0.00000   0.00348   0.00350   2.03794
   A16        2.10941   0.01333   0.00000   0.04777   0.04793   2.15734
    D1       -0.00065   0.00002   0.00000   0.00056   0.00057  -0.00008
    D2       -3.14116   0.00002   0.00000   0.00048   0.00048  -3.14068
    D3        3.14150  -0.00000   0.00000  -0.00039  -0.00038   3.14111
    D4       -0.00095   0.00001   0.00000   0.00006   0.00006  -0.00089
    D5       -0.00120  -0.00000   0.00000  -0.00030  -0.00029  -0.00149
    D6        3.13954   0.00001   0.00000   0.00015   0.00015   3.13968
    D7       -3.13772   0.00001   0.00000  -0.00035  -0.00034  -3.13807
    D8        0.00492  -0.00002   0.00000  -0.00051  -0.00050   0.00443
    D9        3.14020   0.00003   0.00000   0.00063   0.00063   3.14082
   D10       -0.00272   0.00004   0.00000   0.00110   0.00110  -0.00161
   D11       -0.00052   0.00002   0.00000   0.00019   0.00018  -0.00034
   D12        3.13975   0.00003   0.00000   0.00065   0.00066   3.14041
   D13       -3.13745  -0.00006   0.00000  -0.00177  -0.00178  -3.13923
   D14        0.00339  -0.00004   0.00000  -0.00118  -0.00118   0.00221
   D15        0.00289  -0.00003   0.00000  -0.00129  -0.00130   0.00159
   D16       -3.13945  -0.00001   0.00000  -0.00070  -0.00070  -3.14016
   D17        0.00042  -0.00001   0.00000  -0.00024  -0.00023   0.00018
   D18       -3.14048  -0.00003   0.00000  -0.00079  -0.00079  -3.14127
   D19        0.00020  -0.00000   0.00000   0.00030   0.00031   0.00051
   D20        3.14101   0.00003   0.00000   0.00098   0.00095  -3.14123
   D21       -0.00436   0.00000   0.00000   0.00045   0.00044  -0.00392
         Item               Value     Threshold  Converged?
 Maximum Force            0.023516     0.000450     NO 
 RMS     Force            0.008150     0.000300     NO 
 Maximum Displacement     0.136837     0.001800     NO 
 RMS     Displacement     0.047357     0.001200     NO 
 Predicted change in Energy=-5.653244D-03
 GradGradGradGradGradGradGradGradGradGradGradGradGradGradGradGradGradGrad

                          Input orientation:                          
 ---------------------------------------------------------------------
 Center     Atomic      Atomic             Coordinates (Angstroms)
 Number     Number       Type             X           Y           Z
 ---------------------------------------------------------------------
      1          7           0        0.988874   -0.219159   -0.044639
      2          6           0        2.250200   -0.045807   -0.043997
      3          6           0        2.954993    1.233722   -0.044040
      4          6           0        4.288395    1.217284   -0.042732
      5          9           0        5.052469    2.311581   -0.043462
      6          6           0        4.992496   -0.058307   -0.039277
      7          8           0        6.336477   -0.067037   -0.035206
      8          7           0        4.409708   -1.196516   -0.039692
      9          8           0        2.999283   -1.187954   -0.044419
     10          1           0        0.520093    0.681609   -0.045126
     11          1           0        2.378535    2.149341   -0.045517
     12          1           0        6.636428    0.847853   -0.035083
 ---------------------------------------------------------------------
                    Distance matrix (angstroms):
                    1          2          3          4          5
     1  N    0.000000
     2  C    1.273183   0.000000
     3  C    2.444686   1.460797   0.000000
     4  C    3.598640   2.397841   1.333504   0.000000
     5  F    4.787218   3.661966   2.358217   1.334653   0.000000
     6  C    4.006856   2.742329   2.412630   1.457019   2.370651
     7  O    5.349775   4.086342   3.623050   2.417474   2.703067
     8  N    3.557718   2.446962   2.832361   2.416848   3.566497
     9  O    2.231660   1.365879   2.422081   2.728916   4.057379
    10  H    1.015450   1.876807   2.496712   3.806187   4.816560
    11  H    2.746079   2.198897   1.081972   2.125160   2.678853
    12  H    5.747476   4.476350   3.701614   2.376931   2.156733
                    6          7          8          9         10
     6  C    0.000000
     7  O    1.344015   0.000000
     8  N    1.278734   2.233424   0.000000
     9  O    2.291076   3.520427   1.410459   0.000000
    10  H    4.533200   5.864375   4.319316   3.105100   0.000000
    11  H    3.421483   4.536270   3.914135   3.394535   2.368131
    12  H    1.877141   0.962806   3.022871   4.168144   6.118603
                   11         12
    11  H    0.000000
    12  H    4.452374   0.000000
 Stoichiometry    C4H3FN2O2
 Framework group  C1[X(C4H3FN2O2)]
 Deg. of freedom    30
 Full point group                 C1      NOp   1
 Largest Abelian subgroup         C1      NOp   1
 Largest concise Abelian subgroup C1      NOp   1
                         Standard orientation:                         
 ---------------------------------------------------------------------
 Center     Atomic      Atomic             Coordinates (Angstroms)
 Number     Number       Type             X           Y           Z
 ---------------------------------------------------------------------
      1          7           0       -2.899654    0.235118    0.001638
      2          6           0       -1.635247    0.085897    0.000296
      3          6           0       -0.631492    1.147219    0.000430
      4          6           0        0.654978    0.796184   -0.000576
      5          9           0        1.669556    1.663322   -0.001433
      6          6           0        1.015887   -0.615428    0.000279
      7          8           0        2.314538   -0.961665    0.002025
      8          7           0        0.165739   -1.570628   -0.000370
      9          8           0       -1.197267   -1.207853   -0.002658
     10          1           0       -3.126997    1.224791    0.002937
     11          1           0       -0.959325    2.178330    0.000942
     12          1           0        2.834802   -0.151529    0.002626
 ---------------------------------------------------------------------
 Rotational constants (GHZ):           3.1604020           1.4302677           0.9846550
 Standard basis: 6-31G(2df,p) (6D, 7F)
 There are   294 symmetry adapted cartesian basis functions of A   symmetry.
 There are   267 symmetry adapted basis functions of A   symmetry.
   267 basis functions,   417 primitive gaussians,   294 cartesian basis functions
    33 alpha electrons       33 beta electrons
       nuclear repulsion energy       439.9112844436 Hartrees.
 NAtoms=   12 NActive=   12 NUniq=   12 SFac= 1.00D+00 NAtFMM=   60 NAOKFM=F Big=F
 Integral buffers will be    131072 words long.
 Raffenetti 2 integral format.
 Two-electron integral symmetry is turned on.
 One-electron integrals computed using PRISM.
 PrsmSu:  requested number of processors reduced to:  13 ShMem   1 Linda.
 NBasis=   267 RedAO= T EigKep=  2.15D-04  NBF=   267
 NBsUse=   267 1.00D-06 EigRej= -1.00D+00 NBFU=   267
 Initial guess from the checkpoint file:  "Ndc1ccpFpcpOpno1.chk"
 B after Tr=    -0.000000    0.000000   -0.000000
         Rot=    0.999965   -0.000045    0.000007   -0.008363 Ang=  -0.96 deg.
 ExpMin= 1.61D-01 ExpMax= 7.00D+03 ExpMxC= 1.05D+03 IAcc=2 IRadAn=         4 AccDes= 0.00D+00
 Harris functional with IExCor=  402 and IRadAn=       4 diagonalized for initial guess.
 HarFok:  IExCor=  402 AccDes= 0.00D+00 IRadAn=         4 IDoV= 1 UseB2=F ITyADJ=14
 ICtDFT=  3500011 ScaDFX=  1.000000  1.000000  1.000000  1.000000
 FoFCou: FMM=F IPFlag=           0 FMFlag=      100000 FMFlg1=           0
         NFxFlg=           0 DoJE=T BraDBF=F KetDBF=T FulRan=T
         wScrn=  0.000000 ICntrl=       500 IOpCl=  0 I1Cent=   200000004 NGrid=           0
         NMat0=    1 NMatS0=      1 NMatT0=    0 NMatD0=    1 NMtDS0=    0 NMtDT0=    0
 Petite list used in FoFCou.
 Requested convergence on RMS density matrix=1.00D-08 within 128 cycles.
 Requested convergence on MAX density matrix=1.00D-06.
 Requested convergence on             energy=1.00D-06.
 No special actions if energy rises.
 Integral accuracy reduced to 1.0D-05 until final iterations.
 Initial convergence to 1.0D-05 achieved.  Increase integral accuracy.
 SCF Done:  E(RB3LYP) =  -513.950885637     A.U. after   13 cycles
            NFock= 13  Conv=0.74D-08     -V/T= 2.0062
 PrsmSu:  requested number of processors reduced to:  13 ShMem   1 Linda.
 Calling FoFJK, ICntrl=      2127 FMM=F ISym2X=0 I1Cent= 0 IOpClX= 0 NMat=1 NMatS=1 NMatT=0.
 ***** Axes restored to original set *****
 -------------------------------------------------------------------
 Center     Atomic                   Forces (Hartrees/Bohr)
 Number     Number              X              Y              Z
 -------------------------------------------------------------------
      1        7           0.003733123   -0.000887666    0.000018188
      2        6          -0.010361623    0.007248319   -0.000024070
      3        6           0.003875825   -0.002018809   -0.000027195
      4        6          -0.002563982   -0.002610664    0.000039576
      5        9           0.000230961   -0.001660494    0.000025817
      6        6           0.002888361    0.004768815   -0.000025669
      7        8           0.000629630    0.001045136   -0.000002520
      8        7          -0.014225350   -0.003227080   -0.000063098
      9        8           0.014865663   -0.006240310    0.000075052
     10        1          -0.002280586    0.001024145   -0.000007879
     11        1           0.000557444    0.000467443   -0.000010230
     12        1           0.002650535    0.002091164    0.000002029
 -------------------------------------------------------------------
 Cartesian Forces:  Max     0.014865663 RMS     0.004513536

 GradGradGradGradGradGradGradGradGradGradGradGradGradGradGradGradGradGrad
 Berny optimization.
 Using GEDIIS/GDIIS optimizer.
 FormGI is forming the generalized inverse of G from B-inverse, IUseBI=4.
 Internal  Forces:  Max     0.008548639 RMS     0.002511767
 Search for a local minimum.
 Step number   2 out of a maximum of   59
 All quantities printed in internal units (Hartrees-Bohrs-Radians)
 Mixed Optimization -- RFO/linear search
 Update second derivatives using D2CorX and points    1    2
 DE= -5.49D-03 DEPred=-5.65D-03 R= 9.71D-01
 TightC=F SS=  1.41D+00  RLast= 2.05D-01 DXNew= 5.0454D-01 6.1399D-01
 Trust test= 9.71D-01 RLast= 2.05D-01 DXMaxT set to 5.05D-01
 ITU=  1  0
 Use linear search instead of GDIIS.
     Eigenvalues ---    0.01639   0.01748   0.02018   0.02049   0.02241
     Eigenvalues ---    0.02394   0.02399   0.02698   0.03138   0.15945
     Eigenvalues ---    0.16000   0.17324   0.20791   0.23559   0.25000
     Eigenvalues ---    0.25000   0.25000   0.27082   0.36089   0.36141
     Eigenvalues ---    0.38033   0.41116   0.44327   0.50922   0.53786
     Eigenvalues ---    0.55783   0.56444   0.59913   0.68790   0.72014
 RFO step:  Lambda=-8.61739426D-04 EMin= 1.63908737D-02
 Quartic linear search produced a step of  0.01035.
 Iteration  1 RMS(Cart)=  0.01356321 RMS(Int)=  0.00010442
 Iteration  2 RMS(Cart)=  0.00009574 RMS(Int)=  0.00000874
 Iteration  3 RMS(Cart)=  0.00000000 RMS(Int)=  0.00000874
 Variable       Old X    -DE/DX   Delta X   Delta X   Delta X     New X
                                 (Linear)    (Quad)   (Total)
    R1        2.40597  -0.00146  -0.00034  -0.00443  -0.00477   2.40120
    R2        1.91892   0.00196  -0.00013   0.00364   0.00351   1.92244
    R3        2.76051   0.00001   0.00002   0.00018   0.00021   2.76072
    R4        2.58114   0.00845   0.00008   0.01706   0.01714   2.59828
    R5        2.51996  -0.00184   0.00018  -0.00209  -0.00190   2.51806
    R6        2.04463   0.00010   0.00006   0.00066   0.00072   2.04535
    R7        2.52213  -0.00123  -0.00019  -0.00348  -0.00367   2.51845
    R8        2.75337  -0.00362   0.00017  -0.00870  -0.00853   2.74483
    R9        2.53982   0.00326  -0.00006   0.00552   0.00547   2.54529
   R10        2.41646   0.00571  -0.00008   0.00741   0.00731   2.42377
   R11        1.81944   0.00281  -0.00016   0.00424   0.00408   1.82352
   R12        2.66538  -0.00855  -0.00022  -0.02150  -0.02173   2.64365
    A1        1.91407   0.00298  -0.00044   0.01576   0.01532   1.92939
    A2        2.21085   0.00342   0.00081   0.01904   0.01985   2.23070
    A3        2.01470   0.00030  -0.00041  -0.00176  -0.00218   2.01252
    A4        2.05764  -0.00372  -0.00041  -0.01728  -0.01767   2.03997
    A5        2.06194   0.00117  -0.00007   0.00391   0.00387   2.06581
    A6        2.07623   0.00015  -0.00011   0.00172   0.00160   2.07783
    A7        2.14501  -0.00132   0.00018  -0.00563  -0.00547   2.13954
    A8        2.16801   0.00022   0.00010   0.00229   0.00238   2.17039
    A9        2.08749   0.00243   0.00035   0.01074   0.01110   2.09859
   A10        2.02769  -0.00265  -0.00045  -0.01303  -0.01349   2.01421
   A11        2.08166  -0.00089   0.00094   0.00310   0.00404   2.08570
   A12        2.16401  -0.00284  -0.00040  -0.01491  -0.01533   2.14868
   A13        2.03752   0.00373  -0.00053   0.01181   0.01128   2.04880
   A14        1.88111   0.00340  -0.00101   0.01460   0.01359   1.89470
   A15        2.03794   0.00178   0.00004   0.00797   0.00797   2.04591
   A16        2.15734   0.00118   0.00050   0.00958   0.01007   2.16741
    D1       -0.00008   0.00001   0.00001   0.00052   0.00053   0.00045
    D2       -3.14068   0.00000   0.00000  -0.00009  -0.00009  -3.14077
    D3        3.14111  -0.00001  -0.00000  -0.00081  -0.00082   3.14030
    D4       -0.00089  -0.00000   0.00000  -0.00019  -0.00019  -0.00108
    D5       -0.00149  -0.00000  -0.00000  -0.00018  -0.00019  -0.00168
    D6        3.13968   0.00001   0.00000   0.00044   0.00044   3.14013
    D7       -3.13807  -0.00001  -0.00000  -0.00049  -0.00050  -3.13857
    D8        0.00443  -0.00002  -0.00001  -0.00106  -0.00107   0.00336
    D9        3.14082   0.00002   0.00001   0.00080   0.00081  -3.14156
   D10       -0.00161   0.00003   0.00001   0.00122   0.00124  -0.00038
   D11       -0.00034   0.00001   0.00000   0.00015   0.00015  -0.00019
   D12        3.14041   0.00001   0.00001   0.00057   0.00058   3.14100
   D13       -3.13923  -0.00002  -0.00002  -0.00110  -0.00112  -3.14035
   D14        0.00221  -0.00002  -0.00001  -0.00115  -0.00116   0.00105
   D15        0.00159  -0.00001  -0.00001  -0.00070  -0.00072   0.00087
   D16       -3.14016  -0.00001  -0.00001  -0.00075  -0.00076  -3.14092
   D17        0.00018  -0.00001  -0.00000  -0.00021  -0.00021  -0.00002
   D18       -3.14127  -0.00000  -0.00001  -0.00016  -0.00016  -3.14143
   D19        0.00051  -0.00000   0.00000  -0.00006  -0.00006   0.00045
   D20       -3.14123  -0.00001   0.00001  -0.00011  -0.00010  -3.14133
   D21       -0.00392   0.00002   0.00000   0.00116   0.00116  -0.00276
         Item               Value     Threshold  Converged?
 Maximum Force            0.008549     0.000450     NO 
 RMS     Force            0.002512     0.000300     NO 
 Maximum Displacement     0.057633     0.001800     NO 
 RMS     Displacement     0.013551     0.001200     NO 
 Predicted change in Energy=-4.327766D-04
 GradGradGradGradGradGradGradGradGradGradGradGradGradGradGradGradGradGrad

                          Input orientation:                          
 ---------------------------------------------------------------------
 Center     Atomic      Atomic             Coordinates (Angstroms)
 Number     Number       Type             X           Y           Z
 ---------------------------------------------------------------------
      1          7           0        0.982486   -0.224142   -0.044518
      2          6           0        2.239404   -0.037775   -0.044072
      3          6           0        2.956031    1.235294   -0.044364
      4          6           0        4.288321    1.211725   -0.042267
      5          9           0        5.059723    2.298486   -0.042229
      6          6           0        4.997527   -0.055866   -0.039293
      7          8           0        6.344414   -0.062334   -0.035739
      8          7           0        4.402054   -1.191859   -0.039661
      9          8           0        3.003141   -1.181100   -0.043681
     10          1           0        0.489594    0.665788   -0.045569
     11          1           0        2.389328    2.157427   -0.046061
     12          1           0        6.655928    0.850967   -0.035736
 ---------------------------------------------------------------------
                    Distance matrix (angstroms):
                    1          2          3          4          5
     1  N    0.000000
     2  C    1.270660   0.000000
     3  C    2.454554   1.460910   0.000000
     4  C    3.604201   2.399857   1.332499   0.000000
     5  F    4.794531   3.662284   2.357096   1.332709   0.000000
     6  C    4.018570   2.758187   2.415538   1.452504   2.355175
     7  O    5.364377   4.105093   3.628368   2.418841   2.687740
     8  N    3.553864   2.451323   2.825256   2.406274   3.551766
     9  O    2.235803   1.374949   2.416853   2.716118   4.041912
    10  H    1.017309   1.885957   2.531334   3.837757   4.853019
    11  H    2.766058   2.200317   1.082352   2.121448   2.674121
    12  H    5.774416   4.505066   3.719814   2.394943   2.154814
                    6          7          8          9         10
     6  C    0.000000
     7  O    1.346908   0.000000
     8  N    1.282603   2.246910   0.000000
     9  O    2.289923   3.523608   1.398960   0.000000
    10  H    4.565334   5.899930   4.331077   3.119120   0.000000
    11  H    3.420733   4.535434   3.907534   3.394486   2.415362
    12  H    1.890146   0.964967   3.041891   4.179978   6.169121
                   11         12
    11  H    0.000000
    12  H    4.462154   0.000000
 Stoichiometry    C4H3FN2O2
 Framework group  C1[X(C4H3FN2O2)]
 Deg. of freedom    30
 Full point group                 C1      NOp   1
 Largest Abelian subgroup         C1      NOp   1
 Largest concise Abelian subgroup C1      NOp   1
                         Standard orientation:                         
 ---------------------------------------------------------------------
 Center     Atomic      Atomic             Coordinates (Angstroms)
 Number     Number       Type             X           Y           Z
 ---------------------------------------------------------------------
      1          7           0       -2.908261    0.223341    0.001566
      2          6           0       -1.644455    0.091556    0.000060
      3          6           0       -0.633981    1.146639   -0.000261
      4          6           0        0.650672    0.792772   -0.000439
      5          9           0        1.667912    1.653781   -0.000696
      6          6           0        1.022680   -0.611285    0.000158
      7          8           0        2.325724   -0.952217    0.001430
      8          7           0        0.163619   -1.563695   -0.000258
      9          8           0       -1.188754   -1.205679   -0.001903
     10          1           0       -3.164573    1.207831    0.002175
     11          1           0       -0.953790    2.180664   -0.000144
     12          1           0        2.854398   -0.144960    0.001754
 ---------------------------------------------------------------------
 Rotational constants (GHZ):           3.1904394           1.4225488           0.9838652
 Standard basis: 6-31G(2df,p) (6D, 7F)
 There are   294 symmetry adapted cartesian basis functions of A   symmetry.
 There are   267 symmetry adapted basis functions of A   symmetry.
   267 basis functions,   417 primitive gaussians,   294 cartesian basis functions
    33 alpha electrons       33 beta electrons
       nuclear repulsion energy       439.9209599661 Hartrees.
 NAtoms=   12 NActive=   12 NUniq=   12 SFac= 1.00D+00 NAtFMM=   60 NAOKFM=F Big=F
 Integral buffers will be    131072 words long.
 Raffenetti 2 integral format.
 Two-electron integral symmetry is turned on.
 One-electron integrals computed using PRISM.
 PrsmSu:  requested number of processors reduced to:  13 ShMem   1 Linda.
 NBasis=   267 RedAO= T EigKep=  2.16D-04  NBF=   267
 NBsUse=   267 1.00D-06 EigRej= -1.00D+00 NBFU=   267
 Initial guess from the checkpoint file:  "Ndc1ccpFpcpOpno1.chk"
 B after Tr=     0.000000    0.000000    0.000000
         Rot=    0.999999    0.000000    0.000001   -0.001077 Ang=   0.12 deg.
 ExpMin= 1.61D-01 ExpMax= 7.00D+03 ExpMxC= 1.05D+03 IAcc=2 IRadAn=         4 AccDes= 0.00D+00
 Harris functional with IExCor=  402 and IRadAn=       4 diagonalized for initial guess.
 HarFok:  IExCor=  402 AccDes= 0.00D+00 IRadAn=         4 IDoV= 1 UseB2=F ITyADJ=14
 ICtDFT=  3500011 ScaDFX=  1.000000  1.000000  1.000000  1.000000
 FoFCou: FMM=F IPFlag=           0 FMFlag=      100000 FMFlg1=           0
         NFxFlg=           0 DoJE=T BraDBF=F KetDBF=T FulRan=T
         wScrn=  0.000000 ICntrl=       500 IOpCl=  0 I1Cent=   200000004 NGrid=           0
         NMat0=    1 NMatS0=      1 NMatT0=    0 NMatD0=    1 NMtDS0=    0 NMtDT0=    0
 Petite list used in FoFCou.
 Requested convergence on RMS density matrix=1.00D-08 within 128 cycles.
 Requested convergence on MAX density matrix=1.00D-06.
 Requested convergence on             energy=1.00D-06.
 No special actions if energy rises.
 Integral accuracy reduced to 1.0D-05 until final iterations.
 Initial convergence to 1.0D-05 achieved.  Increase integral accuracy.
 SCF Done:  E(RB3LYP) =  -513.951427961     A.U. after   11 cycles
            NFock= 11  Conv=0.99D-08     -V/T= 2.0063
 PrsmSu:  requested number of processors reduced to:  13 ShMem   1 Linda.
 Calling FoFJK, ICntrl=      2127 FMM=F ISym2X=0 I1Cent= 0 IOpClX= 0 NMat=1 NMatS=1 NMatT=0.
 ***** Axes restored to original set *****
 -------------------------------------------------------------------
 Center     Atomic                   Forces (Hartrees/Bohr)
 Number     Number              X              Y              Z
 -------------------------------------------------------------------
      1        7           0.001845161    0.000018040   -0.000007205
      2        6          -0.004249480    0.005168695   -0.000002564
      3        6           0.000232367   -0.000996733   -0.000006686
      4        6           0.000425772   -0.002362887    0.000013424
      5        9          -0.000045106    0.001706327    0.000002869
      6        6           0.000697047    0.001188733    0.000007330
      7        8          -0.001162815    0.000105870   -0.000007106
      8        7          -0.005876564   -0.000725173   -0.000043683
      9        8           0.007960808   -0.004541097    0.000048670
     10        1          -0.000228365   -0.000048956   -0.000000398
     11        1           0.000467735    0.000298043   -0.000003676
     12        1          -0.000066558    0.000189138   -0.000000975
 -------------------------------------------------------------------
 Cartesian Forces:  Max     0.007960808 RMS     0.002239973

 GradGradGradGradGradGradGradGradGradGradGradGradGradGradGradGradGradGrad
 Berny optimization.
 Using GEDIIS/GDIIS optimizer.
 FormGI is forming the generalized inverse of G from B-inverse, IUseBI=4.
 Internal  Forces:  Max     0.005179849 RMS     0.001182568
 Search for a local minimum.
 Step number   3 out of a maximum of   59
 All quantities printed in internal units (Hartrees-Bohrs-Radians)
 Mixed Optimization -- RFO/linear search
 Update second derivatives using D2CorX and points    1    2    3
 DE= -5.42D-04 DEPred=-4.33D-04 R= 1.25D+00
 TightC=F SS=  1.41D+00  RLast= 5.51D-02 DXNew= 8.4853D-01 1.6525D-01
 Trust test= 1.25D+00 RLast= 5.51D-02 DXMaxT set to 5.05D-01
 ITU=  1  1  0
 Use linear search instead of GDIIS.
     Eigenvalues ---    0.01639   0.01748   0.02019   0.02052   0.02246
     Eigenvalues ---    0.02394   0.02397   0.02700   0.03138   0.14569
     Eigenvalues ---    0.16023   0.17553   0.17983   0.23573   0.25000
     Eigenvalues ---    0.25000   0.26113   0.28004   0.35445   0.36131
     Eigenvalues ---    0.36964   0.38181   0.44353   0.47951   0.53552
     Eigenvalues ---    0.56278   0.59164   0.59728   0.68245   0.72133
 RFO step:  Lambda=-1.82377693D-04 EMin= 1.63948866D-02
 Quartic linear search produced a step of  0.35032.
 Iteration  1 RMS(Cart)=  0.00574066 RMS(Int)=  0.00002782
 Iteration  2 RMS(Cart)=  0.00002694 RMS(Int)=  0.00000565
 Iteration  3 RMS(Cart)=  0.00000000 RMS(Int)=  0.00000565
 Variable       Old X    -DE/DX   Delta X   Delta X   Delta X     New X
                                 (Linear)    (Quad)   (Total)
    R1        2.40120  -0.00159  -0.00167  -0.00375  -0.00542   2.39578
    R2        1.92244   0.00007   0.00123  -0.00074   0.00049   1.92292
    R3        2.76072  -0.00087   0.00007  -0.00288  -0.00279   2.75793
    R4        2.59828   0.00506   0.00600   0.01125   0.01725   2.61553
    R5        2.51806  -0.00085  -0.00067  -0.00102  -0.00168   2.51638
    R6        2.04535   0.00001   0.00025   0.00015   0.00041   2.04575
    R7        2.51845   0.00137  -0.00129   0.00306   0.00177   2.52022
    R8        2.74483  -0.00099  -0.00299  -0.00202  -0.00500   2.73983
    R9        2.54529  -0.00123   0.00191  -0.00394  -0.00203   2.54326
   R10        2.42377   0.00125   0.00256   0.00090   0.00346   2.42722
   R11        1.82352   0.00016   0.00143  -0.00076   0.00067   1.82419
   R12        2.64365  -0.00518  -0.00761  -0.01435  -0.02197   2.62168
    A1        1.92939   0.00043   0.00537  -0.00007   0.00529   1.93469
    A2        2.23070   0.00080   0.00695   0.00429   0.01124   2.24194
    A3        2.01252  -0.00028  -0.00076  -0.00318  -0.00395   2.00857
    A4        2.03997  -0.00052  -0.00619  -0.00111  -0.00729   2.03268
    A5        2.06581   0.00008   0.00135  -0.00017   0.00120   2.06701
    A6        2.07783   0.00053   0.00056   0.00386   0.00441   2.08225
    A7        2.13954  -0.00061  -0.00192  -0.00369  -0.00562   2.13392
    A8        2.17039  -0.00128   0.00084  -0.00648  -0.00565   2.16474
    A9        2.09859  -0.00002   0.00389  -0.00101   0.00289   2.10147
   A10        2.01421   0.00130  -0.00472   0.00749   0.00276   2.01697
   A11        2.08570  -0.00067   0.00142  -0.00015   0.00127   2.08697
   A12        2.14868   0.00037  -0.00537   0.00165  -0.00373   2.14495
   A13        2.04880   0.00030   0.00395  -0.00150   0.00246   2.05126
   A14        1.89470  -0.00023   0.00476  -0.00753  -0.00277   1.89193
   A15        2.04591   0.00041   0.00279   0.00089   0.00366   2.04958
   A16        2.16741  -0.00033   0.00353  -0.00024   0.00327   2.17068
    D1        0.00045  -0.00000   0.00018  -0.00005   0.00013   0.00058
    D2       -3.14077   0.00000  -0.00003   0.00006   0.00003  -3.14074
    D3        3.14030   0.00000  -0.00029   0.00016  -0.00013   3.14017
    D4       -0.00108   0.00000  -0.00007   0.00024   0.00017  -0.00091
    D5       -0.00168  -0.00000  -0.00006   0.00005  -0.00002  -0.00170
    D6        3.14013   0.00000   0.00016   0.00012   0.00028   3.14041
    D7       -3.13857  -0.00001  -0.00017  -0.00082  -0.00099  -3.13956
    D8        0.00336  -0.00001  -0.00037  -0.00072  -0.00109   0.00227
    D9       -3.14156   0.00000   0.00028   0.00013   0.00041  -3.14115
   D10       -0.00038   0.00001   0.00043   0.00043   0.00086   0.00049
   D11       -0.00019   0.00000   0.00005   0.00005   0.00010  -0.00008
   D12        3.14100   0.00001   0.00020   0.00035   0.00056   3.14155
   D13       -3.14035  -0.00001  -0.00039  -0.00058  -0.00097  -3.14132
   D14        0.00105  -0.00000  -0.00041  -0.00028  -0.00069   0.00036
   D15        0.00087  -0.00000  -0.00025  -0.00030  -0.00055   0.00032
   D16       -3.14092   0.00000  -0.00027  -0.00001  -0.00027  -3.14119
   D17       -0.00002   0.00000  -0.00007   0.00011   0.00004   0.00002
   D18       -3.14143  -0.00000  -0.00006  -0.00017  -0.00022   3.14153
   D19        0.00045  -0.00000  -0.00002  -0.00035  -0.00037   0.00008
   D20       -3.14133  -0.00000  -0.00004  -0.00006  -0.00010  -3.14143
   D21       -0.00276   0.00001   0.00041   0.00088   0.00128  -0.00148
         Item               Value     Threshold  Converged?
 Maximum Force            0.005180     0.000450     NO 
 RMS     Force            0.001183     0.000300     NO 
 Maximum Displacement     0.018597     0.001800     NO 
 RMS     Displacement     0.005735     0.001200     NO 
 Predicted change in Energy=-1.298202D-04
 GradGradGradGradGradGradGradGradGradGradGradGradGradGradGradGradGradGrad

                          Input orientation:                          
 ---------------------------------------------------------------------
 Center     Atomic      Atomic             Coordinates (Angstroms)
 Number     Number       Type             X           Y           Z
 ---------------------------------------------------------------------
      1          7           0        0.984417   -0.226990   -0.044634
      2          6           0        2.237130   -0.032023   -0.043932
      3          6           0        2.958166    1.236854   -0.044393
      4          6           0        4.289495    1.209523   -0.041807
      5          9           0        5.058376    2.299216   -0.041425
      6          6           0        4.997470   -0.055723   -0.039228
      7          8           0        6.343279   -0.063831   -0.036309
      8          7           0        4.396964   -1.191133   -0.039679
      9          8           0        3.009673   -1.180436   -0.042892
     10          1           0        0.480323    0.656938   -0.046188
     11          1           0        2.399168    2.163929   -0.046324
     12          1           0        6.653489    0.850286   -0.036378
 ---------------------------------------------------------------------
                    Distance matrix (angstroms):
                    1          2          3          4          5
     1  N    0.000000
     2  C    1.267794   0.000000
     3  C    2.457340   1.459432   0.000000
     4  C    3.603764   2.398675   1.331612   0.000000
     5  F    4.793628   3.659797   2.353616   1.333645   0.000000
     6  C    4.016710   2.760446   2.414445   1.449856   2.355727
     7  O    5.361351   4.106279   3.626408   2.416503   2.689794
     8  N    3.546135   2.451211   2.822283   2.403061   3.552465
     9  O    2.238465   1.384079   2.417838   2.711060   4.037965
    10  H    1.017566   1.887073   2.544801   3.849047   4.863710
    11  H    2.778132   2.201924   1.082567   2.117604   2.662652
    12  H    5.770526   4.503638   3.715496   2.391140   2.154949
                    6          7          8          9         10
     6  C    0.000000
     7  O    1.345836   0.000000
     8  N    1.284432   2.249214   0.000000
     9  O    2.283928   3.515647   1.387335   0.000000
    10  H    4.573025   5.907102   4.330760   3.126270   0.000000
    11  H    3.417320   4.529793   3.904827   3.399633   2.439875
    12  H    1.887660   0.965319   3.042912   4.171483   6.176201
                   11         12
    11  H    0.000000
    12  H    4.452527   0.000000
 Stoichiometry    C4H3FN2O2
 Framework group  C1[X(C4H3FN2O2)]
 Deg. of freedom    30
 Full point group                 C1      NOp   1
 Largest Abelian subgroup         C1      NOp   1
 Largest concise Abelian subgroup C1      NOp   1
                         Standard orientation:                         
 ---------------------------------------------------------------------
 Center     Atomic      Atomic             Coordinates (Angstroms)
 Number     Number       Type             X           Y           Z
 ---------------------------------------------------------------------
      1          7           0       -2.907274    0.220812    0.001226
      2          6           0       -1.645441    0.098028    0.000021
      3          6           0       -0.631428    1.147656   -0.000588
      4          6           0        0.651255    0.790005   -0.000221
      5          9           0        1.667037    1.654179   -0.000213
      6          6           0        1.022239   -0.611585    0.000150
      7          8           0        2.323728   -0.954220    0.000841
      8          7           0        0.158166   -1.561924   -0.000243
      9          8           0       -1.182857   -1.206461   -0.001157
     10          1           0       -3.175640    1.202352    0.001231
     11          1           0       -0.942238    2.184646   -0.000835
     12          1           0        2.851581   -0.146005    0.001011
 ---------------------------------------------------------------------
 Rotational constants (GHZ):           3.1899736           1.4245650           0.9847845
 Standard basis: 6-31G(2df,p) (6D, 7F)
 There are   294 symmetry adapted cartesian basis functions of A   symmetry.
 There are   267 symmetry adapted basis functions of A   symmetry.
   267 basis functions,   417 primitive gaussians,   294 cartesian basis functions
    33 alpha electrons       33 beta electrons
       nuclear repulsion energy       440.1276295962 Hartrees.
 NAtoms=   12 NActive=   12 NUniq=   12 SFac= 1.00D+00 NAtFMM=   60 NAOKFM=F Big=F
 Integral buffers will be    131072 words long.
 Raffenetti 2 integral format.
 Two-electron integral symmetry is turned on.
 One-electron integrals computed using PRISM.
 PrsmSu:  requested number of processors reduced to:  13 ShMem   1 Linda.
 NBasis=   267 RedAO= T EigKep=  2.16D-04  NBF=   267
 NBsUse=   267 1.00D-06 EigRej= -1.00D+00 NBFU=   267
 Initial guess from the checkpoint file:  "Ndc1ccpFpcpOpno1.chk"
 B after Tr=    -0.000000   -0.000000    0.000000
         Rot=    1.000000   -0.000001    0.000001    0.000151 Ang=  -0.02 deg.
 Requested convergence on RMS density matrix=1.00D-08 within 128 cycles.
 Requested convergence on MAX density matrix=1.00D-06.
 Requested convergence on             energy=1.00D-06.
 No special actions if energy rises.
 SCF Done:  E(RB3LYP) =  -513.951572574     A.U. after   10 cycles
            NFock= 10  Conv=0.90D-08     -V/T= 2.0062
 PrsmSu:  requested number of processors reduced to:  13 ShMem   1 Linda.
 Calling FoFJK, ICntrl=      2127 FMM=F ISym2X=0 I1Cent= 0 IOpClX= 0 NMat=1 NMatS=1 NMatT=0.
 ***** Axes restored to original set *****
 -------------------------------------------------------------------
 Center     Atomic                   Forces (Hartrees/Bohr)
 Number     Number              X              Y              Z
 -------------------------------------------------------------------
      1        7          -0.000659050    0.000116926   -0.000015334
      2        6           0.000398129    0.001824958   -0.000022795
      3        6          -0.001399391   -0.000377103    0.000013847
      4        6           0.001360439   -0.000954942   -0.000005745
      5        9           0.000036896    0.001041695   -0.000003871
      6        6          -0.000507011   -0.000951808    0.000003271
      7        8          -0.000039589    0.000520314    0.000001224
      8        7          -0.000340179    0.001086849   -0.000013030
      9        8           0.000722183   -0.001903054    0.000027686
     10        1           0.000168003   -0.000182759    0.000011068
     11        1           0.000117399    0.000022047    0.000002241
     12        1           0.000142172   -0.000243122    0.000001439
 -------------------------------------------------------------------
 Cartesian Forces:  Max     0.001903054 RMS     0.000685553

 GradGradGradGradGradGradGradGradGradGradGradGradGradGradGradGradGradGrad
 Berny optimization.
 Using GEDIIS/GDIIS optimizer.
 FormGI is forming the generalized inverse of G from B-inverse, IUseBI=4.
 Internal  Forces:  Max     0.001375913 RMS     0.000375318
 Search for a local minimum.
 Step number   4 out of a maximum of   59
 All quantities printed in internal units (Hartrees-Bohrs-Radians)
 Mixed Optimization -- En-DIIS/RFO-DIIS
 Update second derivatives using D2CorX and points    1    2    3    4
 DE= -1.45D-04 DEPred=-1.30D-04 R= 1.11D+00
 TightC=F SS=  1.41D+00  RLast= 3.53D-02 DXNew= 8.4853D-01 1.0604D-01
 Trust test= 1.11D+00 RLast= 3.53D-02 DXMaxT set to 5.05D-01
 ITU=  1  1  1  0
 Use linear search instead of GDIIS.
     Eigenvalues ---    0.01639   0.01747   0.02019   0.02053   0.02244
     Eigenvalues ---    0.02394   0.02395   0.02700   0.03138   0.14074
     Eigenvalues ---    0.16063   0.17000   0.17824   0.23639   0.25000
     Eigenvalues ---    0.25309   0.26103   0.28634   0.33151   0.36118
     Eigenvalues ---    0.36364   0.38311   0.44464   0.46846   0.53611
     Eigenvalues ---    0.56327   0.58820   0.60998   0.69578   0.72869
 RFO step:  Lambda=-1.72958186D-05 EMin= 1.63919207D-02
 Quartic linear search produced a step of  0.12262.
 Iteration  1 RMS(Cart)=  0.00145418 RMS(Int)=  0.00000209
 Iteration  2 RMS(Cart)=  0.00000226 RMS(Int)=  0.00000023
 Iteration  3 RMS(Cart)=  0.00000000 RMS(Int)=  0.00000023
 Variable       Old X    -DE/DX   Delta X   Delta X   Delta X     New X
                                 (Linear)    (Quad)   (Total)
    R1        2.39578   0.00050  -0.00066   0.00087   0.00020   2.39599
    R2        1.92292  -0.00024   0.00006  -0.00056  -0.00050   1.92242
    R3        2.75793  -0.00054  -0.00034  -0.00125  -0.00159   2.75634
    R4        2.61553   0.00138   0.00212   0.00228   0.00440   2.61993
    R5        2.51638   0.00091  -0.00021   0.00177   0.00157   2.51795
    R6        2.04575  -0.00004   0.00005  -0.00011  -0.00006   2.04570
    R7        2.52022   0.00087   0.00022   0.00136   0.00158   2.52181
    R8        2.73983  -0.00011  -0.00061  -0.00027  -0.00088   2.73895
    R9        2.54326   0.00010  -0.00025   0.00050   0.00025   2.54352
   R10        2.42722  -0.00043   0.00042  -0.00075  -0.00032   2.42690
   R11        1.82419  -0.00018   0.00008  -0.00035  -0.00027   1.82392
   R12        2.62168  -0.00026  -0.00269   0.00004  -0.00265   2.61903
    A1        1.93469  -0.00011   0.00065  -0.00078  -0.00013   1.93455
    A2        2.24194  -0.00016   0.00138  -0.00063   0.00075   2.24268
    A3        2.00857  -0.00003  -0.00048  -0.00024  -0.00072   2.00785
    A4        2.03268   0.00018  -0.00089   0.00087  -0.00002   2.03265
    A5        2.06701   0.00008   0.00015   0.00069   0.00084   2.06785
    A6        2.08225   0.00007   0.00054   0.00012   0.00067   2.08291
    A7        2.13392  -0.00016  -0.00069  -0.00082  -0.00151   2.13242
    A8        2.16474  -0.00059  -0.00069  -0.00200  -0.00269   2.16205
    A9        2.10147  -0.00026   0.00035  -0.00089  -0.00053   2.10094
   A10        2.01697   0.00085   0.00034   0.00288   0.00322   2.02019
   A11        2.08697  -0.00019   0.00016  -0.00022  -0.00006   2.08691
   A12        2.14495   0.00005  -0.00046  -0.00050  -0.00096   2.14399
   A13        2.05126   0.00013   0.00030   0.00072   0.00102   2.05228
   A14        1.89193   0.00039  -0.00034   0.00283   0.00249   1.89442
   A15        2.04958   0.00070   0.00045   0.00268   0.00313   2.05270
   A16        2.17068  -0.00076   0.00040  -0.00286  -0.00246   2.16822
    D1        0.00058  -0.00001   0.00002  -0.00014  -0.00013   0.00045
    D2       -3.14074  -0.00001   0.00000  -0.00051  -0.00050  -3.14124
    D3        3.14017   0.00000  -0.00002   0.00010   0.00009   3.14026
    D4       -0.00091  -0.00000   0.00002  -0.00010  -0.00008  -0.00099
    D5       -0.00170   0.00001  -0.00000   0.00047   0.00047  -0.00123
    D6        3.14041   0.00000   0.00003   0.00027   0.00030   3.14071
    D7       -3.13956  -0.00000  -0.00012  -0.00016  -0.00028  -3.13984
    D8        0.00227  -0.00001  -0.00013  -0.00047  -0.00061   0.00166
    D9       -3.14115  -0.00000   0.00005  -0.00020  -0.00015  -3.14130
   D10        0.00049  -0.00001   0.00011  -0.00028  -0.00017   0.00031
   D11       -0.00008   0.00000   0.00001   0.00001   0.00002  -0.00006
   D12        3.14155  -0.00000   0.00007  -0.00007  -0.00000   3.14155
   D13       -3.14132   0.00000  -0.00012   0.00013   0.00002  -3.14130
   D14        0.00036   0.00000  -0.00008   0.00005  -0.00004   0.00033
   D15        0.00032   0.00000  -0.00007   0.00006  -0.00001   0.00031
   D16       -3.14119   0.00000  -0.00003  -0.00002  -0.00006  -3.14125
   D17        0.00002   0.00000   0.00001  -0.00001  -0.00000   0.00001
   D18        3.14153   0.00000  -0.00003   0.00007   0.00004   3.14157
   D19        0.00008  -0.00000  -0.00005  -0.00002  -0.00006   0.00002
   D20       -3.14143  -0.00000  -0.00001  -0.00010  -0.00011  -3.14154
   D21       -0.00148   0.00001   0.00016   0.00025   0.00041  -0.00107
         Item               Value     Threshold  Converged?
 Maximum Force            0.001376     0.000450     NO 
 RMS     Force            0.000375     0.000300     NO 
 Maximum Displacement     0.005158     0.001800     NO 
 RMS     Displacement     0.001454     0.001200     NO 
 Predicted change in Energy=-1.041667D-05
 GradGradGradGradGradGradGradGradGradGradGradGradGradGradGradGradGradGrad

                          Input orientation:                          
 ---------------------------------------------------------------------
 Center     Atomic      Atomic             Coordinates (Angstroms)
 Number     Number       Type             X           Y           Z
 ---------------------------------------------------------------------
      1          7           0        0.983897   -0.226794   -0.044834
      2          6           0        2.236675   -0.031548   -0.044058
      3          6           0        2.957976    1.236212   -0.044325
      4          6           0        4.290143    1.209268   -0.041795
      5          9           0        5.056236    2.301945   -0.041427
      6          6           0        4.997603   -0.055732   -0.039247
      7          8           0        6.343545   -0.064063   -0.036368
      8          7           0        4.395833   -1.190280   -0.039637
      9          8           0        3.009929   -1.182287   -0.042665
     10          1           0        0.479867    0.656863   -0.046169
     11          1           0        2.400109    2.163932   -0.046229
     12          1           0        6.656137    0.849093   -0.036437
 ---------------------------------------------------------------------
                    Distance matrix (angstroms):
                    1          2          3          4          5
     1  N    0.000000
     2  C    1.267901   0.000000
     3  C    2.457107   1.458592   0.000000
     4  C    3.604656   2.399242   1.332442   0.000000
     5  F    4.793587   3.659935   2.353401   1.334482   0.000000
     6  C    4.017353   2.761039   2.414379   1.449390   2.358407
     7  O    5.362124   4.107006   3.626687   2.416167   2.693545
     8  N    3.545368   2.450437   2.820517   2.401875   3.554120
     9  O    2.240039   1.386407   2.419057   2.712653   4.040699
    10  H    1.017300   1.886872   2.544930   3.850113   4.863072
    11  H    2.778710   2.201556   1.082536   2.117459   2.659715
    12  H    5.773380   4.506355   3.718376   2.393258   2.161131
                    6          7          8          9         10
     6  C    0.000000
     7  O    1.345971   0.000000
     8  N    1.284261   2.249880   0.000000
     9  O    2.284729   3.516172   1.385930   0.000000
    10  H    4.573596   5.907838   4.329753   3.127890   0.000000
    11  H    3.416714   4.529321   3.903037   3.401334   2.441022
    12  H    1.889299   0.965178   3.044344   4.173893   6.179269
                   11         12
    11  H    0.000000
    12  H    4.454512   0.000000
 Stoichiometry    C4H3FN2O2
 Framework group  C1[X(C4H3FN2O2)]
 Deg. of freedom    30
 Full point group                 C1      NOp   1
 Largest Abelian subgroup         C1      NOp   1
 Largest concise Abelian subgroup C1      NOp   1
                         Standard orientation:                         
 ---------------------------------------------------------------------
 Center     Atomic      Atomic             Coordinates (Angstroms)
 Number     Number       Type             X           Y           Z
 ---------------------------------------------------------------------
      1          7           0       -2.907368    0.221816    0.001056
      2          6           0       -1.645441    0.098880   -0.000088
      3          6           0       -0.631111    1.147033   -0.000490
      4          6           0        0.652364    0.789134   -0.000198
      5          9           0        1.666468    1.656564   -0.000187
      6          6           0        1.022458   -0.612209    0.000111
      7          8           0        2.323910   -0.955514    0.000744
      8          7           0        0.157069   -1.561119   -0.000231
      9          8           0       -1.183170   -1.208189   -0.000948
     10          1           0       -3.175422    1.203165    0.001302
     11          1           0       -0.940331    2.184466   -0.000687
     12          1           0        2.854092   -0.148993    0.000921
 ---------------------------------------------------------------------
 Rotational constants (GHZ):           3.1858370           1.4244806           0.9843495
 Standard basis: 6-31G(2df,p) (6D, 7F)
 There are   294 symmetry adapted cartesian basis functions of A   symmetry.
 There are   267 symmetry adapted basis functions of A   symmetry.
   267 basis functions,   417 primitive gaussians,   294 cartesian basis functions
    33 alpha electrons       33 beta electrons
       nuclear repulsion energy       440.0337756775 Hartrees.
 NAtoms=   12 NActive=   12 NUniq=   12 SFac= 1.00D+00 NAtFMM=   60 NAOKFM=F Big=F
 Integral buffers will be    131072 words long.
 Raffenetti 2 integral format.
 Two-electron integral symmetry is turned on.
 One-electron integrals computed using PRISM.
 PrsmSu:  requested number of processors reduced to:  13 ShMem   1 Linda.
 NBasis=   267 RedAO= T EigKep=  2.16D-04  NBF=   267
 NBsUse=   267 1.00D-06 EigRej= -1.00D+00 NBFU=   267
 Initial guess from the checkpoint file:  "Ndc1ccpFpcpOpno1.chk"
 B after Tr=     0.000000   -0.000000   -0.000000
         Rot=    1.000000    0.000000   -0.000000    0.000059 Ang=   0.01 deg.
 Requested convergence on RMS density matrix=1.00D-08 within 128 cycles.
 Requested convergence on MAX density matrix=1.00D-06.
 Requested convergence on             energy=1.00D-06.
 No special actions if energy rises.
 SCF Done:  E(RB3LYP) =  -513.951584688     A.U. after    9 cycles
            NFock=  9  Conv=0.59D-08     -V/T= 2.0062
 PrsmSu:  requested number of processors reduced to:  13 ShMem   1 Linda.
 Calling FoFJK, ICntrl=      2127 FMM=F ISym2X=0 I1Cent= 0 IOpClX= 0 NMat=1 NMatS=1 NMatT=0.
 ***** Axes restored to original set *****
 -------------------------------------------------------------------
 Center     Atomic                   Forces (Hartrees/Bohr)
 Number     Number              X              Y              Z
 -------------------------------------------------------------------
      1        7          -0.000193552   -0.000080740   -0.000015508
      2        6           0.000288114    0.000645097    0.000021225
      3        6          -0.000403990   -0.000233124    0.000000641
      4        6           0.000449082   -0.000077074   -0.000006494
      5        9          -0.000092069    0.000127306   -0.000000554
      6        6          -0.000399096   -0.000308786    0.000003807
      7        8           0.000036673    0.000007583   -0.000000478
      8        7           0.000410093    0.000422223   -0.000009805
      9        8          -0.000049022   -0.000429630    0.000007366
     10        1           0.000034086    0.000018627   -0.000001526
     11        1           0.000027576    0.000003643    0.000001519
     12        1          -0.000107894   -0.000095127   -0.000000192
 -------------------------------------------------------------------
 Cartesian Forces:  Max     0.000645097 RMS     0.000224000

 GradGradGradGradGradGradGradGradGradGradGradGradGradGradGradGradGradGrad
 Berny optimization.
 Using GEDIIS/GDIIS optimizer.
 FormGI is forming the generalized inverse of G from B-inverse, IUseBI=4.
 Internal  Forces:  Max     0.000425754 RMS     0.000118085
 Search for a local minimum.
 Step number   5 out of a maximum of   59
 All quantities printed in internal units (Hartrees-Bohrs-Radians)
 Mixed Optimization -- En-DIIS/RFO-DIIS
 Swapping is turned off.
 Update second derivatives using D2CorX and points    1    2    3    4    5
 DE= -1.21D-05 DEPred=-1.04D-05 R= 1.16D+00
 TightC=F SS=  1.41D+00  RLast= 9.10D-03 DXNew= 8.4853D-01 2.7313D-02
 Trust test= 1.16D+00 RLast= 9.10D-03 DXMaxT set to 5.05D-01
 ITU=  1  1  1  1  0
     Eigenvalues ---    0.01637   0.01748   0.02019   0.02054   0.02242
     Eigenvalues ---    0.02394   0.02395   0.02699   0.03138   0.13906
     Eigenvalues ---    0.16025   0.17444   0.18030   0.22884   0.23857
     Eigenvalues ---    0.25058   0.25571   0.28963   0.32285   0.36084
[...]
   D10        0.00031  -0.00000   0.00000  -0.00031  -0.00031  -0.00000
   D11       -0.00006   0.00000   0.00000   0.00006   0.00006  -0.00000
   D12        3.14155   0.00000   0.00000   0.00004   0.00004   3.14159
   D13       -3.14130  -0.00000   0.00000  -0.00029  -0.00029  -3.14159
   D14        0.00033   0.00000   0.00000  -0.00032  -0.00033   0.00000
   D15        0.00031  -0.00000   0.00000  -0.00031  -0.00031   0.00000
   D16       -3.14125   0.00000   0.00000  -0.00034  -0.00034   3.14159
   D17        0.00001   0.00000   0.00000  -0.00001  -0.00001   0.00000
   D18        3.14157  -0.00000   0.00000   0.00002   0.00002  -3.14159
   D19        0.00002  -0.00000   0.00000  -0.00002  -0.00002   0.00000
   D20       -3.14154   0.00000   0.00000  -0.00005  -0.00005   3.14159
   D21       -0.00107   0.00000   0.00000   0.00107   0.00107  -0.00000
         Item               Value     Threshold  Converged?
 Maximum Force            0.000426     0.000450     YES
 RMS     Force            0.000118     0.000300     YES
 Maximum Displacement     0.002183     0.001800     NO 
 RMS     Displacement     0.000800     0.001200     YES
 Predicted change in Energy=-1.152758D-06
                           ----------------------------
                           ! Non-Optimized Parameters !
                           ! (Angstroms and Degrees)  !
 --------------------------                            --------------------------
 ! Name  Definition              Value          Derivative Info.                !
 --------------------------------------------------------------------------------
 ! R1    R(1,2)                  1.2681         -DE/DX =    0.0002              !
 ! R2    R(1,10)                 1.0173         -DE/DX =    0.0                 !
 ! R3    R(2,3)                  1.4579         -DE/DX =   -0.0003              !
 ! R4    R(2,9)                  1.387          -DE/DX =    0.0003              !
 ! R5    R(3,4)                  1.3327         -DE/DX =    0.0002              !
 ! R6    R(3,11)                 1.0825         -DE/DX =    0.0                 !
 ! R7    R(4,5)                  1.3344         -DE/DX =    0.0001              !
 ! R8    R(4,6)                  1.4493         -DE/DX =    0.0                 !
 ! R9    R(6,7)                  1.3461         -DE/DX =   -0.0001              !
 ! R10   R(6,8)                  1.2839         -DE/DX =   -0.0004              !
 ! R11   R(7,12)                 0.9651         -DE/DX =   -0.0001              !
 ! R12   R(8,9)                  1.3861         -DE/DX =    0.0001              !
 ! A1    A(2,1,10)             110.81           -DE/DX =   -0.0001              !
 ! A2    A(1,2,3)              128.499          -DE/DX =    0.0                 !
 ! A3    A(1,2,9)              115.0123         -DE/DX =    0.0                 !
 ! A4    A(3,2,9)              116.4886         -DE/DX =    0.0001              !
 ! A5    A(2,3,4)              118.4948         -DE/DX =    0.0                 !
 ! A6    A(2,3,11)             119.3539         -DE/DX =    0.0                 !
 ! A7    A(4,3,11)             122.1512         -DE/DX =    0.0                 !
 ! A8    A(3,4,5)              123.839          -DE/DX =   -0.0001              !
 ! A9    A(3,4,6)              120.344          -DE/DX =   -0.0001              !
 ! A10   A(5,4,6)              115.817          -DE/DX =    0.0002              !
 ! A11   A(4,6,7)              119.5599         -DE/DX =    0.0                 !
 ! A12   A(4,6,8)              122.8735         -DE/DX =    0.0002              !
 ! A13   A(7,6,8)              117.5665         -DE/DX =   -0.0001              !
 ! A14   A(6,7,12)             108.5115         -DE/DX =   -0.0001              !
 ! A15   A(6,8,9)              117.6276         -DE/DX =    0.0                 !
 ! A16   A(2,9,8)              124.1714         -DE/DX =   -0.0002              !
 ! D1    D(10,1,2,3)             0.0            -DE/DX =    0.0                 !
 ! D2    D(10,1,2,9)           180.0            -DE/DX =    0.0                 !
 ! D3    D(1,2,3,4)            180.0            -DE/DX =    0.0                 !
 ! D4    D(1,2,3,11)             0.0            -DE/DX =    0.0                 !
 ! D5    D(9,2,3,4)              0.0            -DE/DX =    0.0                 !
 ! D6    D(9,2,3,11)          -180.0            -DE/DX =    0.0                 !
 ! D7    D(1,2,9,8)           -180.0            -DE/DX =    0.0                 !
 ! D8    D(3,2,9,8)              0.0            -DE/DX =    0.0                 !
 ! D9    D(2,3,4,5)           -180.0            -DE/DX =    0.0                 !
 ! D10   D(2,3,4,6)              0.0            -DE/DX =    0.0                 !
 ! D11   D(11,3,4,5)             0.0            -DE/DX =    0.0                 !
 ! D12   D(11,3,4,6)           180.0            -DE/DX =    0.0                 !
 ! D13   D(3,4,6,7)           -180.0            -DE/DX =    0.0                 !
 ! D14   D(3,4,6,8)              0.0            -DE/DX =    0.0                 !
 ! D15   D(5,4,6,7)              0.0            -DE/DX =    0.0                 !
 ! D16   D(5,4,6,8)            180.0            -DE/DX =    0.0                 !
 ! D17   D(4,6,7,12)             0.0            -DE/DX =    0.0                 !
 ! D18   D(8,6,7,12)          -180.0            -DE/DX =    0.0                 !
 ! D19   D(4,6,8,9)              0.0            -DE/DX =    0.0                 !
 ! D20   D(7,6,8,9)            180.0            -DE/DX =    0.0                 !
 ! D21   D(6,8,9,2)              0.0            -DE/DX =    0.0                 !
 --------------------------------------------------------------------------------
 GradGradGradGradGradGradGradGradGradGradGradGradGradGradGradGradGradGrad


 ----------------------------------------------------------------------

 Electric dipole moment (input orientation):
 (Debye = 10**-18 statcoulomb cm , SI units = C m)
                  (au)            (Debye)         (10**-30 SI)
   Tot        0.217440D+01      0.552676D+01      0.184353D+02
   x          0.651679D+00      0.165640D+01      0.552517D+01
   y          0.207444D+01      0.527271D+01      0.175879D+02
   z         -0.763376D-03     -0.194031D-02     -0.647217D-02

 Dipole polarizability, Alpha (input orientation).
 (esu units = cm**3 , SI units = C**2 m**2 J**-1)
 Alpha(0;0):
               (au)            (10**-24 esu)      (10**-40 SI)
   iso        0.623905D+02      0.924532D+01      0.102868D+02
   aniso      0.585858D+02      0.868152D+01      0.965950D+01
   xx         0.971187D+02      0.143915D+02      0.160127D+02
   yx         0.309577D+01      0.458746D+00      0.510424D+00
   yy         0.601913D+02      0.891943D+01      0.992420D+01
   zx         0.103390D+00      0.153208D-01      0.170467D-01
   zy        -0.201625D-01     -0.298777D-02     -0.332434D-02
   zz         0.298616D+02      0.442504D+01      0.492352D+01

 ----------------------------------------------------------------------

 Dipole orientation:
     7          1.84020742         -0.48934373          0.14839369
     6          3.88891687         -1.13486564          1.20992009
     6          4.44440550         -1.30983382          3.90402902
     6          6.74876247         -2.03901182          4.60994042
     9          7.47556703         -2.26894800          7.01376874
     6          8.64785192         -2.63995963          2.73000210
     8         10.96564303         -3.37406310          3.47727074
     7          8.22631555         -2.50588484          0.34375288
     8          5.84006028         -1.74996784         -0.42675851
     1          0.49643794         -0.06504016          1.45604027
     1          2.98454646         -0.84795189          5.26062472
     1         11.00974117         -3.38845020          5.30060268

 Electric dipole moment (dipole orientation):
 (Debye = 10**-18 statcoulomb cm , SI units = C m)
                  (au)            (Debye)         (10**-30 SI)
   Tot        0.217440D+01      0.552676D+01      0.184353D+02
   x          0.000000D+00      0.000000D+00      0.000000D+00
   y          0.000000D+00      0.000000D+00      0.000000D+00
   z          0.217440D+01      0.552676D+01      0.184353D+02

 Dipole polarizability, Alpha (dipole orientation).
 (esu units = cm**3 , SI units = C**2 m**2 J**-1)
 Alpha(0;0):
               (au)            (10**-24 esu)      (10**-40 SI)
   iso        0.623905D+02      0.924532D+01      0.102868D+02
   aniso      0.585858D+02      0.868152D+01      0.965950D+01
   xx         0.863846D+02      0.128009D+02      0.142429D+02
   yx        -0.178658D+02     -0.264743D+01     -0.294567D+01
   yy         0.355085D+02      0.526181D+01      0.585455D+01
   zx         0.124888D+02      0.185066D+01      0.205913D+01
   zy        -0.394868D+01     -0.585134D+00     -0.651049D+00
   zz         0.652786D+02      0.967328D+01      0.107630D+02

 ----------------------------------------------------------------------
 1\1\GINC-LEWIS4-Z10PH-HPC3-NODE401\Freq\RB3LYP\6-31G(2df,p)\C4H3F1N2O2
 \KS29C\03-Jul-2022\0\\#N Geom=AllCheck Guess=TCheck SCRF=Check GenChk 
 RB3LYP/6-31G(2df,p) Freq\\Title Card Required\\0,1\N,0.9838972877,-0.2
 267943306,-0.0448338289\C,2.2366747001,-0.0315480426,-0.0440583698\C,2
 .9579757056,1.2362116728,-0.044324998\C,4.2901426437,1.2092679962,-0.0
 417946108\F,5.0562363724,2.3019451484,-0.0414268961\C,4.9976031696,-0.
 0557317059,-0.0392466385\O,6.3435450423,-0.0640627912,-0.0363679195\N,
 4.3958327237,-1.1902797988,-0.0396366001\O,3.0099286562,-1.1822869461,
 -0.0426653517\H,0.4798672169,0.6568630554,-0.0461686864\H,2.4001090072
 ,2.1639322894,-0.046228935\H,6.6561374746,0.849093453,-0.0364371652\\V
 ersion=ES64L-G16RevA.03\State=1-A\HF=-513.9515847\RMSD=5.078e-09\RMSF=
 2.240e-04\ZeroPoint=0.0761644\Thermal=0.0835151\Dipole=0.6516793,2.074
 4428,-0.0007634\DipoleDeriv=-1.3218889,-0.0159466,-0.0010396,-0.292792
 6,-0.2571887,-0.0005217,-0.0007893,-0.0003167,-0.4673699,1.5672626,0.0
 357865,0.0011922,-0.2479711,0.4721258,-0.0004347,0.0010262,-0.0000471,
 0.2423254,-0.4080186,-0.1518221,-0.000235,-0.1400491,-0.1182569,-0.000
 2086,-0.0003438,-0.0001464,-0.081715,0.7226053,0.3495725,0.0004822,0.5
 679337,0.9078377,0.0004316,0.0003656,-0.0001601,0.1848052,-0.6739416,-
 0.3196983,-0.0006503,-0.6524363,-0.7496834,-0.0005321,-0.000494,0.0000
 636,-0.1129833,1.5240987,0.1591113,0.0024678,0.184491,0.1521407,0.0003
 416,0.0025886,0.0003389,0.2503235,-1.3998375,-0.2740734,-0.0018673,-0.
 0363325,-0.224498,-0.0001468,-0.0022204,-0.0006669,-0.3474605,0.001149
 8,0.4419184,0.0002069,-0.4145749,-0.2606776,-0.0008023,0.0003318,0.001
 0897,-0.197912,-0.8282687,-0.3103163,-0.0007249,0.8340558,-0.2207552,0
 .0012518,-0.000773,-0.0006797,-0.1473252,0.3080873,0.0214381,0.0000905
 ,0.1397963,0.0202567,0.0003457,0.0000194,0.0002255,0.219656,0.0563078,
 0.0301174,-0.0001655,0.0119675,0.0338226,0.0001365,-0.0000017,0.000178
 9,0.1414925,0.4524439,0.0339127,0.000243,0.0459122,0.2448763,0.0001391
 ,0.0002905,0.0001202,0.3161634\Polar=97.1186725,3.0957712,60.191279,0.
 10339,-0.0201625,29.8616467\Quadrupole=0.5269584,-1.9873804,1.460422,-
 2.5331736,0.0037365,0.0000376\PG=C01 [X(C4H3F1N2O2)]\NImag=0\\0.793636
 57,-0.11342626,0.44625022,0.00072068,-0.00048759,0.04652807,-0.5691885
 0,-0.04121715,-0.00039850,0.88168249,-0.10776002,-0.11282104,-0.000028
 93,0.09150699,0.52210812,-0.00032826,0.00002116,-0.05592378,0.00061030
 ,-0.00014926,0.16814755,-0.04438634,-0.04288804,-0.00001788,-0.1209663
 8,-0.03877346,-0.00004268,0.84591052,-0.02070343,0.00055489,0.00000384
 ,-0.05381318,-0.20847854,0.00007241,-0.07651009,0.63716819,-0.00003339
 ,-0.00001869,0.02698871,-0.00004653,0.00010144,-0.06621641,0.00136316,
 -0.00068306,0.10945210,0.01190760,0.00515566,-0.00000757,-0.02623856,-
 0.04231549,0.00000333,-0.51075810,0.04969241,-0.00090282,0.86741601,-0
 .00379931,-0.00610010,0.00001858,-0.04121809,0.01695773,-0.00008772,0.
 01308414,-0.11649616,0.00007934,0.02158168,0.60133100,0.00001762,0.000
 02289,0.00594575,0.00002291,-0.00009209,-0.00840862,-0.00089223,0.0001
 4743,-0.05119197,0.00137766,-0.00041495,0.13245913,-0.00276088,-0.0067
 2415,0.00001096,-0.00516668,0.01781761,-0.00005057,-0.02933305,-0.0591
 0853,-0.00001625,-0.16246308,-0.12057075,-0.00011264,0.18526438,-0.002
 40129,-0.00347226,-0.00000834,0.00261608,0.00894868,0.00001132,-0.0165
 0980,-0.00825995,-0.00001708,-0.12420553,-0.25496828,-0.00002384,0.165
 12377,0.31271214,-0.00000463,-0.00001853,-0.00436007,-0.00003574,0.000
 04402,0.01430692,-0.00004795,-0.00009800,0.00920939,-0.00011082,-0.000
 01396,-0.04190968,0.00014212,0.00002638,0.02397886,0.00542513,0.000547
 15,0.00000867,-0.00392835,-0.00008807,0.00001759,-0.01882892,0.0297185
 5,-0.00007355,-0.13111862,0.10038232,-0.00021977,-0.00471191,-0.038705
 92,0.00002059,0.76056161,0.01142852,-0.00262710,0.00000670,0.00857309,
 -0.00260500,0.00001667,0.03133976,0.01440813,0.00005815,0.03994491,-0.
 18804736,0.00018938,0.00075345,-0.04783162,0.00005239,0.10674263,0.779
 04125,0.00000538,0.00000838,-0.00023242,-0.00000285,-0.00001440,-0.007
 18776,-0.00007060,0.00005896,0.00610859,-0.00016122,0.00031162,-0.0714
 2394,-0.00002279,-0.00002085,0.00533369,0.00122811,-0.00029400,0.14266
 074,-0.00814546,0.00219679,-0.00000784,0.01178686,-0.01358569,0.000015
 14,0.00067076,0.00589429,-0.00000511,-0.04495691,-0.00207129,-0.000106
 71,0.00798611,0.00209003,0.00001299,-0.33717581,0.04310694,-0.00068083
 ,0.50419558,-0.00253735,0.00189352,-0.00000241,0.00140152,-0.00613926,
 0.00000433,0.00038077,-0.00603393,0.00000869,0.03133167,-0.00371232,0.
 00007689,0.00610457,0.00334536,0.00000877,-0.01261045,-0.10510824,0.00
 003077,0.14160969,0.57827575,-0.00001614,0.00000358,0.00043066,0.00002
 136,-0.00002601,0.00123071,-0.00000199,0.00002042,0.00197335,-0.000135
 26,0.00000556,0.00739273,0.00000966,0.00000074,0.00025426,-0.00062824,
 0.00014828,-0.03667067,0.00091595,-0.00014587,0.02111767,-0.00272850,-
 0.00464923,-0.00001256,-0.04316994,0.04338935,-0.00010196,-0.01026769,
 -0.00825393,-0.00002358,0.03483571,-0.01946450,0.00004646,-0.00198800,
 0.00868921,-0.00002044,-0.20101046,-0.16206218,-0.00018680,-0.03208943
 ,-0.05768452,-0.00002565,0.47009801,-0.00439647,-0.00166017,0.00000455
 ,0.03060755,0.00071369,0.00006876,-0.01228207,-0.00292745,-0.00002052,
 0.00176295,-0.05457285,0.00006097,0.00383221,-0.00793726,0.00001897,-0
 .12533368,-0.43395411,0.00003366,-0.03015003,0.00193524,-0.00006581,0.
 18569782,0.56658562,-0.00000038,-0.00002182,-0.00223946,-0.00008633,0.
 00012399,-0.00463983,-0.00001548,-0.00002246,-0.00037324,0.00002120,0.
 00001794,0.02482178,-0.00000931,0.00002138,0.00135802,-0.00022551,-0.0
 0002716,-0.04609355,-0.00004011,-0.00012748,-0.00029627,0.00071165,0.0
 0001203,0.04945150,-0.06584928,0.06002179,-0.00007950,-0.09999313,0.02
 196841,-0.00008542,0.01943960,0.00386678,0.00002822,-0.02142970,0.0260
 5900,-0.00006136,0.00402132,0.00055620,0.00001284,-0.04082451,-0.02871
 523,-0.00008104,-0.01748286,-0.00571681,-0.00004718,-0.20554743,-0.053
 68782,-0.00034303,0.43414208,0.03753439,0.00432972,0.00001574,0.010307
 54,-0.19908644,0.00002136,0.01489645,-0.04250079,0.00003714,0.01157691
 ,-0.00237823,0.00002193,-0.00579186,0.00085989,-0.00001318,-0.05903285
 ,-0.01504680,-0.00011721,0.01081042,-0.00130252,0.00003074,0.01814210,
 -0.07003898,0.00003927,-0.02781198,0.32899783,-0.00006908,0.00006030,0
 .00603137,-0.00009189,0.00002247,-0.03842621,0.00001143,0.00005095,0.0
 0714220,-0.00002917,0.00004222,-0.00613436,0.00001431,0.00000487,-0.00
 096862,-0.00005532,-0.00004754,0.00131886,-0.00005806,-0.00000370,0.00
 778997,-0.00038623,-0.00010754,-0.02277201,0.00068898,-0.00005639,0.03
 321726,-0.11890741,0.13967531,-0.00021792,-0.03572893,0.04250881,-0.00
 006804,0.00292802,0.00073857,0.00000763,-0.00081195,-0.00013670,-0.000
 00036,0.00138518,0.00092539,0.00000170,-0.00006706,0.00059135,-0.00000
 078,0.00016246,-0.00034488,0.00000104,0.00110934,0.00101833,0.00000100
 ,-0.00618889,-0.00451266,-0.00001618,0.15678239,0.20518204,-0.32766720
 ,0.00048298,-0.02459483,-0.00631143,-0.00001786,-0.00271209,0.00094124
 ,-0.00001155,0.00067408,-0.00095759,-0.00000018,0.00014027,0.00024057,
 0.00000177,-0.00013571,0.00136728,-0.00000209,0.00032705,-0.00004399,0
 .00000119,-0.00146646,-0.00035122,-0.00000333,0.00199993,0.00198190,0.
 00001650,-0.17917114,0.33070293,-0.00029971,0.00042945,-0.02182671,0.0
 0001507,0.00003750,-0.00441244,0.00000735,-0.00001190,-0.00706004,0.00
 000470,-0.00000465,-0.00158498,-0.00000180,0.00000406,0.00158773,-0.00
 000373,-0.00000103,0.00021434,-0.00000083,-0.00000056,-0.00052674,0.00
 000669,-0.00000468,0.00550417,-0.00001883,0.00002015,0.00602357,0.0002
 9254,-0.00046909,0.02153120,0.00067609,0.00052011,0.00000140,0.0113252
 5,-0.01286889,0.00003048,-0.13513491,0.12870672,-0.00030064,-0.0107886
 8,0.03032562,-0.00006284,0.00352232,-0.00047731,0.00001927,-0.00440635
 ,-0.00337591,-0.00002359,-0.00122510,0.00159737,-0.00000295,-0.0011194
 6,0.00038951,0.00000199,0.00001898,-0.00527690,-0.00000085,-0.00043662
 ,-0.00022465,-0.00000170,0.13726767,0.00013112,0.00188126,-0.00000577,
 0.01739329,-0.01563977,0.00004165,0.13074233,-0.26634155,0.00046648,-0
 .00277695,0.00258354,0.00000129,0.00080018,0.00062838,-0.00000616,-0.0
 0113545,0.00149392,0.00000773,0.00005548,0.00024427,-0.00000131,-0.001
 84362,0.00101631,-0.00000841,-0.00242684,-0.00480478,0.00000622,-0.001
 37762,0.00012199,0.00000041,-0.13964758,0.27880187,0.00000766,-0.00000
 170,-0.00132988,-0.00000646,-0.00001246,0.00129096,-0.00029663,0.00046
 019,-0.03556691,-0.00003903,0.00006056,0.00913157,0.00002082,-0.000006
 45,-0.00706730,-0.00002716,0.00000523,0.01025036,0.00000011,0.00000088
 ,-0.00078136,0.00000425,-0.00000440,-0.00289623,-0.00000238,-0.0000017
 4,0.00324056,-0.00000006,0.00000171,0.00072804,0.00033955,-0.00050264,
 0.02269182,0.00032099,0.00078802,0.00000007,-0.00041413,-0.00179955,0.
 00000010,0.00072648,-0.00022816,0.00000287,-0.00559370,-0.00417213,-0.
 00000873,0.00424430,0.00229915,0.00001008,-0.02391475,-0.04832733,-0.0
 0000297,-0.08372623,-0.10353158,-0.00009061,-0.00812214,0.00254170,-0.
 00001568,-0.00030618,-0.00084155,-0.00000794,-0.00022656,-0.00001849,0
 .00000026,0.00030080,0.00008567,-0.00000067,0.11671111,0.00074806,-0.0
 0056176,0.00000063,-0.00156283,0.00235325,-0.00000283,-0.00076791,-0.0
 0203411,-0.00000035,0.00757769,0.00636062,0.00001029,-0.00237676,-0.00
 426566,-0.00000248,-0.00034852,-0.00109036,-0.00000257,-0.16028366,-0.
 46335388,0.00002848,-0.00049403,0.00119117,-0.00000394,0.00388657,-0.0
 0101079,0.00001164,0.00008522,-0.00002449,0.00000034,0.00033192,0.0000
 1456,0.00000082,0.15320425,0.46242146,0.00000025,0.00000256,-0.0000122
 3,-0.00000133,-0.00000626,0.00023890,0.00000350,0.00000122,-0.00046577
 ,-0.00002100,-0.00001456,0.00090258,0.00001549,0.00000780,-0.00172320,
 -0.00004169,-0.00010706,-0.00427822,-0.00004469,0.00014968,-0.00191431
 ,-0.00001181,0.00000399,-0.00182488,-0.00001129,0.00000219,0.00353743,
 -0.00000056,-0.00000006,-0.00017814,-0.00000011,0.00000051,0.00030838,
 0.00011322,-0.00004002,0.00540947\\0.00019371,0.00008079,0.00001551,-0
 .00028816,-0.00064536,-0.00002122,0.00040390,0.00023308,-0.00000064,-0
 .00044926,0.00007695,0.00000649,0.00009223,-0.00012706,0.00000055,0.00
 039897,0.00030852,-0.00000381,-0.00003644,-0.00000765,0.00000048,-0.00
 041046,-0.00042206,0.00000980,0.00004930,0.00042978,-0.00000737,-0.000
 03410,-0.00001858,0.00000153,-0.00002759,-0.00000360,-0.00000152,0.000
 10790,0.00009518,0.00000019\\\@


 THE GREAT THING ABOUT BEING IMPERFECT IS THE JOY IT BRINGS OTHERS.
   -- SIGN OUTSIDE LAKE AGASSIZ JR. HIGH SCHOOL, FARGO, N.D.
 Job cpu time:       0 days  1 hours 13 minutes 35.2 seconds.
 Elapsed time:       0 days  0 hours 18 minutes 24.5 seconds.
 File lengths (MBytes):  RWF=     85 Int=      0 D2E=      0 Chk=      7 Scr=      1
 Normal termination of Gaussian 16 at Sun Jul  3 11:30:17 2022.
### All Done ###
