### Starting Gaussian ###
 Entering Gaussian System, Link 0=g16
 Initial command:
 /cluster/software/gaussian/gaussian-16-A.03/avx2/g16/l1.exe "/local/scratch/ks29c/Gau-15741.inp" -scrdir="/local/scratch/ks29c/"
 Entering Link 1 = /cluster/software/gaussian/gaussian-16-A.03/avx2/g16/l1.exe PID=     15742.
  
 Copyright (c) 1988,1990,1992,1993,1995,1998,2003,2009,2016,
            Gaussian, Inc.  All Rights Reserved.
  
 This is part of the Gaussian(R) 16 program.  It is based on
 the Gaussian(R) 09 system (copyright 2009, Gaussian, Inc.),
 the Gaussian(R) 03 system (copyright 2003, Gaussian, Inc.),
 the Gaussian(R) 98 system (copyright 1998, Gaussian, Inc.),
 the Gaussian(R) 94 system (copyright 1995, Gaussian, Inc.),
 the Gaussian 92(TM) system (copyright 1992, Gaussian, Inc.),
 the Gaussian 90(TM) system (copyright 1990, Gaussian, Inc.),
 the Gaussian 88(TM) system (copyright 1988, Gaussian, Inc.),
 the Gaussian 86(TM) system (copyright 1986, Carnegie Mellon
 University), and the Gaussian 82(TM) system (copyright 1983,
 Carnegie Mellon University). Gaussian is a federally registered
 trademark of Gaussian, Inc.
  
 This software contains proprietary and confidential information,
 including trade secrets, belonging to Gaussian, Inc.
  
 This software is provided under written license and may be
 used, copied, transmitted, or stored only in accord with that
 written license.
  
 The following legend is applicable only to US Government
 contracts under FAR:
  
                    RESTRICTED RIGHTS LEGEND
  
 Use, reproduction and disclosure by the US Government is
 subject to restrictions as set forth in subparagraphs (a)
 and (c) of the Commercial Computer Software - Restricted
 Rights clause in FAR 52.227-19.
  
 Gaussian, Inc.
 340 Quinnipiac St., Bldg. 40, Wallingford CT 06492
  
  
 ---------------------------------------------------------------
 Warning -- This program may not be used in any manner that
 competes with the business of Gaussian, Inc. or will provide
 assistance to any competitor of Gaussian, Inc.  The licensee
 of this program is prohibited from giving any competitor of
 Gaussian, Inc. access to this program.  By using this program,
 the user acknowledges that Gaussian, Inc. is engaged in the
 business of creating and licensing software in the field of
 computational chemistry and represents and warrants to the
 licensee that it is not a competitor of Gaussian, Inc. and that
 it will not use this program in any manner prohibited above.
 ---------------------------------------------------------------
  

 Cite this work as:
 Gaussian 16, Revision A.03,
 M. J. Frisch, G. W. Trucks, H. B. Schlegel, G. E. Scuseria, 
 M. A. Robb, J. R. Cheeseman, G. Scalmani, V. Barone, 
 G. A. Petersson, H. Nakatsuji, X. Li, M. Caricato, A. V. Marenich, 
 J. Bloino, B. G. Janesko, R. Gomperts, B. Mennucci, H. P. Hratchian, 
 J. V. Ortiz, A. F. Izmaylov, J. L. Sonnenberg, D. Williams-Young, 
 F. Ding, F. Lipparini, F. Egidi, J. Goings, B. Peng, A. Petrone, 
 T. Henderson, D. Ranasinghe, V. G. Zakrzewski, J. Gao, N. Rega, 
 G. Zheng, W. Liang, M. Hada, M. Ehara, K. Toyota, R. Fukuda, 
 J. Hasegawa, M. Ishida, T. Nakajima, Y. Honda, O. Kitao, H. Nakai, 
 T. Vreven, K. Throssell, J. A. Montgomery, Jr., J. E. Peralta, 
 F. Ogliaro, M. J. Bearpark, J. J. Heyd, E. N. Brothers, K. N. Kudin, 
 V. N. Staroverov, T. A. Keith, R. Kobayashi, J. Normand, 
 K. Raghavachari, A. P. Rendell, J. C. Burant, S. S. Iyengar, 
 J. Tomasi, M. Cossi, J. M. Millam, M. Klene, C. Adamo, R. Cammi, 
 J. W. Ochterski, R. L. Martin, K. Morokuma, O. Farkas, 
 J. B. Foresman, and D. J. Fox, Gaussian, Inc., Wallingford CT, 2016.
 
 ******************************************
 Gaussian 16:  ES64L-G16RevA.03 25-Dec-2016
                 4-Aug-2022 
 ******************************************
 %chk=Ndc1cncncpdOpo1.chk
 %NProcShared=20
 Will use up to   20 processors via shared memory.
 -----------------------------
 # opt freq b3lyp/6-31g(2df,p)
 -----------------------------
 1/18=20,19=15,26=3,38=1/1,3;
 2/9=110,12=2,17=6,18=5,40=1/2;
 3/5=1,6=6,7=104,11=2,25=1,30=1,71=1,74=-5/1,2,3;
 4//1;
 5/5=2,38=5/2;
 6/7=2,8=2,9=2,10=2,28=1/1;
 7//1,2,3,16;
 1/18=20,19=15,26=3/3(2);
 2/9=110/2;
 99//99;
 2/9=110/2;
 3/5=1,6=6,7=104,11=2,25=1,30=1,71=1,74=-5/1,2,3;
 4/5=5,16=3,69=1/1;
 5/5=2,38=5/2;
 7//1,2,3,16;
 1/18=20,19=15,26=3/3(-5);
 2/9=110/2;
 6/7=2,8=2,9=2,10=2,19=2,28=1/1;
 99/9=1/99;
 -------------------
 Title Card Required
 -------------------
 Symbolic Z-matrix:
 Charge =  0 Multiplicity = 1
 N                     1.80112  -0.05569   0.06087 
 C                     3.12969  -0.17014  -0.00088 
 C                     2.98802  -1.47096  -0.74002 
 N                     3.72903  -2.36559  -1.24716 
 C                     5.11546  -2.4576   -1.30067 
 N                     6.56542  -1.54339  -0.78386 
 C                     5.40642  -1.52831  -0.76998 
 O                     6.69911  -2.35905  -1.24132 
 O                     4.78402  -0.37792  -0.12168 
 H                     1.00248  -0.68705  -0.29574 
 H                     2.01466  -1.88038  -0.97206 
 H                     5.19167  -3.43402  -1.85289 
 

 GradGradGradGradGradGradGradGradGradGradGradGradGradGradGradGradGradGrad
 Berny optimization.
 Initialization pass.
                           ----------------------------
                           !    Initial Parameters    !
                           ! (Angstroms and Degrees)  !
 --------------------------                            --------------------------
 ! Name  Definition              Value          Derivative Info.                !
 --------------------------------------------------------------------------------
 ! R1    R(1,2)                  1.3349         estimate D2E/DX2                !
 ! R2    R(1,10)                 1.0787         estimate D2E/DX2                !
 ! R3    R(2,3)                  1.5028         estimate D2E/DX2                !
 ! R4    R(2,9)                  1.6717         estimate D2E/DX2                !
 ! R5    R(3,4)                  1.2675         estimate D2E/DX2                !
 ! R6    R(3,11)                 1.0812         estimate D2E/DX2                !
 ! R7    R(4,5)                  1.3905         estimate D2E/DX2                !
 ! R8    R(5,7)                  1.109          estimate D2E/DX2                !
 ! R9    R(5,8)                  1.5878         estimate D2E/DX2                !
 ! R10   R(5,12)                 1.1243         estimate D2E/DX2                !
 ! R11   R(6,7)                  1.1592         estimate D2E/DX2                !
 ! R12   R(6,8)                  0.9447         estimate D2E/DX2                !
 ! R13   R(7,8)                  1.6073         estimate D2E/DX2                !
 ! R14   R(7,9)                  1.4598         estimate D2E/DX2                !
 ! A1    A(2,1,10)             132.1731         estimate D2E/DX2                !
 ! A2    A(1,2,3)               90.18           estimate D2E/DX2                !
 ! A3    A(3,2,9)               87.1434         estimate D2E/DX2                !
 ! A4    A(2,3,4)              138.8156         estimate D2E/DX2                !
 ! A5    A(2,3,11)             121.2122         estimate D2E/DX2                !
 ! A6    A(4,3,11)              99.9722         estimate D2E/DX2                !
 ! A7    A(3,4,5)              130.165          estimate D2E/DX2                !
 ! A8    A(4,5,7)              100.8204         estimate D2E/DX2                !
 ! A9    A(4,5,12)              98.2763         estimate D2E/DX2                !
 ! A10   A(7,5,12)             160.9016         estimate D2E/DX2                !
 ! A11   A(8,5,12)              90.2667         estimate D2E/DX2                !
 ! A12   A(5,7,6)              104.2227         estimate D2E/DX2                !
 ! A13   A(5,7,9)              139.552          estimate D2E/DX2                !
 ! A14   A(6,7,9)              116.2224         estimate D2E/DX2                !
 ! A15   A(8,7,9)              151.696          estimate D2E/DX2                !
 ! A16   A(5,8,6)               86.0172         estimate D2E/DX2                !
 ! A17   A(2,9,7)              123.5018         estimate D2E/DX2                !
 ! A18   L(1,2,9,3,-1)         177.3234         estimate D2E/DX2                !
 ! A19   L(4,5,8,12,-1)        188.5431         estimate D2E/DX2                !
 ! A20   L(1,2,9,3,-2)         179.7959         estimate D2E/DX2                !
 ! A21   L(4,5,8,12,-2)        180.1669         estimate D2E/DX2                !
 ! D1    D(10,1,2,3)             0.2444         estimate D2E/DX2                !
 ! D2    D(10,1,9,7)            -0.0731         estimate D2E/DX2                !
 ! D3    D(1,2,3,4)            179.9491         estimate D2E/DX2                !
 ! D4    D(1,2,3,11)            -0.1546         estimate D2E/DX2                !
 ! D5    D(9,2,3,4)              0.1532         estimate D2E/DX2                !
 ! D6    D(9,2,3,11)          -179.9505         estimate D2E/DX2                !
 ! D7    D(3,2,9,7)             -0.2694         estimate D2E/DX2                !
 ! D8    D(2,3,4,5)             -0.1512         estimate D2E/DX2                !
 ! D9    D(11,3,4,5)           179.9388         estimate D2E/DX2                !
 ! D10   D(3,4,5,7)              0.2287         estimate D2E/DX2                !
 ! D11   D(3,4,5,12)           179.9763         estimate D2E/DX2                !
 ! D12   D(3,4,8,6)             -0.2824         estimate D2E/DX2                !
 ! D13   D(4,5,7,6)           -179.8019         estimate D2E/DX2                !
 ! D14   D(4,5,7,9)             -0.4898         estimate D2E/DX2                !
 ! D15   D(12,5,7,6)             0.9615         estimate D2E/DX2                !
 ! D16   D(12,5,7,9)          -179.7264         estimate D2E/DX2                !
 ! D17   D(12,5,8,6)           179.8052         estimate D2E/DX2                !
 ! D18   D(7,6,8,5)              0.3654         estimate D2E/DX2                !
 ! D19   D(5,7,9,2)              0.6177         estimate D2E/DX2                !
 ! D20   D(6,7,9,2)            179.8744         estimate D2E/DX2                !
 ! D21   D(8,7,9,2)            179.9245         estimate D2E/DX2                !
 --------------------------------------------------------------------------------
 Trust Radius=3.00D-01 FncErr=1.00D-07 GrdErr=1.00D-06 EigMax=2.50D+02 EigMin=1.00D-04
 Number of steps in this run=     66 maximum allowed number of steps=    100.
 GradGradGradGradGradGradGradGradGradGradGradGradGradGradGradGradGradGrad

                          Input orientation:                          
 ---------------------------------------------------------------------
 Center     Atomic      Atomic             Coordinates (Angstroms)
 Number     Number       Type             X           Y           Z
 ---------------------------------------------------------------------
      1          7           0        1.801120   -0.055690    0.060870
      2          6           0        3.129690   -0.170140   -0.000880
      3          6           0        2.988020   -1.470960   -0.740020
      4          7           0        3.729030   -2.365590   -1.247160
      5          6           0        5.115460   -2.457600   -1.300670
      6          7           0        6.565420   -1.543390   -0.783860
      7          6           0        5.406420   -1.528310   -0.769980
      8          8           0        6.699110   -2.359050   -1.241320
      9          8           0        4.784020   -0.377920   -0.121680
     10          1           0        1.002480   -0.687050   -0.295740
     11          1           0        2.014660   -1.880380   -0.972060
     12          1           0        5.191670   -3.434020   -1.852890
 ---------------------------------------------------------------------
                    Distance matrix (angstroms):
                    1          2          3          4          5
     1  N    0.000000
     2  C    1.334920   0.000000
     3  C    2.013243   1.502841   0.000000
     4  N    3.280765   2.594691   1.267537   0.000000
     5  C    4.313677   3.296242   2.411180   1.390510   0.000000
     6  N    5.062151   3.781946   3.578402   2.989275   1.790323
     7  C    3.982099   2.760370   2.419265   1.934522   1.108995
     8  O    5.566998   4.367010   3.848661   2.970093   1.587823
     9  O    3.005803   1.671698   2.191506   2.516057   2.413491
    10  H    1.078708   2.208882   2.180429   3.340175   4.589263
    11  H    2.107614   2.260841   1.081155   1.802824   3.171140
    12  H    5.154747   4.281894   3.154070   1.909913   1.124345
                    6          7          8          9         10
     6  N    0.000000
     7  C    1.159181   0.000000
     8  O    0.944692   1.607277   0.000000
     9  O    2.229392   1.459819   2.974229   0.000000
    10  H    5.649591   4.508582   6.011763   3.798145   0.000000
    11  H    4.567100   3.415966   4.716535   3.263416   1.704686
    12  H    2.569921   2.202395   1.949860   3.535960   5.245939
                   11         12
    11  H    0.000000
    12  H    3.644592   0.000000
 Stoichiometry    C4H3N3O2
 Framework group  C1[X(C4H3N3O2)]
 Deg. of freedom    30
 Full point group                 C1      NOp   1
 Largest Abelian subgroup         C1      NOp   1
 Largest concise Abelian subgroup C1      NOp   1
                         Standard orientation:                         
 ---------------------------------------------------------------------
 Center     Atomic      Atomic             Coordinates (Angstroms)
 Number     Number       Type             X           Y           Z
 ---------------------------------------------------------------------
      1          7           0       -3.050164   -0.265266    0.000793
      2          6           0       -1.793110   -0.714507   -0.001912
      3          6           0       -1.282911    0.699079   -0.000027
      4          7           0       -0.173975    1.313009    0.000217
      5          6           0        1.125346    0.817751    0.001403
      6          7           0        1.988661   -0.750669    0.002372
      7          6           0        0.931923   -0.274239   -0.002258
      8          8           0        2.508563    0.038083   -0.001675
      9          8           0       -0.194368   -1.202965    0.000751
     10          1           0       -3.463102    0.731274   -0.000142
     11          1           0       -1.962454    1.539983    0.000058
     12          1           0        1.672867    1.799775    0.000561
 ---------------------------------------------------------------------
 Rotational constants (GHZ):           6.0782015           1.2958688           1.0681429
 Standard basis: 6-31G(2df,p) (6D, 7F)
 There are   294 symmetry adapted cartesian basis functions of A   symmetry.
 There are   267 symmetry adapted basis functions of A   symmetry.
   267 basis functions,   417 primitive gaussians,   294 cartesian basis functions
    32 alpha electrons       32 beta electrons
       nuclear repulsion energy       446.0274275081 Hartrees.
 NAtoms=   12 NActive=   12 NUniq=   12 SFac= 1.00D+00 NAtFMM=   60 NAOKFM=F Big=F
 Integral buffers will be    131072 words long.
 Raffenetti 2 integral format.
 Two-electron integral symmetry is turned on.
 One-electron integrals computed using PRISM.
 PrsmSu:  requested number of processors reduced to:  13 ShMem   1 Linda.
 NBasis=   267 RedAO= T EigKep=  1.05D-04  NBF=   267
 NBsUse=   267 1.00D-06 EigRej= -1.00D+00 NBFU=   267
 ExpMin= 1.61D-01 ExpMax= 5.48D+03 ExpMxC= 8.25D+02 IAcc=3 IRadAn=         5 AccDes= 0.00D+00
 Harris functional with IExCor=  402 and IRadAn=       5 diagonalized for initial guess.
 HarFok:  IExCor=  402 AccDes= 0.00D+00 IRadAn=         5 IDoV= 1 UseB2=F ITyADJ=14
 ICtDFT=  3500011 ScaDFX=  1.000000  1.000000  1.000000  1.000000
 FoFCou: FMM=F IPFlag=           0 FMFlag=      100000 FMFlg1=           0
         NFxFlg=           0 DoJE=T BraDBF=F KetDBF=T FulRan=T
         wScrn=  0.000000 ICntrl=       500 IOpCl=  0 I1Cent=   200000004 NGrid=           0
         NMat0=    1 NMatS0=      1 NMatT0=    0 NMatD0=    1 NMtDS0=    0 NMtDT0=    0
 Petite list used in FoFCou.
 Requested convergence on RMS density matrix=1.00D-08 within 128 cycles.
 Requested convergence on MAX density matrix=1.00D-06.
 Requested convergence on             energy=1.00D-06.
 No special actions if energy rises.
 Integral accuracy reduced to 1.0D-05 until final iterations.
 EnCoef did     4 forward-backward iterations
 EnCoef did     1 forward-backward iterations
 Initial convergence to 1.0D-05 achieved.  Increase integral accuracy.
 SCF Done:  E(RB3LYP) =  -467.886159712     A.U. after   22 cycles
            NFock= 22  Conv=0.33D-08     -V/T= 1.9958

 **********************************************************************

            Population analysis using the SCF density.

 **********************************************************************

 Orbital symmetries:
       Occupied  (A) (A) (A) (A) (A) (A) (A) (A) (A) (A) (A) (A)
                 (A) (A) (A) (A) (A) (A) (A) (A) (A) (A) (A) (A)
                 (A) (A) (A) (A) (A) (A) (A) (A)
       Virtual   (A) (A) (A) (A) (A) (A) (A) (A) (A) (A) (A) (A)
                 (A) (A) (A) (A) (A) (A) (A) (A) (A) (A) (A) (A)
                 (A) (A) (A) (A) (A) (A) (A) (A) (A) (A) (A) (A)
                 (A) (A) (A) (A) (A) (A) (A) (A) (A) (A) (A) (A)
                 (A) (A) (A) (A) (A) (A) (A) (A) (A) (A) (A) (A)
                 (A) (A) (A) (A) (A) (A) (A) (A) (A) (A) (A) (A)
                 (A) (A) (A) (A) (A) (A) (A) (A) (A) (A) (A) (A)
                 (A) (A) (A) (A) (A) (A) (A) (A) (A) (A) (A) (A)
                 (A) (A) (A) (A) (A) (A) (A) (A) (A) (A) (A) (A)
                 (A) (A) (A) (A) (A) (A) (A) (A) (A) (A) (A) (A)
                 (A) (A) (A) (A) (A) (A) (A) (A) (A) (A) (A) (A)
                 (A) (A) (A) (A) (A) (A) (A) (A) (A) (A) (A) (A)
                 (A) (A) (A) (A) (A) (A) (A) (A) (A) (A) (A) (A)
                 (A) (A) (A) (A) (A) (A) (A) (A) (A) (A) (A) (A)
                 (A) (A) (A) (A) (A) (A) (A) (A) (A) (A) (A) (A)
                 (A) (A) (A) (A) (A) (A) (A) (A) (A) (A) (A) (A)
                 (A) (A) (A) (A) (A) (A) (A) (A) (A) (A) (A) (A)
                 (A) (A) (A) (A) (A) (A) (A) (A) (A) (A) (A) (A)
                 (A) (A) (A) (A) (A) (A) (A) (A) (A) (A) (A) (A)
                 (A) (A) (A) (A) (A) (A) (A)
 The electronic state is 1-A.
 Alpha  occ. eigenvalues --  -19.23032 -19.22658 -14.45746 -14.34269 -14.30657
 Alpha  occ. eigenvalues --  -10.32452 -10.24751 -10.22504 -10.22347  -1.51188
 Alpha  occ. eigenvalues --   -1.06425  -0.96424  -0.93310  -0.89536  -0.78781
 Alpha  occ. eigenvalues --   -0.69921  -0.69262  -0.64683  -0.60327  -0.58188
 Alpha  occ. eigenvalues --   -0.52991  -0.49968  -0.46216  -0.44894  -0.38494
 Alpha  occ. eigenvalues --   -0.36235  -0.35204  -0.35176  -0.25981  -0.24191
 Alpha  occ. eigenvalues --   -0.21174  -0.20343
 Alpha virt. eigenvalues --   -0.12805  -0.11201  -0.04647   0.03568   0.07276
 Alpha virt. eigenvalues --    0.08938   0.15672   0.16144   0.18465   0.22740
 Alpha virt. eigenvalues --    0.25816   0.31470   0.35851   0.36442   0.39368
 Alpha virt. eigenvalues --    0.40613   0.42275   0.42774   0.44866   0.46352
 Alpha virt. eigenvalues --    0.48534   0.49936   0.51536   0.53552   0.55219
 Alpha virt. eigenvalues --    0.55882   0.56861   0.59663   0.62588   0.63179
 Alpha virt. eigenvalues --    0.64466   0.64920   0.70769   0.70948   0.73088
 Alpha virt. eigenvalues --    0.73292   0.75124   0.75955   0.77857   0.79002
 Alpha virt. eigenvalues --    0.81163   0.83695   0.84931   0.86150   0.87869
 Alpha virt. eigenvalues --    0.91802   0.92549   0.93275   0.95223   0.98300
 Alpha virt. eigenvalues --    0.98612   1.03309   1.04205   1.07168   1.08278
 Alpha virt. eigenvalues --    1.11271   1.15573   1.18221   1.19285   1.19747
 Alpha virt. eigenvalues --    1.22684   1.24692   1.25102   1.27510   1.30316
 Alpha virt. eigenvalues --    1.33662   1.35513   1.35797   1.40606   1.42137
 Alpha virt. eigenvalues --    1.43895   1.45319   1.51270   1.51352   1.56591
 Alpha virt. eigenvalues --    1.59388   1.60464   1.62829   1.62961   1.63549
 Alpha virt. eigenvalues --    1.65283   1.69196   1.69690   1.73332   1.77612
 Alpha virt. eigenvalues --    1.78220   1.86581   1.90586   1.92401   1.93642
 Alpha virt. eigenvalues --    1.97517   2.01800   2.07965   2.12595   2.17632
 Alpha virt. eigenvalues --    2.23602   2.24056   2.26276   2.31822   2.39939
 Alpha virt. eigenvalues --    2.43642   2.49210   2.50709   2.51852   2.56312
 Alpha virt. eigenvalues --    2.62504   2.64227   2.72972   2.75886   2.82855
 Alpha virt. eigenvalues --    2.85369   2.86984   2.88083   2.92305   2.96913
 Alpha virt. eigenvalues --    2.98868   3.02700   3.03256   3.07369   3.10752
 Alpha virt. eigenvalues --    3.12379   3.14703   3.17697   3.22173   3.25478
 Alpha virt. eigenvalues --    3.26708   3.27159   3.32759   3.38411   3.41827
 Alpha virt. eigenvalues --    3.46385   3.48589   3.51085   3.55002   3.58197
 Alpha virt. eigenvalues --    3.62693   3.69226   3.69488   3.75917   3.77476
 Alpha virt. eigenvalues --    3.82218   3.84159   3.87212   3.88035   3.90145
 Alpha virt. eigenvalues --    3.92483   3.96811   4.01136   4.03710   4.05404
 Alpha virt. eigenvalues --    4.10101   4.11936   4.13838   4.16398   4.18146
 Alpha virt. eigenvalues --    4.19541   4.21638   4.22082   4.24183   4.27950
 Alpha virt. eigenvalues --    4.29439   4.32094   4.34901   4.35793   4.36645
 Alpha virt. eigenvalues --    4.36990   4.41759   4.43907   4.44991   4.45360
 Alpha virt. eigenvalues --    4.48595   4.51504   4.51987   4.56838   4.57716
 Alpha virt. eigenvalues --    4.62317   4.62557   4.67324   4.73194   4.73603
 Alpha virt. eigenvalues --    4.75930   4.77555   4.83288   4.86357   4.88823
 Alpha virt. eigenvalues --    4.90281   4.96070   5.02644   5.02913   5.10114
 Alpha virt. eigenvalues --    5.10306   5.14064   5.16742   5.19036   5.25150
 Alpha virt. eigenvalues --    5.29186   5.32673   5.33016   5.37251   5.49091
 Alpha virt. eigenvalues --    5.51302   5.55269   5.56457   5.64800   5.67483
 Alpha virt. eigenvalues --    5.70548   5.74304   5.80950   5.85530   5.98284
 Alpha virt. eigenvalues --    6.06612   6.08400   6.08607   6.10798   6.16967
 Alpha virt. eigenvalues --    6.30959   6.42794   6.51885   6.70995   6.93302
 Alpha virt. eigenvalues --    7.00272   7.46709   7.86174   9.62446  10.77346
 Alpha virt. eigenvalues --   11.07973  11.29605  11.34668  11.38960  11.68395
 Alpha virt. eigenvalues --   12.18428  13.66870  13.90559  20.16185  22.21214
          Condensed to atoms (all electrons):
               1          2          3          4          5          6
     1  N    6.836613   0.516198  -0.230548   0.014613  -0.001541  -0.000007
     2  C    0.516198   4.969061   0.364371  -0.064228   0.012294   0.002584
     3  C   -0.230548   0.364371   4.928197   0.614904  -0.018065  -0.006379
     4  N    0.014613  -0.064228   0.614904   6.677358   0.210084  -0.007626
     5  C   -0.001541   0.012294  -0.018065   0.210084   5.290182  -0.100360
     6  N   -0.000007   0.002584  -0.006379  -0.007626  -0.100360   6.274434
     7  C    0.000077  -0.036108  -0.050003  -0.026078   0.478208   0.437702
     8  O   -0.000000  -0.000661  -0.001576   0.040044  -0.178693   0.324822
     9  O   -0.001929   0.235624  -0.055063  -0.051499  -0.064656  -0.027456
    10  H    0.330012  -0.080508  -0.013718   0.001872  -0.000213   0.000005
    11  H   -0.039166  -0.073561   0.356219  -0.035257   0.000499   0.000033
    12  H    0.000013   0.000247   0.005116  -0.118192   0.447863   0.030708
               7          8          9         10         11         12
     1  N    0.000077  -0.000000  -0.001929   0.330012  -0.039166   0.000013
     2  C   -0.036108  -0.000661   0.235624  -0.080508  -0.073561   0.000247
     3  C   -0.050003  -0.001576  -0.055063  -0.013718   0.356219   0.005116
     4  N   -0.026078   0.040044  -0.051499   0.001872  -0.035257  -0.118192
     5  C    0.478208  -0.178693  -0.064656  -0.000213   0.000499   0.447863
     6  N    0.437702   0.324822  -0.027456   0.000005   0.000033   0.030708
     7  C    4.734890  -0.120604   0.404264   0.000110   0.005378  -0.017591
     8  O   -0.120604   7.962035  -0.003267  -0.000000   0.000083  -0.140532
     9  O    0.404264  -0.003267   7.910621   0.000543   0.002280   0.000078
    10  H    0.000110  -0.000000   0.000543   0.443825   0.012821   0.000009
    11  H    0.005378   0.000083   0.002280   0.012821   0.705660  -0.001282
    12  H   -0.017591  -0.140532   0.000078   0.000009  -0.001282   0.700503
 Mulliken charges:
               1
     1  N   -0.424335
     2  C    0.154688
     3  C    0.106545
     4  N   -0.255995
     5  C   -0.075603
     6  N    0.071540
     7  C    0.189756
     8  O    0.118350
     9  O   -0.349541
    10  H    0.305242
    11  H    0.066293
    12  H    0.093060
 Sum of Mulliken charges =  -0.00000
 Mulliken charges with hydrogens summed into heavy atoms:
               1
     1  N   -0.119093
     2  C    0.154688
     3  C    0.172839
     4  N   -0.255995
     5  C    0.017457
     6  N    0.071540
     7  C    0.189756
     8  O    0.118350
     9  O   -0.349541
 Electronic spatial extent (au):  <R**2>=           1000.6972
 Charge=             -0.0000 electrons
 Dipole moment (field-independent basis, Debye):
    X=              1.3907    Y=              1.5225    Z=             -0.0160  Tot=              2.0621
 Quadrupole moment (field-independent basis, Debye-Ang):
   XX=            -50.0469   YY=            -52.9458   ZZ=            -47.0676
   XY=             -3.7362   XZ=             -0.0143   YZ=              0.0191
 Traceless Quadrupole moment (field-independent basis, Debye-Ang):
   XX=             -0.0268   YY=             -2.9257   ZZ=              2.9525
   XY=             -3.7362   XZ=             -0.0143   YZ=              0.0191
 Octapole moment (field-independent basis, Debye-Ang**2):
  XXX=             24.4745  YYY=             -2.8762  ZZZ=             -0.0099  XYY=              1.8608
  XXY=             27.0940  XXZ=             -0.0980  XZZ=              8.9428  YZZ=             -1.9063
  YYZ=             -0.0482  XYZ=              0.0271
 Hexadecapole moment (field-independent basis, Debye-Ang**3):
 XXXX=          -1021.2295 YYYY=           -267.0678 ZZZZ=            -39.8333 XXXY=            -86.8726
 XXXZ=             -0.0388 YYYX=              3.0193 YYYZ=              0.0134 ZZZX=             -0.0392
 ZZZY=             -0.0023 XXYY=           -194.8463 XXZZ=           -160.3674 YYZZ=            -48.7874
 XXYZ=              0.1207 YYXZ=             -0.0854 ZZXY=             -2.3624
 N-N= 4.460274275081D+02 E-N=-1.989548480751D+03  KE= 4.698500622405D+02
 PrsmSu:  requested number of processors reduced to:  13 ShMem   1 Linda.
 Calling FoFJK, ICntrl=      2127 FMM=F ISym2X=0 I1Cent= 0 IOpClX= 0 NMat=1 NMatS=1 NMatT=0.
 ***** Axes restored to original set *****
 -------------------------------------------------------------------
 Center     Atomic                   Forces (Hartrees/Bohr)
 Number     Number              X              Y              Z
 -------------------------------------------------------------------
      1        7           0.016750259    0.137012500    0.077600198
      2        6          -0.066107481   -0.168565160   -0.096165040
      3        6           0.013294349   -0.066531268   -0.037144806
      4        7          -0.059203104   -0.028998069   -0.016536137
      5        6          -0.404273734   -0.417060600   -0.236795136
      6        7           0.294960560    0.955055222    0.533977706
      7        6          -0.337384990    0.474851144    0.271173226
      8        8           0.510911465   -0.964839631   -0.540452618
      9        8          -0.013313533    0.043713062    0.025118639
     10        1           0.056497549    0.010733622    0.006201154
     11        1          -0.020463779    0.014176765    0.008027778
     12        1           0.008332437    0.010452412    0.004995038
 -------------------------------------------------------------------
 Cartesian Forces:  Max     0.964839631 RMS     0.318819741

 GradGradGradGradGradGradGradGradGradGradGradGradGradGradGradGradGradGrad
 Berny optimization.
 FormGI is forming the generalized inverse of G from B-inverse, IUseBI=4.
 Internal  Forces:  Max     0.912476315 RMS     0.168507981
 Search for a local minimum.
 Step number   1 out of a maximum of   66
 All quantities printed in internal units (Hartrees-Bohrs-Radians)
 Mixed Optimization -- RFO/linear search
 Second derivative matrix not updated -- first step.
 ITU=  0
     Eigenvalues ---    0.00511   0.00690   0.01052   0.01400   0.01646
     Eigenvalues ---    0.02410   0.03064   0.03425   0.05658   0.10406
     Eigenvalues ---    0.15999   0.16000   0.16000   0.16935   0.19899
     Eigenvalues ---    0.23350   0.23768   0.24455   0.24999   0.31127
     Eigenvalues ---    0.31232   0.35855   0.36084   0.36151   0.45910
     Eigenvalues ---    0.58359   0.73594   1.04784   1.33602   4.18739
 RFO step:  Lambda=-6.49860199D-01 EMin= 5.11310157D-03
 Linear search not attempted -- first point.
 Maximum step size (   0.300) exceeded in Quadratic search.
    -- Step size scaled by   0.452
 Iteration  1 RMS(Cart)=  0.06536966 RMS(Int)=  0.00212877
 Iteration  2 RMS(Cart)=  0.00323668 RMS(Int)=  0.00025370
 Iteration  3 RMS(Cart)=  0.00000111 RMS(Int)=  0.00025370
 Iteration  4 RMS(Cart)=  0.00000000 RMS(Int)=  0.00025370
 Variable       Old X    -DE/DX   Delta X   Delta X   Delta X     New X
                                 (Linear)    (Quad)   (Total)
    R1        2.52263  -0.05636   0.00000  -0.02067  -0.02067   2.50196
    R2        2.03846  -0.05016   0.00000  -0.02244  -0.02244   2.01603
    R3        2.83996   0.08271   0.00000   0.03095   0.03106   2.87102
    R4        3.15905  -0.04036   0.00000  -0.02271  -0.02271   3.13634
    R5        2.39530   0.03477   0.00000   0.00776   0.00784   2.40314
    R6        2.04309   0.01133   0.00000   0.00508   0.00508   2.04817
    R7        2.62768   0.08328   0.00000   0.03483   0.03483   2.66251
    R8        2.09570   0.46072   0.00000   0.09517   0.09522   2.19091
    R9        3.00055   0.22897   0.00000   0.13415   0.13464   3.13519
   R10        2.12470  -0.01097   0.00000  -0.00516  -0.00516   2.11954
   R11        2.19054   0.31828   0.00000   0.09606   0.09653   2.28706
   R12        1.78521   0.91248   0.00000   0.08394   0.08441   1.86962
   R13        3.03731   0.36148   0.00000   0.08421   0.08298   3.12029
   R14        2.75866  -0.05793   0.00000  -0.02012  -0.02021   2.73845
    A1        2.30686  -0.05871   0.00000  -0.03280  -0.03280   2.27406
    A2        1.57394   0.14884   0.00000   0.09605   0.09598   1.66992
    A3        1.52094   0.08806   0.00000   0.03900   0.03915   1.56009
    A4        2.42279  -0.00787   0.00000  -0.01957  -0.01943   2.40336
    A5        2.11555  -0.02015   0.00000  -0.00367  -0.00374   2.11181
    A6        1.74484   0.02802   0.00000   0.02324   0.02317   1.76801
    A7        2.27181  -0.02216   0.00000  -0.01810  -0.01806   2.25375
    A8        1.75965   0.00353   0.00000   0.02309   0.02276   1.78241
    A9        1.71525   0.00055   0.00000  -0.00290  -0.00284   1.71241
   A10        2.80826  -0.00408   0.00000  -0.02018  -0.01992   2.78834
   A11        1.57545  -0.01468   0.00000   0.00650   0.00630   1.58175
   A12        1.81903   0.22762   0.00000   0.03807   0.03754   1.85657
   A13        2.43564  -0.05719   0.00000  -0.02179  -0.02167   2.41398
   A14        2.02846  -0.17043   0.00000  -0.01628  -0.01587   2.01259
   A15        2.64759   0.15744   0.00000   0.00224   0.00224   2.64984
   A16        1.50128   0.18527   0.00000   0.03027   0.02949   1.53077
   A17        2.15551  -0.00437   0.00000  -0.00262  -0.00275   2.15277
   A18        3.09488   0.23690   0.00000   0.13505   0.13512   3.23000
   A19        3.29070  -0.01413   0.00000   0.00359   0.00346   3.29416
   A20        3.13803  -0.00007   0.00000  -0.00007  -0.00007   3.13796
   A21        3.14451   0.00131   0.00000   0.00018   0.00017   3.14468
    D1        0.00427   0.00012   0.00000   0.00005   0.00006   0.00432
    D2       -0.00128  -0.00005   0.00000  -0.00001  -0.00001  -0.00128
    D3        3.14070  -0.00016   0.00000  -0.00010  -0.00010   3.14061
    D4       -0.00270  -0.00008   0.00000  -0.00005  -0.00005  -0.00275
    D5        0.00267  -0.00009   0.00000  -0.00003  -0.00003   0.00265
    D6       -3.14073  -0.00001   0.00000   0.00002   0.00002  -3.14071
    D7       -0.00470  -0.00021   0.00000  -0.00005  -0.00004  -0.00475
    D8       -0.00264  -0.00010   0.00000  -0.00003  -0.00003  -0.00267
    D9        3.14053  -0.00014   0.00000  -0.00006  -0.00006   3.14047
   D10        0.00399   0.00002   0.00000   0.00007   0.00007   0.00406
   D11        3.14118   0.00026   0.00000  -0.00008  -0.00008   3.14110
   D12       -0.00493  -0.00069   0.00000  -0.00019  -0.00019  -0.00512
   D13       -3.13814   0.00111   0.00000   0.00006   0.00005  -3.13808
   D14       -0.00855   0.00038   0.00000   0.00010   0.00010  -0.00845
   D15        0.01678   0.00021   0.00000  -0.00024  -0.00024   0.01654
   D16       -3.13682  -0.00053   0.00000  -0.00020  -0.00020  -3.13701
   D17        3.13819  -0.00078   0.00000  -0.00011  -0.00012   3.13808
   D18        0.00638   0.00011   0.00000   0.00006   0.00006   0.00643
   D19        0.01078  -0.00064   0.00000  -0.00026  -0.00026   0.01052
   D20        3.13940   0.00041   0.00000   0.00001   0.00001   3.13941
   D21        3.14028  -0.00006   0.00000   0.00013   0.00013   3.14040
         Item               Value     Threshold  Converged?
 Maximum Force            0.912476     0.000450     NO 
 RMS     Force            0.168508     0.000300     NO 
 Maximum Displacement     0.238844     0.001800     NO 
 RMS     Displacement     0.064944     0.001200     NO 
 Predicted change in Energy=-2.564561D-01
 GradGradGradGradGradGradGradGradGradGradGradGradGradGradGradGradGradGrad

                          Input orientation:                          
 ---------------------------------------------------------------------
 Center     Atomic      Atomic             Coordinates (Angstroms)
 Number     Number       Type             X           Y           Z
 ---------------------------------------------------------------------
      1          7           0        1.814746    0.012135    0.099335
      2          6           0        3.111492   -0.221575   -0.030111
      3          6           0        2.953692   -1.535383   -0.776578
      4          7           0        3.707191   -2.426587   -1.281733
      5          6           0        5.114456   -2.485712   -1.316704
      6          7           0        6.622800   -1.483705   -0.750251
      7          6           0        5.412938   -1.512849   -0.761177
      8          8           0        6.764594   -2.337809   -1.229032
      9          8           0        4.760253   -0.385649   -0.126056
     10          1           0        0.974811   -0.560659   -0.224011
     11          1           0        1.971685   -1.934434   -1.002723
     12          1           0        5.218442   -3.457872   -1.866347
 ---------------------------------------------------------------------
                    Distance matrix (angstroms):
                    1          2          3          4          5
     1  N    0.000000
     2  C    1.323981   0.000000
     3  C    2.111690   1.519278   0.000000
     4  N    3.381725   2.604514   1.271687   0.000000
     5  C    4.374070   3.285346   2.421520   1.408940   0.000000
     6  N    5.106536   3.800112   3.669566   3.110028   1.897364
     7  C    4.001630   2.738339   2.459397   2.003863   1.159380
     8  O    5.638067   4.388737   3.920660   3.059146   1.659072
     9  O    2.980780   1.659681   2.238020   2.570984   2.439952
    10  H    1.066835   2.172092   2.274069   3.473668   4.694302
    11  H    2.242386   2.275746   1.083846   1.825389   3.206166
    12  H    5.243091   4.276052   3.164277   1.920729   1.121613
                    6          7          8          9         10
     6  N    0.000000
     7  C    1.210262   0.000000
     8  O    0.989359   1.651188   0.000000
     9  O    2.250428   1.449123   3.007469   0.000000
    10  H    5.747062   4.570797   6.139212   3.790752   0.000000
    11  H    4.679719   3.475385   4.815175   3.308081   1.867461
    12  H    2.667439   2.245516   2.012784   3.560493   5.394397
                   11         12
    11  H    0.000000
    12  H    3.688921   0.000000
 Stoichiometry    C4H3N3O2
 Framework group  C1[X(C4H3N3O2)]
 Deg. of freedom    30
 Full point group                 C1      NOp   1
 Largest Abelian subgroup         C1      NOp   1
 Largest concise Abelian subgroup C1      NOp   1
                         Standard orientation:                         
 ---------------------------------------------------------------------
 Center     Atomic      Atomic             Coordinates (Angstroms)
 Number     Number       Type             X           Y           Z
 ---------------------------------------------------------------------
      1          7           0       -3.074154   -0.368267    0.000708
      2          6           0       -1.784728   -0.668766   -0.001880
      3          6           0       -1.295172    0.769475    0.000031
      4          7           0       -0.181903    1.384143    0.000270
      5          6           0        1.124760    0.857132    0.001533
      6          7           0        2.012379   -0.819806    0.002540
      7          6           0        0.926612   -0.285184   -0.002299
      8          8           0        2.551213    0.009936   -0.001873
      9          8           0       -0.207937   -1.186709    0.000702
     10          1           0       -3.561400    0.580799   -0.000274
     11          1           0       -1.994808    1.597261    0.000118
     12          1           0        1.686909    1.827701    0.000587
 ---------------------------------------------------------------------
 Rotational constants (GHZ):           5.6742976           1.2707482           1.0382383
 Standard basis: 6-31G(2df,p) (6D, 7F)
 There are   294 symmetry adapted cartesian basis functions of A   symmetry.
 There are   267 symmetry adapted basis functions of A   symmetry.
   267 basis functions,   417 primitive gaussians,   294 cartesian basis functions
    32 alpha electrons       32 beta electrons
       nuclear repulsion energy       437.4838132342 Hartrees.
 NAtoms=   12 NActive=   12 NUniq=   12 SFac= 1.00D+00 NAtFMM=   60 NAOKFM=F Big=F
 Integral buffers will be    131072 words long.
 Raffenetti 2 integral format.
 Two-electron integral symmetry is turned on.
 One-electron integrals computed using PRISM.
 PrsmSu:  requested number of processors reduced to:  13 ShMem   1 Linda.
 NBasis=   267 RedAO= T EigKep=  1.36D-04  NBF=   267
 NBsUse=   267 1.00D-06 EigRej= -1.00D+00 NBFU=   267
 Initial guess from the checkpoint file:  "Ndc1cncncpdOpo1.chk"
 B after Tr=     0.000000   -0.000000   -0.000000
         Rot=    1.000000   -0.000024    0.000002   -0.000740 Ang=  -0.08 deg.
 ExpMin= 1.61D-01 ExpMax= 5.48D+03 ExpMxC= 8.25D+02 IAcc=2 IRadAn=         4 AccDes= 0.00D+00
 Harris functional with IExCor=  402 and IRadAn=       4 diagonalized for initial guess.
 HarFok:  IExCor=  402 AccDes= 0.00D+00 IRadAn=         4 IDoV= 1 UseB2=F ITyADJ=14
 ICtDFT=  3500011 ScaDFX=  1.000000  1.000000  1.000000  1.000000
 FoFCou: FMM=F IPFlag=           0 FMFlag=      100000 FMFlg1=           0
         NFxFlg=           0 DoJE=T BraDBF=F KetDBF=T FulRan=T
         wScrn=  0.000000 ICntrl=       500 IOpCl=  0 I1Cent=   200000004 NGrid=           0
         NMat0=    1 NMatS0=      1 NMatT0=    0 NMatD0=    1 NMtDS0=    0 NMtDT0=    0
 Petite list used in FoFCou.
 Requested convergence on RMS density matrix=1.00D-08 within 128 cycles.
 Requested convergence on MAX density matrix=1.00D-06.
 Requested convergence on             energy=1.00D-06.
 No special actions if energy rises.
 Integral accuracy reduced to 1.0D-05 until final iterations.
 Initial convergence to 1.0D-05 achieved.  Increase integral accuracy.
 SCF Done:  E(RB3LYP) =  -468.141449849     A.U. after   17 cycles
            NFock= 17  Conv=0.40D-08     -V/T= 1.9990
 PrsmSu:  requested number of processors reduced to:  13 ShMem   1 Linda.
 Calling FoFJK, ICntrl=      2127 FMM=F ISym2X=0 I1Cent= 0 IOpClX= 0 NMat=1 NMatS=1 NMatT=0.
 ***** Axes restored to original set *****
 -------------------------------------------------------------------
 Center     Atomic                   Forces (Hartrees/Bohr)
 Number     Number              X              Y              Z
 -------------------------------------------------------------------
      1        7           0.052692420    0.108152210    0.061322014
      2        6          -0.077733965   -0.164768895   -0.094008361
      3        6           0.008638051   -0.042715676   -0.023690643
      4        7          -0.040142601   -0.024379211   -0.014006964
      5        6          -0.320893774   -0.281628573   -0.159546883
      6        7           0.191361144    0.666646288    0.372908769
      7        6          -0.256226805    0.330520306    0.188259562
      8        8           0.417167056   -0.674004774   -0.377484561
      9        8          -0.019073119    0.042753951    0.024522054
     10        1           0.051094806    0.005387245    0.003150665
     11        1          -0.020571889    0.018036457    0.010221684
     12        1           0.013688677    0.016000672    0.008352665
 -------------------------------------------------------------------
 Cartesian Forces:  Max     0.674004774 RMS     0.228577537

 GradGradGradGradGradGradGradGradGradGradGradGradGradGradGradGradGradGrad
 Berny optimization.
 Using GEDIIS/GDIIS optimizer.
 FormGI is forming the generalized inverse of G from B-inverse, IUseBI=4.
 Internal  Forces:  Max     0.638139968 RMS     0.120372794
 Search for a local minimum.
 Step number   2 out of a maximum of   66
 All quantities printed in internal units (Hartrees-Bohrs-Radians)
 Mixed Optimization -- RFO/linear search
 Update second derivatives using D2CorX and points    1    2
 DE= -2.55D-01 DEPred=-2.56D-01 R= 9.95D-01
 TightC=F SS=  1.41D+00  RLast= 3.00D-01 DXNew= 5.0454D-01 8.9995D-01
 Trust test= 9.95D-01 RLast= 3.00D-01 DXMaxT set to 5.05D-01
 ITU=  1  0
 Use linear search instead of GDIIS.
 Linear search step of   0.600 exceeds DXMaxT=   0.505 but not scaled.
 Quartic linear search produced a step of  2.00000.
 Iteration  1 RMS(Cart)=  0.11109659 RMS(Int)=  0.01226769
 Iteration  2 RMS(Cart)=  0.01915561 RMS(Int)=  0.00148195
 Iteration  3 RMS(Cart)=  0.00035431 RMS(Int)=  0.00146105
 Iteration  4 RMS(Cart)=  0.00000011 RMS(Int)=  0.00146105
 Variable       Old X    -DE/DX   Delta X   Delta X   Delta X     New X
                                 (Linear)    (Quad)   (Total)
    R1        2.50196  -0.07531  -0.04134   0.00000  -0.04134   2.46062
    R2        2.01603  -0.04408  -0.04488   0.00000  -0.04488   1.97115
    R3        2.87102   0.03800   0.06212   0.00000   0.06278   2.93380
    R4        3.13634  -0.04743  -0.04542   0.00000  -0.04539   3.09095
    R5        2.40314   0.02220   0.01568   0.00000   0.01616   2.41930
    R6        2.04817   0.00987   0.01017   0.00000   0.01017   2.05834
    R7        2.66251   0.06152   0.06966   0.00000   0.06959   2.73210
    R8        2.19091   0.31713   0.19043   0.00000   0.19049   2.38141
    R9        3.13519   0.19117   0.26928   0.00000   0.27206   3.40725
   R10        2.11954  -0.01669  -0.01032   0.00000  -0.01032   2.10922
   R11        2.28706   0.22965   0.19306   0.00000   0.19550   2.48256
   R12        1.86962   0.63814   0.16882   0.00000   0.17129   2.04091
   R13        3.12029   0.25988   0.16596   0.00000   0.15917   3.27946
   R14        2.73845  -0.05167  -0.04043   0.00000  -0.04096   2.69749
    A1        2.27406  -0.05361  -0.06559   0.00000  -0.06559   2.20847
    A2        1.66992   0.11850   0.19196   0.00000   0.19154   1.86146
    A3        1.56009   0.08175   0.07829   0.00000   0.07912   1.63921
    A4        2.40336  -0.01577  -0.03887   0.00000  -0.03799   2.36536
    A5        2.11181  -0.02027  -0.00747   0.00000  -0.00791   2.10391
    A6        1.76801   0.03603   0.04634   0.00000   0.04590   1.81392
    A7        2.25375  -0.02459  -0.03612   0.00000  -0.03589   2.21786
    A8        1.78241   0.01320   0.04552   0.00000   0.04354   1.82595
    A9        1.71241   0.00096  -0.00568   0.00000  -0.00529   1.70711
   A10        2.78834  -0.01416  -0.03984   0.00000  -0.03825   2.75009
   A11        1.58175  -0.01729   0.01260   0.00000   0.01139   1.59314
   A12        1.85657   0.15686   0.07508   0.00000   0.07173   1.92830
   A13        2.41398  -0.04303  -0.04333   0.00000  -0.04252   2.37146
   A14        2.01259  -0.11384  -0.03175   0.00000  -0.02921   1.98338
   A15        2.64984   0.10063   0.00449   0.00000   0.00455   2.65439
   A16        1.53077   0.10626   0.05897   0.00000   0.05420   1.58497
   A17        2.15277  -0.01157  -0.00549   0.00000  -0.00627   2.14650
   A18        3.23000   0.20025   0.27025   0.00000   0.27066   3.50066
   A19        3.29416  -0.01633   0.00692   0.00000   0.00609   3.30025
   A20        3.13796  -0.00009  -0.00014   0.00000  -0.00014   3.13782
   A21        3.14468   0.00083   0.00035   0.00000   0.00032   3.14500
    D1        0.00432   0.00009   0.00011   0.00000   0.00013   0.00446
    D2       -0.00128  -0.00003  -0.00002   0.00000  -0.00004  -0.00132
    D3        3.14061  -0.00013  -0.00019   0.00000  -0.00019   3.14041
    D4       -0.00275  -0.00006  -0.00011   0.00000  -0.00010  -0.00285
    D5        0.00265  -0.00004  -0.00005   0.00000  -0.00005   0.00259
    D6       -3.14071   0.00002   0.00003   0.00000   0.00004  -3.14067
    D7       -0.00475  -0.00015  -0.00009   0.00000  -0.00006  -0.00481
    D8       -0.00267  -0.00005  -0.00006   0.00000  -0.00004  -0.00271
    D9        3.14047  -0.00007  -0.00011   0.00000  -0.00010   3.14037
   D10        0.00406  -0.00001   0.00014   0.00000   0.00012   0.00418
   D11        3.14110   0.00006  -0.00016   0.00000  -0.00013   3.14097
   D12       -0.00512  -0.00036  -0.00038   0.00000  -0.00034  -0.00545
   D13       -3.13808   0.00072   0.00011   0.00000   0.00010  -3.13798
   D14       -0.00845   0.00028   0.00019   0.00000   0.00018  -0.00827
   D15        0.01654   0.00000  -0.00048   0.00000  -0.00047   0.01608
   D16       -3.13701  -0.00043  -0.00040   0.00000  -0.00038  -3.13740
   D17        3.13808  -0.00036  -0.00023   0.00000  -0.00024   3.13784
   D18        0.00643   0.00001   0.00011   0.00000   0.00008   0.00651
   D19        0.01052  -0.00052  -0.00052   0.00000  -0.00051   0.01001
   D20        3.13941   0.00029   0.00003   0.00000   0.00003   3.13945
   D21        3.14040   0.00003   0.00026   0.00000   0.00026   3.14067
         Item               Value     Threshold  Converged?
 Maximum Force            0.638140     0.000450     NO 
 RMS     Force            0.120373     0.000300     NO 
 Maximum Displacement     0.456048     0.001800     NO 
 RMS     Displacement     0.126770     0.001200     NO 
 Predicted change in Energy=-2.897755D-01
 GradGradGradGradGradGradGradGradGradGradGradGradGradGradGradGradGradGrad

                          Input orientation:                          
 ---------------------------------------------------------------------
 Center     Atomic      Atomic             Coordinates (Angstroms)
 Number     Number       Type             X           Y           Z
 ---------------------------------------------------------------------
      1          7           0        1.878142    0.131782    0.167206
      2          6           0        3.070427   -0.324740   -0.088768
      3          6           0        2.879972   -1.664436   -0.849813
      4          7           0        3.658058   -2.548936   -1.351069
      5          6           0        5.103796   -2.540451   -1.347914
      6          7           0        6.720300   -1.353389   -0.676822
      7          6           0        5.414325   -1.479801   -0.742388
      8          8           0        6.882392   -2.285003   -1.198573
      9          8           0        4.703649   -0.401165   -0.134860
     10          1           0        0.972657   -0.319329   -0.087015
     11          1           0        1.881074   -2.042293   -1.063916
     12          1           0        5.262308   -3.502338   -1.891457
 ---------------------------------------------------------------------
                    Distance matrix (angstroms):
                    1          2          3          4          5
     1  N    0.000000
     2  C    1.302105   0.000000
     3  C    2.294426   1.552498   0.000000
     4  N    3.558021   2.624074   1.280240   0.000000
     5  C    4.454354   3.260279   2.441495   1.445766   0.000000
     6  N    5.134648   3.837382   3.856785   3.355781   2.114843
     7  C    3.991134   2.693556   2.543339   2.144298   1.260186
     8  O    5.722650   4.427796   4.065231   3.238710   1.803041
     9  O    2.891153   1.635659   2.330839   2.680550   2.491619
    10  H    1.043088   2.097777   2.455407   3.712191   4.856909
    11  H    2.498454   2.305529   1.089226   1.869978   3.273340
    12  H    5.375640   4.260418   3.184090   1.942836   1.116151
                    6          7          8          9         10
     6  N    0.000000
     7  C    1.313716   0.000000
     8  O    1.080001   1.735418   0.000000
     9  O    2.295067   1.427448   3.070383   0.000000
    10  H    5.869629   4.637307   6.326484   3.732196   0.000000
    11  H    4.903319   3.592163   5.009014   3.394610   2.179028
    12  H    2.866890   2.331121   2.141650   3.607632   5.638144
                   11         12
    11  H    0.000000
    12  H    3.774825   0.000000
 Stoichiometry    C4H3N3O2
 Framework group  C1[X(C4H3N3O2)]
 Deg. of freedom    30
 Full point group                 C1      NOp   1
 Largest Abelian subgroup         C1      NOp   1
 Largest concise Abelian subgroup C1      NOp   1
                         Standard orientation:                         
 ---------------------------------------------------------------------
 Center     Atomic      Atomic             Coordinates (Angstroms)
 Number     Number       Type             X           Y           Z
 ---------------------------------------------------------------------
      1          7           0       -3.072445   -0.578640    0.000512
      2          6           0       -1.770341   -0.578143   -0.001776
      3          6           0       -1.325985    0.909403    0.000145
      4          7           0       -0.205110    1.527993    0.000355
      5          6           0        1.115328    0.939195    0.001774
      6          7           0        2.048108   -0.958825    0.002878
      7          6           0        0.909229   -0.304016   -0.002359
      8          8           0        2.625368   -0.046056   -0.002291
      9          8           0       -0.238785   -1.152345    0.000644
     10          1           0       -3.693746    0.259223   -0.000609
     11          1           0       -2.066375    1.708300    0.000223
     12          1           0        1.704201    1.887362    0.000645
 ---------------------------------------------------------------------
 Rotational constants (GHZ):           4.8765155           1.2414455           0.9895350
 Standard basis: 6-31G(2df,p) (6D, 7F)
 There are   294 symmetry adapted cartesian basis functions of A   symmetry.
 There are   267 symmetry adapted basis functions of A   symmetry.
   267 basis functions,   417 primitive gaussians,   294 cartesian basis functions
    32 alpha electrons       32 beta electrons
       nuclear repulsion energy       422.7134317368 Hartrees.
 NAtoms=   12 NActive=   12 NUniq=   12 SFac= 1.00D+00 NAtFMM=   60 NAOKFM=F Big=F
 Integral buffers will be    131072 words long.
 Raffenetti 2 integral format.
 Two-electron integral symmetry is turned on.
 One-electron integrals computed using PRISM.
 PrsmSu:  requested number of processors reduced to:  13 ShMem   1 Linda.
 NBasis=   267 RedAO= T EigKep=  2.01D-04  NBF=   267
 NBsUse=   267 1.00D-06 EigRej= -1.00D+00 NBFU=   267
 Initial guess from the checkpoint file:  "Ndc1cncncpdOpo1.chk"
 B after Tr=     0.000000   -0.000000    0.000000
         Rot=    0.999998   -0.000034    0.000003   -0.002127 Ang=  -0.24 deg.
 ExpMin= 1.61D-01 ExpMax= 5.48D+03 ExpMxC= 8.25D+02 IAcc=2 IRadAn=         4 AccDes= 0.00D+00
 Harris functional with IExCor=  402 and IRadAn=       4 diagonalized for initial guess.
 HarFok:  IExCor=  402 AccDes= 0.00D+00 IRadAn=         4 IDoV= 1 UseB2=F ITyADJ=14
 ICtDFT=  3500011 ScaDFX=  1.000000  1.000000  1.000000  1.000000
 FoFCou: FMM=F IPFlag=           0 FMFlag=      100000 FMFlg1=           0
         NFxFlg=           0 DoJE=T BraDBF=F KetDBF=T FulRan=T
         wScrn=  0.000000 ICntrl=       500 IOpCl=  0 I1Cent=   200000004 NGrid=           0
         NMat0=    1 NMatS0=      1 NMatT0=    0 NMatD0=    1 NMtDS0=    0 NMtDT0=    0
 Petite list used in FoFCou.
 Requested convergence on RMS density matrix=1.00D-08 within 128 cycles.
 Requested convergence on MAX density matrix=1.00D-06.
 Requested convergence on             energy=1.00D-06.
 No special actions if energy rises.
 Integral accuracy reduced to 1.0D-05 until final iterations.
 Initial convergence to 1.0D-05 achieved.  Increase integral accuracy.
 SCF Done:  E(RB3LYP) =  -468.464129456     A.U. after   16 cycles
            NFock= 16  Conv=0.50D-08     -V/T= 2.0037
 PrsmSu:  requested number of processors reduced to:  13 ShMem   1 Linda.
 Calling FoFJK, ICntrl=      2127 FMM=F ISym2X=0 I1Cent= 0 IOpClX= 0 NMat=1 NMatS=1 NMatT=0.
 ***** Axes restored to original set *****
 -------------------------------------------------------------------
 Center     Atomic                   Forces (Hartrees/Bohr)
 Number     Number              X              Y              Z
 -------------------------------------------------------------------
      1        7           0.084800881    0.057661190    0.032815982
      2        6          -0.067128980   -0.131659724   -0.075219201
      3        6           0.004813896   -0.014272768   -0.007649539
      4        7          -0.006900714   -0.007644760   -0.004603800
      5        6          -0.207281403   -0.097423823   -0.054586845
      6        7           0.048284337    0.263527504    0.147700348
      7        6          -0.146843414    0.150057447    0.084518170
      8        8           0.285121894   -0.287487193   -0.160984394
      9        8          -0.035591324    0.029652695    0.017095864
     10        1           0.035572719   -0.004102904   -0.002277692
     11        1          -0.015970615    0.019617287    0.011114356
     12        1           0.021122725    0.022075052    0.012076751
 -------------------------------------------------------------------
 Cartesian Forces:  Max     0.287487193 RMS     0.109947673

 GradGradGradGradGradGradGradGradGradGradGradGradGradGradGradGradGradGrad
 Berny optimization.
 Using GEDIIS/GDIIS optimizer.
 FormGI is forming the generalized inverse of G from B-inverse, IUseBI=4.
 Internal  Forces:  Max     0.256942053 RMS     0.056960013
 Search for a local minimum.
 Step number   3 out of a maximum of   66
 All quantities printed in internal units (Hartrees-Bohrs-Radians)
 Mixed Optimization -- RFO/linear search
 Update second derivatives using D2CorX and points    2    3
 ITU=  0  1  0
 Use linear search instead of GDIIS.
 Linear search step of   1.199 exceeds DXMaxT=   0.505 scaled by   0.841
 Quartic linear search produced a step of  1.68253.
 Iteration  1 RMS(Cart)=  0.12565333 RMS(Int)=  0.05588025
 Iteration  2 RMS(Cart)=  0.08481174 RMS(Int)=  0.00661981
 Iteration  3 RMS(Cart)=  0.00747829 RMS(Int)=  0.00397758
 Iteration  4 RMS(Cart)=  0.00001639 RMS(Int)=  0.00397757
 Iteration  5 RMS(Cart)=  0.00000002 RMS(Int)=  0.00397757
 Variable       Old X    -DE/DX   Delta X   Delta X   Delta X     New X
                                 (Linear)    (Quad)   (Total)
    R1        2.46062  -0.08544  -0.06956   0.00000  -0.06956   2.39107
    R2        1.97115  -0.02855  -0.07550   0.00000  -0.07550   1.89565
    R3        2.93380  -0.01752   0.10562   0.00000   0.10761   3.04140
    R4        3.09095  -0.06124  -0.07638   0.00000  -0.07615   3.01480
    R5        2.41930   0.00071   0.02720   0.00000   0.02866   2.44796
    R6        2.05834   0.00566   0.01711   0.00000   0.01711   2.07545
    R7        2.73210   0.02228   0.11709   0.00000   0.11677   2.84887
    R8        2.38141   0.11375   0.32051   0.00000   0.31961   2.70102
    R9        3.40725   0.13146   0.45775   0.00000   0.46507   3.87233
   R10        2.10922  -0.02191  -0.01737   0.00000  -0.01737   2.09185
   R11        2.48256   0.09109   0.32893   0.00000   0.33448   2.81705
   R12        2.04091   0.25694   0.28820   0.00000   0.29408   2.33498
   R13        3.27946   0.14200   0.26781   0.00000   0.25064   3.53011
   R14        2.69749  -0.04431  -0.06892   0.00000  -0.07047   2.62702
    A1        2.20847  -0.04284  -0.11036   0.00000  -0.11036   2.09811
    A2        1.86146   0.07653   0.32227   0.00000   0.32108   2.18254
    A3        1.63921   0.06206   0.13313   0.00000   0.13551   1.77472
    A4        2.36536  -0.02435  -0.06393   0.00000  -0.06119   2.30418
    A5        2.10391  -0.01566  -0.01331   0.00000  -0.01468   2.08923
    A6        1.81392   0.04001   0.07723   0.00000   0.07586   1.88978
    A7        2.21786  -0.01917  -0.06038   0.00000  -0.05959   2.15827
    A8        1.82595   0.01739   0.07326   0.00000   0.06735   1.89331
    A9        1.70711   0.00433  -0.00891   0.00000  -0.00771   1.69941
   A10        2.75009  -0.02172  -0.06436   0.00000  -0.05965   2.69044
   A11        1.59314  -0.02557   0.01916   0.00000   0.01565   1.60879
   A12        1.92830   0.05834   0.12068   0.00000   0.11063   2.03893
   A13        2.37146  -0.02147  -0.07154   0.00000  -0.06914   2.30231
   A14        1.98338  -0.03687  -0.04915   0.00000  -0.04148   1.94190
   A15        2.65439   0.03081   0.00766   0.00000   0.00807   2.66246
   A16        1.58497   0.00092   0.09119   0.00000   0.07723   1.66220
   A17        2.14650  -0.01446  -0.01055   0.00000  -0.01294   2.13356
   A18        3.50066   0.13859   0.45540   0.00000   0.45659   3.95725
   A19        3.30025  -0.02124   0.01025   0.00000   0.00795   3.30820
   A20        3.13782  -0.00008  -0.00023   0.00000  -0.00022   3.13760
   A21        3.14500   0.00022   0.00054   0.00000   0.00046   3.14546
    D1        0.00446   0.00005   0.00023   0.00000   0.00032   0.00477
    D2       -0.00132  -0.00003  -0.00006   0.00000  -0.00012  -0.00144
    D3        3.14041  -0.00007  -0.00032   0.00000  -0.00032   3.14009
    D4       -0.00285  -0.00003  -0.00017   0.00000  -0.00015  -0.00300
    D5        0.00259   0.00001  -0.00009   0.00000  -0.00010   0.00250
    D6       -3.14067   0.00006   0.00007   0.00000   0.00008  -3.14059
    D7       -0.00481  -0.00007  -0.00011   0.00000  -0.00004  -0.00485
    D8       -0.00271   0.00002  -0.00007   0.00000  -0.00001  -0.00272
    D9        3.14037   0.00001  -0.00016   0.00000  -0.00013   3.14024
   D10        0.00418  -0.00005   0.00020   0.00000   0.00016   0.00434
   D11        3.14097  -0.00013  -0.00021   0.00000  -0.00013   3.14084
   D12       -0.00545  -0.00001  -0.00056   0.00000  -0.00045  -0.00591
   D13       -3.13798   0.00020   0.00017   0.00000   0.00013  -3.13785
   D14       -0.00827   0.00017   0.00030   0.00000   0.00028  -0.00799
   D15        0.01608  -0.00025  -0.00078   0.00000  -0.00076   0.01532
   D16       -3.13740  -0.00028  -0.00065   0.00000  -0.00061  -3.13801
   D17        3.13784   0.00011  -0.00041   0.00000  -0.00042   3.13742
   D18        0.00651  -0.00012   0.00014   0.00000   0.00005   0.00656
   D19        0.01001  -0.00032  -0.00087   0.00000  -0.00086   0.00915
   D20        3.13945   0.00011   0.00006   0.00000   0.00006   3.13951
   D21        3.14067   0.00010   0.00045   0.00000   0.00046   3.14113
         Item               Value     Threshold  Converged?
 Maximum Force            0.256942     0.000450     NO 
 RMS     Force            0.056960     0.000300     NO 
 Maximum Displacement     0.670922     0.001800     NO 
 RMS     Displacement     0.208186     0.001200     NO 
 Predicted change in Energy=-7.274133D-02
 GradGradGradGradGradGradGradGradGradGradGradGradGradGradGradGradGradGrad

                          Input orientation:                          
 ---------------------------------------------------------------------
 Center     Atomic      Atomic             Coordinates (Angstroms)
 Number     Number       Type             X           Y           Z
 ---------------------------------------------------------------------
      1          7           0        2.083965    0.273889    0.247868
      2          6           0        2.994128   -0.491763   -0.183828
      3          6           0        2.743721   -1.874255   -0.968882
      4          7           0        3.559465   -2.749826   -1.464877
      5          6           0        5.060407   -2.626240   -1.396799
      6          7           0        6.832787   -1.106794   -0.537753
      7          6           0        5.384581   -1.417171   -0.706864
      8          8           0        7.040502   -2.169845   -1.132341
      9          8           0        4.587674   -0.424524   -0.148178
     10          1           0        1.118666    0.035708    0.114662
     11          1           0        1.716703   -2.212860   -1.160710
     12          1           0        5.304500   -3.566419   -1.927688
 ---------------------------------------------------------------------
                    Distance matrix (angstroms):
                    1          2          3          4          5
     1  N    0.000000
     2  C    1.265298   0.000000
     3  C    2.555442   1.609441   0.000000
     4  N    3.775374   2.656980   1.295405   0.000000
     5  C    4.469328   3.208864   2.472980   1.507559   0.000000
     6  N    5.007474   3.903695   4.182743   3.778062   2.487571
     7  C    3.829525   2.616145   2.692902   2.383611   1.429317
     8  O    5.695969   4.482051   4.310037   3.544654   2.049148
     9  O    2.629295   1.595363   2.485043   2.863204   2.574895
    10  H    1.003133   1.970958   2.731818   4.026368   4.990772
    11  H    2.881475   2.355481   1.098279   1.943353   3.377422
    12  H    5.463776   4.222840   3.215636   1.981455   1.106960
                    6          7          8          9         10
     6  N    0.000000
     7  C    1.490716   0.000000
     8  O    1.235620   1.868053   0.000000
     9  O    2.378611   1.390157   3.167188   0.000000
    10  H    5.863628   4.580806   6.441088   3.509261   0.000000
    11  H    5.271221   3.780532   5.324048   3.530700   2.653353
    12  H    3.212061   2.473073   2.365734   3.681303   5.887929
                   11         12
    11  H    0.000000
    12  H    3.910583   0.000000
 Stoichiometry    C4H3N3O2
 Framework group  C1[X(C4H3N3O2)]
 Deg. of freedom    30
 Full point group                 C1      NOp   1
 Largest Abelian subgroup         C1      NOp   1
 Largest concise Abelian subgroup C1      NOp   1
                         Standard orientation:                         
 ---------------------------------------------------------------------
 Center     Atomic      Atomic             Coordinates (Angstroms)
 Number     Number       Type             X           Y           Z
 ---------------------------------------------------------------------
      1          7           0       -2.913123   -0.949240    0.000138
      2          6           0       -1.748167   -0.455423   -0.001514
      3          6           0       -1.411389    1.118386    0.000292
      4          7           0       -0.288870    1.764935    0.000417
      5          6           0        1.061477    1.094639    0.002125
      6          7           0        2.089455   -1.170591    0.003468
      7          6           0        0.864523   -0.321037   -0.002376
      8          8           0        2.720416   -0.108233   -0.003024
      9          8           0       -0.288055   -1.098269    0.000644
     10          1           0       -3.716203   -0.348126   -0.001357
     11          1           0       -2.230353    1.850175    0.000316
     12          1           0        1.676762    2.014847    0.000758
 ---------------------------------------------------------------------
 Rotational constants (GHZ):           3.7273765           1.2462234           0.9339617
 Standard basis: 6-31G(2df,p) (6D, 7F)
 There are   294 symmetry adapted cartesian basis functions of A   symmetry.
 There are   267 symmetry adapted basis functions of A   symmetry.
   267 basis functions,   417 primitive gaussians,   294 cartesian basis functions
    32 alpha electrons       32 beta electrons
       nuclear repulsion energy       403.7746870362 Hartrees.
 NAtoms=   12 NActive=   12 NUniq=   12 SFac= 1.00D+00 NAtFMM=   60 NAOKFM=F Big=F
 Integral buffers will be    131072 words long.
 Raffenetti 2 integral format.
 Two-electron integral symmetry is turned on.
 One-electron integrals computed using PRISM.
 PrsmSu:  requested number of processors reduced to:  13 ShMem   1 Linda.
 NBasis=   267 RedAO= T EigKep=  2.64D-04  NBF=   267
 NBsUse=   267 1.00D-06 EigRej= -1.00D+00 NBFU=   267
 Initial guess from the checkpoint file:  "Ndc1cncncpdOpo1.chk"
 B after Tr=    -0.000000    0.000000   -0.000000
         Rot=    0.999944   -0.000024    0.000007   -0.010587 Ang=  -1.21 deg.
 ExpMin= 1.61D-01 ExpMax= 5.48D+03 ExpMxC= 8.25D+02 IAcc=2 IRadAn=         4 AccDes= 0.00D+00
 Harris functional with IExCor=  402 and IRadAn=       4 diagonalized for initial guess.
 HarFok:  IExCor=  402 AccDes= 0.00D+00 IRadAn=         4 IDoV= 1 UseB2=F ITyADJ=14
 ICtDFT=  3500011 ScaDFX=  1.000000  1.000000  1.000000  1.000000
 FoFCou: FMM=F IPFlag=           0 FMFlag=      100000 FMFlg1=           0
         NFxFlg=           0 DoJE=T BraDBF=F KetDBF=T FulRan=T
         wScrn=  0.000000 ICntrl=       500 IOpCl=  0 I1Cent=   200000004 NGrid=           0
         NMat0=    1 NMatS0=      1 NMatT0=    0 NMatD0=    1 NMtDS0=    0 NMtDT0=    0
 Petite list used in FoFCou.
 Requested convergence on RMS density matrix=1.00D-08 within 128 cycles.
 Requested convergence on MAX density matrix=1.00D-06.
 Requested convergence on             energy=1.00D-06.
 No special actions if energy rises.
 Integral accuracy reduced to 1.0D-05 until final iterations.
 Initial convergence to 1.0D-05 achieved.  Increase integral accuracy.
 SCF Done:  E(RB3LYP) =  -468.650818577     A.U. after   17 cycles
            NFock= 17  Conv=0.52D-08     -V/T= 2.0081
 PrsmSu:  requested number of processors reduced to:  13 ShMem   1 Linda.
 Calling FoFJK, ICntrl=      2127 FMM=F ISym2X=0 I1Cent= 0 IOpClX= 0 NMat=1 NMatS=1 NMatT=0.
 ***** Axes restored to original set *****
 -------------------------------------------------------------------
 Center     Atomic                   Forces (Hartrees/Bohr)
 Number     Number              X              Y              Z
 -------------------------------------------------------------------
      1        7           0.075311237    0.006312009    0.003750618
      2        6          -0.003796174   -0.073688461   -0.042274478
      3        6           0.008828331    0.007444758    0.004559713
      4        7           0.029436440    0.024573824    0.013618770
      5        6          -0.121694426    0.047924537    0.027989999
      6        7          -0.054543110   -0.071062967   -0.039322227
      7        6          -0.056712615    0.018136462    0.008779636
      8        8           0.154806399    0.014562688    0.008079441
      9        8          -0.051256710   -0.004343575   -0.002106120
     10        1          -0.003534175   -0.011255603   -0.006377764
     11        1          -0.004233751    0.017245668    0.009769304
     12        1           0.027388554    0.024150662    0.013533107
 -------------------------------------------------------------------
 Cartesian Forces:  Max     0.154806399 RMS     0.045598037

 GradGradGradGradGradGradGradGradGradGradGradGradGradGradGradGradGradGrad
 Berny optimization.
 Using GEDIIS/GDIIS optimizer.
 FormGI is forming the generalized inverse of G from B-inverse, IUseBI=4.
 Internal  Forces:  Max     0.071872313 RMS     0.029487473
 Search for a local minimum.
 Step number   4 out of a maximum of   66
 All quantities printed in internal units (Hartrees-Bohrs-Radians)
 Mixed Optimization -- RFO/linear search
 Update second derivatives using D2CorX and points    3    4
 ITU=  0  0  1  0
 Use linear search instead of GDIIS.
     Eigenvalues ---    0.00417   0.00639   0.00944   0.01343   0.01502
     Eigenvalues ---    0.02248   0.03158   0.03406   0.05494   0.12041
     Eigenvalues ---    0.15892   0.16000   0.16165   0.17194   0.19569
     Eigenvalues ---    0.22266   0.23422   0.24512   0.25121   0.31115
     Eigenvalues ---    0.31548   0.35865   0.35996   0.36537   0.46563
     Eigenvalues ---    0.57738   0.63750   0.74464   1.35328   2.70251
 RFO step:  Lambda=-1.32059642D-01 EMin= 4.16924668D-03
 Quartic linear search produced a step of  0.20125.
 Maximum step size (   0.505) exceeded in Quadratic search.
    -- Step size scaled by   0.865
 Iteration  1 RMS(Cart)=  0.09582213 RMS(Int)=  0.01113341
 Iteration  2 RMS(Cart)=  0.02147104 RMS(Int)=  0.00134009
 Iteration  3 RMS(Cart)=  0.00041235 RMS(Int)=  0.00129444
 Iteration  4 RMS(Cart)=  0.00000017 RMS(Int)=  0.00129444
 Variable       Old X    -DE/DX   Delta X   Delta X   Delta X     New X
                                 (Linear)    (Quad)   (Total)
    R1        2.39107  -0.05552  -0.01400  -0.05679  -0.07079   2.32028
    R2        1.89565   0.00692  -0.01519   0.02433   0.00913   1.90478
    R3        3.04140  -0.06303   0.02166  -0.13405  -0.11048   2.93092
    R4        3.01480  -0.07187  -0.01532  -0.19328  -0.20756   2.80724
    R5        2.44796  -0.02631   0.00577  -0.02993  -0.02334   2.42462
    R6        2.07545  -0.00306   0.00344  -0.00832  -0.00488   2.07057
    R7        2.84887  -0.02802   0.02350  -0.05788  -0.03546   2.81342
    R8        2.70102  -0.06153   0.06432  -0.08328  -0.02247   2.67854
    R9        3.87233   0.06572   0.09359   0.11531   0.21088   4.08320
   R10        2.09185  -0.02096  -0.00350  -0.03988  -0.04338   2.04847
   R11        2.81705  -0.03874   0.06731  -0.07671  -0.00902   2.80802
   R12        2.33498  -0.05589   0.05918  -0.05679   0.00474   2.33973
   R13        3.53011   0.06885   0.05044   0.16888   0.21657   3.74668
   R14        2.62702  -0.03916  -0.01418  -0.06461  -0.07972   2.54730
    A1        2.09811  -0.02178  -0.02221  -0.05679  -0.07900   2.01911
    A2        2.18254   0.02984   0.06462   0.10670   0.16997   2.35250
    A3        1.77472   0.02814   0.02727   0.09943   0.12941   1.90412
    A4        2.30418  -0.02427  -0.01231  -0.06583  -0.07630   2.22788
    A5        2.08923  -0.00866  -0.00295  -0.02616  -0.03004   2.05919
    A6        1.88978   0.03292   0.01527   0.09200   0.10634   1.99612
    A7        2.15827  -0.00279  -0.01199  -0.01516  -0.02870   2.12957
    A8        1.89331   0.01031   0.01355   0.02632   0.03794   1.93125
    A9        1.69941   0.01145  -0.00155   0.03906   0.03905   1.73846
   A10        2.69044  -0.02176  -0.01200  -0.06538  -0.07699   2.61345
   A11        1.60879  -0.03543   0.00315  -0.10539  -0.10109   1.50770
   A12        2.03893  -0.01535   0.02226  -0.04212  -0.02291   2.01602
   A13        2.30231  -0.00396  -0.01391  -0.00554  -0.01992   2.28240
   A14        1.94190   0.01931  -0.00835   0.04767   0.04283   1.98473
   A15        2.66246  -0.01444   0.00162  -0.00700  -0.00433   2.65813
   A16        1.66220  -0.06922   0.01554  -0.13825  -0.12328   1.53892
   A17        2.13356  -0.00744  -0.00260  -0.03921  -0.04243   2.09112
   A18        3.95725   0.05798   0.09189   0.20613   0.29937   4.25663
   A19        3.30820  -0.02398   0.00160  -0.06633  -0.06204   3.24616
   A20        3.13760  -0.00003  -0.00005  -0.00014  -0.00017   3.13742
   A21        3.14546  -0.00017   0.00009  -0.00051  -0.00044   3.14502
    D1        0.00477  -0.00001   0.00006  -0.00014  -0.00002   0.00476
    D2       -0.00144  -0.00004  -0.00002  -0.00019  -0.00025  -0.00168
    D3        3.14009  -0.00001  -0.00007  -0.00011  -0.00018   3.13991
    D4       -0.00300   0.00002  -0.00003   0.00008   0.00007  -0.00293
    D5        0.00250   0.00001  -0.00002   0.00003  -0.00001   0.00249
    D6       -3.14059   0.00004   0.00002   0.00022   0.00024  -3.14036
    D7       -0.00485  -0.00000  -0.00001   0.00010   0.00012  -0.00473
    D8       -0.00272   0.00006  -0.00000   0.00034   0.00037  -0.00235
    D9        3.14024   0.00006  -0.00003   0.00023   0.00021   3.14045
   D10        0.00434  -0.00004   0.00003  -0.00048  -0.00047   0.00387
   D11        3.14084  -0.00019  -0.00003  -0.00081  -0.00078   3.14006
   D12       -0.00591   0.00010  -0.00009   0.00060   0.00055  -0.00535
   D13       -3.13785  -0.00017   0.00003  -0.00070  -0.00070  -3.13855
   D14       -0.00799   0.00010   0.00006   0.00069   0.00075  -0.00724
   D15        0.01532  -0.00037  -0.00015  -0.00156  -0.00170   0.01362
   D16       -3.13801  -0.00010  -0.00012  -0.00018  -0.00025  -3.13826
   D17        3.13742   0.00031  -0.00008   0.00127   0.00115   3.13857
   D18        0.00656  -0.00021   0.00001  -0.00084  -0.00080   0.00576
   D19        0.00915  -0.00013  -0.00017  -0.00076  -0.00093   0.00822
   D20        3.13951  -0.00005   0.00001   0.00011   0.00017   3.13968
   D21        3.14113   0.00009   0.00009   0.00012   0.00019   3.14132
         Item               Value     Threshold  Converged?
 Maximum Force            0.071872     0.000450     NO 
 RMS     Force            0.029487     0.000300     NO 
 Maximum Displacement     0.425418     0.001800     NO 
 RMS     Displacement     0.115226     0.001200     NO 
 Predicted change in Energy=-7.816939D-02
 GradGradGradGradGradGradGradGradGradGradGradGradGradGradGradGradGradGrad

                          Input orientation:                          
 ---------------------------------------------------------------------
 Center     Atomic      Atomic             Coordinates (Angstroms)
 Number     Number       Type             X           Y           Z
 ---------------------------------------------------------------------
      1          7           0        2.309086    0.253847    0.236770
      2          6           0        2.994958   -0.632880   -0.264111
      3          6           0        2.692316   -1.955653   -1.015250
      4          7           0        3.535757   -2.796905   -1.491831
      5          6           0        5.005879   -2.591697   -1.377174
      6          7           0        6.732289   -1.071417   -0.517236
      7          6           0        5.290129   -1.385402   -0.689317
      8          8           0        7.092245   -2.105127   -1.095892
      9          8           0        4.466576   -0.455480   -0.165837
     10          1           0        1.311609    0.126845    0.166735
     11          1           0        1.643000   -2.230073   -1.170758
     12          1           0        5.353257   -3.486158   -1.881489
 ---------------------------------------------------------------------
                    Distance matrix (angstroms):
                    1          2          3          4          5
     1  N    0.000000
     2  C    1.227838   0.000000
     3  C    2.568328   1.550977   0.000000
     4  N    3.714818   2.546127   1.283054   0.000000
     5  C    4.239649   3.019880   2.426544   1.488796   0.000000
     6  N    4.678629   3.771475   4.165486   3.760978   2.455857
     7  C    3.525818   2.452529   2.679562   2.390437   1.417425
     8  O    5.497213   4.432508   4.403206   3.644712   2.160739
     9  O    2.306512   1.485526   2.473867   2.847271   2.514281
    10  H    1.007966   1.896438   2.764098   4.030632   4.839603
    11  H    2.931665   2.280532   1.095697   2.001729   3.388560
    12  H    5.267033   4.039638   3.189581   1.982475   1.084004
                    6          7          8          9         10
     6  N    0.000000
     7  C    1.485942   0.000000
     8  O    1.238130   1.982656   0.000000
     9  O    2.374092   1.347971   3.237356   0.000000
    10  H    5.593516   4.341468   6.323897   3.225449   0.000000
    11  H    5.260269   3.774494   5.451191   3.483048   2.730159
    12  H    3.097400   2.416285   2.355523   3.593699   5.795164
                   11         12
    11  H    0.000000
    12  H    3.981067   0.000000
 Stoichiometry    C4H3N3O2
 Framework group  C1[X(C4H3N3O2)]
 Deg. of freedom    30
 Full point group                 C1      NOp   1
 Largest Abelian subgroup         C1      NOp   1
 Largest concise Abelian subgroup C1      NOp   1
                         Standard orientation:                         
 ---------------------------------------------------------------------
 Center     Atomic      Atomic             Coordinates (Angstroms)
 Number     Number       Type             X           Y           Z
 ---------------------------------------------------------------------
      1          7           0       -2.654987   -1.105456   -0.000113
      2          6           0       -1.670763   -0.371366   -0.001280
      3          6           0       -1.453011    1.164248    0.000291
      4          7           0       -0.337149    1.797559    0.000409
      5          6           0        0.972375    1.089281    0.001925
      6          7           0        2.023575   -1.130226    0.003166
      7          6           0        0.781122   -0.315176   -0.001997
      8          8           0        2.755246   -0.131432   -0.002805
      9          8           0       -0.349149   -1.049687    0.000785
     10          1           0       -3.548286   -0.638542   -0.001864
     11          1           0       -2.338845    1.809113    0.000246
     12          1           0        1.639959    1.943325   -0.000099
 ---------------------------------------------------------------------
 Rotational constants (GHZ):           3.6375786           1.3324351           0.9752176
 Standard basis: 6-31G(2df,p) (6D, 7F)
 There are   294 symmetry adapted cartesian basis functions of A   symmetry.
 There are   267 symmetry adapted basis functions of A   symmetry.
   267 basis functions,   417 primitive gaussians,   294 cartesian basis functions
    32 alpha electrons       32 beta electrons
       nuclear repulsion energy       410.5358025028 Hartrees.
 NAtoms=   12 NActive=   12 NUniq=   12 SFac= 1.00D+00 NAtFMM=   60 NAOKFM=F Big=F
 Integral buffers will be    131072 words long.
 Raffenetti 2 integral format.
 Two-electron integral symmetry is turned on.
 One-electron integrals computed using PRISM.
 PrsmSu:  requested number of processors reduced to:  13 ShMem   1 Linda.
 NBasis=   267 RedAO= T EigKep=  2.04D-04  NBF=   267
 NBsUse=   267 1.00D-06 EigRej= -1.00D+00 NBFU=   267
 Initial guess from the checkpoint file:  "Ndc1cncncpdOpo1.chk"
 B after Tr=    -0.000000    0.000000    0.000000
         Rot=    0.999953    0.000021    0.000019   -0.009660 Ang=   1.11 deg.
[...]
         Item               Value     Threshold  Converged?
 Maximum Force            0.000359     0.000450     YES
 RMS     Force            0.000104     0.000300     YES
 Maximum Displacement     0.002053     0.001800     NO 
 RMS     Displacement     0.000521     0.001200     YES
 Predicted change in Energy=-1.806594D-06
                           ----------------------------
                           ! Non-Optimized Parameters !
                           ! (Angstroms and Degrees)  !
 --------------------------                            --------------------------
 ! Name  Definition              Value          Derivative Info.                !
 --------------------------------------------------------------------------------
 ! R1    R(1,2)                  1.2654         -DE/DX =   -0.0002              !
 ! R2    R(1,10)                 1.0185         -DE/DX =    0.0                 !
 ! R3    R(2,3)                  1.4717         -DE/DX =    0.0                 !
 ! R4    R(2,9)                  1.3826         -DE/DX =    0.0                 !
 ! R5    R(3,4)                  1.2883         -DE/DX =   -0.0001              !
 ! R6    R(3,11)                 1.0891         -DE/DX =    0.0                 !
 ! R7    R(4,5)                  1.3838         -DE/DX =    0.0001              !
 ! R8    R(5,7)                  1.3506         -DE/DX =    0.0001              !
 ! R9    R(5,8)                  2.7357         -DE/DX =    0.0                 !
 ! R10   R(5,12)                 1.0809         -DE/DX =   -0.0001              !
 ! R11   R(6,7)                  1.4392         -DE/DX =    0.0004              !
 ! R12   R(6,8)                  1.2137         -DE/DX =   -0.0003              !
 ! R13   R(7,8)                  2.2252         -DE/DX =    0.0002              !
 ! R14   R(7,9)                  1.3458         -DE/DX =   -0.0001              !
 ! A1    A(2,1,10)             110.5314         -DE/DX =    0.0001              !
 ! A2    A(1,2,3)              128.5136         -DE/DX =    0.0001              !
 ! A3    A(3,2,9)              114.6034         -DE/DX =    0.0001              !
 ! A4    A(2,3,4)              125.4566         -DE/DX =    0.0001              !
 ! A5    A(2,3,11)             116.1678         -DE/DX =   -0.0001              !
 ! A6    A(4,3,11)             118.3756         -DE/DX =    0.0                 !
 ! A7    A(3,4,5)              116.4293         -DE/DX =   -0.0001              !
 ! A8    A(4,5,7)              121.2438         -DE/DX =   -0.0001              !
 ! A9    A(4,5,12)             118.4509         -DE/DX =    0.0001              !
 ! A10   A(7,5,12)             120.3053         -DE/DX =    0.0                 !
 ! A11   A(8,5,12)              66.4311         -DE/DX =    0.0                 !
 ! A12   A(5,7,6)              126.7166         -DE/DX =   -0.0002              !
 ! A13   A(5,7,9)              123.026          -DE/DX =    0.0002              !
 ! A14   A(6,7,9)              110.2574         -DE/DX =   -0.0001              !
 ! A15   A(8,7,9)              140.206          -DE/DX =   -0.0002              !
 ! A16   A(5,8,6)               65.6558         -DE/DX =    0.0001              !
 ! A17   A(2,9,7)              119.2409         -DE/DX =   -0.0002              !
 ! A18   L(1,2,9,3,-1)         243.117          -DE/DX =    0.0002              !
 ! A19   L(4,5,8,12,-1)        184.8819         -DE/DX =    0.0001              !
 ! A20   L(1,2,9,3,-2)         180.0            -DE/DX =    0.0                 !
 ! A21   L(4,5,8,12,-2)        179.9999         -DE/DX =    0.0                 !
 ! D1    D(10,1,2,3)             0.0            -DE/DX =    0.0                 !
 ! D2    D(10,1,9,7)            -0.0001         -DE/DX =    0.0                 !
 ! D3    D(1,2,3,4)           -179.9999         -DE/DX =    0.0                 !
 ! D4    D(1,2,3,11)             0.0            -DE/DX =    0.0                 !
 ! D5    D(9,2,3,4)              0.0001         -DE/DX =    0.0                 !
 ! D6    D(9,2,3,11)          -180.0            -DE/DX =    0.0                 !
 ! D7    D(3,2,9,7)             -0.0001         -DE/DX =    0.0                 !
 ! D8    D(2,3,4,5)             -0.0001         -DE/DX =    0.0                 !
 ! D9    D(11,3,4,5)           180.0            -DE/DX =    0.0                 !
 ! D10   D(3,4,5,7)              0.0            -DE/DX =    0.0                 !
 ! D11   D(3,4,5,12)           180.0            -DE/DX =    0.0                 !
 ! D12   D(3,4,8,6)              0.0003         -DE/DX =    0.0                 !
 ! D13   D(4,5,7,6)            179.9999         -DE/DX =    0.0                 !
 ! D14   D(4,5,7,9)              0.0            -DE/DX =    0.0                 !
 ! D15   D(12,5,7,6)            -0.0001         -DE/DX =    0.0                 !
 ! D16   D(12,5,7,9)          -179.9999         -DE/DX =    0.0                 !
 ! D17   D(12,5,8,6)          -179.9997         -DE/DX =    0.0                 !
 ! D18   D(7,6,8,5)             -0.0002         -DE/DX =    0.0                 !
 ! D19   D(5,7,9,2)              0.0            -DE/DX =    0.0                 !
 ! D20   D(6,7,9,2)           -179.9998         -DE/DX =    0.0                 !
 ! D21   D(8,7,9,2)            179.9999         -DE/DX =    0.0                 !
 --------------------------------------------------------------------------------
 GradGradGradGradGradGradGradGradGradGradGradGradGradGradGradGradGradGrad


 ----------------------------------------------------------------------

 Electric dipole moment (input orientation):
 (Debye = 10**-18 statcoulomb cm , SI units = C m)
                  (au)            (Debye)         (10**-30 SI)
   Tot        0.128636D+01      0.326959D+01      0.109062D+02
   x         -0.103248D+01     -0.262431D+01     -0.875377D+01
   y         -0.667040D+00     -0.169545D+01     -0.565540D+01
   z         -0.379135D+00     -0.963665D+00     -0.321444D+01

 Dipole polarizability, Alpha (input orientation).
 (esu units = cm**3 , SI units = C**2 m**2 J**-1)
 Alpha(0;0):
               (au)            (10**-24 esu)      (10**-40 SI)
   iso        0.731346D+02      0.108374D+02      0.120583D+02
   aniso      0.755023D+02      0.111883D+02      0.124486D+02
   xx         0.114871D+03      0.170221D+02      0.189396D+02
   yx        -0.114119D+02     -0.169107D+01     -0.188156D+01
   yy         0.628025D+02      0.930637D+01      0.103547D+02
   zx        -0.643529D+01     -0.953612D+00     -0.106104D+01
   zy         0.176387D+02      0.261378D+01      0.290822D+01
   zz         0.417307D+02      0.618385D+01      0.688046D+01

 ----------------------------------------------------------------------

 Dipole orientation:
     7          1.79516381          1.33208144         -3.93341144
     6          3.80691829          2.62069369         -3.82251859
     6          5.17793511          3.49875311         -1.56768526
     7          7.22765707          4.81287791         -1.58485515
     6          8.19394008          5.43218540         -3.93388557
     7          7.83779055          5.20417641         -8.62632225
     6          7.03413220          4.68906206         -6.08257967
     8          9.76639858          6.44032803         -8.75283748
     8          4.89239266          3.31660629         -6.09439206
     1          1.15756809          0.92419310         -2.16366488
     1          4.36474228          2.97951227          0.25013480
     1          9.91236708          6.53361840         -4.01849413

 Electric dipole moment (dipole orientation):
 (Debye = 10**-18 statcoulomb cm , SI units = C m)
                  (au)            (Debye)         (10**-30 SI)
   Tot        0.128636D+01      0.326959D+01      0.109062D+02
   x          0.000000D+00      0.000000D+00      0.000000D+00
   y          0.000000D+00      0.000000D+00      0.000000D+00
   z          0.128636D+01      0.326959D+01      0.109062D+02

 Dipole polarizability, Alpha (dipole orientation).
 (esu units = cm**3 , SI units = C**2 m**2 J**-1)
 Alpha(0;0):
               (au)            (10**-24 esu)      (10**-40 SI)
   iso        0.731346D+02      0.108374D+02      0.120583D+02
   aniso      0.755023D+02      0.111883D+02      0.124486D+02
   xx         0.803493D+02      0.119065D+02      0.132478D+02
   yx         0.311628D+02      0.461785D+01      0.513805D+01
   yy         0.516909D+02      0.765981D+01      0.852269D+01
   zx        -0.201338D+02     -0.298351D+01     -0.331961D+01
   zy        -0.129049D+02     -0.191231D+01     -0.212774D+01
   zz         0.873636D+02      0.129459D+02      0.144043D+02

 ----------------------------------------------------------------------
 1\1\GINC-LEWIS4-Z10PH-HPC3-NODE401\Freq\RB3LYP\6-31G(2df,p)\C4H3N3O2\K
 S29C\04-Aug-2022\0\\#N Geom=AllCheck Guess=TCheck SCRF=Check GenChk RB
 3LYP/6-31G(2df,p) Freq\\Title Card Required\\0,1\N,2.374559187,0.21546
 03562,0.2165353834\C,3.0815285458,-0.6974760315,-0.3016321366\C,2.6376
 877603,-1.9175888355,-0.9946951705\N,3.4134848872,-2.8125396573,-1.502
 0146209\C,4.7734688812,-2.5919903509,-1.3761206953\N,6.6330609236,-1.1
 481778945,-0.5555489249\C,5.2513360294,-1.4935072285,-0.7522937679\O,7
 .4098369289,-1.9598286365,-1.0157683048\O,4.4534614961,-0.550493493,-0
 .2173767464\H,1.3839729697,0.0093130254,0.0993985793\H,1.5610546847,-2
 .0603692583,-1.0753023679\H,5.453647706,-3.3229019956,-1.7905712275\\V
 ersion=ES64L-G16RevA.03\State=1-A\HF=-468.8166212\RMSD=2.955e-09\RMSF=
 2.303e-04\ZeroPoint=0.0766013\Thermal=0.0839392\Dipole=-1.0324848,-0.6
 670405,-0.3791351\DipoleDeriv=-0.477209,0.2579053,0.1464051,0.6270915,
 -0.754377,-0.1629373,0.3557764,-0.1630423,-0.5592564,0.8148353,-0.6095
 087,-0.3458558,-0.5023694,0.5884255,0.1664036,-0.284439,0.1662767,0.38
 92179,0.2892507,0.0694997,0.0393704,0.0535945,0.1043657,-0.0123343,0.0
 29441,-0.0123078,0.1193549,-0.1716359,-0.1744673,-0.0988898,0.2347203,
 -0.3605385,-0.0506721,0.1335941,-0.050788,-0.3000473,0.1393429,0.09693
 25,0.0551248,-0.1013005,0.1484672,0.0781182,-0.057454,0.0782407,0.0550
 173,1.6410843,0.2097162,0.1200579,-0.2004132,0.0232621,0.1014884,-0.11
 27774,0.1017156,-0.0980982,-0.5976738,-0.4362409,-0.2482155,-0.5987429
 ,0.4243357,0.0814306,-0.3403964,0.0814586,0.326611,-1.1142837,-0.05897
 34,-0.0340477,0.7274788,-0.1540708,-0.0390361,0.4123319,-0.0394751,-0.
 1067374,-0.6454512,0.6940542,0.3939477,-0.1250589,-0.4240255,-0.153065
 9,-0.0712268,-0.152654,-0.2412624,0.12719,-0.0746781,-0.0424176,-0.186
 386,0.2411574,0.0098018,-0.105688,0.009765,0.2292982,-0.0504039,0.0036
 551,0.0020061,0.0358362,0.0635744,-0.0095425,0.0206551,-0.0095462,0.07
 49035,0.0449545,0.0221053,0.0125146,0.0355496,0.0994236,-0.0096544,0.0
 20183,-0.0096432,0.1109989\Polar=114.8707019,-11.4118752,62.8025075,-6
 .4352942,17.6386673,41.7306684\Quadrupole=2.4651689,-3.1333105,0.66814
 16,-0.3148371,-0.180357,-3.1843539\PG=C01 [X(C4H3N3O2)]\NImag=0\\0.718
 73196,-0.16081487,0.41045141,-0.09117903,0.20615090,0.16434946,-0.2524
 6317,0.16951239,0.09619350,0.62442791,0.21870355,-0.34483636,-0.167789
 47,-0.15866423,0.62994898,0.12412575,-0.16780464,-0.14450093,-0.089899
 13,0.26657129,0.31175268,0.00912708,0.03057634,0.01735620,-0.12612911,
 -0.04801863,-0.02727349,0.80023496,0.01473907,-0.03231144,-0.03550257,
 -0.03941472,-0.14557606,-0.03307329,-0.09820922,0.52188471,0.00837242,
 -0.03551220,0.01007374,-0.02239803,-0.03301806,-0.10619874,-0.05564989
 ,0.21522907,0.26459281,0.00592755,-0.01305995,-0.00740423,0.03607278,0
 .02780574,0.01577953,-0.26178403,0.16630467,0.09429261,0.57969504,-0.0
 1050771,-0.00338059,0.00162430,0.03180448,-0.03155462,-0.03761920,0.15
 989986,-0.28879526,-0.13439341,-0.14951181,0.40377845,-0.00596156,0.00
 163964,-0.00534420,0.01805412,-0.03765936,0.01344171,0.09063285,-0.134
 35773,-0.12797622,-0.08457588,0.18603417,0.18127532,-0.00762434,0.0046
 1119,0.00260863,-0.00259135,-0.01271780,-0.00721567,-0.07561211,0.0370
 7864,0.02099734,-0.24778421,-0.03170551,-0.01809496,0.63025406,0.00351
 374,0.00324841,0.00019204,-0.02574885,-0.01160589,0.00187113,0.0291633
 8,0.01377224,0.00696275,-0.01947817,-0.09575661,-0.02089222,-0.0402527
 8,0.63221181,0.00198993,0.00019104,0.00302080,-0.01461008,0.00188920,-
 0.01387244,0.01649431,0.00697703,0.00545143,-0.01115668,-0.02089823,-0
 .07080772,-0.02256009,0.28224422,0.29512769,-0.00253969,-0.00307248,-0
 .00174259,0.01360710,0.00383478,0.00217569,-0.00342897,0.00604148,0.00
 343746,0.01410313,-0.00774541,-0.00439664,-0.04087284,-0.02696157,-0.0
 1532681,0.42061336,0.00227591,-0.00038067,0.00015647,0.00030793,-0.002
 61512,-0.00243407,0.00432934,-0.00304463,-0.00208930,-0.00851354,-0.00
 727736,-0.00610807,-0.02690055,0.01586975,0.00534509,-0.19341932,0.485
 88505,0.00128987,0.00015456,-0.00056619,0.00018349,-0.00243192,0.00028
 455,0.00245505,-0.00208750,-0.00054517,-0.00482591,-0.00610442,0.00000
 870,-0.01529542,0.00534917,0.00944117,-0.10955122,0.27119851,0.1616932
 6,0.00617836,-0.00030030,-0.00016812,-0.06841770,0.02498514,0.01416513
 ,0.00515634,-0.01643720,-0.00934547,-0.05289422,-0.02237115,-0.0127303
 7,-0.12474610,-0.07560628,-0.04295877,-0.07771420,-0.07400294,-0.04203
 418,0.54226823,-0.01048405,-0.00222195,-0.00131492,0.04913609,0.012664
 20,0.01042218,0.00522903,-0.02074237,-0.01185108,-0.06071349,0.0081852
 3,-0.00481619,-0.06641392,-0.30300892,-0.13517726,-0.03522518,-0.12808
 440,-0.06537475,0.02001405,0.60902470,-0.00594913,-0.00131229,-0.00065
 549,0.02786152,0.01041176,0.00027383,0.00297180,-0.01187521,-0.0065627
 8,-0.03450001,-0.00480209,0.01386578,-0.03774098,-0.13518132,-0.141705
 29,-0.02002501,-0.06539217,-0.05004519,0.01159552,0.28076904,0.2738142
 9,-0.00120738,0.00253615,0.00143805,-0.00119581,-0.00021460,-0.0001181
 4,0.00043300,-0.00212036,-0.00120809,-0.00411027,0.00518601,0.00294415
 ,0.01141043,0.00708310,0.00402655,-0.27445809,0.24895571,0.14114609,-0
 .10892743,0.03129702,0.01770367,0.39155378,-0.00017458,-0.00112407,-0.
 00075019,0.00015997,0.00133007,-0.00020439,-0.00272609,0.00356584,0.00
 194661,0.00770012,0.00147392,-0.00008970,-0.00956326,-0.01492076,-0.00
 863594,0.24222399,-0.36499420,-0.20691718,0.06037283,0.03476512,0.0253
 0488,-0.28961488,0.33618561,-0.00009970,-0.00074947,-0.00022656,0.0000
 8885,-0.00020167,0.00157116,-0.00154620,0.00194494,0.00124394,0.004366
 50,-0.00009269,0.00158447,-0.00542275,-0.00862731,-0.00460867,0.137324
 17,-0.20691081,-0.11752558,0.03420871,0.02528771,0.00460219,-0.1641573
 1,0.18863473,0.11050059,-0.07923005,0.02322563,0.01315537,-0.18424519,
 -0.04478613,-0.02553172,-0.03238726,-0.01520241,-0.00862808,-0.0199208
 8,-0.00346223,-0.00197189,0.01309302,0.02505132,0.01421453,-0.04926613
 ,0.04461160,0.02529235,-0.13440492,0.07435858,0.04216530,-0.01095755,-
 0.00676691,-0.00384590,0.49829750,0.05018280,0.01065430,0.00509395,-0.
 04457545,-0.09897674,-0.03251157,-0.03036294,0.01030665,0.00097825,0.0
 2487318,0.00152988,0.00719911,0.01791117,-0.04832691,-0.03706841,0.012
 35242,0.00649775,0.00444304,0.06293953,-0.19580486,-0.08541711,-0.0030
 7567,0.00181022,-0.00079989,-0.09048331,0.31571002,0.02845364,0.005087
 00,0.00461284,-0.02539912,-0.03252150,-0.06023075,-0.01726796,0.000994
 81,0.00910468,0.01411427,0.00717743,-0.00703941,0.01017250,-0.03705961
 ,-0.00404829,0.00698706,0.00446228,0.00122290,0.03567546,-0.08541511,-
 0.09375770,-0.00175612,-0.00080120,0.00276008,-0.05110921,0.15205218,0
 .13410214,-0.39949092,-0.05242746,-0.02981129,-0.02840435,-0.01439861,
 -0.00818351,0.00304127,-0.00318294,-0.00180478,-0.00152025,0.00002383,
 0.00001169,0.00078363,0.00080713,0.00045895,-0.00076362,0.00040593,0.0
 0022967,0.00048844,-0.00228556,-0.00129760,0.00022246,-0.00025807,-0.0
 0014625,-0.00118507,0.00612705,0.00347884,0.42634706,-0.10778729,-0.04
 072132,-0.00928541,0.04150088,-0.00984909,-0.00214655,0.00171535,-0.00
 274728,0.00304993,-0.00148336,0.00253395,0.00027452,0.00094135,-0.0001
 1118,0.00052885,0.00057974,-0.00001445,-0.00050893,-0.00004085,0.00098
 387,-0.00156495,-0.00028713,0.00014261,0.00034931,0.00137409,-0.000279
 69,-0.00530403,0.06429737,0.05058587,-0.06123856,-0.00927397,-0.029684
 00,0.02356283,-0.00216155,-0.00725869,0.00097690,0.00304510,-0.0063854
 7,-0.00084787,0.00028125,0.00220342,0.00053849,0.00052925,-0.00073964,
 0.00032702,-0.00050882,0.00059334,-0.00002534,-0.00156772,0.00285028,-
 0.00016200,0.00034887,-0.00027485,0.00076971,-0.00529895,0.00605120,0.
 03655844,0.01520714,0.03244953,0.00175529,-0.00081922,-0.00046561,-0.0
 0788628,0.00351846,0.00200282,-0.31458089,-0.04817299,-0.02725586,-0.0
 2358351,0.00853864,0.00483812,0.00148803,0.00166882,0.00095385,-0.0003
 3062,-0.00027888,-0.00015877,0.00086746,-0.00048029,-0.00027247,0.0000
 8255,-0.00002680,-0.00001537,-0.00030240,-0.00120539,-0.00068428,0.000
 38916,-0.00072711,-0.00041248,0.34249692,0.00021061,0.00056892,0.00118
 426,-0.02266222,0.00126479,-0.00352684,-0.04884535,-0.05796967,-0.0100
 4187,0.03130322,-0.00040440,0.00345836,0.00297054,0.00267353,-0.007138
 64,-0.00063224,-0.00003160,0.00080572,0.00334333,-0.00273328,-0.000818
 05,0.00017405,-0.00014919,0.00008497,-0.00573292,-0.00269777,-0.003019
 78,0.00081999,-0.00050940,-0.00061868,0.03822582,0.05950892,0.00011447
 ,0.00118963,-0.00084500,-0.01286864,-0.00354637,0.00547598,-0.02758280
 ,-0.01003058,-0.04595641,0.01773679,0.00345823,-0.00453049,0.00168114,
 -0.00713104,0.01121548,-0.00035905,0.00080713,-0.00099426,0.00190236,-
 0.00082613,-0.00175652,0.00009895,0.00008470,-0.00025073,-0.00326274,-
 0.00301713,0.00089933,0.00046536,-0.00061787,0.00023031,0.02160721,0.0
 1974319,0.03589723,0.00083532,0.00003258,0.00001910,-0.00277482,-0.000
 04768,-0.00002726,-0.00407029,-0.00142402,-0.00080965,-0.02420113,0.01
 985100,0.01125040,-0.15779822,0.12076016,0.06847431,0.00105056,0.00222
 881,0.00126898,0.01214573,-0.00443227,-0.00251262,-0.00284569,-0.00132
 631,-0.00075475,0.00050892,-0.00468338,-0.00266508,0.00009219,-0.00008
 302,-0.00004712,-0.00039572,0.00082516,0.00046695,0.17745315,0.0001428
 2,0.00005338,0.00024064,-0.00135626,-0.00019416,0.00045594,-0.00275106
 ,0.00165726,-0.00126069,-0.00522661,0.00966741,0.00531746,0.12404094,-
 0.19404546,-0.08825695,0.00202379,-0.00181012,0.00147371,0.01710385,-0
 .01302734,-0.01012250,0.00008061,0.00191484,0.00108019,-0.00218730,-0.
 00042283,-0.00565245,0.00007132,-0.00001389,0.00001808,-0.00024107,0.0
 0047916,-0.00011376,-0.13170103,0.19574176,0.00008191,0.00023980,-0.00
 023448,-0.00076933,0.00045766,-0.00073835,-0.00156678,-0.00126407,0.00
 315819,-0.00297913,0.00533467,0.00331864,0.07033177,-0.08825706,-0.088
 47452,0.00114993,0.00147376,-0.00356753,0.00971508,-0.01013577,-0.0009
 2338,0.00004422,0.00107882,0.00062396,-0.00124772,-0.00565346,0.006323
 00,0.00004048,0.00001798,-0.00003543,-0.00013716,-0.00011265,0.0006150
 7,-0.07466326,0.09682033,0.07993482\\-0.00014760,0.00012240,0.00004850
 ,0.00014831,0.00005004,0.00003536,-0.00022252,0.00016451,-0.00002448,0
 .00025402,-0.00013059,-0.00005713,-0.00029638,0.00029634,0.00018056,-0
 .00056013,0.00011656,0.00006296,0.00098603,-0.00006708,-0.00003547,0.0
 0003380,-0.00019102,-0.00010874,-0.00022533,-0.00021165,-0.00010005,-0
 .00000660,-0.00003976,0.00000190,0.00001753,-0.00005565,0.00002299,0.0
 0001886,-0.00005409,-0.00002639\\\@


 WE'RE IN THE POSITION OF A VISITOR FROM ANOTHER
 DIMENSION WHO COMES TO EARTH AND SEES A CHESS MATCH.
 ASSUMING HE KNOWS IT'S A GAME, HE'S GOT TWO PROBLEMS:
 FIRST, FIGURE OUT THE RULES, AND SECOND, FIGURE OUT HOW TO WIN.
 NINETY PERCENT OF SCIENCE (INCLUDING VIRTUALLY ALL OF CHEMISRY)
 IS IN THAT SECOND CATEGORY.  THEY'RE TRYING TO APPLY
 THE LAWS THAT ARE ALREADY KNOWN.

                     -- SHELDON GLASHOW, 1979
 Job cpu time:       0 days  1 hours 14 minutes  6.5 seconds.
 Elapsed time:       0 days  0 hours 18 minutes 33.0 seconds.
 File lengths (MBytes):  RWF=     84 Int=      0 D2E=      0 Chk=      7 Scr=      1
 Normal termination of Gaussian 16 at Thu Aug  4 08:10:02 2022.
### All Done ###
