### Starting Gaussian ###
 Entering Gaussian System, Link 0=g16
 Initial command:
 /cluster/software/gaussian/gaussian-16-A.03/avx2/g16/l1.exe "/local/scratch/yxie/Gau-32340.inp" -scrdir="/local/scratch/yxie/"
 Entering Link 1 = /cluster/software/gaussian/gaussian-16-A.03/avx2/g16/l1.exe PID=     32341.
  
 Copyright (c) 1988,1990,1992,1993,1995,1998,2003,2009,2016,
            Gaussian, Inc.  All Rights Reserved.
  
 This is part of the Gaussian(R) 16 program.  It is based on
 the Gaussian(R) 09 system (copyright 2009, Gaussian, Inc.),
 the Gaussian(R) 03 system (copyright 2003, Gaussian, Inc.),
 the Gaussian(R) 98 system (copyright 1998, Gaussian, Inc.),
 the Gaussian(R) 94 system (copyright 1995, Gaussian, Inc.),
 the Gaussian 92(TM) system (copyright 1992, Gaussian, Inc.),
 the Gaussian 90(TM) system (copyright 1990, Gaussian, Inc.),
 the Gaussian 88(TM) system (copyright 1988, Gaussian, Inc.),
 the Gaussian 86(TM) system (copyright 1986, Carnegie Mellon
 University), and the Gaussian 82(TM) system (copyright 1983,
 Carnegie Mellon University). Gaussian is a federally registered
 trademark of Gaussian, Inc.
  
 This software contains proprietary and confidential information,
 including trade secrets, belonging to Gaussian, Inc.
  
 This software is provided under written license and may be
 used, copied, transmitted, or stored only in accord with that
 written license.
  
 The following legend is applicable only to US Government
 contracts under FAR:
  
                    RESTRICTED RIGHTS LEGEND
  
 Use, reproduction and disclosure by the US Government is
 subject to restrictions as set forth in subparagraphs (a)
 and (c) of the Commercial Computer Software - Restricted
 Rights clause in FAR 52.227-19.
  
 Gaussian, Inc.
 340 Quinnipiac St., Bldg. 40, Wallingford CT 06492
  
  
 ---------------------------------------------------------------
 Warning -- This program may not be used in any manner that
 competes with the business of Gaussian, Inc. or will provide
 assistance to any competitor of Gaussian, Inc.  The licensee
 of this program is prohibited from giving any competitor of
 Gaussian, Inc. access to this program.  By using this program,
 the user acknowledges that Gaussian, Inc. is engaged in the
 business of creating and licensing software in the field of
 computational chemistry and represents and warrants to the
 licensee that it is not a competitor of Gaussian, Inc. and that
 it will not use this program in any manner prohibited above.
 ---------------------------------------------------------------
  

 Cite this work as:
 Gaussian 16, Revision A.03,
 M. J. Frisch, G. W. Trucks, H. B. Schlegel, G. E. Scuseria, 
 M. A. Robb, J. R. Cheeseman, G. Scalmani, V. Barone, 
 G. A. Petersson, H. Nakatsuji, X. Li, M. Caricato, A. V. Marenich, 
 J. Bloino, B. G. Janesko, R. Gomperts, B. Mennucci, H. P. Hratchian, 
 J. V. Ortiz, A. F. Izmaylov, J. L. Sonnenberg, D. Williams-Young, 
 F. Ding, F. Lipparini, F. Egidi, J. Goings, B. Peng, A. Petrone, 
 T. Henderson, D. Ranasinghe, V. G. Zakrzewski, J. Gao, N. Rega, 
 G. Zheng, W. Liang, M. Hada, M. Ehara, K. Toyota, R. Fukuda, 
 J. Hasegawa, M. Ishida, T. Nakajima, Y. Honda, O. Kitao, H. Nakai, 
 T. Vreven, K. Throssell, J. A. Montgomery, Jr., J. E. Peralta, 
 F. Ogliaro, M. J. Bearpark, J. J. Heyd, E. N. Brothers, K. N. Kudin, 
 V. N. Staroverov, T. A. Keith, R. Kobayashi, J. Normand, 
 K. Raghavachari, A. P. Rendell, J. C. Burant, S. S. Iyengar, 
 J. Tomasi, M. Cossi, J. M. Millam, M. Klene, C. Adamo, R. Cammi, 
 J. W. Ochterski, R. L. Martin, K. Morokuma, O. Farkas, 
 J. B. Foresman, and D. J. Fox, Gaussian, Inc., Wallingford CT, 2016.
 
 ******************************************
 Gaussian 16:  ES64L-G16RevA.03 25-Dec-2016
                 4-Aug-2022 
 ******************************************
 %chk=NdCC1dC2CNCC12.chk
 %NProcShared=20
 Will use up to   20 processors via shared memory.
 -----------------------------
 # opt freq b3lyp/6-31g(2df,p)
 -----------------------------
 1/18=20,19=15,26=3,38=1/1,3;
 2/9=110,12=2,17=6,18=5,40=1/2;
 3/5=1,6=6,7=104,11=2,25=1,30=1,71=1,74=-5/1,2,3;
 4//1;
 5/5=2,38=5/2;
 6/7=2,8=2,9=2,10=2,28=1/1;
 7//1,2,3,16;
 1/18=20,19=15,26=3/3(2);
 2/9=110/2;
 99//99;
 2/9=110/2;
 3/5=1,6=6,7=104,11=2,25=1,30=1,71=1,74=-5/1,2,3;
 4/5=5,16=3,69=1/1;
 5/5=2,38=5/2;
 7//1,2,3,16;
 1/18=20,19=15,26=3/3(-5);
 2/9=110/2;
 6/7=2,8=2,9=2,10=2,19=2,28=1/1;
 99/9=1/99;
 -------------------
 Title Card Required
 -------------------
 Symbolic Z-matrix:
 Charge =  0 Multiplicity = 1
 N                     0.95022  -0.00888  -0.05505 
 C                     2.23898   0.02901  -0.07076 
 C                     2.96624  -0.02012   1.16494 
 C                     3.99414   0.57899   1.64044 
 C                     4.93397   0.94596   2.71126 
 N                     4.61522   0.26516   3.9553 
 C                     3.50381  -0.6458    3.72899 
 C                     2.75952  -0.27408   2.50433 
 H                     0.57845   0.06539  -1.0038 
 H                     2.82346   0.12784  -1.0003 
 H                     4.90623   2.03105   2.87994 
 H                     5.94781   0.69407   2.39036 
 H                     4.31603   0.96424   4.63206 
 H                     2.79361  -0.53874   4.55447 
 H                     3.86154  -1.68391   3.73825 
 H                     2.19702  -1.19346   2.30298 
 

 GradGradGradGradGradGradGradGradGradGradGradGradGradGradGradGradGradGrad
 Berny optimization.
 Initialization pass.
                           ----------------------------
                           !    Initial Parameters    !
                           ! (Angstroms and Degrees)  !
 --------------------------                            --------------------------
 ! Name  Definition              Value          Derivative Info.                !
 --------------------------------------------------------------------------------
 ! R1    R(1,2)                  1.2894         estimate D2E/DX2                !
 ! R2    R(1,9)                  1.0217         estimate D2E/DX2                !
 ! R3    R(2,3)                  1.4347         estimate D2E/DX2                !
 ! R4    R(2,10)                 1.1025         estimate D2E/DX2                !
 ! R5    R(3,4)                  1.2813         estimate D2E/DX2                !
 ! R6    R(3,8)                  1.3788         estimate D2E/DX2                !
 ! R7    R(4,5)                  1.4713         estimate D2E/DX2                !
 ! R8    R(4,8)                  1.7316         estimate D2E/DX2                !
 ! R9    R(5,6)                  1.4535         estimate D2E/DX2                !
 ! R10   R(5,11)                 1.0985         estimate D2E/DX2                !
 ! R11   R(5,12)                 1.0928         estimate D2E/DX2                !
 ! R12   R(6,7)                  1.4547         estimate D2E/DX2                !
 ! R13   R(6,13)                 1.018          estimate D2E/DX2                !
 ! R14   R(7,8)                  1.4805         estimate D2E/DX2                !
 ! R15   R(7,14)                 1.0942         estimate D2E/DX2                !
 ! R16   R(7,15)                 1.0981         estimate D2E/DX2                !
 ! R17   R(8,16)                 1.0965         estimate D2E/DX2                !
 ! A1    A(2,1,9)              110.5021         estimate D2E/DX2                !
 ! A2    A(1,2,3)              119.6804         estimate D2E/DX2                !
 ! A3    A(1,2,10)             122.8742         estimate D2E/DX2                !
 ! A4    A(3,2,10)             117.4218         estimate D2E/DX2                !
 ! A5    A(2,3,4)              135.2609         estimate D2E/DX2                !
 ! A6    A(2,3,8)              140.0835         estimate D2E/DX2                !
 ! A7    A(3,4,5)              154.0558         estimate D2E/DX2                !
 ! A8    A(5,4,8)              102.429          estimate D2E/DX2                !
 ! A9    A(4,5,6)              111.4704         estimate D2E/DX2                !
 ! A10   A(4,5,11)             110.0            estimate D2E/DX2                !
 ! A11   A(4,5,12)             108.7481         estimate D2E/DX2                !
 ! A12   A(6,5,11)             109.0085         estimate D2E/DX2                !
 ! A13   A(6,5,12)             110.292          estimate D2E/DX2                !
 ! A14   A(11,5,12)            107.2296         estimate D2E/DX2                !
 ! A15   A(5,6,7)              109.1287         estimate D2E/DX2                !
 ! A16   A(5,6,13)             108.1679         estimate D2E/DX2                !
 ! A17   A(7,6,13)             107.9941         estimate D2E/DX2                !
 ! A18   A(6,7,8)              110.8261         estimate D2E/DX2                !
 ! A19   A(6,7,14)             108.4963         estimate D2E/DX2                !
 ! A20   A(6,7,15)             109.9868         estimate D2E/DX2                !
 ! A21   A(8,7,14)             105.8534         estimate D2E/DX2                !
 ! A22   A(8,7,15)             114.0869         estimate D2E/DX2                !
 ! A23   A(14,7,15)            107.3132         estimate D2E/DX2                !
 ! A24   A(3,8,7)              140.7499         estimate D2E/DX2                !
 ! A25   A(3,8,16)              93.0363         estimate D2E/DX2                !
 ! A26   A(4,8,7)              100.2496         estimate D2E/DX2                !
 ! A27   A(4,8,16)             133.4139         estimate D2E/DX2                !
 ! A28   A(7,8,16)             101.4949         estimate D2E/DX2                !
 ! D1    D(9,1,2,3)            178.136          estimate D2E/DX2                !
 ! D2    D(9,1,2,10)            -0.049          estimate D2E/DX2                !
 ! D3    D(1,2,3,4)           -138.69           estimate D2E/DX2                !
 ! D4    D(1,2,3,8)             11.1963         estimate D2E/DX2                !
 ! D5    D(10,2,3,4)            39.5927         estimate D2E/DX2                !
 ! D6    D(10,2,3,8)          -170.521          estimate D2E/DX2                !
 ! D7    D(2,3,4,5)            170.174          estimate D2E/DX2                !
 ! D8    D(2,3,8,7)            160.1878         estimate D2E/DX2                !
 ! D9    D(2,3,8,16)            47.8337         estimate D2E/DX2                !
 ! D10   D(3,4,5,6)              3.3421         estimate D2E/DX2                !
 ! D11   D(3,4,5,11)          -117.6963         estimate D2E/DX2                !
 ! D12   D(3,4,5,12)           125.148          estimate D2E/DX2                !
 ! D13   D(8,4,5,6)             10.7347         estimate D2E/DX2                !
 ! D14   D(8,4,5,11)          -110.3036         estimate D2E/DX2                !
 ! D15   D(8,4,5,12)           132.5407         estimate D2E/DX2                !
 ! D16   D(5,4,8,7)            -20.7151         estimate D2E/DX2                !
 ! D17   D(5,4,8,16)          -137.45           estimate D2E/DX2                !
 ! D18   D(4,5,6,7)              3.7044         estimate D2E/DX2                !
 ! D19   D(4,5,6,13)          -113.5504         estimate D2E/DX2                !
 ! D20   D(11,5,6,7)           125.3197         estimate D2E/DX2                !
 ! D21   D(11,5,6,13)            8.0649         estimate D2E/DX2                !
 ! D22   D(12,5,6,7)          -117.2033         estimate D2E/DX2                !
 ! D23   D(12,5,6,13)          125.5419         estimate D2E/DX2                !
 ! D24   D(5,6,7,8)            -19.612          estimate D2E/DX2                !
 ! D25   D(5,6,7,14)          -135.4254         estimate D2E/DX2                !
 ! D26   D(5,6,7,15)           107.472          estimate D2E/DX2                !
 ! D27   D(13,6,7,8)            97.7528         estimate D2E/DX2                !
 ! D28   D(13,6,7,14)          -18.0607         estimate D2E/DX2                !
 ! D29   D(13,6,7,15)         -135.1632         estimate D2E/DX2                !
 ! D30   D(6,7,8,3)             53.2196         estimate D2E/DX2                !
 ! D31   D(6,7,8,4)             24.2064         estimate D2E/DX2                !
 ! D32   D(6,7,8,16)           162.7514         estimate D2E/DX2                !
 ! D33   D(14,7,8,3)           170.6623         estimate D2E/DX2                !
 ! D34   D(14,7,8,4)           141.6492         estimate D2E/DX2                !
 ! D35   D(14,7,8,16)          -79.8058         estimate D2E/DX2                !
 ! D36   D(15,7,8,3)           -71.5744         estimate D2E/DX2                !
 ! D37   D(15,7,8,4)          -100.5876         estimate D2E/DX2                !
 ! D38   D(15,7,8,16)           37.9574         estimate D2E/DX2                !
 --------------------------------------------------------------------------------
 Trust Radius=3.00D-01 FncErr=1.00D-07 GrdErr=1.00D-06 EigMax=2.50D+02 EigMin=1.00D-04
 Number of steps in this run=     93 maximum allowed number of steps=    100.
 GradGradGradGradGradGradGradGradGradGradGradGradGradGradGradGradGradGrad

                          Input orientation:                          
 ---------------------------------------------------------------------
 Center     Atomic      Atomic             Coordinates (Angstroms)
 Number     Number       Type             X           Y           Z
 ---------------------------------------------------------------------
      1          7           0        0.950220   -0.008880   -0.055050
      2          6           0        2.238980    0.029010   -0.070760
      3          6           0        2.966240   -0.020120    1.164940
      4          6           0        3.994140    0.578990    1.640440
      5          6           0        4.933970    0.945960    2.711260
      6          7           0        4.615220    0.265160    3.955300
      7          6           0        3.503810   -0.645800    3.728990
      8          6           0        2.759520   -0.274080    2.504330
      9          1           0        0.578450    0.065390   -1.003800
     10          1           0        2.823460    0.127840   -1.000300
     11          1           0        4.906230    2.031050    2.879940
     12          1           0        5.947810    0.694070    2.390360
     13          1           0        4.316030    0.964240    4.632060
     14          1           0        2.793610   -0.538740    4.554470
     15          1           0        3.861540   -1.683910    3.738250
     16          1           0        2.197020   -1.193460    2.302980
 ---------------------------------------------------------------------
                    Distance matrix (angstroms):
                    1          2          3          4          5
     1  N    0.000000
     2  C    1.289413   0.000000
     3  C    2.356446   1.434669   0.000000
     4  C    3.533515   2.512224   1.281254   0.000000
     5  C    4.943122   3.980377   2.682606   1.471259   0.000000
     6  N    5.439690   4.680966   3.253710   2.417190   1.453522
     7  C    4.609278   4.061190   2.693475   2.470339   2.369564
     8  C    3.145524   2.644601   1.378838   1.731566   2.501909
     9  H    1.021692   1.905058   3.226807   4.350026   5.792031
    10  H    2.102669   1.102465   2.174981   2.923617   4.347327
    11  H    5.331557   4.452978   3.303344   2.115832   1.098473
    12  H    5.608037   4.500537   3.301739   2.095817   1.092839
    13  H    5.851892   5.225448   3.848613   3.033450   2.017835
    14  H    4.992646   4.692836   3.433319   3.343974   3.191065
    15  H    5.066620   4.480553   3.192442   3.088544   3.020104
    16  H    2.918569   2.670362   1.806533   2.609632   3.497814
                    6          7          8          9         10
     6  N    0.000000
     7  C    1.454750   0.000000
     8  C    2.416550   1.480519   0.000000
     9  H    6.397507   5.609173   4.144790   0.000000
    10  H    5.271360   4.840204   3.528181   2.245881   0.000000
    11  H    2.087930   3.138980   3.172234   6.138154   4.797541
    12  H    2.099714   3.091976   3.333991   6.383227   4.645294
    13  H    1.017955   2.016796   2.912627   6.822049   5.886494
    14  H    2.079308   1.094195   2.067433   6.013840   5.594702
    15  H    2.100956   1.098057   2.173621   6.027086   5.178214
    16  H    3.271915   2.010258   1.096452   3.890921   3.612467
                   11         12         13         14         15
    11  H    0.000000
    12  H    1.764113   0.000000
    13  H    2.134559   2.785842   0.000000
    14  H    3.724384   4.018976   2.140732   0.000000
    15  H    3.953353   3.438622   2.831635   1.765815   0.000000
    16  H    4.250902   4.199861   3.817131   2.419460   2.251925
                   16
    16  H    0.000000
 Stoichiometry    C6H8N2
 Framework group  C1[X(C6H8N2)]
 Deg. of freedom    42
 Full point group                 C1      NOp   1
 Largest Abelian subgroup         C1      NOp   1
 Largest concise Abelian subgroup C1      NOp   1
                         Standard orientation:                         
 ---------------------------------------------------------------------
 Center     Atomic      Atomic             Coordinates (Angstroms)
 Number     Number       Type             X           Y           Z
 ---------------------------------------------------------------------
      1          7           0        3.036655    0.415779    0.377019
      2          6           0        2.256429   -0.418645   -0.220952
      3          6           0        0.840042   -0.190349   -0.223264
      4          6           0       -0.200385   -0.924615   -0.081933
      5          6           0       -1.641940   -1.155427    0.100411
      6          7           0       -2.385957    0.093208    0.091619
      7          6           0       -1.472097    1.190726   -0.185168
      8          6           0       -0.073091    0.793469    0.092147
      9          1           0        4.007526    0.103024    0.318279
     10          1           0        2.624276   -1.332158   -0.716543
     11          1           0       -1.822130   -1.672580    1.052633
     12          1           0       -1.996002   -1.813208   -0.697249
     13          1           0       -2.776975    0.236238    1.020532
     14          1           0       -1.693091    2.009282    0.506489
     15          1           0       -1.637219    1.569091   -1.202667
     16          1           0        0.484980    1.566455   -0.449385
 ---------------------------------------------------------------------
 Rotational constants (GHZ):           6.1559391           1.2940678           1.1124402
 Standard basis: 6-31G(2df,p) (6D, 7F)
 There are   288 symmetry adapted cartesian basis functions of A   symmetry.
 There are   264 symmetry adapted basis functions of A   symmetry.
   264 basis functions,   408 primitive gaussians,   288 cartesian basis functions
    29 alpha electrons       29 beta electrons
       nuclear repulsion energy       344.3120703459 Hartrees.
 NAtoms=   16 NActive=   16 NUniq=   16 SFac= 1.00D+00 NAtFMM=   60 NAOKFM=F Big=F
 Integral buffers will be    131072 words long.
 Raffenetti 2 integral format.
 Two-electron integral symmetry is turned on.
 One-electron integrals computed using PRISM.
 PrsmSu:  requested number of processors reduced to:  13 ShMem   1 Linda.
 NBasis=   264 RedAO= T EigKep=  3.09D-04  NBF=   264
 NBsUse=   264 1.00D-06 EigRej= -1.00D+00 NBFU=   264
 ExpMin= 1.61D-01 ExpMax= 4.17D+03 ExpMxC= 6.27D+02 IAcc=3 IRadAn=         5 AccDes= 0.00D+00
 Harris functional with IExCor=  402 and IRadAn=       5 diagonalized for initial guess.
 HarFok:  IExCor=  402 AccDes= 0.00D+00 IRadAn=         5 IDoV= 1 UseB2=F ITyADJ=14
 ICtDFT=  3500011 ScaDFX=  1.000000  1.000000  1.000000  1.000000
 FoFCou: FMM=F IPFlag=           0 FMFlag=      100000 FMFlg1=           0
         NFxFlg=           0 DoJE=T BraDBF=F KetDBF=T FulRan=T
         wScrn=  0.000000 ICntrl=       500 IOpCl=  0 I1Cent=   200000004 NGrid=           0
         NMat0=    1 NMatS0=      1 NMatT0=    0 NMatD0=    1 NMtDS0=    0 NMtDT0=    0
 Petite list used in FoFCou.
 Requested convergence on RMS density matrix=1.00D-08 within 128 cycles.
 Requested convergence on MAX density matrix=1.00D-06.
 Requested convergence on             energy=1.00D-06.
 No special actions if energy rises.
 Integral accuracy reduced to 1.0D-05 until final iterations.
 Initial convergence to 1.0D-05 achieved.  Increase integral accuracy.
 SCF Done:  E(RB3LYP) =  -342.654192264     A.U. after   21 cycles
            NFock= 21  Conv=0.35D-08     -V/T= 2.0060

 **********************************************************************

            Population analysis using the SCF density.

 **********************************************************************

 Orbital symmetries:
       Occupied  (A) (A) (A) (A) (A) (A) (A) (A) (A) (A) (A) (A)
                 (A) (A) (A) (A) (A) (A) (A) (A) (A) (A) (A) (A)
                 (A) (A) (A) (A) (A)
       Virtual   (A) (A) (A) (A) (A) (A) (A) (A) (A) (A) (A) (A)
                 (A) (A) (A) (A) (A) (A) (A) (A) (A) (A) (A) (A)
                 (A) (A) (A) (A) (A) (A) (A) (A) (A) (A) (A) (A)
                 (A) (A) (A) (A) (A) (A) (A) (A) (A) (A) (A) (A)
                 (A) (A) (A) (A) (A) (A) (A) (A) (A) (A) (A) (A)
                 (A) (A) (A) (A) (A) (A) (A) (A) (A) (A) (A) (A)
                 (A) (A) (A) (A) (A) (A) (A) (A) (A) (A) (A) (A)
                 (A) (A) (A) (A) (A) (A) (A) (A) (A) (A) (A) (A)
                 (A) (A) (A) (A) (A) (A) (A) (A) (A) (A) (A) (A)
                 (A) (A) (A) (A) (A) (A) (A) (A) (A) (A) (A) (A)
                 (A) (A) (A) (A) (A) (A) (A) (A) (A) (A) (A) (A)
                 (A) (A) (A) (A) (A) (A) (A) (A) (A) (A) (A) (A)
                 (A) (A) (A) (A) (A) (A) (A) (A) (A) (A) (A) (A)
                 (A) (A) (A) (A) (A) (A) (A) (A) (A) (A) (A) (A)
                 (A) (A) (A) (A) (A) (A) (A) (A) (A) (A) (A) (A)
                 (A) (A) (A) (A) (A) (A) (A) (A) (A) (A) (A) (A)
                 (A) (A) (A) (A) (A) (A) (A) (A) (A) (A) (A) (A)
                 (A) (A) (A) (A) (A) (A) (A) (A) (A) (A) (A) (A)
                 (A) (A) (A) (A) (A) (A) (A) (A) (A) (A) (A) (A)
                 (A) (A) (A) (A) (A) (A) (A)
 The electronic state is 1-A.
 Alpha  occ. eigenvalues --  -14.32285 -14.31956 -10.24106 -10.23876 -10.23527
 Alpha  occ. eigenvalues --  -10.22073 -10.21667 -10.15703  -0.94411  -0.90666
 Alpha  occ. eigenvalues --   -0.86440  -0.74837  -0.68880  -0.63635  -0.59630
 Alpha  occ. eigenvalues --   -0.51788  -0.50832  -0.49922  -0.45402  -0.44767
 Alpha  occ. eigenvalues --   -0.42702  -0.41159  -0.37892  -0.36532  -0.33093
 Alpha  occ. eigenvalues --   -0.29717  -0.27165  -0.23081  -0.12262
 Alpha virt. eigenvalues --   -0.05202  -0.04224   0.05972   0.07191   0.09787
 Alpha virt. eigenvalues --    0.13164   0.13522   0.14998   0.16248   0.16733
 Alpha virt. eigenvalues --    0.19260   0.20091   0.23097   0.26418   0.27483
 Alpha virt. eigenvalues --    0.30309   0.33557   0.38298   0.40149   0.42388
 Alpha virt. eigenvalues --    0.45022   0.47261   0.47916   0.48849   0.50107
 Alpha virt. eigenvalues --    0.51118   0.51797   0.54644   0.56781   0.58055
 Alpha virt. eigenvalues --    0.59307   0.61267   0.63356   0.64880   0.66476
 Alpha virt. eigenvalues --    0.67885   0.70058   0.71054   0.71897   0.73470
 Alpha virt. eigenvalues --    0.74780   0.76231   0.76746   0.78526   0.79498
 Alpha virt. eigenvalues --    0.81095   0.81197   0.81829   0.82818   0.84452
 Alpha virt. eigenvalues --    0.87063   0.89043   0.90987   0.93179   0.95702
 Alpha virt. eigenvalues --    0.96616   1.00295   1.03511   1.05093   1.08705
 Alpha virt. eigenvalues --    1.10984   1.16510   1.21436   1.21599   1.25871
 Alpha virt. eigenvalues --    1.27372   1.28325   1.31244   1.33928   1.36982
 Alpha virt. eigenvalues --    1.37678   1.40510   1.41725   1.44620   1.46834
 Alpha virt. eigenvalues --    1.49520   1.50973   1.52688   1.53563   1.57892
 Alpha virt. eigenvalues --    1.60860   1.62436   1.66618   1.69594   1.73708
 Alpha virt. eigenvalues --    1.75744   1.77430   1.79881   1.82778   1.86821
 Alpha virt. eigenvalues --    1.94310   1.96893   2.01484   2.04167   2.07182
 Alpha virt. eigenvalues --    2.10494   2.12847   2.15932   2.20560   2.23020
 Alpha virt. eigenvalues --    2.25849   2.26576   2.30279   2.36967   2.41960
 Alpha virt. eigenvalues --    2.43300   2.44077   2.47002   2.53101   2.55134
 Alpha virt. eigenvalues --    2.58998   2.59636   2.63284   2.65536   2.68300
 Alpha virt. eigenvalues --    2.72915   2.74734   2.77195   2.79343   2.79459
 Alpha virt. eigenvalues --    2.83547   2.86475   2.90497   2.91907   2.92868
 Alpha virt. eigenvalues --    2.94118   2.95389   2.98736   3.01390   3.02954
 Alpha virt. eigenvalues --    3.05047   3.08151   3.14502   3.15089   3.18144
 Alpha virt. eigenvalues --    3.19413   3.24412   3.26013   3.28837   3.29727
 Alpha virt. eigenvalues --    3.30666   3.35583   3.39836   3.41135   3.43665
 Alpha virt. eigenvalues --    3.44113   3.46619   3.48355   3.49472   3.52188
 Alpha virt. eigenvalues --    3.57421   3.60487   3.66889   3.70358   3.72446
 Alpha virt. eigenvalues --    3.74907   3.76717   3.80529   3.82890   3.86992
 Alpha virt. eigenvalues --    3.91363   3.92563   3.93161   3.97543   4.00922
 Alpha virt. eigenvalues --    4.05757   4.09855   4.13266   4.16322   4.17495
 Alpha virt. eigenvalues --    4.20351   4.21139   4.24086   4.29135   4.32225
 Alpha virt. eigenvalues --    4.32789   4.37791   4.39867   4.42599   4.43001
 Alpha virt. eigenvalues --    4.44016   4.44453   4.45510   4.50634   4.52734
 Alpha virt. eigenvalues --    4.53783   4.55261   4.60651   4.62135   4.63248
 Alpha virt. eigenvalues --    4.67079   4.69569   4.72080   4.73421   4.74198
 Alpha virt. eigenvalues --    4.78325   4.82677   4.83335   4.85160   4.86930
 Alpha virt. eigenvalues --    4.89648   4.90258   4.94275   4.95172   4.96662
 Alpha virt. eigenvalues --    4.98443   5.02185   5.07073   5.09759   5.12107
 Alpha virt. eigenvalues --    5.21490   5.25212   5.29229   5.33527   5.35693
 Alpha virt. eigenvalues --    5.42668   5.45292   5.49769   5.58366   5.68312
 Alpha virt. eigenvalues --    5.69544   5.80992   6.00296   6.08243   6.17416
 Alpha virt. eigenvalues --    8.73687  10.03145  10.56873  10.99985  11.26472
 Alpha virt. eigenvalues --   11.42411  11.49110  12.00728  12.07794  14.73489
          Condensed to atoms (all electrons):
               1          2          3          4          5          6
     1  N    6.494578   0.655953  -0.033683  -0.004154  -0.000017  -0.000003
     2  C    0.655953   5.006368   0.182234  -0.033685   0.002184  -0.000203
     3  C   -0.033683   0.182234   4.961545   0.603892  -0.016654  -0.010741
     4  C   -0.004154  -0.033685   0.603892   5.088581   0.384340  -0.054939
     5  C   -0.000017   0.002184  -0.016654   0.384340   4.926520   0.411583
     6  N   -0.000003  -0.000203  -0.010741  -0.054939   0.411583   6.370148
     7  C    0.000387   0.003968   0.021863  -0.078702  -0.103868   0.382214
     8  C    0.008360  -0.016272   0.310899   0.029460  -0.043745  -0.059756
     9  H    0.332269  -0.081484   0.013885  -0.000201   0.000001  -0.000000
    10  H   -0.071281   0.389938  -0.083996  -0.000523   0.000097   0.000000
    11  H    0.000012  -0.000090   0.001552  -0.017356   0.335646  -0.019289
    12  H   -0.000002  -0.000065  -0.006682  -0.047709   0.383222  -0.031638
    13  H   -0.000000   0.000010  -0.000501   0.002334  -0.046242   0.349280
    14  H   -0.000007  -0.000028  -0.002291   0.007872   0.007012  -0.010896
    15  H    0.000004  -0.000088   0.002452  -0.004947  -0.000357  -0.045168
    16  H    0.004363  -0.000517  -0.101988   0.008114   0.004183   0.008414
               7          8          9         10         11         12
     1  N    0.000387   0.008360   0.332269  -0.071281   0.000012  -0.000002
     2  C    0.003968  -0.016272  -0.081484   0.389938  -0.000090  -0.000065
     3  C    0.021863   0.310899   0.013885  -0.083996   0.001552  -0.006682
     4  C   -0.078702   0.029460  -0.000201  -0.000523  -0.017356  -0.047709
     5  C   -0.103868  -0.043745   0.000001   0.000097   0.335646   0.383222
     6  N    0.382214  -0.059756  -0.000000   0.000000  -0.019289  -0.031638
     7  C    4.954531   0.391535  -0.000003   0.000102   0.011049  -0.000051
     8  C    0.391535   5.381957  -0.000583   0.007928   0.003386   0.002928
     9  H   -0.000003  -0.000583   0.524934  -0.019292  -0.000000  -0.000000
    10  H    0.000102   0.007928  -0.019292   0.673678   0.000015  -0.000004
    11  H    0.011049   0.003386  -0.000000   0.000015   0.619483  -0.049345
    12  H   -0.000051   0.002928  -0.000000  -0.000004  -0.049345   0.603796
    13  H   -0.047898   0.001975   0.000000  -0.000000  -0.015541   0.006107
    14  H    0.339604  -0.024512  -0.000000  -0.000001  -0.000353  -0.000275
    15  H    0.401557  -0.068308   0.000000   0.000017  -0.000066   0.000150
    16  H   -0.048833   0.267825  -0.000365  -0.000128  -0.000333   0.000130
              13         14         15         16
     1  N   -0.000000  -0.000007   0.000004   0.004363
     2  C    0.000010  -0.000028  -0.000088  -0.000517
     3  C   -0.000501  -0.002291   0.002452  -0.101988
     4  C    0.002334   0.007872  -0.004947   0.008114
     5  C   -0.046242   0.007012  -0.000357   0.004183
     6  N    0.349280  -0.010896  -0.045168   0.008414
     7  C   -0.047898   0.339604   0.401557  -0.048833
     8  C    0.001975  -0.024512  -0.068308   0.267825
     9  H    0.000000  -0.000000   0.000000  -0.000365
    10  H   -0.000000  -0.000001   0.000017  -0.000128
    11  H   -0.015541  -0.000353  -0.000066  -0.000333
    12  H    0.006107  -0.000275   0.000150   0.000130
    13  H    0.531266  -0.013358   0.006378  -0.000281
    14  H   -0.013358   0.624837  -0.055840   0.005266
    15  H    0.006378  -0.055840   0.678676  -0.023418
    16  H   -0.000281   0.005266  -0.023418   0.768325
 Mulliken charges:
               1
     1  N   -0.386776
     2  C   -0.108222
     3  C    0.158215
     4  C    0.117622
     5  C   -0.243904
     6  N   -0.289006
     7  C   -0.227454
     8  C   -0.193077
     9  H    0.230839
    10  H    0.103451
    11  H    0.131231
    12  H    0.139440
    13  H    0.226471
    14  H    0.122970
    15  H    0.108959
    16  H    0.109243
 Sum of Mulliken charges =  -0.00000
 Mulliken charges with hydrogens summed into heavy atoms:
               1
     1  N   -0.155938
     2  C   -0.004771
     3  C    0.158215
     4  C    0.117622
     5  C    0.026767
     6  N   -0.062535
     7  C    0.004475
     8  C   -0.083834
 Electronic spatial extent (au):  <R**2>=           1046.5191
 Charge=             -0.0000 electrons
 Dipole moment (field-independent basis, Debye):
    X=             -0.2993    Y=             -1.9552    Z=             -0.2320  Tot=              1.9915
 Quadrupole moment (field-independent basis, Debye-Ang):
   XX=            -43.8708   YY=            -46.2422   ZZ=            -47.6223
   XY=             -4.0572   XZ=             -6.1041   YZ=             -1.7940
 Traceless Quadrupole moment (field-independent basis, Debye-Ang):
   XX=              2.0410   YY=             -0.3304   ZZ=             -1.7106
   XY=             -4.0572   XZ=             -6.1041   YZ=             -1.7940
 Octapole moment (field-independent basis, Debye-Ang**2):
  XXX=             35.7986  YYY=             -1.2375  ZZZ=              1.6564  XYY=             -7.5774
  XXY=            -14.0865  XXZ=              5.7636  XZZ=             -6.9032  YZZ=             -1.3320
  YYZ=              0.0306  XYZ=             -1.7341
 Hexadecapole moment (field-independent basis, Debye-Ang**3):
 XXXX=           -923.7893 YYYY=           -263.0550 ZZZZ=            -78.4881 XXXY=            -34.9258
 XXXZ=            -39.1794 YYYX=             -4.5809 YYYZ=             -1.6499 ZZZX=             -7.2293
 ZZZY=             -3.1305 XXYY=           -213.8307 XXZZ=           -178.8539 YYZZ=            -56.7088
 XXYZ=             -0.7921 YYXZ=             -5.4707 ZZXY=             -1.9484
 N-N= 3.443120703459D+02 E-N=-1.484594330770D+03  KE= 3.406077046851D+02
 PrsmSu:  requested number of processors reduced to:  13 ShMem   1 Linda.
 Calling FoFJK, ICntrl=      2127 FMM=F ISym2X=0 I1Cent= 0 IOpClX= 0 NMat=1 NMatS=1 NMatT=0.
 ***** Axes restored to original set *****
 -------------------------------------------------------------------
 Center     Atomic                   Forces (Hartrees/Bohr)
 Number     Number              X              Y              Z
 -------------------------------------------------------------------
      1        7           0.013284599   -0.005726555    0.001065337
      2        6          -0.032334648   -0.001035064   -0.011067788
      3        6           0.000531750    0.100377640   -0.051576383
      4        6           0.085862159   -0.029516906   -0.038581788
      5        6           0.005547131    0.012451109   -0.008251783
      6        7          -0.000768827    0.011740475    0.022887285
      7        6          -0.008906961    0.022059299    0.020419982
      8        6          -0.093519192   -0.063320219    0.062642918
      9        1           0.000921647    0.000924089   -0.000361682
     10        1           0.003310092   -0.001200130    0.008053763
     11        1           0.002451669    0.002047251   -0.004376517
     12        1           0.004797184    0.001365749   -0.001284012
     13        1           0.003640213   -0.003607760   -0.002922876
     14        1           0.002530468   -0.007535905    0.007825677
     15        1           0.001449294   -0.001817398   -0.005907110
     16        1           0.011203422   -0.037205674    0.001434977
 -------------------------------------------------------------------
 Cartesian Forces:  Max     0.100377640 RMS     0.030370130

 GradGradGradGradGradGradGradGradGradGradGradGradGradGradGradGradGradGrad
 Berny optimization.
 FormGI is forming the generalized inverse of G from B-inverse, IUseBI=4.
 Internal  Forces:  Max     0.064871787 RMS     0.013605088
 Search for a local minimum.
 Step number   1 out of a maximum of   93
 All quantities printed in internal units (Hartrees-Bohrs-Radians)
 Mixed Optimization -- RFO/linear search
 Second derivative matrix not updated -- first step.
 ITU=  0
     Eigenvalues ---    0.01031   0.01281   0.01630   0.01788   0.02179
     Eigenvalues ---    0.02554   0.02943   0.03155   0.03338   0.03872
     Eigenvalues ---    0.04904   0.06106   0.07047   0.07819   0.09321
     Eigenvalues ---    0.09971   0.10345   0.11575   0.12045   0.15997
     Eigenvalues ---    0.16000   0.17882   0.20244   0.22001   0.22364
     Eigenvalues ---    0.22861   0.32056   0.33411   0.33852   0.33898
     Eigenvalues ---    0.34078   0.34332   0.34487   0.34638   0.36025
     Eigenvalues ---    0.37184   0.40326   0.44069   0.44666   0.45309
     Eigenvalues ---    0.61040   0.70221
 RFO step:  Lambda=-7.41133622D-02 EMin= 1.03104210D-02
 Linear search not attempted -- first point.
 Maximum step size (   0.300) exceeded in Quadratic search.
    -- Step size scaled by   0.849
 Iteration  1 RMS(Cart)=  0.07136230 RMS(Int)=  0.00538010
 Iteration  2 RMS(Cart)=  0.00456852 RMS(Int)=  0.00256788
 Iteration  3 RMS(Cart)=  0.00004101 RMS(Int)=  0.00256770
 Iteration  4 RMS(Cart)=  0.00000017 RMS(Int)=  0.00256770
 Variable       Old X    -DE/DX   Delta X   Delta X   Delta X     New X
                                 (Linear)    (Quad)   (Total)
    R1        2.43664  -0.01405   0.00000  -0.01537  -0.01537   2.42127
    R2        1.93072   0.00007   0.00000   0.00011   0.00011   1.93083
    R3        2.71113   0.00926   0.00000   0.01648   0.01648   2.72761
    R4        2.08336  -0.00514   0.00000  -0.01070  -0.01070   2.07266
    R5        2.42122   0.01408   0.00000   0.01281   0.01788   2.43909
    R6        2.60563   0.06487   0.00000   0.10411   0.10696   2.71259
    R7        2.78028   0.00929   0.00000   0.01469   0.01404   2.79432
    R8        3.27219   0.05678   0.00000   0.19572   0.18925   3.46144
    R9        2.74676   0.02521   0.00000   0.04432   0.04467   2.79143
   R10        2.07581   0.00129   0.00000   0.00265   0.00265   2.07847
   R11        2.06517   0.00451   0.00000   0.00915   0.00915   2.07431
   R12        2.74908   0.01963   0.00000   0.03852   0.03952   2.78860
   R13        1.92366  -0.00549   0.00000  -0.00895  -0.00895   1.91470
   R14        2.79777   0.01646   0.00000   0.03696   0.03708   2.83486
   R15        2.06773   0.00352   0.00000   0.00717   0.00717   2.07490
   R16        2.07503   0.00214   0.00000   0.00440   0.00440   2.07943
   R17        2.07199   0.02519   0.00000   0.05156   0.05156   2.12355
    A1        1.92863  -0.00202   0.00000  -0.00731  -0.00731   1.92132
    A2        2.08882   0.00438   0.00000   0.01278   0.01264   2.10146
    A3        2.14456   0.00528   0.00000   0.02098   0.02084   2.16540
    A4        2.04940  -0.00957   0.00000  -0.03293  -0.03307   2.01633
    A5        2.36075   0.01660   0.00000   0.03673   0.03650   2.39725
    A6        2.44492  -0.01315   0.00000  -0.04465  -0.04826   2.39665
    A7        2.68878   0.00890   0.00000   0.00569  -0.00032   2.68846
    A8        1.78772  -0.00242   0.00000   0.00638   0.00726   1.79498
    A9        1.94553   0.00146   0.00000  -0.00223  -0.00460   1.94092
   A10        1.91986  -0.00480   0.00000  -0.02480  -0.02478   1.89508
   A11        1.89801   0.00216   0.00000   0.01810   0.01954   1.91755
   A12        1.90256   0.00462   0.00000   0.02202   0.02271   1.92527
   A13        1.92496  -0.00164   0.00000  -0.00142  -0.00084   1.92412
   A14        1.87151  -0.00201   0.00000  -0.01238  -0.01258   1.85893
   A15        1.90465   0.00392   0.00000   0.01969   0.01824   1.92289
   A16        1.88789   0.00646   0.00000   0.04093   0.03887   1.92676
   A17        1.88485   0.00163   0.00000   0.03072   0.03016   1.91501
   A18        1.93428   0.00018   0.00000   0.01379   0.01278   1.94707
   A19        1.89362   0.00724   0.00000   0.04223   0.04134   1.93496
   A20        1.91963  -0.00718   0.00000  -0.04717  -0.04714   1.87249
   A21        1.84749   0.00238   0.00000   0.02530   0.02503   1.87252
   A22        1.99119  -0.00021   0.00000  -0.02019  -0.02130   1.96989
   A23        1.87297  -0.00151   0.00000  -0.00773  -0.00702   1.86595
   A24        2.45655  -0.00665   0.00000  -0.00138  -0.01025   2.44630
   A25        1.62379   0.01364   0.00000   0.07664   0.08307   1.70686
   A26        1.74968  -0.00418   0.00000  -0.03605  -0.03437   1.71531
   A27        2.32851  -0.00946   0.00000  -0.07103  -0.07654   2.25197
   A28        1.77142  -0.00666   0.00000  -0.04151  -0.04535   1.72607
    D1        3.10906   0.00095   0.00000   0.00944   0.00975   3.11880
    D2       -0.00086  -0.00250   0.00000  -0.02196  -0.02227  -0.02312
    D3       -2.42060  -0.01598   0.00000  -0.15643  -0.15719  -2.57779
    D4        0.19541   0.00763   0.00000   0.08045   0.08156   0.27697
    D5        0.69102  -0.01246   0.00000  -0.12580  -0.12691   0.56411
    D6       -2.97615   0.01115   0.00000   0.11107   0.11184  -2.86431
    D7        2.97010  -0.01340   0.00000  -0.09377  -0.08702   2.88307
    D8        2.79580   0.00816   0.00000   0.08190   0.08504   2.88084
    D9        0.83485   0.00470   0.00000   0.04920   0.05519   0.89004
   D10        0.05833   0.01060   0.00000   0.10265   0.10423   0.16256
   D11       -2.05419   0.00706   0.00000   0.09315   0.09534  -1.95885
   D12        2.18424   0.01094   0.00000   0.11162   0.11344   2.29768
   D13        0.18736  -0.00619   0.00000  -0.07448  -0.07640   0.11096
   D14       -1.92516  -0.00973   0.00000  -0.08397  -0.08529  -2.01045
   D15        2.31327  -0.00585   0.00000  -0.06550  -0.06719   2.24608
   D16       -0.36155   0.00167   0.00000   0.04161   0.04435  -0.31720
   D17       -2.39896   0.02313   0.00000   0.19503   0.18614  -2.21282
   D18        0.06465   0.00744   0.00000   0.08158   0.08344   0.14809
   D19       -1.98183  -0.00027   0.00000   0.01129   0.01209  -1.96974
   D20        2.18724   0.00548   0.00000   0.06388   0.06455   2.25179
   D21        0.14076  -0.00222   0.00000  -0.00641  -0.00680   0.13396
   D22       -2.04558   0.00485   0.00000   0.06115   0.06236  -1.98323
   D23        2.19112  -0.00286   0.00000  -0.00914  -0.00899   2.18213
   D24       -0.34229  -0.00846   0.00000  -0.06436  -0.06272  -0.40501
   D25       -2.36362  -0.01566   0.00000  -0.12721  -0.12719  -2.49081
   D26        1.87574  -0.01401   0.00000  -0.11588  -0.11493   1.76081
   D27        1.70611   0.00228   0.00000   0.01227   0.01370   1.71981
   D28       -0.31522  -0.00492   0.00000  -0.05057  -0.05078  -0.36599
   D29       -2.35904  -0.00327   0.00000  -0.03924  -0.03852  -2.39756
   D30        0.92886  -0.02420   0.00000  -0.19138  -0.19046   0.73839
   D31        0.42248   0.00192   0.00000   0.00195  -0.00044   0.42204
   D32        2.84055  -0.01434   0.00000  -0.11821  -0.11771   2.72283
   D33        2.97862  -0.01413   0.00000  -0.11948  -0.11784   2.86078
   D34        2.47224   0.01199   0.00000   0.07385   0.07218   2.54443
   D35       -1.39287  -0.00427   0.00000  -0.04632  -0.04509  -1.43797
   D36       -1.24921  -0.01454   0.00000  -0.12364  -0.12229  -1.37150
   D37       -1.75558   0.01158   0.00000   0.06969   0.06773  -1.68785
   D38        0.66248  -0.00468   0.00000  -0.05048  -0.04954   0.61294
         Item               Value     Threshold  Converged?
 Maximum Force            0.064872     0.000450     NO 
 RMS     Force            0.013605     0.000300     NO 
 Maximum Displacement     0.306000     0.001800     NO 
 RMS     Displacement     0.070772     0.001200     NO 
 Predicted change in Energy=-5.071606D-02
 GradGradGradGradGradGradGradGradGradGradGradGradGradGradGradGradGradGrad

                          Input orientation:                          
 ---------------------------------------------------------------------
 Center     Atomic      Atomic             Coordinates (Angstroms)
 Number     Number       Type             X           Y           Z
 ---------------------------------------------------------------------
      1          7           0        0.922437   -0.004978   -0.077535
      2          6           0        2.200209    0.089205   -0.087633
      3          6           0        2.945187    0.052485    1.148097
      4          6           0        4.031957    0.567165    1.617112
      5          6           0        4.970389    0.933134    2.699672
      6          7           0        4.569852    0.321874    3.983390
      7          6           0        3.468700   -0.636796    3.768920
      8          6           0        2.710354   -0.332778    2.510783
      9          1           0        0.558254    0.060660   -1.029922
     10          1           0        2.800936    0.200054   -0.998576
     11          1           0        4.992082    2.029159    2.789041
     12          1           0        5.988386    0.621790    2.432005
     13          1           0        4.277771    1.036982    4.639071
     14          1           0        2.751195   -0.600374    4.599246
     15          1           0        3.908490   -1.645474    3.769933
     16          1           0        2.290051   -1.355388    2.309806
 ---------------------------------------------------------------------
                    Distance matrix (angstroms):
                    1          2          3          4          5
     1  N    0.000000
     2  C    1.281278   0.000000
     3  C    2.365797   1.443387   0.000000
     4  C    3.587240   2.547528   1.290713   0.000000
     5  C    4.997885   4.019351   2.698958   1.478690   0.000000
     6  N    5.468234   4.716203   3.278871   2.439010   1.477160
     7  C    4.655950   4.124215   2.760053   2.529240   2.421372
     8  C    3.162829   2.681432   1.435440   1.831715   2.597301
     9  H    1.021752   1.893341   3.231297   4.396583   5.842775
    10  H    2.102168   1.096803   2.156569   2.914105   4.349825
    11  H    5.377452   4.453451   3.284771   2.105394   1.099876
    12  H    5.688100   4.580667   3.351655   2.120059   1.097679
    13  H    5.881354   5.249407   3.864184   3.068124   2.061983
    14  H    5.056792   4.769271   3.517711   3.449148   3.299220
    15  H    5.139140   4.561595   3.268799   3.089604   2.987024
    16  H    3.064861   2.800470   1.939298   2.685195   3.545920
                    6          7          8          9         10
     6  N    0.000000
     7  C    1.475663   0.000000
     8  C    2.460665   1.500142   0.000000
     9  H    6.426075   5.655619   4.162080   0.000000
    10  H    5.288089   4.886230   3.550734   2.247228   0.000000
    11  H    2.125928   3.223069   3.295824   6.174001   4.742657
    12  H    2.123437   3.117724   3.415100   6.464220   4.701765
    13  H    1.013217   2.052630   2.977020   6.850218   5.887661
    14  H    2.130101   1.097989   2.105934   6.077293   5.654978
    15  H    2.086485   1.100386   2.178110   6.097014   5.231762
    16  H    3.288098   2.008632   1.123734   4.019713   3.691313
                   11         12         13         14         15
    11  H    0.000000
    12  H    1.760905   0.000000
    13  H    2.217491   2.823071   0.000000
    14  H    3.900367   4.082895   2.238963   0.000000
    15  H    3.954649   3.355072   2.843825   1.766161   0.000000
    16  H    4.357270   4.195456   3.885865   2.454433   2.198970
                   16
    16  H    0.000000
 Stoichiometry    C6H8N2
 Framework group  C1[X(C6H8N2)]
 Deg. of freedom    42
 Full point group                 C1      NOp   1
 Largest Abelian subgroup         C1      NOp   1
 Largest concise Abelian subgroup C1      NOp   1
                         Standard orientation:                         
 ---------------------------------------------------------------------
 Center     Atomic      Atomic             Coordinates (Angstroms)
 Number     Number       Type             X           Y           Z
 ---------------------------------------------------------------------
      1          7           0        3.061733    0.431949    0.360680
      2          6           0        2.282413   -0.432233   -0.175534
      3          6           0        0.853636   -0.227385   -0.174655
      4          6           0       -0.209989   -0.956852   -0.124464
      5          6           0       -1.658607   -1.183837    0.066603
      6          7           0       -2.392344    0.094937    0.158079
      7          6           0       -1.496171    1.220467   -0.170001
      8          6           0       -0.056315    0.860248    0.047903
      9          1           0        4.032318    0.120509    0.290350
     10          1           0        2.627221   -1.355581   -0.656694
     11          1           0       -1.802990   -1.773285    0.983899
     12          1           0       -2.053314   -1.789986   -0.759042
     13          1           0       -2.770364    0.219257    1.089880
     14          1           0       -1.714049    2.091064    0.462589
     15          1           0       -1.710374    1.517214   -1.207743
     16          1           0        0.416028    1.600162   -0.653666
 ---------------------------------------------------------------------
 Rotational constants (GHZ):           5.8325403           1.2742001           1.0855947
 Standard basis: 6-31G(2df,p) (6D, 7F)
 There are   288 symmetry adapted cartesian basis functions of A   symmetry.
 There are   264 symmetry adapted basis functions of A   symmetry.
   264 basis functions,   408 primitive gaussians,   288 cartesian basis functions
    29 alpha electrons       29 beta electrons
       nuclear repulsion energy       339.6834913104 Hartrees.
 NAtoms=   16 NActive=   16 NUniq=   16 SFac= 1.00D+00 NAtFMM=   60 NAOKFM=F Big=F
 Integral buffers will be    131072 words long.
 Raffenetti 2 integral format.
 Two-electron integral symmetry is turned on.
 One-electron integrals computed using PRISM.
 PrsmSu:  requested number of processors reduced to:  13 ShMem   1 Linda.
 NBasis=   264 RedAO= T EigKep=  3.38D-04  NBF=   264
 NBsUse=   264 1.00D-06 EigRej= -1.00D+00 NBFU=   264
 Initial guess from the checkpoint file:  "NdCC1dC2CNCC12.chk"
 B after Tr=     0.000000    0.000000    0.000000
         Rot=    0.999998    0.001378   -0.001049   -0.000489 Ang=   0.21 deg.
 ExpMin= 1.61D-01 ExpMax= 4.17D+03 ExpMxC= 6.27D+02 IAcc=2 IRadAn=         4 AccDes= 0.00D+00
 Harris functional with IExCor=  402 and IRadAn=       4 diagonalized for initial guess.
 HarFok:  IExCor=  402 AccDes= 0.00D+00 IRadAn=         4 IDoV= 1 UseB2=F ITyADJ=14
 ICtDFT=  3500011 ScaDFX=  1.000000  1.000000  1.000000  1.000000
 FoFCou: FMM=F IPFlag=           0 FMFlag=      100000 FMFlg1=           0
         NFxFlg=           0 DoJE=T BraDBF=F KetDBF=T FulRan=T
         wScrn=  0.000000 ICntrl=       500 IOpCl=  0 I1Cent=   200000004 NGrid=           0
         NMat0=    1 NMatS0=      1 NMatT0=    0 NMatD0=    1 NMtDS0=    0 NMtDT0=    0
 Petite list used in FoFCou.
 Requested convergence on RMS density matrix=1.00D-08 within 128 cycles.
 Requested convergence on MAX density matrix=1.00D-06.
 Requested convergence on             energy=1.00D-06.
 No special actions if energy rises.
 Integral accuracy reduced to 1.0D-05 until final iterations.
 Initial convergence to 1.0D-05 achieved.  Increase integral accuracy.
 SCF Done:  E(RB3LYP) =  -342.706676579     A.U. after   16 cycles
            NFock= 16  Conv=0.25D-08     -V/T= 2.0073
 PrsmSu:  requested number of processors reduced to:  13 ShMem   1 Linda.
 Calling FoFJK, ICntrl=      2127 FMM=F ISym2X=0 I1Cent= 0 IOpClX= 0 NMat=1 NMatS=1 NMatT=0.
 ***** Axes restored to original set *****
 -------------------------------------------------------------------
 Center     Atomic                   Forces (Hartrees/Bohr)
 Number     Number              X              Y              Z
 -------------------------------------------------------------------
      1        7           0.007629755   -0.002546443   -0.000719993
      2        6          -0.019512790   -0.001905248   -0.001802303
      3        6          -0.006093483    0.077895492    0.012580368
      4        6           0.066147961   -0.022320433   -0.032685178
      5        6          -0.007350026   -0.000070857   -0.002839908
      6        7          -0.004640853    0.007436889    0.014709910
      7        6           0.005783402    0.034114712    0.010679839
      8        6          -0.059171295   -0.079549407    0.003045230
      9        1          -0.000071174   -0.000092061   -0.000315407
     10        1           0.002789541    0.000734921    0.002621151
     11        1           0.001418522   -0.000466244   -0.001760780
     12        1           0.000481209   -0.000422172   -0.000148251
     13        1           0.000456319    0.000387990   -0.003058926
     14        1           0.005095595   -0.001453318    0.004780076
     15        1          -0.004125284   -0.000789250   -0.006654396
     16        1           0.011162600   -0.010954570    0.001568567
 -------------------------------------------------------------------
 Cartesian Forces:  Max     0.079549407 RMS     0.022617279

 GradGradGradGradGradGradGradGradGradGradGradGradGradGradGradGradGradGrad
 Berny optimization.
 Using GEDIIS/GDIIS optimizer.
 FormGI is forming the generalized inverse of G from B-inverse, IUseBI=4.
 Internal  Forces:  Max     0.038302073 RMS     0.008038776
 Search for a local minimum.
 Step number   2 out of a maximum of   93
 All quantities printed in internal units (Hartrees-Bohrs-Radians)
 Mixed Optimization -- RFO/linear search
 Update second derivatives using D2CorX and points    1    2
 DE= -5.25D-02 DEPred=-5.07D-02 R= 1.03D+00
 TightC=F SS=  1.41D+00  RLast= 6.32D-01 DXNew= 5.0454D-01 1.8951D+00
 Trust test= 1.03D+00 RLast= 6.32D-01 DXMaxT set to 5.05D-01
 ITU=  1  0
 Use linear search instead of GDIIS.
     Eigenvalues ---    0.01036   0.01225   0.01492   0.01630   0.02205
     Eigenvalues ---    0.02437   0.02897   0.03155   0.03604   0.04074
     Eigenvalues ---    0.05034   0.06073   0.07024   0.08143   0.09447
     Eigenvalues ---    0.09969   0.10083   0.11440   0.11888   0.13517
     Eigenvalues ---    0.16004   0.16122   0.21960   0.21973   0.22998
     Eigenvalues ---    0.23858   0.32276   0.33424   0.33850   0.33894
     Eigenvalues ---    0.34285   0.34378   0.34519   0.34669   0.36841
     Eigenvalues ---    0.37600   0.40263   0.44069   0.44661   0.54102
     Eigenvalues ---    0.63755   0.69993
 RFO step:  Lambda=-3.13659698D-02 EMin= 1.03592769D-02
 Quartic linear search produced a step of  1.20395.
 Iteration  1 RMS(Cart)=  0.11540610 RMS(Int)=  0.04332017
 Iteration  2 RMS(Cart)=  0.03754976 RMS(Int)=  0.01395316
 Iteration  3 RMS(Cart)=  0.00195316 RMS(Int)=  0.01384282
 Iteration  4 RMS(Cart)=  0.00004245 RMS(Int)=  0.01384280
 Iteration  5 RMS(Cart)=  0.00000109 RMS(Int)=  0.01384280
 Iteration  6 RMS(Cart)=  0.00000005 RMS(Int)=  0.01384280
 Variable       Old X    -DE/DX   Delta X   Delta X   Delta X     New X
                                 (Linear)    (Quad)   (Total)
    R1        2.42127  -0.00735  -0.01851  -0.00250  -0.02100   2.40026
    R2        1.93083   0.00031   0.00014   0.00112   0.00125   1.93208
    R3        2.72761   0.00482   0.01984   0.00207   0.02190   2.74951
    R4        2.07266  -0.00057  -0.01288   0.00957  -0.00331   2.06934
    R5        2.43909   0.00481   0.02152  -0.00868   0.04500   2.48409
    R6        2.71259   0.00909   0.12878  -0.07928   0.07710   2.78969
    R7        2.79432  -0.00185   0.01691  -0.02882  -0.01655   2.77776
    R8        3.46144   0.03830   0.22785   0.12358   0.30145   3.76289
    R9        2.79143   0.00768   0.05378  -0.02226   0.03625   2.82768
   R10        2.07847  -0.00058   0.00319  -0.00603  -0.00283   2.07563
   R11        2.07431   0.00060   0.01101  -0.00764   0.00337   2.07768
   R12        2.78860   0.00193   0.04758  -0.03690   0.02059   2.80919
   R13        1.91470  -0.00184  -0.01078   0.00281  -0.00797   1.90673
   R14        2.83486   0.00690   0.04465  -0.00438   0.04128   2.87613
   R15        2.07490   0.00024   0.00863  -0.00716   0.00147   2.07637
   R16        2.07943  -0.00093   0.00530  -0.00984  -0.00454   2.07488
   R17        2.12355   0.00551   0.06207  -0.03235   0.02972   2.15327
    A1        1.92132  -0.00007  -0.00880   0.00936   0.00056   1.92188
    A2        2.10146   0.00386   0.01522   0.01280   0.02776   2.12921
    A3        2.16540   0.00199   0.02509  -0.00496   0.01986   2.18527
    A4        2.01633  -0.00586  -0.03981  -0.00783  -0.04790   1.96843
    A5        2.39725   0.00325   0.04395  -0.02784   0.00506   2.40231
    A6        2.39665  -0.01600  -0.05811  -0.05022  -0.10906   2.28760
    A7        2.68846  -0.01248  -0.00038  -0.09608  -0.12705   2.56141
    A8        1.79498  -0.00434   0.00874  -0.02304  -0.00624   1.78874
    A9        1.94092   0.00683  -0.00554   0.04767   0.02096   1.96189
   A10        1.89508  -0.00475  -0.02983  -0.02575  -0.04969   1.84539
   A11        1.91755   0.00004   0.02352   0.00442   0.03460   1.95215
   A12        1.92527   0.00081   0.02734  -0.01905   0.01310   1.93837
   A13        1.92412  -0.00346  -0.00102  -0.01714  -0.01172   1.91239
   A14        1.85893   0.00020  -0.01514   0.00780  -0.00920   1.84974
   A15        1.92289  -0.00250   0.02196  -0.03438  -0.01688   1.90601
   A16        1.92676   0.00526   0.04680   0.01065   0.05008   1.97684
   A17        1.91501   0.00309   0.03631   0.03154   0.06616   1.98116
   A18        1.94707   0.00678   0.01539   0.05518   0.05818   2.00524
   A19        1.93496   0.00083   0.04977  -0.02937   0.01596   1.95091
   A20        1.87249  -0.00418  -0.05675   0.01307  -0.03616   1.83633
   A21        1.87252   0.00011   0.03013  -0.00229   0.03105   1.90357
   A22        1.96989  -0.00458  -0.02565  -0.04917  -0.07600   1.89389
   A23        1.86595   0.00088  -0.00845   0.00948   0.00119   1.86713
   A24        2.44630  -0.01001  -0.01235  -0.02087  -0.09157   2.35473
   A25        1.70686   0.00982   0.10002   0.04939   0.18141   1.88827
   A26        1.71531  -0.00769  -0.04138  -0.04485  -0.07698   1.63833
   A27        2.25197  -0.00664  -0.09216  -0.01614  -0.11794   2.13403
   A28        1.72607   0.00115  -0.05460   0.08319   0.02543   1.75150
    D1        3.11880   0.00107   0.01173   0.01068   0.02306  -3.14132
    D2       -0.02312  -0.00086  -0.02681   0.02364  -0.00383  -0.02695
    D3       -2.57779  -0.01300  -0.18925  -0.09365  -0.28853  -2.86632
    D4        0.27697   0.00719   0.09819   0.06688   0.17144   0.44841
    D5        0.56411  -0.01124  -0.15279  -0.10555  -0.26472   0.29940
    D6       -2.86431   0.00896   0.13465   0.05498   0.19526  -2.66905
    D7        2.88307  -0.00845  -0.10477  -0.09329  -0.16727   2.71580
    D8        2.88084   0.01223   0.10238   0.16189   0.28361  -3.11873
    D9        0.89004   0.00364   0.06644  -0.03349   0.06663   0.95667
   D10        0.16256   0.00893   0.12549   0.06545   0.18523   0.34780
   D11       -1.95885   0.00674   0.11479   0.07605   0.18901  -1.76984
   D12        2.29768   0.00917   0.13657   0.07888   0.21015   2.50784
   D13        0.11096  -0.00572  -0.09198  -0.08441  -0.17552  -0.06456
   D14       -2.01045  -0.00790  -0.10268  -0.07381  -0.17174  -2.18219
   D15        2.24608  -0.00547  -0.08090  -0.07099  -0.15060   2.09548
   D16       -0.31720   0.00381   0.05339   0.06373   0.11496  -0.20223
   D17       -2.21282   0.01204   0.22410  -0.00165   0.18116  -2.03165
   D18        0.14809   0.00630   0.10045   0.08235   0.18350   0.33159
   D19       -1.96974   0.00063   0.01456   0.05851   0.07495  -1.89479
   D20        2.25179   0.00537   0.07771   0.06859   0.14337   2.39516
   D21        0.13396  -0.00031  -0.00818   0.04475   0.03483   0.16879
   D22       -1.98323   0.00400   0.07508   0.05620   0.13281  -1.85041
   D23        2.18213  -0.00168  -0.01082   0.03235   0.02427   2.20640
   D24       -0.40501  -0.00690  -0.07551  -0.05585  -0.12181  -0.52682
   D25       -2.49081  -0.01207  -0.15313  -0.06980  -0.21722  -2.70803
   D26        1.76081  -0.01115  -0.13838  -0.07297  -0.20598   1.55483
   D27        1.71981   0.00007   0.01649  -0.04425  -0.02270   1.69711
   D28       -0.36599  -0.00511  -0.06113  -0.05820  -0.11810  -0.48409
   D29       -2.39756  -0.00419  -0.04637  -0.06137  -0.10686  -2.50442
   D30        0.73839  -0.01909  -0.22931  -0.18984  -0.41223   0.32616
   D31        0.42204   0.00161  -0.00053  -0.00076  -0.00395   0.41809
   D32        2.72283  -0.00770  -0.14172  -0.00534  -0.14395   2.57888
   D33        2.86078  -0.01387  -0.14188  -0.19405  -0.32886   2.53192
   D34        2.54443   0.00683   0.08690  -0.00497   0.07943   2.62385
   D35       -1.43797  -0.00248  -0.05429  -0.00954  -0.06057  -1.49854
   D36       -1.37150  -0.01533  -0.14723  -0.21193  -0.35164  -1.72314
   D37       -1.68785   0.00537   0.08155  -0.02285   0.05665  -1.63120
   D38        0.61294  -0.00395  -0.05964  -0.02743  -0.08335   0.52959
         Item               Value     Threshold  Converged?
 Maximum Force            0.038302     0.000450     NO 
 RMS     Force            0.008039     0.000300     NO 
 Maximum Displacement     0.519975     0.001800     NO 
 RMS     Displacement     0.141054     0.001200     NO 
 Predicted change in Energy=-6.105948D-02
 GradGradGradGradGradGradGradGradGradGradGradGradGradGradGradGradGradGrad

                          Input orientation:                          
 ---------------------------------------------------------------------
 Center     Atomic      Atomic             Coordinates (Angstroms)
 Number     Number       Type             X           Y           Z
 ---------------------------------------------------------------------
      1          7           0        0.884987    0.032602   -0.042918
      2          6           0        2.145337    0.189982   -0.050917
      3          6           0        2.935489    0.145997    1.170020
      4          6           0        4.141599    0.494571    1.559596
      5          6           0        5.008280    0.875055    2.684225
      6          7           0        4.446233    0.453712    4.005444
      7          6           0        3.429917   -0.609149    3.787999
      8          6           0        2.688080   -0.524456    2.461748
      9          1           0        0.516509    0.097311   -0.994427
     10          1           0        2.756499    0.345312   -0.946176
     11          1           0        5.107201    1.967505    2.627676
     12          1           0        6.025265    0.472763    2.571428
     13          1           0        4.108438    1.226365    4.559502
     14          1           0        2.698174   -0.647153    4.606780
     15          1           0        3.990029   -1.553149    3.814481
     16          1           0        2.504215   -1.630548    2.258948
 ---------------------------------------------------------------------
                    Distance matrix (angstroms):
                    1          2          3          4          5
     1  N    0.000000
     2  C    1.270163   0.000000
     3  C    2.385086   1.454978   0.000000
     4  C    3.658824   2.582943   1.314526   0.000000
     5  C    5.014837   4.018305   2.668485   1.469930   0.000000
     6  N    5.408239   4.670947   3.227487   2.465085   1.496344
     7  C    4.643753   4.126262   2.769210   2.586594   2.431545
     8  C    3.136050   2.668047   1.476238   1.991234   2.718723
     9  H    1.022415   1.884643   3.246331   4.452206   5.857762
    10  H    2.101480   1.095050   2.133084   2.866998   4.304760
    11  H    5.357520   4.371166   3.187317   2.059785   1.098376
    12  H    5.783685   4.691535   3.408437   2.138335   1.099463
    13  H    5.744387   5.117013   3.745878   3.088051   2.109455
    14  H    5.036805   4.764511   3.535071   3.559823   3.368965
    15  H    5.199560   4.624143   3.315468   3.049694   2.865394
    16  H    3.269030   2.962870   2.127880   2.772409   3.567807
                    6          7          8          9         10
     6  N    0.000000
     7  C    1.486558   0.000000
     8  C    2.535925   1.521985   0.000000
     9  H    6.369338   5.644346   4.128857   0.000000
    10  H    5.233115   4.876156   3.517829   2.254193   0.000000
    11  H    2.150975   3.286150   3.477003   6.139358   4.574902
    12  H    2.133098   3.063725   3.484721   6.572875   4.803604
    13  H    1.008999   2.103502   3.079507   6.709907   5.737289
    14  H    2.151562   1.098769   2.148562   6.057013   5.641250
    15  H    2.066901   1.097981   2.140833   6.157513   5.271584
    16  H    3.341530   2.058683   1.139461   4.185800   3.773657
                   11         12         13         14         15
    11  H    0.000000
    12  H    1.755066   0.000000
    13  H    2.297557   2.862618   0.000000
    14  H    4.068992   4.057882   2.345453   0.000000
    15  H    3.879637   3.129167   2.880065   1.765632   0.000000
    16  H    4.456173   4.113314   4.003502   2.552841   2.152514
                   16
    16  H    0.000000
 Stoichiometry    C6H8N2
 Framework group  C1[X(C6H8N2)]
 Deg. of freedom    42
 Full point group                 C1      NOp   1
 Largest Abelian subgroup         C1      NOp   1
 Largest concise Abelian subgroup C1      NOp   1
                         Standard orientation:                         
 ---------------------------------------------------------------------
 Center     Atomic      Atomic             Coordinates (Angstroms)
 Number     Number       Type             X           Y           Z
 ---------------------------------------------------------------------
      1          7           0        3.053488    0.440807    0.372022
      2          6           0        2.272301   -0.449183   -0.087301
      3          6           0        0.828286   -0.271952   -0.106607
      4          6           0       -0.240535   -1.022232   -0.257205
      5          6           0       -1.677325   -1.182713    0.008453
      6          7           0       -2.344836    0.115198    0.338456
      7          6           0       -1.493147    1.237560   -0.135659
      8          6           0        0.001549    0.950658   -0.138405
      9          1           0        4.024353    0.129142    0.297060
     10          1           0        2.588549   -1.401464   -0.525802
     11          1           0       -1.748098   -1.887579    0.847849
     12          1           0       -2.198160   -1.661163   -0.833352
     13          1           0       -2.608454    0.192220    1.309359
     14          1           0       -1.680623    2.159534    0.431889
     15          1           0       -1.813823    1.426152   -1.168695
     16          1           0        0.328908    1.578296   -1.031310
 ---------------------------------------------------------------------
 Rotational constants (GHZ):           5.4014207           1.2821195           1.0856830
 Standard basis: 6-31G(2df,p) (6D, 7F)
 There are   288 symmetry adapted cartesian basis functions of A   symmetry.
 There are   264 symmetry adapted basis functions of A   symmetry.
   264 basis functions,   408 primitive gaussians,   288 cartesian basis functions
    29 alpha electrons       29 beta electrons
       nuclear repulsion energy       336.4971534009 Hartrees.
 NAtoms=   16 NActive=   16 NUniq=   16 SFac= 1.00D+00 NAtFMM=   60 NAOKFM=F Big=F
 Integral buffers will be    131072 words long.
 Raffenetti 2 integral format.
 Two-electron integral symmetry is turned on.
 One-electron integrals computed using PRISM.
 PrsmSu:  requested number of processors reduced to:  13 ShMem   1 Linda.
 NBasis=   264 RedAO= T EigKep=  3.63D-04  NBF=   264
 NBsUse=   264 1.00D-06 EigRej= -1.00D+00 NBFU=   264
 Initial guess from the checkpoint file:  "NdCC1dC2CNCC12.chk"
 B after Tr=     0.000000    0.000000   -0.000000
         Rot=    0.999990    0.001622   -0.003130    0.002814 Ang=   0.52 deg.
 ExpMin= 1.61D-01 ExpMax= 4.17D+03 ExpMxC= 6.27D+02 IAcc=2 IRadAn=         4 AccDes= 0.00D+00
 Harris functional with IExCor=  402 and IRadAn=       4 diagonalized for initial guess.
 HarFok:  IExCor=  402 AccDes= 0.00D+00 IRadAn=         4 IDoV= 1 UseB2=F ITyADJ=14
 ICtDFT=  3500011 ScaDFX=  1.000000  1.000000  1.000000  1.000000
 FoFCou: FMM=F IPFlag=           0 FMFlag=      100000 FMFlg1=           0
         NFxFlg=           0 DoJE=T BraDBF=F KetDBF=T FulRan=T
         wScrn=  0.000000 ICntrl=       500 IOpCl=  0 I1Cent=   200000004 NGrid=           0
         NMat0=    1 NMatS0=      1 NMatT0=    0 NMatD0=    1 NMtDS0=    0 NMtDT0=    0
 Petite list used in FoFCou.
 Requested convergence on RMS density matrix=1.00D-08 within 128 cycles.
 Requested convergence on MAX density matrix=1.00D-06.
 Requested convergence on             energy=1.00D-06.
 No special actions if energy rises.
 Integral accuracy reduced to 1.0D-05 until final iterations.
 Initial convergence to 1.0D-05 achieved.  Increase integral accuracy.
 SCF Done:  E(RB3LYP) =  -342.766268264     A.U. after   15 cycles
            NFock= 15  Conv=0.53D-08     -V/T= 2.0083
 PrsmSu:  requested number of processors reduced to:  13 ShMem   1 Linda.
 Calling FoFJK, ICntrl=      2127 FMM=F ISym2X=0 I1Cent= 0 IOpClX= 0 NMat=1 NMatS=1 NMatT=0.
 ***** Axes restored to original set *****
 -------------------------------------------------------------------
 Center     Atomic                   Forces (Hartrees/Bohr)
 Number     Number              X              Y              Z
 -------------------------------------------------------------------
      1        7          -0.002803098   -0.001662482   -0.000107850
      2        6           0.004616564   -0.000215015    0.000085276
      3        6          -0.006615643    0.023023810    0.056208481
      4        6           0.021791943   -0.008229880   -0.028298672
      5        6          -0.011712909   -0.004988207    0.006766052
      6        7          -0.006972801   -0.002675018    0.000409755
      7        6           0.011178338    0.032012708    0.000963031
      8        6          -0.000576149   -0.056415532   -0.028384321
      9        1          -0.000071471   -0.000250594    0.000520879
     10        1           0.000085520    0.002393563   -0.002032626
     11        1           0.001654542    0.000552557    0.001693306
     12        1          -0.002109778   -0.001422713   -0.001703892
     13        1          -0.004599517    0.002532311   -0.004991927
     14        1           0.004130940    0.002493722    0.002384458
     15        1          -0.005431243   -0.003777061   -0.001789339
     16        1          -0.002565238    0.016627830   -0.001722609
 -------------------------------------------------------------------
 Cartesian Forces:  Max     0.056415532 RMS     0.015105082

 GradGradGradGradGradGradGradGradGradGradGradGradGradGradGradGradGradGrad
 Berny optimization.
 Using GEDIIS/GDIIS optimizer.
 FormGI is forming the generalized inverse of G from B-inverse, IUseBI=4.
 Internal  Forces:  Max     0.028073127 RMS     0.006860457
 Search for a local minimum.
 Step number   3 out of a maximum of   93
 All quantities printed in internal units (Hartrees-Bohrs-Radians)
 Mixed Optimization -- RFO/linear search
 Update second derivatives using D2CorX and points    2    3
 DE= -5.96D-02 DEPred=-6.11D-02 R= 9.76D-01
 TightC=F SS=  1.41D+00  RLast= 1.20D+00 DXNew= 8.4853D-01 3.6136D+00
 Trust test= 9.76D-01 RLast= 1.20D+00 DXMaxT set to 8.49D-01
 ITU=  1  1  0
 Use linear search instead of GDIIS.
     Eigenvalues ---    0.01064   0.01194   0.01597   0.01722   0.02233
     Eigenvalues ---    0.02421   0.02698   0.03158   0.03618   0.04406
     Eigenvalues ---    0.05338   0.06162   0.06946   0.08426   0.09907
     Eigenvalues ---    0.09973   0.10124   0.10652   0.11719   0.12431
     Eigenvalues ---    0.16004   0.16125   0.22035   0.22068   0.22265
     Eigenvalues ---    0.24819   0.31832   0.33424   0.33859   0.33927
     Eigenvalues ---    0.34334   0.34449   0.34531   0.34835   0.36858
     Eigenvalues ---    0.37917   0.40280   0.44071   0.44659   0.57358
     Eigenvalues ---    0.65965   0.70180
 RFO step:  Lambda=-1.99903908D-02 EMin= 1.06437804D-02
 Quartic linear search produced a step of  0.52904.
 Iteration  1 RMS(Cart)=  0.11668628 RMS(Int)=  0.03579503
 Iteration  2 RMS(Cart)=  0.04570625 RMS(Int)=  0.01632516
 Iteration  3 RMS(Cart)=  0.00185834 RMS(Int)=  0.01626080
 Iteration  4 RMS(Cart)=  0.00010084 RMS(Int)=  0.01626073
 Iteration  5 RMS(Cart)=  0.00000590 RMS(Int)=  0.01626073
 Iteration  6 RMS(Cart)=  0.00000036 RMS(Int)=  0.01626073
 Variable       Old X    -DE/DX   Delta X   Delta X   Delta X     New X
                                 (Linear)    (Quad)   (Total)
    R1        2.40026   0.00309  -0.01111   0.00712  -0.00399   2.39627
    R2        1.93208  -0.00047   0.00066  -0.00190  -0.00123   1.93085
    R3        2.74951   0.00030   0.01159  -0.00036   0.01123   2.76074
    R4        2.06934   0.00205  -0.00175   0.00449   0.00273   2.07208
    R5        2.48409  -0.01117   0.02381  -0.01925   0.04587   2.52997
    R6        2.78969  -0.02807   0.04079  -0.05375   0.02766   2.81735
    R7        2.77776  -0.00591  -0.00876  -0.00731  -0.01938   2.75838
    R8        3.76289   0.01455   0.15948   0.06943   0.16199   3.92488
    R9        2.82768  -0.00575   0.01918  -0.01295   0.01421   2.84189
   R10        2.07563   0.00061  -0.00150   0.00481   0.00331   2.07894
   R11        2.07768  -0.00126   0.00178  -0.00196  -0.00017   2.07751
   R12        2.80919  -0.01244   0.01089  -0.03252  -0.01121   2.79798
   R13        1.90673   0.00074  -0.00422   0.00129  -0.00292   1.90381
   R14        2.87613  -0.00008   0.02184  -0.00258   0.01960   2.89574
   R15        2.07637  -0.00106   0.00078  -0.00135  -0.00057   2.07580
   R16        2.07488   0.00043  -0.00240   0.00564   0.00324   2.07812
   R17        2.15327  -0.01542   0.01572  -0.04810  -0.03238   2.12089
    A1        1.92188   0.00055   0.00030   0.00060   0.00090   1.92277
    A2        2.12921  -0.00197   0.01468  -0.01794  -0.00330   2.12591
    A3        2.18527  -0.00006   0.01051  -0.00229   0.00816   2.19343
    A4        1.96843   0.00204  -0.02534   0.02053  -0.00486   1.96357
    A5        2.40231  -0.01430   0.00268  -0.05582  -0.05606   2.34625
    A6        2.28760  -0.01023  -0.05770  -0.01735  -0.06452   2.22308
    A7        2.56141  -0.02319  -0.06722  -0.09132  -0.19695   2.36446
    A8        1.78874  -0.00353  -0.00330  -0.01606  -0.00748   1.78126
    A9        1.96189   0.00291   0.01109  -0.00237  -0.01697   1.94492
   A10        1.84539  -0.00045  -0.02629   0.00216  -0.01493   1.83047
   A11        1.95215  -0.00147   0.01830  -0.00415   0.02000   1.97215
   A12        1.93837  -0.00140   0.00693  -0.01384  -0.00614   1.93223
   A13        1.91239  -0.00029  -0.00620   0.01685   0.02333   1.93573
   A14        1.84974   0.00053  -0.00487   0.00040  -0.00692   1.84282
   A15        1.90601   0.00089  -0.00893   0.01385   0.00514   1.91114
   A16        1.97684   0.00084   0.02649  -0.01193   0.00680   1.98364
   A17        1.98116   0.00005   0.03500  -0.00745   0.02480   2.00597
   A18        2.00524   0.00406   0.03078  -0.00295   0.00868   2.01392
   A19        1.95091  -0.00274   0.00844  -0.01844  -0.01089   1.94002
   A20        1.83633   0.00094  -0.01913   0.02476   0.01643   1.85275
   A21        1.90357  -0.00020   0.01643   0.00528   0.03193   1.93550
   A22        1.89389  -0.00218  -0.04020   0.00573  -0.03539   1.85850
   A23        1.86713  -0.00012   0.00063  -0.01411  -0.01518   1.85195
   A24        2.35473  -0.01512  -0.04844  -0.04570  -0.16052   2.19421
   A25        1.88827   0.00734   0.09597   0.02365   0.15023   2.03851
   A26        1.63833  -0.00602  -0.04073  -0.01003  -0.03669   1.60164
   A27        2.13403  -0.00187  -0.06239   0.02559  -0.03623   2.09780
   A28        1.75150   0.01052   0.01346   0.11874   0.14045   1.89195
    D1       -3.14132   0.00002   0.01220  -0.01269  -0.00034   3.14153
    D2       -0.02695   0.00031  -0.00202   0.00220   0.00003  -0.02691
    D3       -2.86632  -0.00693  -0.15265  -0.06649  -0.22378  -3.09010
    D4        0.44841   0.00363   0.09070   0.00124   0.09674   0.54515
    D5        0.29940  -0.00716  -0.14005  -0.07945  -0.22430   0.07510
    D6       -2.66905   0.00340   0.10330  -0.01172   0.09622  -2.57283
    D7        2.71580  -0.00300  -0.08850  -0.06905  -0.14442   2.57137
    D8       -3.11873   0.01296   0.15004   0.12744   0.27798  -2.84075
    D9        0.95667   0.00027   0.03525  -0.07123  -0.01030   0.94637
   D10        0.34780   0.00102   0.09800   0.01471   0.08950   0.43729
   D11       -1.76984   0.00135   0.09999   0.03167   0.11577  -1.65407
   D12        2.50784   0.00172   0.11118   0.03201   0.12282   2.63066
   D13       -0.06456  -0.00092  -0.09286  -0.05259  -0.13983  -0.20439
   D14       -2.18219  -0.00059  -0.09086  -0.03564  -0.11356  -2.29575
   D15        2.09548  -0.00022  -0.07967  -0.03529  -0.10651   1.98898
   D16       -0.20223   0.00012   0.06082   0.02857   0.08738  -0.11485
   D17       -2.03165  -0.00809   0.09584  -0.11399  -0.04741  -2.07906
   D18        0.33159   0.00298   0.09708   0.06674   0.15936   0.49095
   D19       -1.89479   0.00154   0.03965   0.07463   0.11607  -1.77872
   D20        2.39516   0.00337   0.07585   0.05858   0.12587   2.52104
   D21        0.16879   0.00193   0.01842   0.06647   0.08259   0.25137
   D22       -1.85041   0.00301   0.07026   0.06116   0.12796  -1.72245
   D23        2.20640   0.00157   0.01284   0.06906   0.08467   2.29107
   D24       -0.52682  -0.00491  -0.06444  -0.04721  -0.09829  -0.62511
   D25       -2.70803  -0.00561  -0.11492  -0.03645  -0.14016  -2.84819
   D26        1.55483  -0.00465  -0.10897  -0.02484  -0.12610   1.42873
   D27        1.69711  -0.00302  -0.01201  -0.05762  -0.06470   1.63241
   D28       -0.48409  -0.00372  -0.06248  -0.04686  -0.10657  -0.59066
   D29       -2.50442  -0.00276  -0.05653  -0.03524  -0.09251  -2.59694
   D30        0.32616  -0.01091  -0.21809  -0.10973  -0.30851   0.01765
   D31        0.41809   0.00265  -0.00209   0.00612  -0.00233   0.41576
   D32        2.57888   0.00126  -0.07615   0.05418  -0.02122   2.55766
   D33        2.53192  -0.01163  -0.17398  -0.13242  -0.28893   2.24299
   D34        2.62385   0.00193   0.04202  -0.01657   0.01725   2.64110
   D35       -1.49854   0.00053  -0.03205   0.03149  -0.00165  -1.50019
   D36       -1.72314  -0.01309  -0.18603  -0.14318  -0.30984  -2.03298
   D37       -1.63120   0.00047   0.02997  -0.02734  -0.00366  -1.63486
   D38        0.52959  -0.00092  -0.04410   0.02072  -0.02255   0.50704
         Item               Value     Threshold  Converged?
 Maximum Force            0.028073     0.000450     NO 
 RMS     Force            0.006860     0.000300     NO 
 Maximum Displacement     0.487039     0.001800     NO 
 RMS     Displacement     0.153344     0.001200     NO 
 Predicted change in Energy=-2.563393D-02
 GradGradGradGradGradGradGradGradGradGradGradGradGradGradGradGradGradGrad

                          Input orientation:                          
 ---------------------------------------------------------------------
 Center     Atomic      Atomic             Coordinates (Angstroms)
 Number     Number       Type             X           Y           Z
 ---------------------------------------------------------------------
      1          7           0        0.891553    0.069195    0.067602
      2          6           0        2.142627    0.273810    0.037535
      3          6           0        2.970796    0.157840    1.235437
      4          6           0        4.267306    0.359349    1.501597
      5          6           0        5.033384    0.820280    2.655422
      6          7           0        4.294705    0.569817    3.941201
      7          6           0        3.404503   -0.602217    3.779556
      8          6           0        2.758153   -0.750782    2.398150
      9          1           0        0.491073    0.197986   -0.863540
     10          1           0        2.728049    0.526128   -0.854609
     11          1           0        5.171659    1.899072    2.490004
     12          1           0        6.046528    0.395395    2.695813
     13          1           0        3.850708    1.391483    4.318946
     14          1           0        2.645514   -0.635963    4.572922
     15          1           0        4.037529   -1.489613    3.924939
     16          1           0        2.652163   -1.845058    2.172433
 ---------------------------------------------------------------------
                    Distance matrix (angstroms):
                    1          2          3          4          5
     1  N    0.000000
     2  C    1.268052   0.000000
     3  C    2.386409   1.460918   0.000000
     4  C    3.679163   2.581677   1.338800   0.000000
     5  C    4.941225   3.938075   2.590261   1.459673   0.000000
     6  N    5.180428   4.467400   3.040332   2.448819   1.503863
     7  C    4.532583   4.045055   2.690414   2.618805   2.437300
     8  C    3.096451   2.645971   1.490876   2.076956   2.776887
     9  H    1.021762   1.882901   3.249053   4.458682   5.779527
    10  H    2.105226   1.096497   2.136084   2.819367   4.209681
    11  H    5.247455   4.222690   3.074024   2.040967   1.100126
    12  H    5.795486   4.724581   3.413100   2.143147   1.099372
    13  H    5.345930   4.743122   3.435716   3.029243   2.119506
    14  H    4.885850   4.652990   3.445974   3.613018   3.391072
[...]
     6          3.71109345          0.55670004         -1.89760979
     6          6.26844292          0.24162092         -0.82735487
     6          8.42987435          1.14985957         -2.07975197
     6         10.78424443          1.38706724         -0.55938763
     7         10.66862273          0.74645675          2.15592372
     6          9.24372444         -1.59489641          2.40416194
     6          6.81175602         -1.57723708          0.96296060
     1          0.16854780          0.06454774         -1.78954696
     1          3.67448321          1.59720777         -3.69094492
     1         11.48856102          3.32605898         -0.79077504
     1         12.24182052          0.20923897         -1.47062056
     1          9.66933590          2.13083871          3.03946827
     1          8.82650606         -1.94564233          4.40715578
     1         10.43439036         -3.19878520          1.80515553
     1          5.50030499         -3.14040760          1.24061394

 Electric dipole moment (dipole orientation):
 (Debye = 10**-18 statcoulomb cm , SI units = C m)
                  (au)            (Debye)         (10**-30 SI)
   Tot        0.285285D+00      0.725123D+00      0.241875D+01
   x          0.000000D+00      0.000000D+00      0.000000D+00
   y          0.000000D+00      0.000000D+00      0.000000D+00
   z          0.285285D+00      0.725123D+00      0.241875D+01

 Dipole polarizability, Alpha (dipole orientation).
 (esu units = cm**3 , SI units = C**2 m**2 J**-1)
 Alpha(0;0):
               (au)            (10**-24 esu)      (10**-40 SI)
   iso        0.799474D+02      0.118470D+02      0.131815D+02
   aniso      0.473775D+02      0.702062D+01      0.781150D+01
   xx         0.100706D+03      0.149231D+02      0.166042D+02
   yx         0.772541D+01      0.114479D+01      0.127375D+01
   yy         0.667885D+02      0.989704D+01      0.110119D+02
   zx         0.385431D+01      0.571149D+00      0.635489D+00
   zy        -0.185137D+02     -0.274345D+01     -0.305250D+01
   zz         0.723477D+02      0.107208D+02      0.119285D+02

 ----------------------------------------------------------------------
 1\1\GINC-LEWIS4-Z10PH-HPC3-NODE405\Freq\RB3LYP\6-31G(2df,p)\C6H8N2\YXI
 E\04-Aug-2022\0\\#N Geom=AllCheck Guess=TCheck SCRF=Check GenChk RB3LY
 P/6-31G(2df,p) Freq\\Title Card Required\\0,1\N,1.0086942876,-0.178655
 3836,0.1527508018\C,2.2051868578,0.2575014503,0.1503427366\C,3.0587828
 673,0.1675602414,1.3516912933\C,4.3908578741,0.6192429196,1.3483266157
 \C,5.0350651462,0.8372307296,2.6722364917\N,4.2242901231,0.6134288618,
 3.887080272\C,3.4848798691,-0.6278076214,3.7040222537\C,2.786844732,-0
 .7089640014,2.3833766865\H,0.5716990289,-0.0399929388,-0.7599130998\H,
 2.6971322774,0.7295366665,-0.7094877174\H,5.4399985739,1.8583487188,2.
 6806829385\H,5.9302884639,0.1949091935,2.7161103294\H,3.5458943675,1.3
 690016525,3.9487337857\H,2.7385620885,-0.7326518456,4.5031982378\H,4.1
 682600573,-1.4847410456,3.8324261779\H,2.0998133853,-1.5372275975,2.21
 18321964\\Version=ES64L-G16RevA.03\State=1-A\HF=-342.8177873\RMSD=2.12
 9e-09\RMSF=1.389e-05\ZeroPoint=0.1304616\Thermal=0.1378249\Dipole=-0.1
 49094,0.0229123,0.2421441\DipoleDeriv=-0.835333,-0.0323707,-0.2835297,
 -0.1550545,-0.4182373,-0.134089,0.0139527,-0.0162773,-0.3512913,0.6431
 972,0.081351,0.2794351,0.1747815,0.2067548,-0.1776831,0.303653,-0.0966
 608,0.6577329,-0.2361378,-0.2009684,0.0530997,-0.047807,-0.083974,0.02
 14982,-0.1444539,-0.0426328,-0.1182521,-0.028749,0.0729281,0.0736049,0
 .0136282,-0.4816538,0.2798113,0.4221352,0.3221058,-0.3685362,0.3269329
 ,0.0366545,-0.1891486,0.0362307,0.276977,-0.176962,-0.2452321,-0.02375
 57,0.3434014,-0.3776885,-0.1829535,-0.1453017,-0.0978492,-0.2801086,-0
 .0534116,-0.1658102,-0.2152366,-0.7760147,0.2246438,0.0273422,0.112854
 1,-0.0374997,0.2532012,0.1151031,-0.013829,0.0212801,0.137835,-0.11685
 49,0.0918071,-0.0415195,0.0770808,0.1377239,-0.0345774,-0.0177129,-0.1
 491182,0.2625189,0.233703,0.016154,-0.0274557,0.046422,0.2068979,0.076
 2012,-0.1478005,0.0110582,0.009001,-0.0104439,-0.0789757,0.0883992,-0.
 0545358,0.0441078,0.1086084,0.0109652,0.0671005,-0.082448,0.1085625,-0
 .0055203,0.0296767,-0.0715997,-0.0210951,0.0001408,-0.0154469,-0.01014
 53,0.0259913,-0.0233695,0.0411986,0.0626199,0.1248117,0.039472,0.02410
 66,-0.0591285,-0.0219709,0.0065681,0.0365229,0.0853023,0.0848797,0.036
 9384,0.0592603,0.0442305,0.0046627,0.1356362,0.2405597,-0.0061955,-0.0
 308156,0.0451213,-0.0098108,0.0869841,-0.047377,0.070378,0.0343376,-0.
 0418744,-0.0014193,0.1453005,-0.1098839,0.0555025,-0.0622355,-0.023727
 4,0.0004257,0.0298814,-0.0017315,0.0626291,-0.0664341,-0.0328514,-0.09
 12392,0.0359253,-0.0218725,-0.0167582,-0.0456021,0.0565399\Polar=90.24
 7922,16.814168,64.2420564,12.8055492,-10.5131553,85.3521693\Quadrupole
 =-3.1863161,2.3317287,0.8545875,-1.0778986,1.0080747,-1.0412808\PG=C01
  [X(C6H8N2)]\NImag=0\\0.70388493,0.18270043,0.15033776,0.16273379,-0.0
 6963061,0.44204075,-0.54660067,-0.17092864,-0.03653650,0.80650877,-0.1
 8897109,-0.12430272,0.00701935,0.23044919,0.29549516,0.02850969,0.0293
 3694,-0.11133138,0.01436007,-0.13220141,0.55324634,-0.04508416,-0.0024
 9068,-0.03546004,-0.10432069,-0.00515844,-0.05736906,0.51071629,-0.005
 84322,-0.00268410,-0.01517206,0.00438812,-0.08161272,0.02287247,0.1391
 1198,0.31942076,-0.02543838,-0.01086948,0.00366493,-0.04371861,0.02831
 418,-0.18921479,0.11147107,-0.16315748,0.53684727,0.00487249,-0.000807
 02,-0.00177689,-0.03803926,0.00372485,-0.00464373,-0.26765094,-0.04509
 315,-0.03142157,0.39609101,0.00372967,0.00201781,0.00152525,-0.0041658
 7,0.00057435,-0.00583737,-0.06509975,-0.04764438,-0.02075016,0.0824337
 0,0.10872713,-0.00447460,0.00084451,-0.00406633,-0.02638263,-0.0136664
 0,0.00380706,-0.02725931,-0.01469485,-0.07046765,0.08733272,0.02580992
 ,0.28274371,-0.00111947,0.00151929,-0.00077152,-0.00060912,-0.00815247
 ,0.00068363,-0.03388448,-0.02940498,-0.01745122,-0.06656713,0.01001158
 ,-0.03017033,0.51320985,-0.00162381,-0.00045002,-0.00115893,-0.0030746
 8,0.00611895,0.00586364,-0.02006550,0.00817826,-0.00610565,0.00231566,
 -0.06146507,-0.00814258,0.00668281,0.54379622,0.00020906,0.00008746,0.
 00010348,0.00194153,-0.00142322,0.00003503,0.00031306,-0.00189039,-0.0
 0686123,-0.07223926,-0.02024198,-0.15366169,0.00416014,-0.00108227,0.3
 7924598,-0.00073614,-0.00013322,-0.00068973,0.00111594,0.00049184,0.00
 163220,0.00270987,0.00259007,-0.00371786,0.00555426,-0.00351776,0.0026
 4081,-0.10354025,-0.00568319,0.07550853,0.46173245,0.00012641,0.000208
 11,-0.00009978,-0.00053820,0.00030887,-0.00067483,-0.00026893,-0.00145
 376,0.00547775,0.00178600,0.01160912,0.00208043,0.00619798,-0.09939166
 ,0.00336938,-0.09406359,0.57331381,-0.00116776,-0.00069016,-0.00069598
 ,-0.00088782,0.00230521,0.00197716,0.01120624,0.00356514,0.00216718,0.
 00601471,-0.00692892,-0.05658334,0.02927598,0.01187978,-0.11666273,-0.
 10269453,0.03112532,0.27796942,-0.00011468,-0.00057435,0.00063672,0.00
 463268,-0.00578751,-0.00141244,0.00495087,-0.00537985,-0.00330311,-0.0
 0074452,0.00101674,0.00244141,-0.02195058,-0.02671431,0.00685720,-0.11
 299960,-0.06191907,0.01478370,0.52696002,0.00094696,0.00078621,-0.0012
 3194,-0.00696601,0.00085267,0.00431144,0.01589447,0.00577629,0.0197572
 5,0.00151819,-0.00840114,-0.00778349,-0.02195401,-0.00479439,0.0189453
 6,-0.02502141,-0.18011387,-0.00939371,-0.02034787,0.51239333,0.0000224
 9,-0.00065281,0.00052850,0.00218905,0.00161414,0.00211774,0.00090455,0
 .01388736,-0.02850867,-0.00474325,0.00107062,-0.00333090,0.01818919,0.
 03229064,-0.00545338,-0.00561734,-0.04264858,-0.07299591,-0.06167910,-
 0.03284598,0.49968052,-0.00285587,0.00216700,-0.00128255,0.00858062,0.
 01246701,-0.01370320,-0.07025253,-0.04765848,0.02255144,-0.02094762,-0
 .01738244,0.02175377,-0.00461408,0.00323737,-0.00510129,-0.01381547,-0
 .01497280,-0.02067900,-0.10395055,-0.01634069,-0.05532206,0.36311508,-
 0.00463455,-0.00187471,0.00088200,0.00723239,0.00385058,0.00738954,-0.
 04336842,-0.21452680,0.15724065,-0.02546362,-0.00226677,0.01347910,0.0
 0847291,-0.00194225,-0.00561344,-0.02864039,-0.01911335,-0.02997680,-0
 .00052313,-0.08021971,0.00253519,0.21014345,0.52151428,0.00705063,0.00
 375525,0.00226283,-0.00384301,0.01953919,-0.03639196,-0.01288371,0.119
 07398,-0.22824837,0.04731237,0.02967692,0.00201873,-0.00952401,-0.0082
 0916,0.00130614,-0.00893845,-0.01172724,-0.00553327,-0.05541443,-0.002
 23974,-0.16223886,0.08616122,-0.13694892,0.52979510,-0.09334121,0.0139
 3164,-0.10981738,-0.03109779,0.00331287,-0.04626726,-0.00240855,-0.007
 51428,0.00187118,-0.00043041,-0.00018557,-0.00136991,-0.00054658,0.000
 13368,-0.00002122,0.00007846,0.00005399,0.00027481,-0.00021896,0.00018
 376,-0.00014106,0.00082229,0.00014065,0.00077159,0.12600703,0.03156419
 ,-0.04335471,0.06110558,-0.01512476,0.00063889,-0.01319204,-0.00414646
 ,0.01373007,0.00431459,-0.00129743,0.00062954,-0.00027797,0.00025926,-
 0.00128166,0.00029441,0.00020254,0.00014779,0.00002506,0.00056171,-0.0
 0006958,-0.00029503,-0.00127215,-0.00079917,-0.00062028,-0.01448887,0.
 03887563,-0.16584338,0.04043962,-0.34117373,0.01370367,0.00769855,-0.0
 0688315,-0.00339406,0.00317050,0.00371748,-0.00031920,0.00035706,-0.00
 049335,-0.00012040,-0.00055123,0.00025682,0.00000384,-0.00000790,-0.00
 017348,0.00015108,-0.00019820,0.00021331,0.00007899,-0.00023927,0.0001
 0288,0.15353923,-0.04635332,0.34131841,-0.01959375,-0.02628283,0.02449
 011,-0.09622007,-0.04329244,0.07863529,0.00714020,0.00606084,-0.015593
 79,0.00175697,-0.00014865,0.00070375,-0.00020851,0.00042938,0.00023644
 ,0.00007758,0.00025246,0.00031155,-0.00002098,0.00060200,-0.00067046,-
 0.00221370,-0.00157236,-0.00259218,0.00123468,0.00387121,0.00201379,0.
 10802038,-0.01762864,0.01921496,0.01670208,-0.04244918,-0.09968480,0.0
 8353516,-0.00388298,0.00690389,0.00274044,-0.00010004,-0.00144299,-0.0
 0009553,0.00016122,0.00011984,0.00014092,-0.00001842,-0.00001911,-0.00
 014624,0.00107428,-0.00083237,-0.00027601,-0.00113566,0.00181612,0.000
 73448,0.00427993,-0.00894870,-0.00409999,0.05989587,0.08254658,-0.0002
 4653,0.00753590,0.00938263,0.07594929,0.08258005,-0.21863450,0.0117242
 5,0.01394769,-0.01866022,0.00175729,-0.00129012,0.00237702,-0.00016741
 ,0.00025931,0.00003177,-0.00025926,-0.00016243,0.00031240,0.00035800,0
 .00142754,0.00032325,-0.00330684,-0.00053162,-0.00436110,0.00140325,-0
 .00453611,0.00291745,-0.08721138,-0.09935720,0.22678888,-0.00007745,0.
 00002727,-0.00018842,-0.00065635,0.00027471,0.00042027,-0.00043871,0.0
 0220954,-0.00241715,-0.01031764,-0.01390189,-0.00643461,-0.06585159,-0
 .08848701,0.00197748,-0.01014561,-0.01956148,0.00350576,-0.00147007,0.
 00089118,0.00361404,0.00174566,-0.00058130,0.00073122,-0.00003750,-0.0
 0009818,-0.00005567,0.00002035,0.00001125,-0.00000825,0.08066531,-0.00
 010194,0.00003467,-0.00004486,-0.00016414,0.00004798,0.00013819,0.0017
 1166,-0.00042143,-0.00081186,-0.00298283,-0.00538091,-0.00253802,-0.08
 947478,-0.26378157,-0.00302980,-0.00059184,-0.00351409,0.00009241,-0.0
 0036283,0.00210377,0.00090559,0.00060667,-0.00000971,0.00069534,0.0000
 1010,-0.00004122,-0.00000546,0.00002225,0.00000461,0.00000837,0.097767
 43,0.28947298,-0.00065790,0.00006363,-0.00048229,-0.00058423,0.0005846
 8,0.00159676,-0.00685667,-0.00003738,-0.00055281,-0.00312520,-0.023089
 79,-0.00046274,-0.00399663,-0.01858350,-0.04271278,0.01244315,0.028330
 50,-0.00272413,0.00282168,-0.00085622,-0.00427874,0.00058924,0.0012026
 4,-0.00391024,0.00003950,-0.00026503,-0.00017941,0.00005401,0.00003959
 ,-0.00006837,-0.00275736,0.00677561,0.05156079,0.00012126,0.00010599,-
 0.00013447,-0.00033771,-0.00124055,-0.00037992,0.00051556,0.00151903,-
 0.00327688,-0.01724397,0.00434931,-0.00752345,-0.19658782,0.12058417,-
 0.00703235,-0.01584461,0.01132029,0.00718711,0.00031515,0.00100798,0.0
 0005735,-0.00014299,0.00071289,0.00052644,-0.00010208,0.00014081,0.000
 03157,-0.00007214,0.00000912,-0.00008177,0.00759387,-0.00575841,0.0013
 4836,0.22426117,0.00008601,0.00004525,0.00006189,0.00008757,-0.0002489
 8,-0.00023101,-0.00047588,-0.00194503,-0.00031530,-0.00493992,0.001544
 49,-0.00284207,0.11821533,-0.12276355,0.01127765,-0.00445674,0.0033842
 6,-0.00221661,-0.00132415,0.00177390,-0.00067512,-0.00040808,0.0001952
 1,0.00044919,-0.00003170,0.00005011,0.00002487,-0.00000362,-0.00001594
 ,-0.00000517,0.02339744,-0.01914865,0.00439085,-0.13018097,0.13560145,
 -0.00033952,0.00013405,-0.00022401,0.00042031,-0.00168441,0.00003545,-
 0.00149456,-0.00566915,-0.00115393,-0.01985044,0.01772665,-0.00325381,
 -0.01699828,0.01889438,-0.04210031,0.02567750,-0.01755758,-0.00643640,
 -0.00037641,-0.00286411,-0.00046407,-0.00100033,0.00065718,-0.00126265
 ,-0.00010295,0.00020147,0.00003323,-0.00006761,0.00002077,-0.00013919,
 0.00237930,-0.00214594,0.00052134,0.00760478,-0.01083795,0.05620564,0.
 00010015,0.00002158,0.00002961,-0.00016570,0.00030640,-0.00006229,0.00
 042497,0.00095034,-0.00001896,0.00146539,-0.00149907,-0.00094058,-0.01
 852370,0.01628030,-0.00263998,-0.21194255,0.19368686,0.04024634,0.0103
 1406,-0.02186031,-0.00552171,0.00029878,-0.00142750,0.00094738,0.00001
 350,-0.00002974,0.00000164,0.00000497,-0.00003233,0.00002462,0.0000205
 7,-0.00026874,-0.00025870,-0.00265622,-0.00132231,0.00513300,0.2201826
 5,0.00014920,0.00004228,0.00008343,-0.00007045,-0.00007424,-0.00032506
 ,-0.00051205,0.00025874,-0.00082192,-0.00050197,-0.00015899,0.00091012
 ,-0.00399089,0.00550985,0.00244050,0.16947854,-0.24898868,-0.02048845,
 0.02316473,-0.03149324,-0.00000680,0.00111482,0.00136114,0.00063871,-0
 .00001815,-0.00000355,0.00002848,-0.00002993,-0.00000258,0.00001491,-0
 .00037814,0.00078427,-0.00005269,-0.00161417,0.00169427,0.00164719,-0.
 18226005,0.27460492,0.00037334,-0.00000071,0.00008651,-0.00058669,0.00
 030727,-0.00027447,-0.00066990,0.00098630,-0.00051724,0.00041958,0.000
 27996,0.00074346,0.02626510,-0.02397800,-0.00991729,0.00943881,0.01048
 584,-0.02359562,-0.00123956,-0.00576651,-0.00421811,0.00072169,-0.0028
 8303,0.00137075,-0.00002594,-0.00003916,0.00003293,0.00001350,-0.00004
 915,0.00009355,-0.00065373,0.00022635,0.00132943,0.00185814,0.00112298
 ,-0.00308556,-0.03603076,0.01579379,0.03689952,-0.00015872,0.00004516,
 -0.00001145,-0.00008655,0.00056845,0.00037190,0.00048888,0.00227987,-0
 .00192259,-0.00114472,0.00012270,-0.00191248,0.00063631,-0.00362059,-0
 .00227273,-0.01451915,-0.00320882,0.01259559,-0.15749928,-0.01673801,0
 .12336179,0.00952951,0.00084607,-0.01022033,0.00001744,-0.00008350,0.0
 0001052,-0.00001685,-0.00015583,-0.00003881,-0.00067025,-0.00041807,0.
 00109145,0.00016673,0.00019576,-0.00004711,0.00101279,0.00013259,-0.00
 022569,0.17628049,-0.00023403,-0.00005168,-0.00003614,0.00034087,-0.00
 019327,0.00033509,0.00141526,0.00063748,-0.00069915,-0.00130728,0.0011
 3015,-0.00258884,-0.00233947,-0.00494737,-0.00047973,-0.02327346,-0.00
 641261,0.02297845,-0.01209553,-0.04458066,0.00741445,0.00209554,-0.000
 82264,0.00379291,0.00001422,-0.00003153,0.00000733,0.00003642,0.000028
 98,0.00007203,-0.00109795,-0.00048878,0.00118285,-0.00051556,-0.000275
 19,0.00036723,0.00027917,0.00118835,0.00080472,0.02011546,0.05355719,-
 0.00018961,0.00019851,-0.00007850,-0.00050916,0.00093352,0.00010603,-0
 .00097797,-0.00101386,-0.00081156,0.00030882,0.00064920,-0.00068969,-0
 .00095464,-0.00089275,-0.00059055,-0.00505201,-0.00095809,0.00488595,0
 .13028794,0.01384259,-0.17889521,0.01728134,0.00287514,-0.02550303,0.0
 0006504,-0.00015540,-0.00003410,-0.00010444,-0.00015742,-0.00010708,-0
 .00003515,-0.00017712,0.00016663,-0.00011341,-0.00001912,0.00007099,0.
 00011958,0.00076134,0.00014202,-0.13746462,-0.01575529,0.19785262,-0.0
 0034653,-0.00018971,-0.00004840,0.00107898,-0.00070207,-0.00030165,-0.
 00269002,-0.00135492,-0.00020512,0.00089728,0.00140962,0.00029352,0.00
 262425,-0.00206674,-0.00209831,0.01228015,-0.01661219,0.00283214,-0.14
 568552,0.11966834,-0.01690173,-0.00779595,0.01137478,-0.00421130,-0.00
 003814,0.00011800,0.00002903,-0.00001624,0.00014045,-0.00016801,-0.000
 40614,0.00022855,0.00001660,0.00008120,0.00134758,-0.00025222,-0.00034
 738,-0.00470904,0.00015276,-0.01457228,0.01652284,-0.00148532,0.154667
 84,-0.00021989,-0.00009021,-0.00000160,0.00049473,-0.00045438,0.000098
 73,0.00140003,0.00014782,-0.00094823,0.00016822,0.00180009,0.00035646,
 0.00135531,-0.00084945,-0.00271991,0.01322415,-0.03185131,-0.00294178,
 0.10918209,-0.17692135,0.01687078,0.00222946,0.00294220,0.00588243,-0.
 00003187,0.00002797,0.00004050,0.00003735,0.00011103,0.00003446,-0.000
 34398,0.00030028,0.00016620,-0.00068422,-0.00001835,0.00062653,-0.0031
 0647,-0.00493836,0.00263699,0.00003824,0.00110052,-0.00033681,-0.12438
 448,0.20916678,-0.00023970,-0.00015048,0.00013195,0.00174224,-0.001008
 26,-0.00128990,-0.00403714,-0.00305180,-0.00116052,0.00034837,0.002255
 45,-0.00001736,-0.00093247,-0.00052197,-0.00092417,0.00441154,-0.00637
 604,0.00187925,-0.02023162,0.02373029,-0.04433148,-0.01938302,0.025256
 34,-0.01076158,-0.00004711,0.00014412,0.00003624,-0.00010743,0.0003140
 8,-0.00036953,0.00007806,-0.00016128,-0.00007319,0.00019856,-0.0002784
 3,0.00056477,-0.00104789,-0.00089593,0.00079627,0.01568912,-0.01734917
 ,0.00235545,0.02295236,-0.02071957,0.05323512,0.00104982,0.00088809,-0
 .00117290,-0.00378307,0.00170925,-0.00047350,-0.00021656,-0.01686091,0
 .01259153,0.01244882,0.00282767,-0.00869808,-0.00246712,0.00167245,0.0
 0020171,-0.00000533,-0.00227889,-0.00280482,-0.00251805,-0.01148456,0.
 00225825,-0.15750317,-0.13271187,-0.03587343,0.00004781,-0.00017663,0.
 00016936,0.00010711,-0.00016905,0.00027155,0.00002557,-0.00022308,-0.0
 0016731,-0.00006742,-0.00018630,-0.00068545,-0.00020227,0.00004496,0.0
 0018935,0.00053565,0.00004351,-0.00117640,0.00026850,0.00064135,0.0006
 0611,0.15227971,-0.00004568,0.00012110,-0.00000366,0.00048906,-0.00131
 634,-0.00141949,-0.01406431,-0.00476510,-0.01336561,-0.00945337,-0.001
 27245,0.00914922,0.00244092,-0.00205612,-0.00007495,-0.00058714,0.0018
 8648,0.00081130,0.00002906,0.00374015,0.00081157,-0.13489103,-0.210104
 45,-0.02449307,0.00020960,0.00043010,-0.00031156,0.00012206,0.00020047
 ,0.00000238,-0.00012887,0.00003780,0.00014806,0.00024431,0.00012674,0.
 00048371,0.00028185,0.00021582,0.00007236,-0.00011947,0.00016106,0.000
 20556,-0.00079103,-0.00047326,-0.00118735,0.15626403,0.21306800,-0.000
 30163,-0.00040162,-0.00014936,0.00274249,-0.00091245,0.00109860,0.0147
 8324,0.02718352,-0.00023987,-0.00537433,-0.00121270,0.00133690,0.00251
 287,0.00003830,-0.00209511,-0.00478721,-0.00065675,-0.00379050,-0.0146
 8108,-0.01883456,0.00185202,-0.02935940,-0.03532469,-0.05864537,-0.000
 17177,-0.00035088,0.00030846,-0.00011116,-0.00004600,0.00011304,-0.000
 15578,0.00007248,0.00026974,-0.00027006,0.00009336,0.00068851,0.000018
 69,0.00027238,0.00011386,0.00099543,-0.00004674,0.00113005,-0.00060434
 ,0.00095480,-0.00007134,0.03476404,0.02917153,0.05808037\\0.00000651,-
 0.00000123,-0.00000462,-0.00002169,-0.00000523,-0.00001496,0.00002711,
 -0.00000353,0.00003958,-0.00000590,-0.00000564,-0.00001258,-0.00001525
 ,-0.00001522,0.00001330,0.00001974,0.00002171,-0.00001407,-0.00001287,
 -0.00004691,0.00001403,-0.00001229,0.00001926,-0.00001261,-0.00000102,
 -0.00000019,0.00000121,0.00000234,0.00000758,0.00000178,0.00000196,0.0
 0000331,0.00000146,-0.00000001,0.00000243,-0.00000370,-0.00000401,-0.0
 0000864,0.00000280,-0.00000279,0.00001476,-0.00000655,0.00000175,0.000
 01323,-0.00000727,0.00001643,0.00000431,0.00000220\\\@


 MAN IS A SINGULAR CREATURE.  HE HAS A SET OF GIFTS
 WHICH MAKE HIM UNIQUE AMONG THE ANIMALS: SO THAT, 
 UNLIKE THEM, HE IS NOT A FIGURE IN THE LANDSCAPE --
 HE IS A SHAPER OF THE LANDSCAPE.

                       -- JACOB BRONOWSKI
 Job cpu time:       0 days  1 hours 18 minutes 12.0 seconds.
 Elapsed time:       0 days  0 hours 19 minutes 33.7 seconds.
 File lengths (MBytes):  RWF=     91 Int=      0 D2E=      0 Chk=      7 Scr=      1
 Normal termination of Gaussian 16 at Thu Aug  4 04:38:37 2022.
### All Done ###
