### Starting Gaussian ###
 Entering Gaussian System, Link 0=g16
 Initial command:
 /cluster/software/gaussian/gaussian-16-A.03/avx2/g16/l1.exe "/local/scratch/ks29c/Gau-14186.inp" -scrdir="/local/scratch/ks29c/"
 Entering Link 1 = /cluster/software/gaussian/gaussian-16-A.03/avx2/g16/l1.exe PID=     14187.
  
 Copyright (c) 1988,1990,1992,1993,1995,1998,2003,2009,2016,
            Gaussian, Inc.  All Rights Reserved.
  
 This is part of the Gaussian(R) 16 program.  It is based on
 the Gaussian(R) 09 system (copyright 2009, Gaussian, Inc.),
 the Gaussian(R) 03 system (copyright 2003, Gaussian, Inc.),
 the Gaussian(R) 98 system (copyright 1998, Gaussian, Inc.),
 the Gaussian(R) 94 system (copyright 1995, Gaussian, Inc.),
 the Gaussian 92(TM) system (copyright 1992, Gaussian, Inc.),
 the Gaussian 90(TM) system (copyright 1990, Gaussian, Inc.),
 the Gaussian 88(TM) system (copyright 1988, Gaussian, Inc.),
 the Gaussian 86(TM) system (copyright 1986, Carnegie Mellon
 University), and the Gaussian 82(TM) system (copyright 1983,
 Carnegie Mellon University). Gaussian is a federally registered
 trademark of Gaussian, Inc.
  
 This software contains proprietary and confidential information,
 including trade secrets, belonging to Gaussian, Inc.
  
 This software is provided under written license and may be
 used, copied, transmitted, or stored only in accord with that
 written license.
  
 The following legend is applicable only to US Government
 contracts under FAR:
  
                    RESTRICTED RIGHTS LEGEND
  
 Use, reproduction and disclosure by the US Government is
 subject to restrictions as set forth in subparagraphs (a)
 and (c) of the Commercial Computer Software - Restricted
 Rights clause in FAR 52.227-19.
  
 Gaussian, Inc.
 340 Quinnipiac St., Bldg. 40, Wallingford CT 06492
  
  
 ---------------------------------------------------------------
 Warning -- This program may not be used in any manner that
 competes with the business of Gaussian, Inc. or will provide
 assistance to any competitor of Gaussian, Inc.  The licensee
 of this program is prohibited from giving any competitor of
 Gaussian, Inc. access to this program.  By using this program,
 the user acknowledges that Gaussian, Inc. is engaged in the
 business of creating and licensing software in the field of
 computational chemistry and represents and warrants to the
 licensee that it is not a competitor of Gaussian, Inc. and that
 it will not use this program in any manner prohibited above.
 ---------------------------------------------------------------
  

 Cite this work as:
 Gaussian 16, Revision A.03,
 M. J. Frisch, G. W. Trucks, H. B. Schlegel, G. E. Scuseria, 
 M. A. Robb, J. R. Cheeseman, G. Scalmani, V. Barone, 
 G. A. Petersson, H. Nakatsuji, X. Li, M. Caricato, A. V. Marenich, 
 J. Bloino, B. G. Janesko, R. Gomperts, B. Mennucci, H. P. Hratchian, 
 J. V. Ortiz, A. F. Izmaylov, J. L. Sonnenberg, D. Williams-Young, 
 F. Ding, F. Lipparini, F. Egidi, J. Goings, B. Peng, A. Petrone, 
 T. Henderson, D. Ranasinghe, V. G. Zakrzewski, J. Gao, N. Rega, 
 G. Zheng, W. Liang, M. Hada, M. Ehara, K. Toyota, R. Fukuda, 
 J. Hasegawa, M. Ishida, T. Nakajima, Y. Honda, O. Kitao, H. Nakai, 
 T. Vreven, K. Throssell, J. A. Montgomery, Jr., J. E. Peralta, 
 F. Ogliaro, M. J. Bearpark, J. J. Heyd, E. N. Brothers, K. N. Kudin, 
 V. N. Staroverov, T. A. Keith, R. Kobayashi, J. Normand, 
 K. Raghavachari, A. P. Rendell, J. C. Burant, S. S. Iyengar, 
 J. Tomasi, M. Cossi, J. M. Millam, M. Klene, C. Adamo, R. Cammi, 
 J. W. Ochterski, R. L. Martin, K. Morokuma, O. Farkas, 
 J. B. Foresman, and D. J. Fox, Gaussian, Inc., Wallingford CT, 2016.
 
 ******************************************
 Gaussian 16:  ES64L-G16RevA.03 25-Dec-2016
                 3-Jul-2022 
 ******************************************
 %chk=NdCC1CC2CNC2C1.chk
 %NProcShared=20
 Will use up to   20 processors via shared memory.
 -----------------------------
 # opt freq b3lyp/6-31g(2df,p)
 -----------------------------
 1/18=20,19=15,26=3,38=1/1,3;
 2/9=110,12=2,17=6,18=5,40=1/2;
 3/5=1,6=6,7=104,11=2,25=1,30=1,71=1,74=-5/1,2,3;
 4//1;
 5/5=2,38=5/2;
 6/7=2,8=2,9=2,10=2,28=1/1;
 7//1,2,3,16;
 1/18=20,19=15,26=3/3(2);
 2/9=110/2;
 99//99;
 2/9=110/2;
 3/5=1,6=6,7=104,11=2,25=1,30=1,71=1,74=-5/1,2,3;
 4/5=5,16=3,69=1/1;
 5/5=2,38=5/2;
 7//1,2,3,16;
 1/18=20,19=15,26=3/3(-5);
 2/9=110/2;
 6/7=2,8=2,9=2,10=2,19=2,28=1/1;
 99/9=1/99;
 -------------------
 Title Card Required
 -------------------
 Symbolic Z-matrix:
 Charge =  0 Multiplicity = 1
 N                     0.8836    0.03946   0.14951 
 C                     2.16307   0.05592   0.18085 
 C                     2.98222  -0.29049  -1.01801 
 C                     2.8265   -1.73708  -1.46346 
 C                     3.52093  -1.71082  -2.82621 
 C                     2.60478  -1.86562  -4.06 
 N                     3.13944  -0.60437  -4.59303 
 C                     3.59628  -0.20147  -3.26246 
 C                     2.61175   0.46374  -2.2973 
 H                     0.50838   0.2942    1.07121 
 H                     2.72133   0.30807   1.10369 
 H                     4.03761  -0.10622  -0.7708 
 H                     1.76639  -2.00906  -1.56194 
 H                     3.27408  -2.4397   -0.75414 
 H                     4.41694  -2.33884  -2.88062 
 H                     1.53348  -1.82304  -3.83979 
 H                     2.81148  -2.74402  -4.67474 
 H                     2.47775   0.00592  -5.06322 
 H                     4.54464   0.34819  -3.27031 
 H                     1.56448   0.28567  -2.5799 
 H                     2.74831   1.54341  -2.18895 
 

 GradGradGradGradGradGradGradGradGradGradGradGradGradGradGradGradGradGrad
 Berny optimization.
 Initialization pass.
                           ----------------------------
                           !    Initial Parameters    !
                           ! (Angstroms and Degrees)  !
 --------------------------                            --------------------------
 ! Name  Definition              Value          Derivative Info.                !
 --------------------------------------------------------------------------------
 ! R1    R(1,2)                  1.28           estimate D2E/DX2                !
 ! R2    R(1,10)                 1.0272         estimate D2E/DX2                !
 ! R3    R(2,3)                  1.4927         estimate D2E/DX2                !
 ! R4    R(2,11)                 1.1076         estimate D2E/DX2                !
 ! R5    R(3,4)                  1.5216         estimate D2E/DX2                !
 ! R6    R(3,9)                  1.5306         estimate D2E/DX2                !
 ! R7    R(3,12)                 1.0995         estimate D2E/DX2                !
 ! R8    R(4,5)                  1.5297         estimate D2E/DX2                !
 ! R9    R(4,13)                 1.0989         estimate D2E/DX2                !
 ! R10   R(4,14)                 1.0941         estimate D2E/DX2                !
 ! R11   R(5,6)                  1.5445         estimate D2E/DX2                !
 ! R12   R(5,8)                  1.5729         estimate D2E/DX2                !
 ! R13   R(5,15)                 1.0955         estimate D2E/DX2                !
 ! R14   R(6,7)                  1.4699         estimate D2E/DX2                !
 ! R15   R(6,16)                 1.0945         estimate D2E/DX2                !
 ! R16   R(6,17)                 1.0919         estimate D2E/DX2                !
 ! R17   R(7,8)                  1.4634         estimate D2E/DX2                !
 ! R18   R(7,18)                 1.0156         estimate D2E/DX2                !
 ! R19   R(8,9)                  1.5308         estimate D2E/DX2                !
 ! R20   R(8,19)                 1.0962         estimate D2E/DX2                !
 ! R21   R(9,20)                 1.0992         estimate D2E/DX2                !
 ! R22   R(9,21)                 1.0937         estimate D2E/DX2                !
 ! A1    A(2,1,10)             109.8752         estimate D2E/DX2                !
 ! A2    A(1,2,3)              121.7287         estimate D2E/DX2                !
 ! A3    A(1,2,11)             121.8126         estimate D2E/DX2                !
 ! A4    A(3,2,11)             116.4478         estimate D2E/DX2                !
 ! A5    A(2,3,4)              113.5518         estimate D2E/DX2                !
 ! A6    A(2,3,9)              115.0931         estimate D2E/DX2                !
 ! A7    A(2,3,12)             107.8949         estimate D2E/DX2                !
 ! A8    A(4,3,9)              101.4797         estimate D2E/DX2                !
 ! A9    A(4,3,12)             108.8677         estimate D2E/DX2                !
 ! A10   A(9,3,12)             109.735          estimate D2E/DX2                !
 ! A11   A(3,4,5)              101.4211         estimate D2E/DX2                !
 ! A12   A(3,4,13)             111.1169         estimate D2E/DX2                !
 ! A13   A(3,4,14)             112.2629         estimate D2E/DX2                !
 ! A14   A(5,4,13)             111.2453         estimate D2E/DX2                !
 ! A15   A(5,4,14)             113.7568         estimate D2E/DX2                !
 ! A16   A(13,4,14)            107.0856         estimate D2E/DX2                !
 ! A17   A(4,5,6)              116.1446         estimate D2E/DX2                !
 ! A18   A(4,5,8)              106.5765         estimate D2E/DX2                !
 ! A19   A(4,5,15)             113.9342         estimate D2E/DX2                !
 ! A20   A(6,5,8)               84.4358         estimate D2E/DX2                !
 ! A21   A(6,5,15)             112.8303         estimate D2E/DX2                !
 ! A22   A(8,5,15)             119.81           estimate D2E/DX2                !
 ! A23   A(5,6,7)               89.3079         estimate D2E/DX2                !
 ! A24   A(5,6,16)             114.5798         estimate D2E/DX2                !
 ! A25   A(5,6,17)             114.7135         estimate D2E/DX2                !
 ! A26   A(7,6,16)             113.3025         estimate D2E/DX2                !
 ! A27   A(7,6,17)             114.6612         estimate D2E/DX2                !
 ! A28   A(16,6,17)            109.2601         estimate D2E/DX2                !
 ! A29   A(6,7,8)               91.1502         estimate D2E/DX2                !
 ! A30   A(6,7,18)             116.5207         estimate D2E/DX2                !
 ! A31   A(8,7,18)             117.3175         estimate D2E/DX2                !
 ! A32   A(5,8,7)               88.4546         estimate D2E/DX2                !
 ! A33   A(5,8,9)              102.1991         estimate D2E/DX2                !
 ! A34   A(5,8,19)             121.6413         estimate D2E/DX2                !
 ! A35   A(7,8,9)              119.4814         estimate D2E/DX2                !
 ! A36   A(7,8,19)             113.6805         estimate D2E/DX2                !
 ! A37   A(9,8,19)             110.0623         estimate D2E/DX2                !
 ! A38   A(3,9,8)               99.0429         estimate D2E/DX2                !
 ! A39   A(3,9,20)             111.4476         estimate D2E/DX2                !
 ! A40   A(3,9,21)             111.9281         estimate D2E/DX2                !
 ! A41   A(8,9,20)             112.3493         estimate D2E/DX2                !
 ! A42   A(8,9,21)             114.2773         estimate D2E/DX2                !
 ! A43   A(20,9,21)            107.7192         estimate D2E/DX2                !
 ! D1    D(10,1,2,3)           179.2581         estimate D2E/DX2                !
 ! D2    D(10,1,2,11)            0.5008         estimate D2E/DX2                !
 ! D3    D(1,2,3,4)            -64.8121         estimate D2E/DX2                !
 ! D4    D(1,2,3,9)             51.5379         estimate D2E/DX2                !
 ! D5    D(1,2,3,12)           174.4275         estimate D2E/DX2                !
 ! D6    D(11,2,3,4)           114.0085         estimate D2E/DX2                !
 ! D7    D(11,2,3,9)          -129.6415         estimate D2E/DX2                !
 ! D8    D(11,2,3,12)           -6.7519         estimate D2E/DX2                !
 ! D9    D(2,3,4,5)            168.8141         estimate D2E/DX2                !
 ! D10   D(2,3,4,13)            50.4992         estimate D2E/DX2                !
 ! D11   D(2,3,4,14)           -69.3965         estimate D2E/DX2                !
 ! D12   D(9,3,4,5)             44.7173         estimate D2E/DX2                !
 ! D13   D(9,3,4,13)           -73.5976         estimate D2E/DX2                !
 ! D14   D(9,3,4,14)           166.5068         estimate D2E/DX2                !
 ! D15   D(12,3,4,5)           -70.9746         estimate D2E/DX2                !
 ! D16   D(12,3,4,13)          170.7105         estimate D2E/DX2                !
 ! D17   D(12,3,4,14)           50.8149         estimate D2E/DX2                !
 ! D18   D(2,3,9,8)           -177.4632         estimate D2E/DX2                !
 ! D19   D(2,3,9,20)           -59.0252         estimate D2E/DX2                !
 ! D20   D(2,3,9,21)            61.6819         estimate D2E/DX2                !
 ! D21   D(4,3,9,8)            -54.4161         estimate D2E/DX2                !
 ! D22   D(4,3,9,20)            64.0219         estimate D2E/DX2                !
 ! D23   D(4,3,9,21)          -175.271          estimate D2E/DX2                !
 ! D24   D(12,3,9,8)            60.6353         estimate D2E/DX2                !
 ! D25   D(12,3,9,20)          179.0733         estimate D2E/DX2                !
 ! D26   D(12,3,9,21)          -60.2196         estimate D2E/DX2                !
 ! D27   D(3,4,5,6)           -110.1137         estimate D2E/DX2                !
 ! D28   D(3,4,5,8)            -18.1987         estimate D2E/DX2                !
 ! D29   D(3,4,5,15)           116.196          estimate D2E/DX2                !
 ! D30   D(13,4,5,6)             8.1086         estimate D2E/DX2                !
 ! D31   D(13,4,5,8)           100.0236         estimate D2E/DX2                !
 ! D32   D(13,4,5,15)         -125.5817         estimate D2E/DX2                !
 ! D33   D(14,4,5,6)           129.1417         estimate D2E/DX2                !
 ! D34   D(14,4,5,8)          -138.9434         estimate D2E/DX2                !
 ! D35   D(14,4,5,15)           -4.5486         estimate D2E/DX2                !
 ! D36   D(4,5,6,7)            124.4841         estimate D2E/DX2                !
 ! D37   D(4,5,6,16)             9.0476         estimate D2E/DX2                !
 ! D38   D(4,5,6,17)          -118.5285         estimate D2E/DX2                !
 ! D39   D(8,5,6,7)             18.7307         estimate D2E/DX2                !
 ! D40   D(8,5,6,16)           -96.7058         estimate D2E/DX2                !
 ! D41   D(8,5,6,17)           135.7181         estimate D2E/DX2                !
 ! D42   D(15,5,6,7)          -101.3303         estimate D2E/DX2                !
 ! D43   D(15,5,6,16)          143.2332         estimate D2E/DX2                !
 ! D44   D(15,5,6,17)           15.6571         estimate D2E/DX2                !
 ! D45   D(4,5,8,7)           -134.477          estimate D2E/DX2                !
 ! D46   D(4,5,8,9)            -14.6184         estimate D2E/DX2                !
 ! D47   D(4,5,8,19)           108.438          estimate D2E/DX2                !
 ! D48   D(6,5,8,7)            -18.8237         estimate D2E/DX2                !
 ! D49   D(6,5,8,9)            101.0348         estimate D2E/DX2                !
 ! D50   D(6,5,8,19)          -135.9087         estimate D2E/DX2                !
 ! D51   D(15,5,8,7)            94.3472         estimate D2E/DX2                !
 ! D52   D(15,5,8,9)          -145.7943         estimate D2E/DX2                !
 ! D53   D(15,5,8,19)          -22.7378         estimate D2E/DX2                !
 ! D54   D(5,6,7,8)            -20.0968         estimate D2E/DX2                !
 ! D55   D(5,6,7,18)          -141.6314         estimate D2E/DX2                !
 ! D56   D(16,6,7,8)            96.5016         estimate D2E/DX2                !
 ! D57   D(16,6,7,18)          -25.033          estimate D2E/DX2                !
 ! D58   D(17,6,7,8)          -137.1314         estimate D2E/DX2                !
 ! D59   D(17,6,7,18)          101.334          estimate D2E/DX2                !
 ! D60   D(6,7,8,5)             19.7245         estimate D2E/DX2                !
 ! D61   D(6,7,8,9)            -83.4299         estimate D2E/DX2                !
 ! D62   D(6,7,8,19)           143.8639         estimate D2E/DX2                !
 ! D63   D(18,7,8,5)           140.591          estimate D2E/DX2                !
 ! D64   D(18,7,8,9)            37.4366         estimate D2E/DX2                !
 ! D65   D(18,7,8,19)          -95.2695         estimate D2E/DX2                !
 ! D66   D(5,8,9,3)             41.2003         estimate D2E/DX2                !
 ! D67   D(5,8,9,20)           -76.5588         estimate D2E/DX2                !
 ! D68   D(5,8,9,21)           160.3184         estimate D2E/DX2                !
 ! D69   D(7,8,9,3)            136.3941         estimate D2E/DX2                !
 ! D70   D(7,8,9,20)            18.635          estimate D2E/DX2                !
 ! D71   D(7,8,9,21)          -104.4878         estimate D2E/DX2                !
 ! D72   D(19,8,9,3)           -89.3673         estimate D2E/DX2                !
 ! D73   D(19,8,9,20)          152.8736         estimate D2E/DX2                !
 ! D74   D(19,8,9,21)           29.7508         estimate D2E/DX2                !
 --------------------------------------------------------------------------------
 Trust Radius=3.00D-01 FncErr=1.00D-07 GrdErr=1.00D-06 EigMax=2.50D+02 EigMin=1.00D-04
 Number of steps in this run=    126 maximum allowed number of steps=    126.
 GradGradGradGradGradGradGradGradGradGradGradGradGradGradGradGradGradGrad

                          Input orientation:                          
 ---------------------------------------------------------------------
 Center     Atomic      Atomic             Coordinates (Angstroms)
 Number     Number       Type             X           Y           Z
 ---------------------------------------------------------------------
      1          7           0        0.883600    0.039460    0.149510
      2          6           0        2.163070    0.055920    0.180850
      3          6           0        2.982220   -0.290490   -1.018010
      4          6           0        2.826500   -1.737080   -1.463460
      5          6           0        3.520930   -1.710820   -2.826210
      6          6           0        2.604780   -1.865620   -4.060000
      7          7           0        3.139440   -0.604370   -4.593030
      8          6           0        3.596280   -0.201470   -3.262460
      9          6           0        2.611750    0.463740   -2.297300
     10          1           0        0.508380    0.294200    1.071210
     11          1           0        2.721330    0.308070    1.103690
     12          1           0        4.037610   -0.106220   -0.770800
     13          1           0        1.766390   -2.009060   -1.561940
     14          1           0        3.274080   -2.439700   -0.754140
     15          1           0        4.416940   -2.338840   -2.880620
     16          1           0        1.533480   -1.823040   -3.839790
     17          1           0        2.811480   -2.744020   -4.674740
     18          1           0        2.477750    0.005920   -5.063220
     19          1           0        4.544640    0.348190   -3.270310
     20          1           0        1.564480    0.285670   -2.579900
     21          1           0        2.748310    1.543410   -2.188950
 ---------------------------------------------------------------------
                    Distance matrix (angstroms):
                    1          2          3          4          5
     1  N    0.000000
     2  C    1.279960   0.000000
     3  C    2.424082   1.492740   0.000000
     4  C    3.087495   2.521655   1.521610   0.000000
     5  C    4.344410   3.742668   2.361595   1.529709   0.000000
     6  C    4.930696   4.676776   3.446331   2.609157   1.544517
     7  N    5.291032   4.917236   3.592215   3.342929   2.119297
     8  C    4.365572   3.738546   2.328637   2.487380   1.572936
     9  C    3.025458   2.551246   1.530586   2.363264   2.415588
    10  H    1.027236   1.894074   3.290378   3.990530   5.318406
    11  H    2.088028   1.107641   2.219898   3.283894   4.489921
    12  H    3.288765   2.108513   1.099507   2.146222   2.658272
    13  H    2.811550   2.731083   2.174301   1.098865   2.183057
    14  H    3.560507   2.887329   2.184929   1.094138   2.210356
    15  H    5.227092   4.493040   3.118249   2.213585   1.095538
    16  H    4.450367   4.482457   3.522783   2.706702   2.233807
    17  H    5.893884   5.642416   4.406885   3.365483   2.233357
    18  H    5.451146   5.253741   4.087306   4.014716   3.006598
    19  H    5.019332   4.203309   2.814591   3.250394   2.341950
    20  H    2.823809   2.834226   2.186652   2.632613   2.806125
    21  H    3.347746   2.858511   2.188379   3.360664   3.404858
                    6          7          8          9         10
     6  C    0.000000
     7  N    1.469943   0.000000
     8  C    2.094884   1.463369   0.000000
     9  C    2.921143   2.586444   1.530796   0.000000
    10  H    5.948868   6.309796   5.344297   3.974892   0.000000
    11  H    5.603767   5.784460   4.482012   3.406314   2.213232
    12  H    3.995914   3.957816   2.532235   2.165210   4.001100
    13  H    2.638897   3.611915   3.083447   2.714798   3.717671
    14  H    3.421438   4.257187   3.377152   3.354100   4.295953
    15  H    2.213323   2.751861   2.321128   3.384291   6.150342
    16  H    1.094527   2.152123   2.686623   2.961639   5.445315
    17  H    1.091887   2.166180   3.012475   3.997729   6.895723
    18  H    2.127263   1.015562   2.129990   2.806754   6.449245
    19  H    3.047560   2.152103   1.096164   2.167063   5.928162
    20  H    2.810866   2.706541   2.198046   1.099248   3.800793
    21  H    3.891390   3.247390   2.217224   1.093652   4.148066
                   11         12         13         14         15
    11  H    0.000000
    12  H    2.327647   0.000000
    13  H    3.658768   3.066781   0.000000
    14  H    3.362634   2.455277   1.763837   0.000000
    15  H    5.075032   3.095129   2.978773   2.416241   0.000000
    16  H    5.512768   4.317040   2.297270   3.595997   3.082272
    17  H    6.535567   4.868483   3.364804   3.959509   2.441422
    18  H    6.179110   4.568436   4.101846   5.018303   3.744609
    19  H    4.738981   2.590583   4.024156   3.964564   2.718142
    20  H    3.861041   3.089141   2.518491   3.699158   3.887803
    21  H    3.516855   2.528779   3.738630   4.266179   4.281892
                   16         17         18         19         20
    16  H    0.000000
    17  H    1.782871   0.000000
    18  H    2.394477   2.797224   0.000000
    19  H    3.755746   3.812877   2.757482   0.000000
    20  H    2.456612   3.888751   2.660677   3.059727   0.000000
    21  H    3.941328   4.956329   3.270857   2.413440   1.770933
                   21
    21  H    0.000000
 Stoichiometry    C7H12N2
 Framework group  C1[X(C7H12N2)]
 Deg. of freedom    57
 Full point group                 C1      NOp   1
 Largest Abelian subgroup         C1      NOp   1
 Largest concise Abelian subgroup C1      NOp   1
                         Standard orientation:                         
 ---------------------------------------------------------------------
 Center     Atomic      Atomic             Coordinates (Angstroms)
 Number     Number       Type             X           Y           Z
 ---------------------------------------------------------------------
      1          7           0       -2.823988   -0.095029    0.967631
      2          6           0       -2.459955   -0.055496   -0.258834
      3          6           0       -1.019574   -0.026431   -0.649639
      4          6           0       -0.292915    1.232617   -0.200127
      5          6           0        1.164429    0.853854   -0.469746
      6          6           0        2.049894    0.626055    0.775079
      7          7           0        2.384292   -0.713309    0.270088
      8          6           0        1.204752   -0.713488   -0.596014
      9          6           0       -0.153658   -1.119562   -0.018809
     10          1           0       -3.849466   -0.096979    1.027656
     11          1           0       -3.196235   -0.020630   -1.085601
     12          1           0       -0.965395   -0.096127   -1.745597
     13          1           0       -0.462586    1.427682    0.867893
     14          1           0       -0.625782    2.120560   -0.745924
     15          1           0        1.651501    1.474203   -1.230096
     16          1           0        1.504995    0.607369    1.724144
     17          1           0        2.900005    1.305846    0.861180
     18          1           0        2.455055   -1.453946    0.961330
     19          1           0        1.366760   -1.208726   -1.560414
     20          1           0       -0.174465   -1.065360    1.078904
     21          1           0       -0.484357   -2.120824   -0.308960
 ---------------------------------------------------------------------
 Rotational constants (GHZ):           3.8461814           1.0951133           1.0300119
 Standard basis: 6-31G(2df,p) (6D, 7F)
 There are   339 symmetry adapted cartesian basis functions of A   symmetry.
 There are   312 symmetry adapted basis functions of A   symmetry.
   312 basis functions,   480 primitive gaussians,   339 cartesian basis functions
    34 alpha electrons       34 beta electrons
       nuclear repulsion energy       463.3641383707 Hartrees.
 NAtoms=   21 NActive=   21 NUniq=   21 SFac= 1.00D+00 NAtFMM=   60 NAOKFM=F Big=F
 Integral buffers will be    131072 words long.
 Raffenetti 2 integral format.
 Two-electron integral symmetry is turned on.
 One-electron integrals computed using PRISM.
 PrsmSu:  requested number of processors reduced to:  13 ShMem   1 Linda.
 NBasis=   312 RedAO= T EigKep=  2.64D-04  NBF=   312
 NBsUse=   312 1.00D-06 EigRej= -1.00D+00 NBFU=   312
 ExpMin= 1.61D-01 ExpMax= 4.17D+03 ExpMxC= 6.27D+02 IAcc=3 IRadAn=         5 AccDes= 0.00D+00
 Harris functional with IExCor=  402 and IRadAn=       5 diagonalized for initial guess.
 HarFok:  IExCor=  402 AccDes= 0.00D+00 IRadAn=         5 IDoV= 1 UseB2=F ITyADJ=14
 ICtDFT=  3500011 ScaDFX=  1.000000  1.000000  1.000000  1.000000
 FoFCou: FMM=F IPFlag=           0 FMFlag=      100000 FMFlg1=           0
         NFxFlg=           0 DoJE=T BraDBF=F KetDBF=T FulRan=T
         wScrn=  0.000000 ICntrl=       500 IOpCl=  0 I1Cent=   200000004 NGrid=           0
         NMat0=    1 NMatS0=      1 NMatT0=    0 NMatD0=    1 NMtDS0=    0 NMtDT0=    0
 Petite list used in FoFCou.
 Requested convergence on RMS density matrix=1.00D-08 within 128 cycles.
 Requested convergence on MAX density matrix=1.00D-06.
 Requested convergence on             energy=1.00D-06.
 No special actions if energy rises.
 Integral accuracy reduced to 1.0D-05 until final iterations.
 Initial convergence to 1.0D-05 achieved.  Increase integral accuracy.
 SCF Done:  E(RB3LYP) =  -383.427765701     A.U. after   13 cycles
            NFock= 13  Conv=0.58D-08     -V/T= 2.0078

 **********************************************************************

            Population analysis using the SCF density.

 **********************************************************************

 Orbital symmetries:
       Occupied  (A) (A) (A) (A) (A) (A) (A) (A) (A) (A) (A) (A)
                 (A) (A) (A) (A) (A) (A) (A) (A) (A) (A) (A) (A)
                 (A) (A) (A) (A) (A) (A) (A) (A) (A) (A)
       Virtual   (A) (A) (A) (A) (A) (A) (A) (A) (A) (A) (A) (A)
                 (A) (A) (A) (A) (A) (A) (A) (A) (A) (A) (A) (A)
                 (A) (A) (A) (A) (A) (A) (A) (A) (A) (A) (A) (A)
                 (A) (A) (A) (A) (A) (A) (A) (A) (A) (A) (A) (A)
                 (A) (A) (A) (A) (A) (A) (A) (A) (A) (A) (A) (A)
                 (A) (A) (A) (A) (A) (A) (A) (A) (A) (A) (A) (A)
                 (A) (A) (A) (A) (A) (A) (A) (A) (A) (A) (A) (A)
                 (A) (A) (A) (A) (A) (A) (A) (A) (A) (A) (A) (A)
                 (A) (A) (A) (A) (A) (A) (A) (A) (A) (A) (A) (A)
                 (A) (A) (A) (A) (A) (A) (A) (A) (A) (A) (A) (A)
                 (A) (A) (A) (A) (A) (A) (A) (A) (A) (A) (A) (A)
                 (A) (A) (A) (A) (A) (A) (A) (A) (A) (A) (A) (A)
                 (A) (A) (A) (A) (A) (A) (A) (A) (A) (A) (A) (A)
                 (A) (A) (A) (A) (A) (A) (A) (A) (A) (A) (A) (A)
                 (A) (A) (A) (A) (A) (A) (A) (A) (A) (A) (A) (A)
                 (A) (A) (A) (A) (A) (A) (A) (A) (A) (A) (A) (A)
                 (A) (A) (A) (A) (A) (A) (A) (A) (A) (A) (A) (A)
                 (A) (A) (A) (A) (A) (A) (A) (A) (A) (A) (A) (A)
                 (A) (A) (A) (A) (A) (A) (A) (A) (A) (A) (A) (A)
                 (A) (A) (A) (A) (A) (A) (A) (A) (A) (A) (A) (A)
                 (A) (A) (A) (A) (A) (A) (A) (A) (A) (A) (A) (A)
                 (A) (A) (A) (A) (A) (A) (A) (A) (A) (A) (A) (A)
                 (A) (A) (A) (A) (A) (A) (A) (A) (A) (A) (A) (A)
                 (A) (A)
 The electronic state is 1-A.
 Alpha  occ. eigenvalues --  -14.31351 -14.30130 -10.22564 -10.20339 -10.19630
 Alpha  occ. eigenvalues --  -10.18855 -10.18184 -10.17651 -10.17564  -0.92943
 Alpha  occ. eigenvalues --   -0.89606  -0.81722  -0.72543  -0.69095  -0.64437
 Alpha  occ. eigenvalues --   -0.61432  -0.54137  -0.52563  -0.51555  -0.49389
 Alpha  occ. eigenvalues --   -0.48068  -0.43192  -0.42135  -0.41020  -0.37382
 Alpha  occ. eigenvalues --   -0.36651  -0.35506  -0.34056  -0.33354  -0.31123
 Alpha  occ. eigenvalues --   -0.29582  -0.29236  -0.25724  -0.21500
 Alpha virt. eigenvalues --   -0.00555   0.07935   0.09288   0.09489   0.10474
 Alpha virt. eigenvalues --    0.13402   0.14851   0.15227   0.16082   0.16552
 Alpha virt. eigenvalues --    0.17454   0.18932   0.19812   0.20989   0.21519
 Alpha virt. eigenvalues --    0.23958   0.24390   0.26712   0.27961   0.30516
 Alpha virt. eigenvalues --    0.33073   0.34272   0.35647   0.45442   0.45944
 Alpha virt. eigenvalues --    0.48104   0.48255   0.49229   0.50403   0.51333
 Alpha virt. eigenvalues --    0.52687   0.53337   0.53486   0.55892   0.57207
 Alpha virt. eigenvalues --    0.58275   0.59952   0.61046   0.62030   0.63475
 Alpha virt. eigenvalues --    0.65064   0.66466   0.67404   0.70811   0.71344
 Alpha virt. eigenvalues --    0.72516   0.74346   0.74810   0.77100   0.77684
 Alpha virt. eigenvalues --    0.78208   0.79451   0.80316   0.80867   0.81574
 Alpha virt. eigenvalues --    0.82094   0.82721   0.83737   0.84973   0.87566
 Alpha virt. eigenvalues --    0.90028   0.90809   0.93232   0.96330   0.97350
 Alpha virt. eigenvalues --    1.04188   1.04985   1.07171   1.11277   1.11641
 Alpha virt. eigenvalues --    1.11687   1.19122   1.20403   1.21644   1.22651
 Alpha virt. eigenvalues --    1.25925   1.28844   1.31350   1.34981   1.37961
 Alpha virt. eigenvalues --    1.40322   1.40945   1.41866   1.43321   1.44175
 Alpha virt. eigenvalues --    1.45275   1.47165   1.49435   1.50180   1.53041
 Alpha virt. eigenvalues --    1.53102   1.56320   1.57113   1.58624   1.59871
 Alpha virt. eigenvalues --    1.62775   1.64514   1.66851   1.70200   1.72533
 Alpha virt. eigenvalues --    1.75690   1.78093   1.79062   1.82052   1.84372
 Alpha virt. eigenvalues --    1.85902   1.88133   1.89968   1.92158   1.92955
 Alpha virt. eigenvalues --    1.97660   2.04508   2.07350   2.09457   2.12631
 Alpha virt. eigenvalues --    2.14795   2.19996   2.23633   2.25716   2.27519
 Alpha virt. eigenvalues --    2.30161   2.31985   2.35294   2.38638   2.41497
 Alpha virt. eigenvalues --    2.44680   2.45663   2.48533   2.51510   2.53198
 Alpha virt. eigenvalues --    2.57043   2.60024   2.63700   2.67645   2.69248
 Alpha virt. eigenvalues --    2.69978   2.72862   2.74322   2.77888   2.79335
 Alpha virt. eigenvalues --    2.79569   2.81776   2.83330   2.85289   2.88699
 Alpha virt. eigenvalues --    2.92041   2.93500   2.93831   2.95014   2.96379
 Alpha virt. eigenvalues --    2.97247   2.99378   3.03011   3.06042   3.07707
 Alpha virt. eigenvalues --    3.08628   3.11257   3.11539   3.15486   3.16005
 Alpha virt. eigenvalues --    3.18002   3.21775   3.22780   3.28410   3.28735
 Alpha virt. eigenvalues --    3.28900   3.32638   3.34252   3.35216   3.38196
 Alpha virt. eigenvalues --    3.39536   3.40690   3.43660   3.44921   3.48182
 Alpha virt. eigenvalues --    3.51763   3.52599   3.56511   3.62500   3.63379
 Alpha virt. eigenvalues --    3.65346   3.68002   3.71004   3.73992   3.75737
 Alpha virt. eigenvalues --    3.78298   3.79943   3.84276   3.86977   3.89692
 Alpha virt. eigenvalues --    3.91340   3.94850   3.95978   4.02124   4.04053
 Alpha virt. eigenvalues --    4.04556   4.09364   4.11921   4.17037   4.19552
 Alpha virt. eigenvalues --    4.22510   4.24134   4.25818   4.28929   4.32304
 Alpha virt. eigenvalues --    4.33452   4.36631   4.39556   4.41571   4.44057
 Alpha virt. eigenvalues --    4.45703   4.47065   4.48271   4.49095   4.51032
 Alpha virt. eigenvalues --    4.53322   4.54432   4.56547   4.58732   4.59764
 Alpha virt. eigenvalues --    4.62857   4.65481   4.67224   4.69338   4.70603
 Alpha virt. eigenvalues --    4.72511   4.73380   4.73879   4.75790   4.77246
 Alpha virt. eigenvalues --    4.78345   4.81343   4.83456   4.85032   4.85536
 Alpha virt. eigenvalues --    4.86289   4.88985   4.90378   4.91127   4.93897
 Alpha virt. eigenvalues --    4.95002   4.97283   5.00822   5.02449   5.05401
 Alpha virt. eigenvalues --    5.07165   5.11846   5.13577   5.16982   5.21236
 Alpha virt. eigenvalues --    5.25586   5.27519   5.32396   5.33513   5.41780
 Alpha virt. eigenvalues --    5.43409   5.46201   5.49637   5.55801   5.60575
 Alpha virt. eigenvalues --    5.62594   5.64079   5.67967   5.76981   6.06715
 Alpha virt. eigenvalues --    6.34619   7.13735   8.72177  10.63557  11.04706
 Alpha virt. eigenvalues --   11.41322  11.49340  11.73777  11.76585  12.16515
 Alpha virt. eigenvalues --   12.60470  12.87260  15.88017
          Condensed to atoms (all electrons):
               1          2          3          4          5          6
     1  N    6.467903   0.687819  -0.027187  -0.010705   0.000258  -0.000040
     2  C    0.687819   4.793824   0.308082  -0.028302   0.003071  -0.000132
     3  C   -0.027187   0.308082   4.820543   0.401372  -0.046489   0.000759
     4  C   -0.010705  -0.028302   0.401372   4.948537   0.387666  -0.011526
     5  C    0.000258   0.003071  -0.046489   0.387666   4.804552   0.345400
     6  C   -0.000040  -0.000132   0.000759  -0.011526   0.345400   4.957299
     7  N   -0.000003  -0.000182   0.004046   0.001042  -0.055290   0.361505
     8  C    0.000386   0.002655  -0.045824  -0.040439   0.380114  -0.125184
     9  C   -0.009471  -0.013769   0.360927  -0.043621  -0.053430   0.006135
    10  H    0.333091  -0.080995   0.010532   0.000024   0.000009  -0.000000
    11  H   -0.072188   0.383968  -0.078944   0.005338  -0.000234  -0.000000
    12  H    0.003117  -0.034689   0.362068  -0.040925  -0.001747   0.000095
    13  H    0.007660  -0.002192  -0.032469   0.360707  -0.018793  -0.016571
    14  H    0.000191   0.002607  -0.030161   0.352937  -0.024377   0.003680
    15  H   -0.000003  -0.000181   0.003050  -0.045841   0.365622  -0.034700
    16  H   -0.000045   0.000060  -0.000367  -0.009468  -0.028311   0.364253
    17  H    0.000000  -0.000001   0.000009   0.001561  -0.016873   0.353743
    18  H   -0.000001   0.000002  -0.000083  -0.000634   0.014659  -0.047040
    19  H   -0.000006  -0.000265  -0.000159   0.004879  -0.038476   0.013232
    20  H    0.007054  -0.001282  -0.027187  -0.001789  -0.008894   0.005381
    21  H    0.000558   0.001107  -0.027429   0.005141   0.006827  -0.000892
               7          8          9         10         11         12
     1  N   -0.000003   0.000386  -0.009471   0.333091  -0.072188   0.003117
     2  C   -0.000182   0.002655  -0.013769  -0.080995   0.383968  -0.034689
     3  C    0.004046  -0.045824   0.360927   0.010532  -0.078944   0.362068
     4  C    0.001042  -0.040439  -0.043621   0.000024   0.005338  -0.040925
     5  C   -0.055290   0.380114  -0.053430   0.000009  -0.000234  -0.001747
     6  C    0.361505  -0.125184   0.006135  -0.000000  -0.000000   0.000095
     7  N    6.421193   0.383775  -0.046968  -0.000000   0.000001   0.000121
     8  C    0.383775   4.787096   0.389048  -0.000002  -0.000097  -0.000633
     9  C   -0.046968   0.389048   5.043625  -0.000134   0.006073  -0.048507
    10  H   -0.000000  -0.000002  -0.000134   0.537367  -0.022472  -0.000366
    11  H    0.000001  -0.000097   0.006073  -0.022472   0.702851  -0.005363
    12  H    0.000121  -0.000633  -0.048507  -0.000366  -0.005363   0.687844
    13  H    0.000324  -0.000743  -0.002948  -0.000397   0.000423   0.005918
    14  H   -0.000236   0.004698   0.006309  -0.000030   0.000600  -0.006596
    15  H    0.004458  -0.029411   0.005275  -0.000000   0.000005   0.000451
    16  H   -0.041059   0.008627   0.005562   0.000000  -0.000001   0.000002
    17  H   -0.022272   0.003490  -0.000555   0.000000  -0.000000   0.000011
    18  H    0.341387  -0.061324  -0.007134   0.000000   0.000000   0.000012
    19  H   -0.031443   0.360461  -0.063674   0.000000   0.000013   0.002715
    20  H   -0.006794  -0.016167   0.356160  -0.000286   0.000260   0.005719
    21  H    0.002837  -0.023375   0.353458  -0.000043   0.000290  -0.003708
              13         14         15         16         17         18
     1  N    0.007660   0.000191  -0.000003  -0.000045   0.000000  -0.000001
     2  C   -0.002192   0.002607  -0.000181   0.000060  -0.000001   0.000002
     3  C   -0.032469  -0.030161   0.003050  -0.000367   0.000009  -0.000083
     4  C    0.360707   0.352937  -0.045841  -0.009468   0.001561  -0.000634
     5  C   -0.018793  -0.024377   0.365622  -0.028311  -0.016873   0.014659
     6  C   -0.016571   0.003680  -0.034700   0.364253   0.353743  -0.047040
     7  N    0.000324  -0.000236   0.004458  -0.041059  -0.022272   0.341387
     8  C   -0.000743   0.004698  -0.029411   0.008627   0.003490  -0.061324
     9  C   -0.002948   0.006309   0.005275   0.005562  -0.000555  -0.007134
    10  H   -0.000397  -0.000030  -0.000000   0.000000   0.000000   0.000000
    11  H    0.000423   0.000600   0.000005  -0.000001  -0.000000   0.000000
    12  H    0.005918  -0.006596   0.000451   0.000002   0.000011   0.000012
    13  H    0.604011  -0.040594   0.005038   0.007782   0.000435  -0.000012
    14  H   -0.040594   0.651445  -0.008546   0.000142  -0.000250   0.000012
    15  H    0.005038  -0.008546   0.666537   0.004827  -0.006269  -0.000555
    16  H    0.007782   0.000142   0.004827   0.659851  -0.053375  -0.009750
    17  H    0.000435  -0.000250  -0.006269  -0.053375   0.644200   0.003885
    18  H   -0.000012   0.000012  -0.000555  -0.009750   0.003885   0.552537
    19  H   -0.000275  -0.000002  -0.005468  -0.000736  -0.000515   0.003373
    20  H    0.002855   0.000140  -0.000135   0.000674  -0.000032   0.002067
    21  H    0.000116  -0.000244  -0.000097  -0.000039   0.000005   0.000899
              19         20         21
     1  N   -0.000006   0.007054   0.000558
     2  C   -0.000265  -0.001282   0.001107
     3  C   -0.000159  -0.027187  -0.027429
     4  C    0.004879  -0.001789   0.005141
     5  C   -0.038476  -0.008894   0.006827
     6  C    0.013232   0.005381  -0.000892
     7  N   -0.031443  -0.006794   0.002837
     8  C    0.360461  -0.016167  -0.023375
     9  C   -0.063674   0.356160   0.353458
    10  H    0.000000  -0.000286  -0.000043
    11  H    0.000013   0.000260   0.000290
    12  H    0.002715   0.005719  -0.003708
    13  H   -0.000275   0.002855   0.000116
    14  H   -0.000002   0.000140  -0.000244
    15  H   -0.005468  -0.000135  -0.000097
    16  H   -0.000736   0.000674  -0.000039
    17  H   -0.000515  -0.000032   0.000005
    18  H    0.003373   0.002067   0.000899
    19  H    0.692423   0.005582  -0.006924
    20  H    0.005582   0.596391  -0.039050
    21  H   -0.006924  -0.039050   0.641374
 Mulliken charges:
               1
     1  N   -0.388389
     2  C   -0.021203
     3  C    0.044911
     4  C   -0.235953
     5  C   -0.015265
     6  C   -0.175398
     7  N   -0.316441
     8  C    0.022849
     9  C   -0.242361
    10  H    0.223703
    11  H    0.079477
    12  H    0.074462
    13  H    0.119725
    14  H    0.088275
    15  H    0.075943
    16  H    0.091372
    17  H    0.092803
    18  H    0.207701
    19  H    0.065266
    20  H    0.119334
    21  H    0.089189
 Sum of Mulliken charges =  -0.00000
 Mulliken charges with hydrogens summed into heavy atoms:
               1
     1  N   -0.164686
     2  C    0.058274
     3  C    0.119373
     4  C   -0.027952
     5  C    0.060679
     6  C    0.008777
     7  N   -0.108740
     8  C    0.088114
     9  C   -0.033838
 Electronic spatial extent (au):  <R**2>=           1238.7515
 Charge=             -0.0000 electrons
 Dipole moment (field-independent basis, Debye):
    X=             -1.2991    Y=              0.0882    Z=             -1.0266  Tot=              1.6581
 Quadrupole moment (field-independent basis, Debye-Ang):
   XX=            -55.2371   YY=            -53.5149   ZZ=            -54.8542
   XY=              0.6558   XZ=              5.1243   YZ=             -0.9133
 Traceless Quadrupole moment (field-independent basis, Debye-Ang):
   XX=             -0.7017   YY=              1.0205   ZZ=             -0.3188
   XY=              0.6558   XZ=              5.1243   YZ=             -0.9133
 Octapole moment (field-independent basis, Debye-Ang**2):
  XXX=            -48.4890  YYY=             -4.1344  ZZZ=             -1.3170  XYY=              4.2008
  XXY=              3.1709  XXZ=              1.8043  XZZ=              5.6481  YZZ=             -1.4856
  YYZ=              0.7677  XYZ=             -3.2970
 Hexadecapole moment (field-independent basis, Debye-Ang**3):
 XXXX=          -1048.6395 YYYY=           -288.1485 ZZZZ=           -216.2743 XXXY=             14.4910
 XXXZ=              3.2205 YYYX=             -7.9769 YYYZ=             -4.9770 ZZZX=              9.1099
 ZZZY=             -2.3951 XXYY=           -234.7076 XXZZ=           -221.4603 YYZZ=            -81.4788
 XXYZ=             -7.9001 YYXZ=              3.8235 ZZXY=             -5.1733
 N-N= 4.633641383707D+02 E-N=-1.816771678505D+03  KE= 3.804712830576D+02
 PrsmSu:  requested number of processors reduced to:  13 ShMem   1 Linda.
 Calling FoFJK, ICntrl=      2127 FMM=F ISym2X=0 I1Cent= 0 IOpClX= 0 NMat=1 NMatS=1 NMatT=0.
 ***** Axes restored to original set *****
 -------------------------------------------------------------------
 Center     Atomic                   Forces (Hartrees/Bohr)
 Number     Number              X              Y              Z
 -------------------------------------------------------------------
      1        7           0.009821298    0.002207758    0.003896462
      2        6          -0.014343263    0.003175843    0.013193087
      3        6          -0.013597500    0.006554139    0.013545766
      4        6           0.007089893   -0.014801075    0.003631007
      5        6          -0.008283759   -0.001567289    0.000654816
      6        6           0.005107688   -0.006646168   -0.010278995
      7        7          -0.000694107    0.003184279   -0.011602933
      8        6           0.005726694   -0.002634010   -0.007428922
      9        6           0.006072493    0.010265137    0.001365336
     10        1           0.000448050   -0.001515558   -0.004318915
     11        1          -0.001480063   -0.000919677   -0.004054730
     12        1          -0.001069148    0.000600720   -0.002769807
     13        1           0.002699910    0.003527902    0.002694884
     14        1           0.000679546   -0.000939438   -0.000218898
     15        1          -0.000310144    0.007052694   -0.001347729
     16        1          -0.001511027   -0.003789762    0.004055984
     17        1          -0.002309813   -0.001020398   -0.004717933
     18        1          -0.000325863    0.000730603    0.001701469
     19        1           0.002232915   -0.003345785    0.000948012
     20        1           0.003417840   -0.000944214    0.003760447
     21        1           0.000628363    0.000824298   -0.002708407
 -------------------------------------------------------------------
 Cartesian Forces:  Max     0.014801075 RMS     0.005744936

 GradGradGradGradGradGradGradGradGradGradGradGradGradGradGradGradGradGrad
 Berny optimization.
 FormGI is forming the generalized inverse of G from B-inverse, IUseBI=4.
 Internal  Forces:  Max     0.013068165 RMS     0.003507987
 Search for a local minimum.
 Step number   1 out of a maximum of  126
 All quantities printed in internal units (Hartrees-Bohrs-Radians)
 Mixed Optimization -- RFO/linear search
 Second derivative matrix not updated -- first step.
 ITU=  0
     Eigenvalues ---    0.00522   0.00743   0.00862   0.01506   0.01516
     Eigenvalues ---    0.02208   0.02664   0.02825   0.03280   0.03546
     Eigenvalues ---    0.03870   0.04203   0.04603   0.04862   0.05090
     Eigenvalues ---    0.05194   0.05556   0.05772   0.05927   0.06240
     Eigenvalues ---    0.06287   0.06336   0.06629   0.06759   0.07564
     Eigenvalues ---    0.08138   0.08557   0.09426   0.09970   0.13258
     Eigenvalues ---    0.15669   0.15999   0.16000   0.17491   0.18829
     Eigenvalues ---    0.22001   0.25725   0.26299   0.27446   0.28522
     Eigenvalues ---    0.29422   0.32339   0.32851   0.33151   0.33737
     Eigenvalues ---    0.33765   0.33808   0.33867   0.34110   0.34180
     Eigenvalues ---    0.34295   0.34339   0.34394   0.34596   0.43203
     Eigenvalues ---    0.45054   0.73081
 RFO step:  Lambda=-1.29447453D-02 EMin= 5.22080630D-03
 Linear search not attempted -- first point.
 Iteration  1 RMS(Cart)=  0.06121842 RMS(Int)=  0.00160908
 Iteration  2 RMS(Cart)=  0.00203192 RMS(Int)=  0.00078663
 Iteration  3 RMS(Cart)=  0.00000238 RMS(Int)=  0.00078662
 Iteration  4 RMS(Cart)=  0.00000000 RMS(Int)=  0.00078662
 Variable       Old X    -DE/DX   Delta X   Delta X   Delta X     New X
                                 (Linear)    (Quad)   (Total)
    R1        2.41877  -0.01027   0.00000  -0.01380  -0.01380   2.40497
    R2        1.94119  -0.00441   0.00000  -0.00992  -0.00992   1.93127
    R3        2.82087   0.01073   0.00000   0.03115   0.03115   2.85202
    R4        2.09314  -0.00433   0.00000  -0.01269  -0.01269   2.08045
    R5        2.87543   0.01307   0.00000   0.05048   0.05100   2.92642
    R6        2.89239   0.00722   0.00000   0.02824   0.02801   2.92040
    R7        2.07777  -0.00155   0.00000  -0.00442  -0.00442   2.07335
    R8        2.89073   0.01296   0.00000   0.04001   0.04017   2.93090
    R9        2.07655  -0.00372   0.00000  -0.01060  -0.01060   2.06596
   R10        2.06762   0.00074   0.00000   0.00207   0.00207   2.06970
   R11        2.91871   0.00969   0.00000   0.03096   0.03134   2.95006
   R12        2.97242   0.00158   0.00000  -0.00859  -0.01001   2.96241
   R13        2.07027  -0.00423   0.00000  -0.01192  -0.01192   2.05834
   R14        2.77779   0.00529   0.00000   0.01800   0.01893   2.79672
   R15        2.06836   0.00215   0.00000   0.00604   0.00604   2.07439
   R16        2.06337   0.00304   0.00000   0.00847   0.00847   2.07184
   R17        2.76537   0.00831   0.00000   0.02268   0.02255   2.78791
   R18        1.91913  -0.00014   0.00000  -0.00029  -0.00029   1.91884
   R19        2.89279   0.01213   0.00000   0.03769   0.03753   2.93031
   R20        2.07145   0.00025   0.00000   0.00070   0.00070   2.07215
   R21        2.07728  -0.00407   0.00000  -0.01161  -0.01161   2.06567
   R22        2.06670   0.00062   0.00000   0.00175   0.00175   2.06845
    A1        1.91768   0.00243   0.00000   0.01405   0.01405   1.93173
    A2        2.12457  -0.00184   0.00000  -0.00785  -0.00787   2.11670
    A3        2.12603   0.00178   0.00000   0.00900   0.00898   2.13501
    A4        2.03240   0.00007   0.00000  -0.00093  -0.00095   2.03145
    A5        1.98185   0.00402   0.00000   0.02576   0.02628   2.00813
    A6        2.00875   0.00376   0.00000   0.01989   0.02046   2.02921
    A7        1.88312   0.00043   0.00000   0.01157   0.01126   1.89438
    A8        1.77116  -0.00314   0.00000   0.01049   0.00660   1.77776
    A9        1.90010  -0.00223   0.00000  -0.02860  -0.02788   1.87222
   A10        1.91524  -0.00344   0.00000  -0.04461  -0.04388   1.87136
   A11        1.77013   0.00313   0.00000   0.04085   0.03854   1.80868
   A12        1.93936  -0.00287   0.00000  -0.04174  -0.04184   1.89752
   A13        1.95936  -0.00052   0.00000   0.00526   0.00604   1.96540
   A14        1.94160  -0.00172   0.00000  -0.00962  -0.00825   1.93335
   A15        1.98543   0.00103   0.00000   0.00648   0.00632   1.99175
   A16        1.86900   0.00080   0.00000  -0.00206  -0.00255   1.86644
   A17        2.02711   0.00279   0.00000   0.04937   0.04959   2.07670
   A18        1.86011   0.00140   0.00000   0.01594   0.01432   1.87443
   A19        1.98853   0.00096   0.00000  -0.00068  -0.00134   1.98719
   A20        1.47368   0.00150   0.00000   0.01706   0.01610   1.48978
   A21        1.96926  -0.00259   0.00000  -0.01479  -0.01499   1.95427
   A22        2.09108  -0.00395   0.00000  -0.06272  -0.06267   2.02840
   A23        1.55872  -0.00111   0.00000  -0.00010  -0.00111   1.55761
   A24        1.99979  -0.00424   0.00000  -0.04551  -0.04480   1.95499
   A25        2.00213   0.00500   0.00000   0.04464   0.04491   2.04704
   A26        1.97750   0.00279   0.00000   0.02717   0.02722   2.00473
   A27        2.00121  -0.00094   0.00000  -0.00896  -0.00871   1.99250
   A28        1.90695  -0.00130   0.00000  -0.01382  -0.01368   1.89327
   A29        1.59087   0.00055   0.00000   0.01181   0.01008   1.60095
   A30        2.03367   0.00146   0.00000   0.01723   0.01812   2.05179
   A31        2.04758  -0.00118   0.00000  -0.00496  -0.00484   2.04274
   A32        1.54382   0.00080   0.00000   0.01240   0.01235   1.55617
   A33        1.78371  -0.00063   0.00000   0.01065   0.00998   1.79369
   A34        2.12304  -0.00073   0.00000  -0.03082  -0.03100   2.09204
   A35        2.08534   0.00145   0.00000   0.00725   0.00747   2.09281
   A36        1.98410  -0.00036   0.00000   0.00471   0.00494   1.98904
   A37        1.92095  -0.00036   0.00000  -0.00422  -0.00418   1.91677
   A38        1.72862   0.00638   0.00000   0.06359   0.06107   1.78969
   A39        1.94513  -0.00349   0.00000  -0.05130  -0.05144   1.89369
   A40        1.95351  -0.00067   0.00000   0.02135   0.02257   1.97608
   A41        1.96087  -0.00307   0.00000  -0.02487  -0.02304   1.93783
   A42        1.99451  -0.00081   0.00000  -0.00477  -0.00638   1.98813
   A43        1.88006   0.00158   0.00000  -0.00276  -0.00315   1.87690
    D1        3.12864  -0.00011   0.00000   0.00018   0.00021   3.12886
    D2        0.00874  -0.00044   0.00000  -0.01223  -0.01226  -0.00352
    D3       -1.13118  -0.00088   0.00000  -0.03546  -0.03432  -1.16550
    D4        0.89951   0.00065   0.00000   0.01167   0.01063   0.91014
    D5        3.04433  -0.00091   0.00000  -0.02382  -0.02389   3.02044
    D6        1.98982  -0.00054   0.00000  -0.02355  -0.02243   1.96740
    D7       -2.26267   0.00098   0.00000   0.02358   0.02252  -2.24015
    D8       -0.11784  -0.00058   0.00000  -0.01191  -0.01200  -0.12985
    D9        2.94636  -0.00272   0.00000  -0.07563  -0.07576   2.87060
   D10        0.88138  -0.00118   0.00000  -0.06859  -0.06802   0.81335
   D11       -1.21120   0.00015   0.00000  -0.04056  -0.04049  -1.25168
   D12        0.78046  -0.00738   0.00000  -0.12072  -0.12082   0.65964
   D13       -1.28452  -0.00584   0.00000  -0.11368  -0.11308  -1.39760
   D14        2.90609  -0.00451   0.00000  -0.08566  -0.08555   2.82055
   D15       -1.23874  -0.00113   0.00000  -0.06433  -0.06445  -1.30319
   D16        2.97946   0.00040   0.00000  -0.05729  -0.05672   2.92275
   D17        0.88689   0.00173   0.00000  -0.02927  -0.02918   0.85771
   D18       -3.09732   0.00197   0.00000   0.07436   0.07500  -3.02232
   D19       -1.03018   0.00048   0.00000   0.05960   0.05901  -0.97117
   D20        1.07655  -0.00040   0.00000   0.03493   0.03440   1.11096
   D21       -0.94974   0.00681   0.00000   0.12423   0.12458  -0.82516
   D22        1.11739   0.00532   0.00000   0.10947   0.10860   1.22599
   D23       -3.05906   0.00444   0.00000   0.08480   0.08399  -2.97507
   D24        1.05828   0.00139   0.00000   0.07952   0.08004   1.13833
   D25        3.12542  -0.00010   0.00000   0.06475   0.06405  -3.09371
   D26       -1.05103  -0.00098   0.00000   0.04009   0.03945  -1.01158
   D27       -1.92185  -0.00013   0.00000   0.01637   0.01791  -1.90394
   D28       -0.31763   0.00318   0.00000   0.05961   0.06119  -0.25644
   D29        2.02800  -0.00020   0.00000  -0.01337  -0.01288   2.01513
   D30        0.14152  -0.00249   0.00000  -0.01376  -0.01329   0.12823
   D31        1.74574   0.00082   0.00000   0.02949   0.02999   1.77573
   D32       -2.19181  -0.00256   0.00000  -0.04350  -0.04408  -2.23589
   D33        2.25395  -0.00200   0.00000  -0.01900  -0.01828   2.23566
   D34       -2.42502   0.00132   0.00000   0.02425   0.02500  -2.40002
   D35       -0.07939  -0.00206   0.00000  -0.04873  -0.04907  -0.12845
   D36        2.17266   0.00024   0.00000  -0.02827  -0.02875   2.14391
   D37        0.15791  -0.00146   0.00000  -0.04932  -0.04956   0.10835
   D38       -2.06871  -0.00028   0.00000  -0.02852  -0.02874  -2.09745
   D39        0.32691  -0.00215   0.00000  -0.05611  -0.05635   0.27057
   D40       -1.68784  -0.00385   0.00000  -0.07715  -0.07715  -1.76499
   D41        2.36873  -0.00267   0.00000  -0.05635  -0.05634   2.31239
   D42       -1.76855   0.00186   0.00000   0.00704   0.00690  -1.76165
   D43        2.49989   0.00016   0.00000  -0.01400  -0.01390   2.48599
   D44        0.27327   0.00133   0.00000   0.00680   0.00691   0.28018
   D45       -2.34707  -0.00084   0.00000   0.00017  -0.00047  -2.34753
   D46       -0.25514   0.00078   0.00000   0.01151   0.01128  -0.24385
   D47        1.89260  -0.00073   0.00000  -0.00516  -0.00574   1.88686
   D48       -0.32854   0.00255   0.00000   0.05711   0.05709  -0.27145
   D49        1.76339   0.00416   0.00000   0.06844   0.06884   1.83223
   D50       -2.37205   0.00265   0.00000   0.05178   0.05181  -2.32024
   D51        1.64667  -0.00013   0.00000   0.04113   0.04079   1.68746
   D52       -2.54459   0.00149   0.00000   0.05246   0.05255  -2.49204
   D53       -0.39685  -0.00002   0.00000   0.03580   0.03552  -0.36133
   D54       -0.35076   0.00317   0.00000   0.06390   0.06362  -0.28713
   D55       -2.47193   0.00373   0.00000   0.05695   0.05685  -2.41509
   D56        1.68427  -0.00149   0.00000   0.01895   0.01859   1.70286
   D57       -0.43691  -0.00093   0.00000   0.01200   0.01181  -0.42510
   D58       -2.39339  -0.00167   0.00000   0.01583   0.01580  -2.37759
   D59        1.76861  -0.00110   0.00000   0.00887   0.00903   1.77764
   D60        0.34426  -0.00212   0.00000  -0.05790  -0.05835   0.28591
   D61       -1.45613  -0.00200   0.00000  -0.07807  -0.07796  -1.53409
   D62        2.51090  -0.00262   0.00000  -0.08494  -0.08556   2.42534
   D63        2.45378  -0.00046   0.00000  -0.03208  -0.03248   2.42130
   D64        0.65339  -0.00034   0.00000  -0.05225  -0.05209   0.60130
   D65       -1.66277  -0.00096   0.00000  -0.05912  -0.05968  -1.72245
   D66        0.71908  -0.00148   0.00000  -0.06368  -0.06575   0.65333
   D67       -1.33620   0.00025   0.00000  -0.02962  -0.02996  -1.36616
   D68        2.79808   0.00124   0.00000  -0.00209  -0.00296   2.79513
   D69        2.38053  -0.00052   0.00000  -0.04084  -0.04307   2.33746
   D70        0.32524   0.00121   0.00000  -0.00679  -0.00728   0.31796
   D71       -1.82366   0.00220   0.00000   0.02074   0.01973  -1.80393
   D72       -1.55975   0.00004   0.00000  -0.03062  -0.03215  -1.59190
   D73        2.66815   0.00177   0.00000   0.00343   0.00365   2.67179
   D74        0.51925   0.00276   0.00000   0.03096   0.03065   0.54990
         Item               Value     Threshold  Converged?
 Maximum Force            0.013068     0.000450     NO 
 RMS     Force            0.003508     0.000300     NO 
 Maximum Displacement     0.231470     0.001800     NO 
 RMS     Displacement     0.060674     0.001200     NO 
 Predicted change in Energy=-8.084257D-03
 GradGradGradGradGradGradGradGradGradGradGradGradGradGradGradGradGradGrad

                          Input orientation:                          
 ---------------------------------------------------------------------
 Center     Atomic      Atomic             Coordinates (Angstroms)
 Number     Number       Type             X           Y           Z
 ---------------------------------------------------------------------
      1          7           0        0.839092    0.064388    0.136375
      2          6           0        2.108981    0.067046    0.220201
      3          6           0        2.973380   -0.279572   -0.967415
      4          6           0        2.875353   -1.750044   -1.443078
      5          6           0        3.512015   -1.720000   -2.857025
      6          6           0        2.591635   -1.899704   -4.105083
      7          7           0        3.070617   -0.598029   -4.621315
      8          6           0        3.602402   -0.218543   -3.298550
      9          6           0        2.685355    0.496247   -2.272571
     10          1           0        0.417599    0.310035    1.034404
     11          1           0        2.636765    0.311178    1.155017
     12          1           0        4.021477   -0.092058   -0.702630
     13          1           0        1.820338   -2.031207   -1.498784
     14          1           0        3.355868   -2.449479   -0.750663
     15          1           0        4.429022   -2.301960   -2.939731
     16          1           0        1.528677   -1.925076   -3.832192
     17          1           0        2.801071   -2.749083   -4.765927
     18          1           0        2.384263    0.023224   -5.038466
     19          1           0        4.577536    0.281452   -3.337306
     20          1           0        1.631194    0.363564   -2.529512
     21          1           0        2.870799    1.571471   -2.185367
 ---------------------------------------------------------------------
                    Distance matrix (angstroms):
                    1          2          3          4          5
     1  N    0.000000
     2  C    1.272655   0.000000
     3  C    2.427312   1.509225   0.000000
     4  C    3.151696   2.579852   1.548597   0.000000
     5  C    4.391924   3.825096   2.436306   1.550964   0.000000
     6  C    4.991895   4.775891   3.551833   2.681262   1.561102
     7  N    5.296613   4.980697   3.669040   3.386216   2.136907
     8  C    4.417538   3.833207   2.415281   2.513339   1.567638
     9  C    3.065650   2.594289   1.545408   2.402079   2.436536
    10  H    1.021986   1.892814   3.299535   4.052455   5.370259
    11  H    2.080905   1.100925   2.228679   3.325004   4.581291
    12  H    3.294841   2.129453   1.097169   2.147273   2.747939
    13  H    2.833391   2.727800   2.163351   1.093258   2.191676
    14  H    3.666131   2.971565   2.213995   1.095236   2.234565
    15  H    5.286740   4.580387   3.177888   2.226762   1.089228
    16  H    4.492551   4.552713   3.605801   2.748098   2.219603
    17  H    5.983105   5.768106   4.533969   3.470580   2.282183
    18  H    5.400762   5.266050   4.124585   4.038869   3.011534
    19  H    5.107792   4.335388   2.916239   3.257685   2.317718
    20  H    2.797121   2.806621   2.157599   2.682463   2.825949
    21  H    3.433601   2.937757   2.218173   3.403450   3.419951
                    6          7          8          9         10
     6  C    0.000000
     7  N    1.479959   0.000000
     8  C    2.120955   1.475301   0.000000
     9  C    3.017858   2.619630   1.550656   0.000000
    10  H    6.001975   6.312704   5.403411   4.014159   0.000000
    11  H    5.706021   5.863522   4.587735   3.432925   2.222441
    12  H    4.109589   4.064017   2.632570   2.143839   4.020809
    13  H    2.721210   3.656145   3.114589   2.781192   3.723726
    14  H    3.484025   4.300137   3.395524   3.382764   4.408492
    15  H    2.212656   2.752521   2.269951   3.363843   6.221557
    16  H    1.097721   2.182051   2.738132   3.103728   5.469367
    17  H    1.096369   2.172695   3.032979   4.094189   6.977319
    18  H    2.147524   1.015407   2.137668   2.822159   6.389819
    19  H    3.048070   2.166327   1.096533   2.181777   6.034712
    20  H    2.920145   2.715186   2.194522   1.093105   3.765259
    21  H    3.976468   3.268104   2.231271   1.094578   4.239850
                   11         12         13         14         15
    11  H    0.000000
    12  H    2.351782   0.000000
    13  H    3.632627   3.039601   0.000000
    14  H    3.430736   2.450056   1.758548   0.000000
    15  H    5.177608   3.170864   2.992468   2.442424   0.000000
    16  H    5.576822   4.400928   2.353959   3.620697   3.057864
    17  H    6.667066   5.005953   3.485887   4.064469   2.486993
    18  H    6.205313   4.636080   4.131349   5.044158   3.740616
    19  H    4.893715   2.718498   4.041126   3.954893   2.618042
    20  H    3.819642   3.042785   2.614020   3.748601   3.886018
    21  H    3.577887   2.507967   3.814991   4.296708   4.242711
                   16         17         18         19         20
    16  H    0.000000
    17  H    1.780403   0.000000
    18  H    2.446016   2.816681   0.000000
    19  H    3.795948   3.792220   2.787665   0.000000
    20  H    2.635404   4.007335   2.641552   3.056175   0.000000
    21  H    4.091353   5.033025   3.282372   2.429829   1.764680
                   21
    21  H    0.000000
 Stoichiometry    C7H12N2
 Framework group  C1[X(C7H12N2)]
 Deg. of freedom    57
 Full point group                 C1      NOp   1
 Largest Abelian subgroup         C1      NOp   1
 Largest concise Abelian subgroup C1      NOp   1
                         Standard orientation:                         
 ---------------------------------------------------------------------
 Center     Atomic      Atomic             Coordinates (Angstroms)
 Number     Number       Type             X           Y           Z
 ---------------------------------------------------------------------
      1          7           0       -2.828905   -0.116838    1.011547
      2          6           0       -2.515931   -0.037839   -0.219492
      3          6           0       -1.072973   -0.007331   -0.660743
      4          6           0       -0.285915    1.259129   -0.242687
      5          6           0        1.196448    0.853999   -0.452353
      6          6           0        2.102708    0.626611    0.798258
      7          7           0        2.384642   -0.745320    0.320139
      8          6           0        1.238658   -0.705311   -0.608103
      9          6           0       -0.168090   -1.136861   -0.118861
     10          1           0       -3.844379   -0.113649    1.126696
     11          1           0       -3.272849    0.020341   -1.016817
     12          1           0       -1.041837   -0.063422   -1.756035
     13          1           0       -0.486272    1.464446    0.812261
     14          1           0       -0.590501    2.148677   -0.804357
     15          1           0        1.705159    1.428759   -1.225194
     16          1           0        1.532683    0.680951    1.734800
     17          1           0        2.992583    1.259551    0.895901
     18          1           0        2.394246   -1.490486    1.009839
     19          1           0        1.444126   -1.150736   -1.588798
     20          1           0       -0.222506   -1.131268    0.972874
     21          1           0       -0.470043   -2.132441   -0.459073
 ---------------------------------------------------------------------
 Rotational constants (GHZ):           3.7125645           1.0636827           1.0033726
 Standard basis: 6-31G(2df,p) (6D, 7F)
 There are   339 symmetry adapted cartesian basis functions of A   symmetry.
 There are   312 symmetry adapted basis functions of A   symmetry.
   312 basis functions,   480 primitive gaussians,   339 cartesian basis functions
    34 alpha electrons       34 beta electrons
       nuclear repulsion energy       458.2604888457 Hartrees.
 NAtoms=   21 NActive=   21 NUniq=   21 SFac= 1.00D+00 NAtFMM=   60 NAOKFM=F Big=F
 Integral buffers will be    131072 words long.
 Raffenetti 2 integral format.
 Two-electron integral symmetry is turned on.
 One-electron integrals computed using PRISM.
 PrsmSu:  requested number of processors reduced to:  13 ShMem   1 Linda.
 NBasis=   312 RedAO= T EigKep=  2.78D-04  NBF=   312
 NBsUse=   312 1.00D-06 EigRej= -1.00D+00 NBFU=   312
 Initial guess from the checkpoint file:  "NdCC1CC2CNC2C1.chk"
 B after Tr=    -0.000000    0.000000    0.000000
         Rot=    0.999977   -0.006238   -0.001093    0.002380 Ang=  -0.78 deg.
 ExpMin= 1.61D-01 ExpMax= 4.17D+03 ExpMxC= 6.27D+02 IAcc=2 IRadAn=         4 AccDes= 0.00D+00
 Harris functional with IExCor=  402 and IRadAn=       4 diagonalized for initial guess.
 HarFok:  IExCor=  402 AccDes= 0.00D+00 IRadAn=         4 IDoV= 1 UseB2=F ITyADJ=14
 ICtDFT=  3500011 ScaDFX=  1.000000  1.000000  1.000000  1.000000
 FoFCou: FMM=F IPFlag=           0 FMFlag=      100000 FMFlg1=           0
         NFxFlg=           0 DoJE=T BraDBF=F KetDBF=T FulRan=T
         wScrn=  0.000000 ICntrl=       500 IOpCl=  0 I1Cent=   200000004 NGrid=           0
         NMat0=    1 NMatS0=      1 NMatT0=    0 NMatD0=    1 NMtDS0=    0 NMtDT0=    0
 Petite list used in FoFCou.
 Requested convergence on RMS density matrix=1.00D-08 within 128 cycles.
 Requested convergence on MAX density matrix=1.00D-06.
 Requested convergence on             energy=1.00D-06.
 No special actions if energy rises.
 Integral accuracy reduced to 1.0D-05 until final iterations.
 Initial convergence to 1.0D-05 achieved.  Increase integral accuracy.
 SCF Done:  E(RB3LYP) =  -383.434620129     A.U. after   11 cycles
            NFock= 11  Conv=0.55D-08     -V/T= 2.0084
 PrsmSu:  requested number of processors reduced to:  13 ShMem   1 Linda.
 Calling FoFJK, ICntrl=      2127 FMM=F ISym2X=0 I1Cent= 0 IOpClX= 0 NMat=1 NMatS=1 NMatT=0.
 ***** Axes restored to original set *****
 -------------------------------------------------------------------
 Center     Atomic                   Forces (Hartrees/Bohr)
 Number     Number              X              Y              Z
 -------------------------------------------------------------------
      1        7           0.002853487   -0.000071066   -0.000241713
      2        6          -0.004432124   -0.000188758   -0.000789629
      3        6           0.002654365    0.001585731   -0.001234652
      4        6           0.001633937   -0.003101619   -0.003062713
      5        6          -0.004592279    0.001365837    0.001722092
      6        6           0.001042965    0.000753901    0.001037024
      7        7           0.001166014    0.001334224   -0.001475032
      8        6          -0.003005542   -0.001903198    0.003408655
      9        6           0.001229723    0.001618189   -0.000493517
     10        1          -0.000295134   -0.000044368   -0.000488773
     11        1           0.000795343   -0.000581174   -0.001214668
     12        1           0.000243243    0.000818064    0.002250723
     13        1          -0.001149790   -0.000052568    0.000463446
     14        1           0.001225958    0.000723033   -0.001460773
     15        1           0.001770507    0.001407023    0.000947366
     16        1          -0.000950041   -0.000772696    0.000073526
     17        1           0.000365842    0.000788405    0.000132292
     18        1          -0.001077727   -0.000917497    0.001954871
     19        1           0.000955048   -0.002474289   -0.000771203
     20        1          -0.001505472    0.000236964   -0.000525402
     21        1           0.001071675   -0.000524139   -0.000231919
 -------------------------------------------------------------------
 Cartesian Forces:  Max     0.004592279 RMS     0.001613266

 GradGradGradGradGradGradGradGradGradGradGradGradGradGradGradGradGradGrad
 Berny optimization.
 Using GEDIIS/GDIIS optimizer.
 FormGI is forming the generalized inverse of G from B-inverse, IUseBI=4.
 Internal  Forces:  Max     0.004829755 RMS     0.000872194
 Search for a local minimum.
 Step number   2 out of a maximum of  126
 All quantities printed in internal units (Hartrees-Bohrs-Radians)
 Mixed Optimization -- En-DIIS/RFO-DIIS
 Update second derivatives using D2CorX and points    1    2
 DE= -6.85D-03 DEPred=-8.08D-03 R= 8.48D-01
 TightC=F SS=  1.41D+00  RLast= 4.90D-01 DXNew= 5.0454D-01 1.4689D+00
 Trust test= 8.48D-01 RLast= 4.90D-01 DXMaxT set to 5.05D-01
 ITU=  1  0
 Use linear search instead of GDIIS.
     Eigenvalues ---    0.00498   0.00702   0.00862   0.01473   0.01522
     Eigenvalues ---    0.02103   0.02637   0.02784   0.03280   0.03487
     Eigenvalues ---    0.03879   0.04157   0.04556   0.04794   0.05140
     Eigenvalues ---    0.05222   0.05540   0.05731   0.06074   0.06244
     Eigenvalues ---    0.06447   0.06653   0.06777   0.07006   0.07521
     Eigenvalues ---    0.08409   0.08603   0.09487   0.09918   0.13633
     Eigenvalues ---    0.15843   0.15943   0.16027   0.17868   0.19490
     Eigenvalues ---    0.21955   0.25966   0.26550   0.27706   0.28370
     Eigenvalues ---    0.30737   0.32641   0.32777   0.33316   0.33739
     Eigenvalues ---    0.33787   0.33856   0.34106   0.34155   0.34218
     Eigenvalues ---    0.34321   0.34390   0.34552   0.35131   0.43159
     Eigenvalues ---    0.45060   0.72565
 RFO step:  Lambda=-2.04290191D-03 EMin= 4.97684265D-03
 Quartic linear search produced a step of  0.09755.
 Iteration  1 RMS(Cart)=  0.05494173 RMS(Int)=  0.00107459
 Iteration  2 RMS(Cart)=  0.00163422 RMS(Int)=  0.00025210
 Iteration  3 RMS(Cart)=  0.00000095 RMS(Int)=  0.00025210
 Variable       Old X    -DE/DX   Delta X   Delta X   Delta X     New X
                                 (Linear)    (Quad)   (Total)
    R1        2.40497  -0.00250  -0.00135  -0.00262  -0.00397   2.40100
    R2        1.93127  -0.00032  -0.00097  -0.00003  -0.00099   1.93028
    R3        2.85202  -0.00174   0.00304  -0.00803  -0.00499   2.84703
    R4        2.08045  -0.00078  -0.00124  -0.00156  -0.00280   2.07765
    R5        2.92642   0.00132   0.00497   0.00542   0.01065   2.93708
    R6        2.92040  -0.00109   0.00273  -0.00200   0.00067   2.92107
    R7        2.07335   0.00092  -0.00043   0.00325   0.00282   2.07617
    R8        2.93090  -0.00483   0.00392  -0.02285  -0.01888   2.91202
    R9        2.06596   0.00110  -0.00103   0.00431   0.00327   2.06923
   R10        2.06970  -0.00085   0.00020  -0.00281  -0.00260   2.06709
   R11        2.95006  -0.00094   0.00306  -0.00747  -0.00435   2.94571
   R12        2.96241  -0.00174  -0.00098  -0.01447  -0.01604   2.94637
   R13        2.05834   0.00067  -0.00116   0.00302   0.00185   2.06020
   R14        2.79672  -0.00076   0.00185  -0.00246  -0.00023   2.79649
   R15        2.07439   0.00096   0.00059   0.00252   0.00311   2.07750
   R16        2.07184  -0.00062   0.00083  -0.00258  -0.00175   2.07008
   R17        2.78791  -0.00108   0.00220  -0.00401  -0.00181   2.78611
   R18        1.91884  -0.00064  -0.00003  -0.00149  -0.00152   1.91732
   R19        2.93031  -0.00235   0.00366  -0.01228  -0.00870   2.92162
   R20        2.07215  -0.00025   0.00007  -0.00084  -0.00078   2.07137
   R21        2.06567   0.00155  -0.00113   0.00581   0.00468   2.07034
   R22        2.06845  -0.00035   0.00017  -0.00123  -0.00106   2.06739
    A1        1.93173   0.00091   0.00137   0.00493   0.00630   1.93803
    A2        2.11670  -0.00112  -0.00077  -0.00480  -0.00557   2.11112
    A3        2.13501   0.00195   0.00088   0.01126   0.01213   2.14714
    A4        2.03145  -0.00083  -0.00009  -0.00647  -0.00656   2.02488
    A5        2.00813  -0.00042   0.00256  -0.01963  -0.01682   1.99131
    A6        2.02921  -0.00099   0.00200  -0.02244  -0.02003   2.00918
    A7        1.89438   0.00034   0.00110  -0.00012   0.00097   1.89535
    A8        1.77776   0.00066   0.00064   0.01598   0.01540   1.79316
    A9        1.87222   0.00010  -0.00272   0.01399   0.01131   1.88353
   A10        1.87136   0.00041  -0.00428   0.01740   0.01303   1.88439
   A11        1.80868  -0.00079   0.00376   0.00452   0.00753   1.81621
   A12        1.89752   0.00014  -0.00408   0.00129  -0.00270   1.89482
   A13        1.96540   0.00036   0.00059  -0.00218  -0.00129   1.96411
   A14        1.93335   0.00005  -0.00080   0.00219   0.00157   1.93492
   A15        1.99175  -0.00003   0.00062  -0.01176  -0.01091   1.98084
   A16        1.86644   0.00026  -0.00025   0.00620   0.00581   1.87226
   A17        2.07670  -0.00066   0.00484  -0.00222   0.00277   2.07947
   A18        1.87443   0.00074   0.00140   0.00521   0.00624   1.88067
   A19        1.98719  -0.00005  -0.00013  -0.00482  -0.00518   1.98201
   A20        1.48978   0.00015   0.00157   0.00534   0.00660   1.49638
   A21        1.95427   0.00074  -0.00146   0.01478   0.01340   1.96767
   A22        2.02840  -0.00098  -0.00611  -0.01861  -0.02464   2.00376
   A23        1.55761  -0.00020  -0.00011   0.00297   0.00246   1.56007
   A24        1.95499  -0.00006  -0.00437   0.00209  -0.00213   1.95287
   A25        2.04704   0.00021   0.00438  -0.00269   0.00179   2.04883
   A26        2.00473   0.00073   0.00266   0.00350   0.00613   2.01086
   A27        1.99250  -0.00056  -0.00085  -0.00525  -0.00586   1.98664
   A28        1.89327  -0.00009  -0.00133  -0.00009  -0.00146   1.89181
   A29        1.60095  -0.00009   0.00098   0.00070   0.00098   1.60193
   A30        2.05179  -0.00002   0.00177  -0.01236  -0.01041   2.04137
   A31        2.04274  -0.00024  -0.00047  -0.00634  -0.00669   2.03605
   A32        1.55617   0.00019   0.00120   0.00596   0.00715   1.56332
   A33        1.79369   0.00108   0.00097   0.01759   0.01832   1.81200
   A34        2.09204  -0.00120  -0.00302  -0.01980  -0.02286   2.06918
   A35        2.09281  -0.00102   0.00073  -0.01121  -0.01042   2.08240
   A36        1.98904   0.00010   0.00048  -0.00490  -0.00441   1.98463
   A37        1.91677   0.00065  -0.00041   0.01034   0.01010   1.92688
   A38        1.78969  -0.00141   0.00596   0.00429   0.00912   1.79881
   A39        1.89369   0.00079  -0.00502   0.00354  -0.00141   1.89228
   A40        1.97608   0.00030   0.00220  -0.00139   0.00143   1.97751
   A41        1.93783  -0.00038  -0.00225  -0.00411  -0.00589   1.93194
   A42        1.98813   0.00076  -0.00062  -0.00394  -0.00454   1.98359
   A43        1.87690  -0.00007  -0.00031   0.00179   0.00127   1.87817
    D1        3.12886   0.00006   0.00002   0.00175   0.00177   3.13063
    D2       -0.00352   0.00008  -0.00120   0.00376   0.00257  -0.00095
    D3       -1.16550   0.00001  -0.00335  -0.00319  -0.00635  -1.17185
    D4        0.91014  -0.00023   0.00104  -0.01544  -0.01457   0.89557
    D5        3.02044  -0.00010  -0.00233  -0.00815  -0.01050   3.00994
    D6        1.96740  -0.00000  -0.00219  -0.00500  -0.00700   1.96040
    D7       -2.24015  -0.00023   0.00220  -0.01725  -0.01522  -2.25537
    D8       -0.12985  -0.00010  -0.00117  -0.00996  -0.01115  -0.14100
    D9        2.87060  -0.00114  -0.00739  -0.06267  -0.07022   2.80038
   D10        0.81335  -0.00085  -0.00664  -0.06809  -0.07465   0.73870
   D11       -1.25168  -0.00149  -0.00395  -0.07531  -0.07933  -1.33101
   D12        0.65964  -0.00013  -0.01179  -0.03421  -0.04614   0.61351
   D13       -1.39760   0.00016  -0.01103  -0.03962  -0.05057  -1.44817
   D14        2.82055  -0.00047  -0.00835  -0.04685  -0.05524   2.76530
   D15       -1.30319  -0.00090  -0.00629  -0.06519  -0.07163  -1.37482
   D16        2.92275  -0.00061  -0.00553  -0.07061  -0.07606   2.84669
   D17        0.85771  -0.00125  -0.00285  -0.07783  -0.08073   0.77698
   D18       -3.02232   0.00133   0.00732   0.07797   0.08535  -2.93697
   D19       -0.97117   0.00054   0.00576   0.07692   0.08254  -0.88863
   D20        1.11096   0.00117   0.00336   0.08070   0.08406   1.19502
   D21       -0.82516   0.00069   0.01215   0.05129   0.06336  -0.76180
   D22        1.22599  -0.00010   0.01059   0.05024   0.06055   1.28653
   D23       -2.97507   0.00052   0.00819   0.05403   0.06207  -2.91300
   D24        1.13833   0.00122   0.00781   0.07970   0.08756   1.22589
   D25       -3.09371   0.00043   0.00625   0.07865   0.08475  -3.00896
   D26       -1.01158   0.00106   0.00385   0.08244   0.08628  -0.92531
   D27       -1.90394  -0.00003   0.00175   0.00189   0.00403  -1.89991
   D28       -0.25644   0.00034   0.00597   0.01051   0.01660  -0.23983
   D29        2.01513  -0.00040  -0.00126  -0.01390  -0.01511   2.00001
   D30        0.12823  -0.00027  -0.00130   0.00686   0.00573   0.13396
   D31        1.77573   0.00010   0.00293   0.01548   0.01831   1.79404
   D32       -2.23589  -0.00064  -0.00430  -0.00894  -0.01341  -2.24930
   D33        2.23566   0.00008  -0.00178   0.00826   0.00676   2.24243
   D34       -2.40002   0.00045   0.00244   0.01688   0.01934  -2.38068
   D35       -0.12845  -0.00029  -0.00479  -0.00754  -0.01237  -0.14083
   D36        2.14391   0.00079  -0.00280  -0.01642  -0.01961   2.12429
   D37        0.10835   0.00009  -0.00483  -0.02197  -0.02702   0.08134
   D38       -2.09745   0.00009  -0.00280  -0.02143  -0.02451  -2.12197
   D39        0.27057  -0.00009  -0.00550  -0.02516  -0.03073   0.23983
   D40       -1.76499  -0.00079  -0.00753  -0.03070  -0.03813  -1.80312
   D41        2.31239  -0.00079  -0.00550  -0.03017  -0.03563   2.27676
   D42       -1.76165   0.00084   0.00067  -0.00880  -0.00821  -1.76986
   D43        2.48599   0.00014  -0.00136  -0.01435  -0.01561   2.47037
   D44        0.28018   0.00013   0.00067  -0.01381  -0.01311   0.26707
   D45       -2.34753   0.00064  -0.00005   0.02535   0.02514  -2.32239
   D46       -0.24385  -0.00023   0.00110   0.01735   0.01857  -0.22529
   D47        1.88686   0.00075  -0.00056   0.03291   0.03216   1.91902
   D48       -0.27145   0.00006   0.00557   0.02510   0.03071  -0.24074
   D49        1.83223  -0.00082   0.00672   0.01710   0.02414   1.85637
   D50       -2.32024   0.00016   0.00505   0.03267   0.03773  -2.28251
   D51        1.68746   0.00085   0.00398   0.04221   0.04600   1.73346
   D52       -2.49204  -0.00003   0.00513   0.03421   0.03942  -2.45262
   D53       -0.36133   0.00095   0.00346   0.04978   0.05302  -0.30831
   D54       -0.28713   0.00015   0.00621   0.02766   0.03380  -0.25333
   D55       -2.41509   0.00050   0.00555   0.03918   0.04475  -2.37034
   D56        1.70286   0.00012   0.00181   0.03217   0.03386   1.73671
   D57       -0.42510   0.00047   0.00115   0.04369   0.04481  -0.38029
   D58       -2.37759   0.00015   0.00154   0.03043   0.03196  -2.34564
   D59        1.77764   0.00050   0.00088   0.04195   0.04291   1.82055
   D60        0.28591  -0.00007  -0.00569  -0.02686  -0.03264   0.25327
   D61       -1.53409  -0.00130  -0.00761  -0.04934  -0.05659  -1.59068
   D62        2.42534  -0.00130  -0.00835  -0.04738  -0.05583   2.36952
[...]
 4432,-0.00003341,0.00009368,-0.00002194,0.00001737,-0.00023772,-0.0000
 0639,0.00022061,0.00052863,-0.01575891,0.03943001,0.18639176,-0.016584
 90,-0.31045489,-0.01273602,0.01183223,-0.00546991,0.00410557,0.0041555
 5,0.00345748,-0.00035521,-0.00011462,0.00087667,-0.00010752,0.00026285
 ,0.00000612,0.00000955,0.00012455,0.00001649,-0.00001312,-0.00010953,-
 0.00018711,0.00011538,0.00025949,0.00045170,0.00003732,-0.00049820,0.0
 0024787,-0.17453033,0.00562521,0.30828391,-0.00230950,0.03443709,-0.02
 135727,-0.06420264,0.01904571,-0.02787150,0.00712329,-0.00816989,0.017
 67293,0.00021834,0.00004289,-0.00026562,-0.00015910,-0.00034646,0.0001
 2944,0.00001935,-0.00015225,0.00003312,-0.00012486,0.00030515,0.000573
 02,0.00055606,-0.00051161,0.00070545,-0.00215750,0.00260589,0.00221599
 ,-0.00157495,-0.00601171,-0.00376551,0.06179025,0.02505516,0.00096101,
 0.02763223,0.02002514,-0.11160241,0.09592142,0.00218992,0.00601912,-0.
 00224185,-0.00065320,0.00034108,0.00109033,-0.00011983,0.00029081,0.00
 043004,-0.00005086,0.00000279,0.00008377,0.00002754,0.00010319,0.00009
 829,0.00001722,0.00028445,-0.00035574,0.00129859,0.00119477,-0.0005909
 3,-0.00644526,-0.00551181,-0.00388457,-0.04151065,0.10801124,0.0002625
 7,0.01140180,0.00495285,-0.02971565,0.09719479,-0.22580200,-0.00560848
 ,0.01537343,-0.01791502,-0.00040135,0.00093123,0.00101391,0.00003978,0
 .00007193,-0.00015242,0.00002323,0.00029710,-0.00011557,0.00016338,-0.
 00049370,-0.00068994,-0.00086322,0.00097739,-0.00032810,0.00442189,-0.
 00209824,-0.00073461,-0.00282828,-0.00447304,0.00295801,0.03349477,-0.
 11782654,0.23645547,-0.00186380,-0.00162634,0.00308150,-0.02394198,-0.
 00259814,-0.00859729,-0.25153662,-0.04878719,-0.07365613,-0.00036487,-
 0.00034860,-0.00014769,0.00019460,-0.00010510,-0.00021711,0.00004588,0
 .00007461,-0.00011680,0.00013525,-0.00010386,-0.00022879,-0.00002043,0
 .00002808,0.00008266,-0.00528281,-0.00035249,-0.00243330,0.00047686,0.
 00199796,0.00107912,0.00114886,0.00032710,0.00101179,0.27679239,0.0004
 5628,0.00072545,-0.00044524,0.00740281,0.00043275,0.00075482,-0.047180
 64,-0.04921771,-0.01474333,-0.02995145,-0.01439912,-0.01085752,-0.0001
 9319,0.00015411,0.00113243,-0.00027634,-0.00005963,0.00015989,-0.00000
 254,0.00030385,0.00005692,0.00038859,0.00023158,-0.00071683,0.01755552
 ,0.00227080,0.00760241,-0.00032917,-0.00083502,-0.00071484,-0.00028652
 ,0.00004093,0.00008393,0.05057902,0.06409531,0.00244864,0.00001849,-0.
 00236701,0.02418443,0.00469542,0.00927541,-0.07135734,-0.01508464,-0.0
 7562306,-0.00924450,-0.00236215,-0.00230160,0.00007545,-0.00013314,0.0
 0064337,-0.00001437,0.00019193,0.00012857,0.00050489,-0.00008680,-0.00
 004307,-0.00088368,0.00061429,0.00075690,-0.02581781,-0.00384463,-0.01
 055698,-0.00083271,-0.00231022,-0.00085193,-0.00157569,-0.00012590,0.0
 0051617,0.08048630,0.01741582,0.08307772,0.00101682,-0.00021443,-0.000
 34499,0.00011117,0.00038193,0.00117246,0.00168428,0.00013785,-0.001059
 67,-0.27250321,-0.08241826,-0.00718381,-0.01130453,-0.00278908,0.00133
 097,0.00103851,-0.00008725,-0.00214377,0.00040218,0.00059033,-0.000257
 99,-0.00141017,0.00057789,-0.00003324,0.00002717,-0.00002728,0.0002182
 8,-0.00003491,-0.00019882,-0.00014572,-0.00001164,-0.00007079,-0.00030
 678,0.00121932,0.00053116,0.00029979,0.29438066,0.00114800,0.00005438,
 0.00033343,-0.00268156,0.00172488,0.00115154,-0.02830756,-0.01241776,-
 0.00439865,-0.08182460,-0.07779465,0.00084975,0.00038419,0.00030217,-0
 .00095888,-0.00004643,0.00060597,0.00022989,0.00014833,0.00046540,-0.0
 0009483,0.00013941,-0.00064740,0.00030821,-0.00051931,0.00125850,-0.00
 039414,-0.00009105,-0.00025178,-0.00011309,0.00006279,-0.00009226,-0.0
 0032822,0.00003711,-0.00567870,-0.00159924,0.09158231,0.08530874,0.000
 26271,0.00000433,-0.00004469,-0.00139045,0.00000012,0.00085697,-0.0108
 3318,-0.00553062,-0.00264519,-0.00741663,0.00021702,-0.04512751,0.0273
 5680,0.01021680,-0.00275911,0.00245488,0.00012263,0.00157628,-0.000351
 40,0.00008792,0.00023407,0.00213020,-0.00052045,-0.00192278,0.00023685
 ,0.00033736,0.00000921,0.00004909,-0.00003521,-0.00002447,0.00000001,0
 .00008216,-0.00018991,0.00032692,-0.00312259,-0.00012156,0.00603423,0.
 00408420,0.05398328,0.00021188,-0.00002731,0.00042537,-0.00002791,0.00
 031990,-0.00096144,-0.00022023,-0.00199701,0.00047656,-0.12569804,0.08
 357631,-0.08832608,0.00629587,-0.00804151,0.00897503,-0.00090555,-0.00
 080853,0.00033616,0.00056067,-0.00023078,0.00010677,-0.00066583,-0.000
 97575,0.00179624,0.00021074,-0.00016508,0.00097214,-0.00009675,-0.0000
 4596,-0.00004483,-0.00004260,-0.00005605,0.00042737,0.00118592,-0.0001
 9958,0.00064108,-0.01666085,0.01839381,-0.01852063,0.13312202,0.000381
 89,-0.00020256,-0.00073429,-0.00082858,-0.00072226,0.00168952,0.015304
 86,-0.01633525,0.01792313,0.08150134,-0.13273292,0.09286336,-0.0004106
 0,0.00072822,-0.00197049,-0.00022129,-0.00032246,-0.00100699,-0.000020
 13,0.00022352,0.00035756,0.00029712,-0.00120281,-0.00063208,-0.0009924
 2,-0.00517922,-0.00187362,0.00026876,0.00016462,-0.00003539,0.00026825
 ,0.00013121,-0.00073740,-0.00031140,0.00192998,0.00042887,-0.00624971,
 0.00741706,-0.00701827,-0.08914923,0.14597830,0.00014586,-0.00022881,-
 0.00012190,-0.00031127,0.00025457,0.00071933,0.00687590,-0.00765790,0.
 00724550,-0.08666471,0.09309172,-0.14414280,-0.01597810,0.01481274,-0.
 01478177,0.00209752,0.00086949,-0.00193732,-0.00095120,0.00080326,-0.0
 0076456,0.00081085,-0.00047891,-0.00230307,0.00073173,-0.00196839,-0.0
 0129283,0.00007340,0.00006733,-0.00004490,0.00003926,0.00000821,-0.000
 07025,0.00020810,0.00080540,0.00094168,-0.00042971,0.00052007,-0.00030
 369,0.09344312,-0.10067554,0.15584290,-0.00003404,0.00008553,0.0000956
 0,0.00017233,0.00037776,-0.00004931,-0.00079951,-0.00037686,0.00049313
 ,-0.00833868,0.00418677,-0.00037971,-0.25869826,0.11009930,0.01926912,
 -0.01560950,0.00771855,0.00409118,0.00006453,0.00085606,-0.00075491,0.
 00524662,-0.00327033,-0.00163839,0.00049774,-0.00128033,0.00045486,-0.
 00005582,-0.00005663,-0.00001557,-0.00001307,-0.00004192,0.00001740,0.
 00008560,0.00012278,0.00001977,-0.00023517,0.00015973,0.00167033,0.001
 43052,-0.00044397,-0.00003719,0.27450643,0.00003649,0.00001150,-0.0000
 3900,-0.00013678,0.00005716,-0.00025451,-0.00018167,-0.00091999,0.0005
 6994,-0.00412657,0.00267425,0.00223055,0.11001786,-0.10258968,-0.01039
 102,-0.01131159,0.00446221,0.00225877,0.00042820,-0.00033389,0.0016283
 2,0.02702828,-0.00911934,-0.00585777,-0.00037185,-0.00412797,0.0021362
 7,0.00000004,0.00004807,-0.00004823,0.00008983,0.00003381,-0.00010953,
 -0.00006874,-0.00006263,-0.00026098,-0.00116756,-0.00015535,0.00078742
 ,-0.00016564,0.00072324,-0.00061496,-0.11882869,0.10687086,0.00022836,
 -0.00027742,-0.00019323,-0.00063586,-0.00066981,0.00022426,0.00127661,
 -0.00024162,-0.00197716,0.02566050,-0.01137776,-0.00303344,0.01887129,
 -0.01013115,-0.04761407,-0.02010699,0.00957224,0.00282437,0.00009702,0
 .00135909,-0.00233896,-0.00589248,0.00195248,-0.00033450,-0.00021921,0
 .00003625,-0.00128834,0.00014787,0.00017366,0.00008934,-0.00001196,0.0
 0008156,0.00004418,-0.00013103,-0.00030130,-0.00006822,0.00186163,-0.0
 0052881,-0.00331664,-0.00037009,-0.00000705,0.00178335,-0.02003622,0.0
 0985352,0.05586025,0.00015153,0.00001448,-0.00000529,-0.00010861,-0.00
 000351,-0.00001830,0.00040878,-0.00003735,-0.00009996,0.00050962,0.000
 19638,0.00232152,-0.01630867,-0.00078610,0.00410431,-0.27115516,-0.029
 09470,0.06449519,0.00088208,-0.00466715,0.00289662,-0.00098265,0.00035
 719,-0.00023940,-0.00074068,0.00015583,-0.00024566,-0.00000056,-0.0000
 0814,-0.00002284,0.00001406,-0.00001254,-0.00005101,0.00002490,0.00023
 541,0.00011186,0.00138351,0.00030394,-0.00138499,0.00050664,0.00022580
 ,0.00025222,-0.00116590,-0.00211853,-0.00188283,0.29333669,0.00005980,
 0.00003145,0.00003528,-0.00005919,0.00011704,-0.00009208,0.00009071,-0
 .00016435,0.00008819,-0.00034576,0.00096081,-0.00017808,-0.00038830,-0
 .00037121,-0.00119001,-0.02683985,-0.05550750,0.00724088,-0.03197805,-
 0.01218006,0.01018349,0.00019551,-0.00059883,0.00362984,-0.00026930,0.
 00012689,-0.00025592,-0.00001284,-0.00001201,-0.00001529,0.00002454,-0
 .00001734,-0.00003116,0.00000613,0.00002397,0.00005551,0.00010508,0.00
 015472,-0.00022276,0.00021101,0.00003970,-0.00020648,0.00025037,-0.000
 12665,0.00072767,0.03785758,0.06043625,-0.00005264,0.00002125,0.000029
 28,0.00008584,0.00004719,-0.00011978,0.00001262,0.00004933,0.00015124,
 -0.00172406,0.00027039,0.00232139,-0.02346654,-0.00252887,0.00592150,0
 .06497275,0.00709764,-0.06749966,0.01200400,0.00757582,-0.00363688,-0.
 00049039,-0.00021998,-0.00324195,-0.00012452,-0.00024726,0.00021046,-0
 .00000492,-0.00001648,0.00001477,-0.00000238,-0.00000662,0.00000909,0.
 00006389,-0.00000093,0.00005338,0.00090788,0.00033177,-0.00008886,0.00
 002393,0.00001280,0.00008212,-0.00273803,-0.00174802,-0.00270673,-0.07
 171181,-0.01029193,0.06966742,0.00017945,-0.00002883,-0.00004134,-0.00
 019657,-0.00021090,0.00012798,0.00037566,-0.00005142,-0.00056564,-0.00
 185947,-0.00174246,-0.00014881,0.00580260,-0.01187154,-0.01197474,-0.0
 7397827,0.05506026,0.04970508,0.00449390,-0.00551637,-0.00402617,-0.00
 206955,-0.00202848,-0.00074467,-0.00016750,-0.00028254,-0.00026939,0.0
 0003817,0.00002157,0.00000078,-0.00001505,-0.00000281,0.00000674,0.000
 00777,0.00011353,0.00005634,0.00037011,0.00031081,-0.00025607,0.000299
 45,0.00007307,-0.00022880,0.00162733,0.00082558,0.00056538,-0.00948847
 ,0.02125943,0.02152722,0.07436105,0.00007868,-0.00002651,-0.00005061,-
 0.00011145,0.00014641,0.00008332,0.00010758,-0.00022565,-0.00008075,0.
 00011107,-0.00032731,0.00059465,-0.00128106,0.00122677,0.00037309,0.05
 473161,-0.16897043,-0.11414282,0.00316020,-0.02534080,-0.00914152,0.00
 085081,-0.00355413,0.00072239,-0.00067119,0.00029201,-0.00092439,-0.00
 001421,0.00000803,-0.00003873,0.00004484,-0.00000338,-0.00009710,-0.00
 001272,0.00000149,-0.00003527,0.00004227,-0.00002229,-0.00008600,0.000
 03337,0.00005053,0.00007212,-0.00045833,0.00075939,-0.00037843,-0.0008
 6685,0.00470966,0.00101236,-0.05520127,0.19528097,0.00022935,-0.000135
 79,-0.00011273,-0.00030651,-0.00025147,0.00032134,0.00022634,0.0001879
 5,-0.00053736,-0.00210515,-0.00105750,-0.00135815,0.01043654,-0.013181
 90,-0.01161994,0.04935920,-0.11727173,-0.15868122,-0.00554026,0.009846
 99,0.01278759,-0.00161005,0.00092956,-0.00026980,0.00054866,-0.0001467
 6,0.00063727,0.00004479,0.00004748,-0.00001646,-0.00001593,0.00003143,
 0.00000523,-0.00002220,0.00002226,-0.00000004,-0.00034074,-0.00000095,
 -0.00005713,-0.00003771,-0.00014082,-0.00074328,0.00050631,0.00100320,
 0.00159880,0.00247066,-0.00657105,-0.00407761,-0.05352864,0.12479107,0
 .16219255,0.00006017,-0.00005530,-0.00009818,0.00002371,-0.00006598,0.
 00012969,0.00002038,0.00015995,0.00042486,0.00002578,0.00048965,0.0007
 0454,0.00078374,-0.00189569,-0.00051673,0.00732032,-0.01108613,0.00831
 744,-0.29714500,0.17288751,-0.10833231,-0.01259430,0.00725380,0.008399
 53,0.00252698,-0.00060323,0.00206634,-0.00000830,0.00002866,-0.0000347
 4,-0.00001008,0.00001771,-0.00000820,-0.00002032,-0.00001478,0.0000737
 4,0.00003558,-0.00002695,-0.00017761,-0.00000047,-0.00002289,-0.000002
 58,0.00027995,-0.00003021,0.00038227,0.00214085,0.00000867,0.00007451,
 0.00005926,-0.00026648,-0.00059059,0.29771137,-0.00002526,-0.00004404,
 -0.00000264,-0.00003352,0.00015142,-0.00002356,0.00009712,-0.00047256,
 -0.00013818,0.00100457,0.00026230,0.00030299,-0.00012464,-0.00169674,0
 .00254850,0.02923418,-0.01212806,0.00059895,0.15161199,-0.16329833,0.0
 4535001,-0.01201814,0.00742930,-0.00019997,-0.00067623,0.00144288,-0.0
 0029394,-0.00000419,-0.00000117,-0.00000961,0.00003380,-0.00000194,-0.
 00003575,0.00004974,0.00003299,0.00002686,-0.00004003,-0.00003202,-0.0
 0010461,-0.00006090,0.00005768,0.00016103,0.00026366,0.00013467,0.0002
 4795,-0.00080303,0.00312332,-0.00094560,0.00003634,-0.00366725,0.00245
 991,-0.16683934,0.16955122,-0.00002870,0.00008575,0.00010119,0.0001536
 1,-0.00018541,-0.00004098,0.00003025,0.00109294,0.00014336,-0.00074182
 ,0.00092137,-0.00069184,-0.00308728,0.00331151,-0.00697244,-0.00522100
 ,0.00819329,-0.00898419,-0.05990830,0.02089238,-0.03348389,-0.02431345
 ,0.01683598,-0.01109562,-0.00104292,0.00038983,0.00379779,0.00002346,-
 0.00004440,0.00007195,-0.00008880,-0.00006935,0.00017218,0.00014458,-0
 .00013732,0.00030693,0.00010238,0.00007034,-0.00017041,0.00025981,-0.0
 0008528,-0.00040062,-0.00034764,0.00073431,-0.00068020,-0.00093878,-0.
 00143775,0.00217557,-0.00011743,-0.00210166,-0.00029498,0.09328403,-0.
 04897446,0.05771026,0.00004080,0.00007347,0.00009032,0.00020906,-0.000
 17783,0.00059457,-0.00144138,0.00045844,0.00024252,0.00007415,0.000900
 45,0.00017778,0.00568646,0.00247088,-0.00136360,-0.00121228,0.00073295
 ,-0.00077344,-0.00773124,-0.00671933,-0.00625000,-0.24389285,-0.096114
 90,0.03692669,-0.01507383,-0.00825013,0.00351442,0.00000824,-0.0000967
 0,0.00006752,-0.00012745,0.00001159,0.00021834,0.00032000,-0.00017908,
 0.00038839,0.00014452,0.00001446,-0.00019798,0.00004111,-0.00010593,-0
 .00002607,0.00080409,-0.00098712,0.00020348,0.00007026,-0.00061800,0.0
 0044509,-0.00013353,-0.00029259,0.00021094,-0.00185510,-0.00149445,-0.
 00010396,0.26380609,-0.00000358,0.00003007,-0.00011041,0.00010855,0.00
 023169,-0.00011192,0.00076676,-0.00081973,0.00035193,-0.00021675,-0.00
 282027,-0.00052027,-0.02189852,-0.00712144,0.00388205,-0.00127901,-0.0
 0215758,-0.00151156,-0.00498807,-0.00145294,-0.00656760,-0.09896136,-0
 .09896343,0.02261974,0.01625100,0.00639328,-0.00492584,-0.00007348,0.0
 0000354,-0.00013180,0.00003815,-0.00002966,-0.00016705,-0.00007710,0.0
 0023324,0.00013888,-0.00035128,-0.00006708,0.00051906,-0.00028397,-0.0
 0000937,0.00062042,0.00086724,0.00235084,-0.00005896,-0.00084359,-0.00
 043845,-0.00034330,-0.00055137,-0.00038781,-0.00038134,0.00041316,-0.0
 0109729,0.00075353,0.10880550,0.10542622,0.00001602,0.00000967,-0.0001
 9247,-0.00009372,-0.00031638,-0.00027220,0.00002606,-0.00011438,0.0007
 7407,-0.00004355,0.00116112,-0.00064809,0.00918787,0.00048908,-0.00127
 269,-0.00292405,-0.00046232,-0.00159534,-0.02533169,-0.01417216,-0.000
 92624,0.03890375,0.02414728,-0.05617689,0.01905179,0.00705784,-0.00049
 854,-0.00003403,0.00008023,-0.00008518,0.00005436,0.00002030,-0.000067
 86,-0.00023461,0.00008716,-0.00044326,0.00004502,0.00002781,-0.0002623
 8,0.00017222,0.00015460,-0.00030458,-0.00025758,-0.00081401,0.00090280
 ,-0.00010886,-0.00138002,0.00081531,-0.00006056,-0.00064000,0.00028489
 ,-0.00324050,-0.00159028,-0.00107921,-0.03610569,-0.01275448,0.0627823
 6,0.00037685,-0.00011139,0.00150173,-0.00065877,0.00069995,0.00102047,
 -0.00506867,0.00002498,-0.00372090,0.00010258,-0.00014264,0.00017209,-
 0.00072562,0.00005209,0.00024679,-0.00013468,0.00056981,-0.00014444,0.
 00315325,-0.00179781,-0.00183022,-0.01776833,-0.00236940,-0.00330065,-
 0.29001562,-0.01522964,-0.05800168,0.00000427,-0.00032081,0.00006233,0
 .00002120,-0.00000143,-0.00029075,0.00072019,0.00089870,-0.00026768,0.
 00019759,0.00041599,0.00002626,0.00023268,0.00015340,0.00003440,0.0001
 1938,0.00022709,-0.00000593,0.00029040,0.00028689,0.00010923,0.0001243
 2,-0.00001680,0.00003044,0.00057042,0.00021270,0.00168478,-0.00089162,
 0.00252284,0.00153855,0.31701716,-0.00038278,0.00002558,0.00001589,0.0
 0001460,0.00049622,-0.00046712,0.01663703,0.00066602,0.00470013,0.0002
 2975,0.00098866,-0.00015634,0.00001220,-0.00027253,-0.00053280,0.00043
 494,-0.00023350,-0.00002619,-0.00038785,0.00119961,0.00104051,0.013347
 51,0.00017871,0.00357159,-0.01454179,-0.05044012,-0.00385856,0.0000194
 1,-0.00010102,0.00012355,0.00015950,-0.00017881,-0.00009937,0.00089525
 ,-0.00105212,0.00250030,-0.00021055,-0.00023093,0.00017924,-0.00024930
 ,0.00015786,-0.00004229,-0.00013830,-0.00012407,0.00004900,-0.00005950
 ,-0.00034181,-0.00007851,-0.00011909,0.00011559,-0.00009711,-0.0002755
 6,0.00037517,-0.00038750,0.00114678,-0.00053238,-0.00100162,0.01422401
 ,0.05078089,0.00066554,0.00003603,-0.00052120,-0.00165768,-0.00020094,
 0.00149816,-0.02942625,-0.00212577,-0.00933727,-0.00004985,-0.00071508
 ,0.00064283,0.00056493,0.00011234,-0.00057395,0.00014227,-0.00062196,0
 .00035767,0.00026151,0.00163215,0.00304855,0.02444898,0.00035428,0.001
 71345,-0.05666914,-0.00261551,-0.05527521,0.00031244,-0.00024631,0.000
 60223,0.00023657,-0.00007236,0.00028991,-0.00063825,0.00391151,-0.0048
 2372,0.00018630,0.00046522,0.00034046,0.00025724,-0.00004216,-0.000037
 76,-0.00014679,-0.00016525,0.00009651,0.00008435,-0.00006806,-0.000027
 67,0.00000890,0.00009233,-0.00005997,-0.00073312,0.00054192,-0.0008040
 6,0.00230338,-0.00234906,-0.00253809,0.06275047,0.00231627,0.06593465,
 0.00041667,0.00042682,-0.00016798,0.00033294,-0.00052839,-0.00013751,0
 .00006706,0.00552687,0.00012608,-0.00038050,0.00145180,0.00052788,-0.0
 0168476,0.00281927,0.00103755,-0.00029527,0.00007660,-0.00010055,-0.00
 002516,0.00048290,-0.00018408,0.00348396,0.01741190,0.00117553,-0.0626
 8984,-0.06556525,-0.00706188,-0.00001709,0.00013779,-0.00009793,-0.000
 14298,-0.00000462,-0.00001353,0.00067327,0.00032949,0.00070310,0.00014
 905,0.00039657,-0.00001934,0.00022071,0.00028167,-0.00008275,0.0001154
 3,0.00084158,-0.00000181,0.00023137,0.00015556,0.00008834,0.00016934,0
 .00003251,0.00003457,0.00007505,-0.00042436,0.00025719,0.00115450,-0.0
 0024510,-0.00056080,-0.00766700,-0.03075626,-0.00290179,0.06581327,-0.
 00011471,0.00067203,0.00002247,0.00085958,-0.00054469,-0.00022379,-0.0
 0396598,-0.01262762,-0.00280096,0.00174562,-0.00117483,0.00175978,0.00
 122297,-0.00045197,-0.00001784,0.00007900,0.00025112,0.00009281,0.0008
 5638,-0.00046131,-0.00123251,-0.00451060,-0.00958560,0.00105108,-0.063
 08132,-0.29367239,-0.02586421,-0.00008426,0.00003436,-0.00008463,-0.00
 016933,0.00002319,0.00016549,0.00039668,0.00082846,-0.00024342,-0.0001
 2377,0.00009839,0.00000226,-0.00007781,-0.00089509,-0.00021308,-0.0000
 9239,-0.00056644,-0.00008110,-0.00004562,0.00003440,0.00000895,-0.0000
 9353,-0.00006531,-0.00008341,-0.00007656,-0.00012155,0.00014192,0.0004
 2154,0.00122856,0.00001058,-0.00029855,-0.00147703,-0.00023959,0.06715
 265,0.31847334,0.00055452,-0.00028141,0.00005452,-0.00103126,0.0009135
 0,0.00058866,0.00844052,0.02698194,0.00374152,-0.00099141,0.00248602,-
 0.00467229,0.00227881,-0.00063002,-0.00218721,-0.00020605,0.00074355,0
 .00033324,0.00153950,-0.00124314,-0.00252228,-0.00751678,-0.02134932,-
 0.00057692,-0.00764374,-0.02807879,-0.04902187,0.00000277,-0.00008319,
 0.00005830,-0.00020026,-0.00030587,-0.00035133,-0.00006166,-0.00099267
 ,0.00150034,0.00008749,0.00004456,0.00003406,-0.00005227,0.00152954,0.
 00063442,-0.00021637,-0.00089900,0.00012763,-0.00002700,-0.00002025,-0
 .00005238,-0.00003616,-0.00002404,0.00000101,-0.00012238,0.00008048,0.
 00021920,-0.00056267,0.00104797,0.00080358,-0.00161530,-0.00774906,-0.
 00052551,0.00737972,0.02782918,0.05181329\\-0.00001023,-0.00000245,0.0
 0000324,0.00000207,0.00000977,-0.00001631,0.00003153,-0.00002845,0.000
 03110,-0.00002117,0.00001326,0.00000387,0.00000323,-0.00000417,0.00000
 782,0.00001004,0.00001711,-0.00001776,-0.00001887,-0.00001342,0.000035
 65,0.00002195,-0.00000859,-0.00002539,-0.00003130,0.00001602,-0.000004
 79,0.00000136,0.00000027,0.00000020,0.00000089,-0.00000426,-0.00000420
 ,-0.00000809,0.00000242,-0.00000708,0.00000687,-0.00000070,0.00000045,
 0.00000501,-0.00000265,-0.00000136,0.00000152,0.00000172,-0.00000107,-
 0.00000453,-0.00000536,0.00000349,-0.00000118,0.00000024,-0.00000095,0
 .00000649,0.00000241,-0.00000796,-0.00000243,0.00000076,-0.00000137,0.
 00000301,0.00000289,0.00000096,0.00000383,0.00000318,0.00000147\\\@


 A SOLDIER'S LIFE IS A LIFE OF HONOR, BUT A DOG WOULD NOT LEAD IT.
 -- PRINCE RUPERT, FOUNDER OF THE HUDSON'S BAY COMPANY
 Job cpu time:       0 days  2 hours 21 minutes  9.1 seconds.
 Elapsed time:       0 days  0 hours 35 minutes 43.1 seconds.
 File lengths (MBytes):  RWF=    156 Int=      0 D2E=      0 Chk=      9 Scr=      1
 Normal termination of Gaussian 16 at Sun Jul  3 13:40:26 2022.
### All Done ###
