### Starting Gaussian ###
 Entering Gaussian System, Link 0=g16
 Initial command:
 /cluster/software/gaussian/gaussian-16-A.03/avx2/g16/l1.exe "/local/scratch/ks29c/Gau-28271.inp" -scrdir="/local/scratch/ks29c/"
 Entering Link 1 = /cluster/software/gaussian/gaussian-16-A.03/avx2/g16/l1.exe PID=     28277.
  
 Copyright (c) 1988,1990,1992,1993,1995,1998,2003,2009,2016,
            Gaussian, Inc.  All Rights Reserved.
  
 This is part of the Gaussian(R) 16 program.  It is based on
 the Gaussian(R) 09 system (copyright 2009, Gaussian, Inc.),
 the Gaussian(R) 03 system (copyright 2003, Gaussian, Inc.),
 the Gaussian(R) 98 system (copyright 1998, Gaussian, Inc.),
 the Gaussian(R) 94 system (copyright 1995, Gaussian, Inc.),
 the Gaussian 92(TM) system (copyright 1992, Gaussian, Inc.),
 the Gaussian 90(TM) system (copyright 1990, Gaussian, Inc.),
 the Gaussian 88(TM) system (copyright 1988, Gaussian, Inc.),
 the Gaussian 86(TM) system (copyright 1986, Carnegie Mellon
 University), and the Gaussian 82(TM) system (copyright 1983,
 Carnegie Mellon University). Gaussian is a federally registered
 trademark of Gaussian, Inc.
  
 This software contains proprietary and confidential information,
 including trade secrets, belonging to Gaussian, Inc.
  
 This software is provided under written license and may be
 used, copied, transmitted, or stored only in accord with that
 written license.
  
 The following legend is applicable only to US Government
 contracts under FAR:
  
                    RESTRICTED RIGHTS LEGEND
  
 Use, reproduction and disclosure by the US Government is
 subject to restrictions as set forth in subparagraphs (a)
 and (c) of the Commercial Computer Software - Restricted
 Rights clause in FAR 52.227-19.
  
 Gaussian, Inc.
 340 Quinnipiac St., Bldg. 40, Wallingford CT 06492
  
  
 ---------------------------------------------------------------
 Warning -- This program may not be used in any manner that
 competes with the business of Gaussian, Inc. or will provide
 assistance to any competitor of Gaussian, Inc.  The licensee
 of this program is prohibited from giving any competitor of
 Gaussian, Inc. access to this program.  By using this program,
 the user acknowledges that Gaussian, Inc. is engaged in the
 business of creating and licensing software in the field of
 computational chemistry and represents and warrants to the
 licensee that it is not a competitor of Gaussian, Inc. and that
 it will not use this program in any manner prohibited above.
 ---------------------------------------------------------------
  

 Cite this work as:
 Gaussian 16, Revision A.03,
 M. J. Frisch, G. W. Trucks, H. B. Schlegel, G. E. Scuseria, 
 M. A. Robb, J. R. Cheeseman, G. Scalmani, V. Barone, 
 G. A. Petersson, H. Nakatsuji, X. Li, M. Caricato, A. V. Marenich, 
 J. Bloino, B. G. Janesko, R. Gomperts, B. Mennucci, H. P. Hratchian, 
 J. V. Ortiz, A. F. Izmaylov, J. L. Sonnenberg, D. Williams-Young, 
 F. Ding, F. Lipparini, F. Egidi, J. Goings, B. Peng, A. Petrone, 
 T. Henderson, D. Ranasinghe, V. G. Zakrzewski, J. Gao, N. Rega, 
 G. Zheng, W. Liang, M. Hada, M. Ehara, K. Toyota, R. Fukuda, 
 J. Hasegawa, M. Ishida, T. Nakajima, Y. Honda, O. Kitao, H. Nakai, 
 T. Vreven, K. Throssell, J. A. Montgomery, Jr., J. E. Peralta, 
 F. Ogliaro, M. J. Bearpark, J. J. Heyd, E. N. Brothers, K. N. Kudin, 
 V. N. Staroverov, T. A. Keith, R. Kobayashi, J. Normand, 
 K. Raghavachari, A. P. Rendell, J. C. Burant, S. S. Iyengar, 
 J. Tomasi, M. Cossi, J. M. Millam, M. Klene, C. Adamo, R. Cammi, 
 J. W. Ochterski, R. L. Martin, K. Morokuma, O. Farkas, 
 J. B. Foresman, and D. J. Fox, Gaussian, Inc., Wallingford CT, 2016.
 
 ******************************************
 Gaussian 16:  ES64L-G16RevA.03 25-Dec-2016
                 3-Aug-2022 
 ******************************************
 %chk=NdCC1dC2CCC2C1.chk
 %NProcShared=20
 Will use up to   20 processors via shared memory.
 -----------------------------
 # opt freq b3lyp/6-31g(2df,p)
 -----------------------------
 1/18=20,19=15,26=3,38=1/1,3;
 2/9=110,12=2,17=6,18=5,40=1/2;
 3/5=1,6=6,7=104,11=2,25=1,30=1,71=1,74=-5/1,2,3;
 4//1;
 5/5=2,38=5/2;
 6/7=2,8=2,9=2,10=2,28=1/1;
 7//1,2,3,16;
 1/18=20,19=15,26=3/3(2);
 2/9=110/2;
 99//99;
 2/9=110/2;
 3/5=1,6=6,7=104,11=2,25=1,30=1,71=1,74=-5/1,2,3;
 4/5=5,16=3,69=1/1;
 5/5=2,38=5/2;
 7//1,2,3,16;
 1/18=20,19=15,26=3/3(-5);
 2/9=110/2;
 6/7=2,8=2,9=2,10=2,19=2,28=1/1;
 99/9=1/99;
 -------------------
 Title Card Required
 -------------------
 Symbolic Z-matrix:
 Charge =  0 Multiplicity = 1
 N                     0.91022   0.28551   0.20475 
 C                     2.16418  -0.00348   0.10995 
 C                     2.669    -0.85485  -0.97845 
 C                     3.79802  -1.54769  -1.05586 
 C                     5.00472  -2.35035  -1.23852 
 C                     4.61011  -2.536    -2.67178 
 C                     3.08681  -2.31944  -2.45366 
 C                     2.28995  -0.98405  -2.38331 
 H                     0.74045   0.86153   1.03583 
 H                     2.89886   0.36614   0.84471 
 H                     5.05786  -3.26833  -0.64217 
 H                     5.97363  -1.84791  -1.12255 
 H                     4.85814  -3.55616  -3.01881 
 H                     5.1011   -1.86106  -3.38679 
 H                     2.98455  -2.26622  -3.55979 
 H                     1.20493  -1.10631  -2.5311 
 H                     2.59706  -0.17491  -3.06031 
 

 GradGradGradGradGradGradGradGradGradGradGradGradGradGradGradGradGradGrad
 Berny optimization.
 Initialization pass.
                           ----------------------------
                           !    Initial Parameters    !
                           ! (Angstroms and Degrees)  !
 --------------------------                            --------------------------
 ! Name  Definition              Value          Derivative Info.                !
 --------------------------------------------------------------------------------
 ! R1    R(1,2)                  1.2903         estimate D2E/DX2                !
 ! R2    R(1,9)                  1.0253         estimate D2E/DX2                !
 ! R3    R(2,3)                  1.4712         estimate D2E/DX2                !
 ! R4    R(2,10)                 1.1028         estimate D2E/DX2                !
 ! R5    R(3,4)                  1.3269         estimate D2E/DX2                !
 ! R6    R(3,8)                  1.4608         estimate D2E/DX2                !
 ! R7    R(4,5)                  1.4607         estimate D2E/DX2                !
 ! R8    R(4,7)                  1.7479         estimate D2E/DX2                !
 ! R9    R(5,6)                  1.4981         estimate D2E/DX2                !
 ! R10   R(5,11)                 1.096          estimate D2E/DX2                !
 ! R11   R(5,12)                 1.0976         estimate D2E/DX2                !
 ! R12   R(6,7)                  1.554          estimate D2E/DX2                !
 ! R13   R(6,13)                 1.1057         estimate D2E/DX2                !
 ! R14   R(6,14)                 1.099          estimate D2E/DX2                !
 ! R15   R(7,8)                  1.5567         estimate D2E/DX2                !
 ! R16   R(7,15)                 1.1121         estimate D2E/DX2                !
 ! R17   R(8,16)                 1.1018         estimate D2E/DX2                !
 ! R18   R(8,17)                 1.0988         estimate D2E/DX2                !
 ! A1    A(2,1,9)              110.2601         estimate D2E/DX2                !
 ! A2    A(1,2,3)              121.161          estimate D2E/DX2                !
 ! A3    A(1,2,10)             121.5599         estimate D2E/DX2                !
 ! A4    A(3,2,10)             117.2755         estimate D2E/DX2                !
 ! A5    A(2,3,4)              129.5907         estimate D2E/DX2                !
 ! A6    A(2,3,8)              132.3479         estimate D2E/DX2                !
 ! A7    A(4,3,8)               96.8053         estimate D2E/DX2                !
 ! A8    A(3,4,7)               86.0427         estimate D2E/DX2                !
 ! A9    A(5,4,7)               89.6284         estimate D2E/DX2                !
 ! A10   A(4,5,6)               88.2884         estimate D2E/DX2                !
 ! A11   A(4,5,11)             115.6113         estimate D2E/DX2                !
 ! A12   A(4,5,12)             117.6775         estimate D2E/DX2                !
 ! A13   A(6,5,11)             115.4386         estimate D2E/DX2                !
 ! A14   A(6,5,12)             112.9752         estimate D2E/DX2                !
 ! A15   A(11,5,12)            106.4472         estimate D2E/DX2                !
 ! A16   A(5,6,7)               96.122          estimate D2E/DX2                !
 ! A17   A(5,6,13)             110.8239         estimate D2E/DX2                !
 ! A18   A(5,6,14)             115.381          estimate D2E/DX2                !
 ! A19   A(7,6,13)             113.1101         estimate D2E/DX2                !
 ! A20   A(7,6,14)             116.3376         estimate D2E/DX2                !
 ! A21   A(13,6,14)            105.2006         estimate D2E/DX2                !
 ! A22   A(4,7,6)               76.9927         estimate D2E/DX2                !
 ! A23   A(4,7,8)               78.0759         estimate D2E/DX2                !
 ! A24   A(4,7,15)             144.2589         estimate D2E/DX2                !
 ! A25   A(6,7,8)              128.8792         estimate D2E/DX2                !
 ! A26   A(6,7,15)              87.5469         estimate D2E/DX2                !
 ! A27   A(8,7,15)              87.5256         estimate D2E/DX2                !
 ! A28   A(3,8,7)               89.2268         estimate D2E/DX2                !
 ! A29   A(3,8,16)             113.2236         estimate D2E/DX2                !
 ! A30   A(3,8,17)             117.0568         estimate D2E/DX2                !
 ! A31   A(7,8,16)             113.7557         estimate D2E/DX2                !
 ! A32   A(7,8,17)             117.4383         estimate D2E/DX2                !
 ! A33   A(16,8,17)            105.9201         estimate D2E/DX2                !
 ! A34   L(3,4,5,7,-1)         175.6711         estimate D2E/DX2                !
 ! A35   L(3,4,5,7,-2)         179.4101         estimate D2E/DX2                !
 ! D1    D(9,1,2,3)            178.2723         estimate D2E/DX2                !
 ! D2    D(9,1,2,10)            -1.0271         estimate D2E/DX2                !
 ! D3    D(1,2,3,4)           -159.6691         estimate D2E/DX2                !
 ! D4    D(1,2,3,8)             36.2122         estimate D2E/DX2                !
 ! D5    D(10,2,3,4)            19.6592         estimate D2E/DX2                !
 ! D6    D(10,2,3,8)          -144.4595         estimate D2E/DX2                !
 ! D7    D(2,3,4,7)            167.8313         estimate D2E/DX2                !
 ! D8    D(8,3,4,7)            -23.9208         estimate D2E/DX2                !
 ! D9    D(2,3,5,6)           -170.3393         estimate D2E/DX2                !
 ! D10   D(2,3,5,11)            73.0872         estimate D2E/DX2                !
 ! D11   D(2,3,5,12)           -56.0668         estimate D2E/DX2                !
 ! D12   D(8,3,5,6)             -1.874          estimate D2E/DX2                !
 ! D13   D(8,3,5,11)          -118.4475         estimate D2E/DX2                !
 ! D14   D(8,3,5,12)           112.3985         estimate D2E/DX2                !
 ! D15   D(2,3,8,7)           -165.2448         estimate D2E/DX2                !
 ! D16   D(2,3,8,16)           -49.6117         estimate D2E/DX2                !
 ! D17   D(2,3,8,17)            74.053          estimate D2E/DX2                !
 ! D18   D(4,3,8,7)             27.0166         estimate D2E/DX2                !
 ! D19   D(4,3,8,16)           142.6497         estimate D2E/DX2                !
 ! D20   D(4,3,8,17)           -93.6856         estimate D2E/DX2                !
 ! D21   D(7,4,5,6)             21.9406         estimate D2E/DX2                !
 ! D22   D(7,4,5,11)           -95.5908         estimate D2E/DX2                !
 ! D23   D(7,4,5,12)           137.1096         estimate D2E/DX2                !
 ! D24   D(3,4,7,6)            157.7232         estimate D2E/DX2                !
 ! D25   D(3,4,7,8)             22.7158         estimate D2E/DX2                !
 ! D26   D(3,4,7,15)            91.0635         estimate D2E/DX2                !
 ! D27   D(5,4,7,6)            -21.6869         estimate D2E/DX2                !
 ! D28   D(5,4,7,8)           -156.6943         estimate D2E/DX2                !
 ! D29   D(5,4,7,15)           -88.3465         estimate D2E/DX2                !
 ! D30   D(4,5,6,7)            -25.0036         estimate D2E/DX2                !
 ! D31   D(4,5,6,13)          -142.5931         estimate D2E/DX2                !
 ! D32   D(4,5,6,14)            98.0046         estimate D2E/DX2                !
 ! D33   D(11,5,6,7)            92.6855         estimate D2E/DX2                !
 ! D34   D(11,5,6,13)          -24.904          estimate D2E/DX2                !
 ! D35   D(11,5,6,14)         -144.3063         estimate D2E/DX2                !
 ! D36   D(12,5,6,7)          -144.4804         estimate D2E/DX2                !
 ! D37   D(12,5,6,13)           97.9301         estimate D2E/DX2                !
 ! D38   D(12,5,6,14)          -21.4722         estimate D2E/DX2                !
 ! D39   D(5,6,7,4)             21.2457         estimate D2E/DX2                !
 ! D40   D(5,6,7,8)             83.9451         estimate D2E/DX2                !
 ! D41   D(5,6,7,15)           168.7786         estimate D2E/DX2                !
 ! D42   D(13,6,7,4)           136.9993         estimate D2E/DX2                !
 ! D43   D(13,6,7,8)          -160.3013         estimate D2E/DX2                !
 ! D44   D(13,6,7,15)          -75.4678         estimate D2E/DX2                !
 ! D45   D(14,6,7,4)          -101.0388         estimate D2E/DX2                !
 ! D46   D(14,6,7,8)           -38.3393         estimate D2E/DX2                !
 ! D47   D(14,6,7,15)           46.4941         estimate D2E/DX2                !
 ! D48   D(4,7,8,3)            -20.4848         estimate D2E/DX2                !
 ! D49   D(4,7,8,16)          -135.6306         estimate D2E/DX2                !
 ! D50   D(4,7,8,17)            99.8844         estimate D2E/DX2                !
 ! D51   D(6,7,8,3)            -82.7248         estimate D2E/DX2                !
 ! D52   D(6,7,8,16)           162.1294         estimate D2E/DX2                !
 ! D53   D(6,7,8,17)            37.6443         estimate D2E/DX2                !
 ! D54   D(15,7,8,3)          -167.5684         estimate D2E/DX2                !
 ! D55   D(15,7,8,16)           77.2858         estimate D2E/DX2                !
 ! D56   D(15,7,8,17)          -47.1992         estimate D2E/DX2                !
 --------------------------------------------------------------------------------
 Trust Radius=3.00D-01 FncErr=1.00D-07 GrdErr=1.00D-06 EigMax=2.50D+02 EigMin=1.00D-04
 Number of steps in this run=    102 maximum allowed number of steps=    102.
 GradGradGradGradGradGradGradGradGradGradGradGradGradGradGradGradGradGrad

                          Input orientation:                          
 ---------------------------------------------------------------------
 Center     Atomic      Atomic             Coordinates (Angstroms)
 Number     Number       Type             X           Y           Z
 ---------------------------------------------------------------------
      1          7           0        0.910220    0.285510    0.204750
      2          6           0        2.164180   -0.003480    0.109950
      3          6           0        2.669000   -0.854850   -0.978450
      4          6           0        3.798020   -1.547690   -1.055860
      5          6           0        5.004720   -2.350350   -1.238520
      6          6           0        4.610110   -2.536000   -2.671780
      7          6           0        3.086810   -2.319440   -2.453660
      8          6           0        2.289950   -0.984050   -2.383310
      9          1           0        0.740450    0.861530    1.035830
     10          1           0        2.898860    0.366140    0.844710
     11          1           0        5.057860   -3.268330   -0.642170
     12          1           0        5.973630   -1.847910   -1.122550
     13          1           0        4.858140   -3.556160   -3.018810
     14          1           0        5.101100   -1.861060   -3.386790
     15          1           0        2.984550   -2.266220   -3.559790
     16          1           0        1.204930   -1.106310   -2.531100
     17          1           0        2.597060   -0.174910   -3.060310
 ---------------------------------------------------------------------
                    Distance matrix (angstroms):
                    1          2          3          4          5
     1  N    0.000000
     2  C    1.290317   0.000000
     3  C    2.407009   1.471152   0.000000
     4  C    3.645428   2.532416   1.326916   0.000000
     5  C    5.078948   3.923626   2.785632   1.460737   0.000000
     6  C    5.470332   4.487121   3.075962   2.060933   1.498138
     7  C    4.311665   3.575893   2.120338   1.747931   2.270661
     8  C    3.195855   2.682104   1.460823   2.086645   3.247660
     9  H    1.025336   1.905913   3.274537   4.419077   5.802830
    10  H    2.090631   1.102835   2.206256   2.843132   4.019180
    11  H    5.527203   4.426998   3.412422   2.172312   1.095967
    12  H    5.652550   4.408275   3.453623   2.197239   1.097580
    13  H    6.382463   5.446843   4.031436   3.001829   2.155202
    14  H    5.922026   4.929837   3.567586   2.688764   2.205393
    15  H    4.998593   4.388621   2.958860   2.729045   3.078386
    16  H    3.083649   3.018533   2.148826   3.015836   4.202000
    17  H    3.703786   3.204266   2.191263   2.710101   3.721328
                    6          7          8          9         10
     6  C    0.000000
     7  C    1.554000   0.000000
     8  C    2.806226   1.556664   0.000000
     9  H    6.345380   5.272619   4.183017   0.000000
    10  H    4.869958   4.257571   3.551605   2.222762   0.000000
    11  H    2.203657   2.840234   3.988838   6.205760   4.481235
    12  H    2.175493   3.213709   3.988141   6.275814   4.269232
    13  H    1.105746   2.233043   3.689879   7.274026   5.843800
    14  H    1.099024   2.266762   3.111058   6.781396   5.264587
    15  H    1.871841   1.112121   1.873642   5.994875   5.131889
    16  H    3.695816   2.240347   1.101843   4.100137   4.053838
    17  H    3.126991   2.281861   1.098796   4.615146   3.953859
                   11         12         13         14         15
    11  H    0.000000
    12  H    1.756984   0.000000
    13  H    2.402322   2.785361   0.000000
    14  H    3.084675   2.426575   1.751514   0.000000
    15  H    3.716900   3.879397   2.338150   2.161913   0.000000
    16  H    4.804941   5.027373   4.425559   4.059802   2.360221
    17  H    4.633809   4.237342   4.067807   3.036430   2.184767
                   16         17
    16  H    0.000000
    17  H    1.756586   0.000000
 Stoichiometry    C7H9N
 Framework group  C1[X(C7H9N)]
 Deg. of freedom    45
 Full point group                 C1      NOp   1
 Largest Abelian subgroup         C1      NOp   1
 Largest concise Abelian subgroup C1      NOp   1
                         Standard orientation:                         
 ---------------------------------------------------------------------
 Center     Atomic      Atomic             Coordinates (Angstroms)
 Number     Number       Type             X           Y           Z
 ---------------------------------------------------------------------
      1          7           0       -3.096809    0.043311   -0.215774
      2          6           0       -2.052764   -0.622622    0.146747
      3          6           0       -0.704728   -0.043730    0.037333
      4          6           0        0.475476   -0.649290    0.003846
      5          6           0        1.820759   -1.215936   -0.049815
      6          6           0        2.363011    0.172836    0.097465
      7          6           0        1.120293    0.898976   -0.488443
      8          6           0       -0.197837    1.312888    0.228782
      9          1           0       -3.940775   -0.526385   -0.095439
     10          1           0       -2.131188   -1.650125    0.539599
     11          1           0        2.082650   -1.727037   -0.983267
     12          1           0        2.125625   -1.883670    0.766193
     13          1           0        3.273148    0.306581   -0.516081
     14          1           0        2.658398    0.457552    1.117043
     15          1           0        1.562582    1.850786   -0.120679
     16          1           0       -0.778916    2.074651   -0.315388
     17          1           0       -0.119126    1.675739    1.262947
 ---------------------------------------------------------------------
 Rotational constants (GHZ):           5.7157446           1.3460697           1.1367352
 Standard basis: 6-31G(2df,p) (6D, 7F)
 There are   293 symmetry adapted cartesian basis functions of A   symmetry.
 There are   269 symmetry adapted basis functions of A   symmetry.
   269 basis functions,   415 primitive gaussians,   293 cartesian basis functions
    29 alpha electrons       29 beta electrons
       nuclear repulsion energy       342.4457271859 Hartrees.
 NAtoms=   17 NActive=   17 NUniq=   17 SFac= 1.00D+00 NAtFMM=   60 NAOKFM=F Big=F
 Integral buffers will be    131072 words long.
 Raffenetti 2 integral format.
 Two-electron integral symmetry is turned on.
 One-electron integrals computed using PRISM.
 PrsmSu:  requested number of processors reduced to:  13 ShMem   1 Linda.
 NBasis=   269 RedAO= T EigKep=  3.27D-04  NBF=   269
 NBsUse=   269 1.00D-06 EigRej= -1.00D+00 NBFU=   269
 ExpMin= 1.61D-01 ExpMax= 4.17D+03 ExpMxC= 6.27D+02 IAcc=3 IRadAn=         5 AccDes= 0.00D+00
 Harris functional with IExCor=  402 and IRadAn=       5 diagonalized for initial guess.
 HarFok:  IExCor=  402 AccDes= 0.00D+00 IRadAn=         5 IDoV= 1 UseB2=F ITyADJ=14
 ICtDFT=  3500011 ScaDFX=  1.000000  1.000000  1.000000  1.000000
 FoFCou: FMM=F IPFlag=           0 FMFlag=      100000 FMFlg1=           0
         NFxFlg=           0 DoJE=T BraDBF=F KetDBF=T FulRan=T
         wScrn=  0.000000 ICntrl=       500 IOpCl=  0 I1Cent=   200000004 NGrid=           0
         NMat0=    1 NMatS0=      1 NMatT0=    0 NMatD0=    1 NMtDS0=    0 NMtDT0=    0
 Petite list used in FoFCou.
 Requested convergence on RMS density matrix=1.00D-08 within 128 cycles.
 Requested convergence on MAX density matrix=1.00D-06.
 Requested convergence on             energy=1.00D-06.
 No special actions if energy rises.
 Integral accuracy reduced to 1.0D-05 until final iterations.
 Initial convergence to 1.0D-05 achieved.  Increase integral accuracy.
 SCF Done:  E(RB3LYP) =  -326.602171284     A.U. after   17 cycles
            NFock= 17  Conv=0.34D-08     -V/T= 2.0072

 **********************************************************************

            Population analysis using the SCF density.

 **********************************************************************

 Orbital symmetries:
       Occupied  (A) (A) (A) (A) (A) (A) (A) (A) (A) (A) (A) (A)
                 (A) (A) (A) (A) (A) (A) (A) (A) (A) (A) (A) (A)
                 (A) (A) (A) (A) (A)
       Virtual   (A) (A) (A) (A) (A) (A) (A) (A) (A) (A) (A) (A)
                 (A) (A) (A) (A) (A) (A) (A) (A) (A) (A) (A) (A)
                 (A) (A) (A) (A) (A) (A) (A) (A) (A) (A) (A) (A)
                 (A) (A) (A) (A) (A) (A) (A) (A) (A) (A) (A) (A)
                 (A) (A) (A) (A) (A) (A) (A) (A) (A) (A) (A) (A)
                 (A) (A) (A) (A) (A) (A) (A) (A) (A) (A) (A) (A)
                 (A) (A) (A) (A) (A) (A) (A) (A) (A) (A) (A) (A)
                 (A) (A) (A) (A) (A) (A) (A) (A) (A) (A) (A) (A)
                 (A) (A) (A) (A) (A) (A) (A) (A) (A) (A) (A) (A)
                 (A) (A) (A) (A) (A) (A) (A) (A) (A) (A) (A) (A)
                 (A) (A) (A) (A) (A) (A) (A) (A) (A) (A) (A) (A)
                 (A) (A) (A) (A) (A) (A) (A) (A) (A) (A) (A) (A)
                 (A) (A) (A) (A) (A) (A) (A) (A) (A) (A) (A) (A)
                 (A) (A) (A) (A) (A) (A) (A) (A) (A) (A) (A) (A)
                 (A) (A) (A) (A) (A) (A) (A) (A) (A) (A) (A) (A)
                 (A) (A) (A) (A) (A) (A) (A) (A) (A) (A) (A) (A)
                 (A) (A) (A) (A) (A) (A) (A) (A) (A) (A) (A) (A)
                 (A) (A) (A) (A) (A) (A) (A) (A) (A) (A) (A) (A)
                 (A) (A) (A) (A) (A) (A) (A) (A) (A) (A) (A) (A)
                 (A) (A) (A) (A) (A) (A) (A) (A) (A) (A) (A) (A)
 The electronic state is 1-A.
 Alpha  occ. eigenvalues --  -14.30489 -10.26980 -10.22462 -10.21922 -10.20904
 Alpha  occ. eigenvalues --  -10.20082 -10.19994 -10.14550  -0.91021  -0.88011
 Alpha  occ. eigenvalues --   -0.80550  -0.71311  -0.64489  -0.62688  -0.56596
 Alpha  occ. eigenvalues --   -0.51250  -0.50193  -0.47936  -0.46311  -0.43520
 Alpha  occ. eigenvalues --   -0.43033  -0.38572  -0.37407  -0.33743  -0.32617
 Alpha  occ. eigenvalues --   -0.29024  -0.26255  -0.23690  -0.16022
 Alpha virt. eigenvalues --   -0.05683  -0.03795   0.04668   0.08098   0.10191
 Alpha virt. eigenvalues --    0.10856   0.13267   0.14764   0.15859   0.16754
 Alpha virt. eigenvalues --    0.18146   0.19028   0.20075   0.21834   0.24456
 Alpha virt. eigenvalues --    0.27582   0.29458   0.33064   0.34129   0.35968
 Alpha virt. eigenvalues --    0.41387   0.44719   0.47143   0.49000   0.49933
 Alpha virt. eigenvalues --    0.50212   0.51609   0.53726   0.55353   0.55939
 Alpha virt. eigenvalues --    0.57072   0.58548   0.59767   0.62067   0.63895
 Alpha virt. eigenvalues --    0.64720   0.65329   0.67153   0.70188   0.71708
 Alpha virt. eigenvalues --    0.72516   0.74242   0.75065   0.76562   0.76774
 Alpha virt. eigenvalues --    0.77636   0.78187   0.78649   0.79734   0.82264
 Alpha virt. eigenvalues --    0.83921   0.85190   0.86571   0.90728   0.92686
 Alpha virt. eigenvalues --    0.94062   0.95699   0.99211   1.00151   1.02664
 Alpha virt. eigenvalues --    1.07000   1.11017   1.12849   1.15426   1.17061
 Alpha virt. eigenvalues --    1.20325   1.23425   1.27183   1.29507   1.31521
 Alpha virt. eigenvalues --    1.32001   1.35550   1.36467   1.41152   1.43318
 Alpha virt. eigenvalues --    1.49031   1.50323   1.51175   1.53207   1.54701
 Alpha virt. eigenvalues --    1.56410   1.57722   1.59576   1.60357   1.65060
 Alpha virt. eigenvalues --    1.66400   1.68033   1.68887   1.70775   1.75816
 Alpha virt. eigenvalues --    1.77351   1.83224   1.86049   1.88411   1.93284
 Alpha virt. eigenvalues --    1.94928   1.97988   2.04605   2.11282   2.15015
 Alpha virt. eigenvalues --    2.15697   2.21177   2.24540   2.27477   2.27961
 Alpha virt. eigenvalues --    2.32957   2.33992   2.35364   2.37019   2.44239
 Alpha virt. eigenvalues --    2.47663   2.49036   2.51804   2.54191   2.56422
 Alpha virt. eigenvalues --    2.60158   2.62221   2.66159   2.68144   2.70482
 Alpha virt. eigenvalues --    2.74566   2.77537   2.79353   2.82230   2.83912
 Alpha virt. eigenvalues --    2.85532   2.87972   2.90264   2.92743   2.93843
 Alpha virt. eigenvalues --    2.96533   2.97526   3.00514   3.01355   3.02373
 Alpha virt. eigenvalues --    3.06484   3.07286   3.11895   3.13909   3.16173
 Alpha virt. eigenvalues --    3.17640   3.21749   3.22000   3.25505   3.28166
 Alpha virt. eigenvalues --    3.29483   3.32468   3.34715   3.36525   3.37526
 Alpha virt. eigenvalues --    3.38651   3.41955   3.43840   3.47340   3.51597
 Alpha virt. eigenvalues --    3.54517   3.56032   3.58652   3.63366   3.63733
 Alpha virt. eigenvalues --    3.70470   3.73175   3.75163   3.79857   3.81002
 Alpha virt. eigenvalues --    3.84254   3.88082   3.88796   3.90385   3.94531
 Alpha virt. eigenvalues --    3.99565   4.02965   4.04082   4.09188   4.10782
 Alpha virt. eigenvalues --    4.16530   4.19624   4.23410   4.28389   4.29359
 Alpha virt. eigenvalues --    4.32264   4.36003   4.37973   4.40432   4.42215
 Alpha virt. eigenvalues --    4.42447   4.46627   4.48132   4.48306   4.50319
 Alpha virt. eigenvalues --    4.52155   4.54075   4.56850   4.57877   4.59772
 Alpha virt. eigenvalues --    4.62388   4.66439   4.67736   4.69254   4.73492
 Alpha virt. eigenvalues --    4.74177   4.76354   4.77547   4.80399   4.83578
 Alpha virt. eigenvalues --    4.84617   4.85895   4.88955   4.90276   4.95497
 Alpha virt. eigenvalues --    4.97474   4.98305   4.99313   5.03708   5.08702
 Alpha virt. eigenvalues --    5.12821   5.15304   5.19191   5.25911   5.30106
 Alpha virt. eigenvalues --    5.32159   5.38320   5.44538   5.49158   5.54851
 Alpha virt. eigenvalues --    5.65619   5.75736   5.80363   5.86832   6.12939
 Alpha virt. eigenvalues --    6.17079   8.58346  10.19214  10.88999  11.34248
 Alpha virt. eigenvalues --   11.43949  11.52059  11.92179  12.24380  12.44368
          Condensed to atoms (all electrons):
               1          2          3          4          5          6
     1  N    6.526206   0.658857  -0.022320  -0.002003  -0.000073   0.000000
     2  C    0.658857   4.955894   0.220881  -0.007764   0.000395  -0.000181
     3  C   -0.022320   0.220881   5.018318   0.553518  -0.042517  -0.003059
     4  C   -0.002003  -0.007764   0.553518   4.594555   0.392494  -0.023217
     5  C   -0.000073   0.000395  -0.042517   0.392494   5.047318   0.366812
     6  C    0.000000  -0.000181  -0.003059  -0.023217   0.366812   4.937862
     7  C    0.000251   0.009606  -0.112838   0.254527  -0.085777   0.311568
     8  C   -0.005395  -0.042526   0.366687  -0.017885   0.003013  -0.036585
     9  H    0.329666  -0.076821   0.011209  -0.000443  -0.000001   0.000000
    10  H   -0.077496   0.390068  -0.091924   0.007101   0.000814  -0.000013
    11  H    0.000005   0.000082  -0.001620  -0.011855   0.349430  -0.017072
    12  H   -0.000001   0.000125   0.001013  -0.018724   0.339271  -0.032186
    13  H    0.000000   0.000017  -0.000175   0.000802  -0.037849   0.378645
    14  H   -0.000000   0.000048   0.001656   0.006836  -0.031241   0.328101
    15  H    0.000001  -0.000579   0.005356  -0.030134   0.014858  -0.029360
    16  H    0.004490   0.000359  -0.017710   0.001184  -0.000623   0.003207
    17  H   -0.000300   0.004139  -0.007053  -0.014464   0.000467  -0.006303
               7          8          9         10         11         12
     1  N    0.000251  -0.005395   0.329666  -0.077496   0.000005  -0.000001
     2  C    0.009606  -0.042526  -0.076821   0.390068   0.000082   0.000125
     3  C   -0.112838   0.366687   0.011209  -0.091924  -0.001620   0.001013
     4  C    0.254527  -0.017885  -0.000443   0.007101  -0.011855  -0.018724
     5  C   -0.085777   0.003013  -0.000001   0.000814   0.349430   0.339271
     6  C    0.311568  -0.036585   0.000000  -0.000013  -0.017072  -0.032186
     7  C    5.418183   0.302491   0.000005  -0.000215   0.000550   0.007665
     8  C    0.302491   5.075723  -0.000357   0.007426   0.000087  -0.000595
     9  H    0.000005  -0.000357   0.535468  -0.021727  -0.000000   0.000000
    10  H   -0.000215   0.007426  -0.021727   0.709847  -0.000055  -0.000003
    11  H    0.000550   0.000087  -0.000000  -0.000055   0.576519  -0.039849
    12  H    0.007665  -0.000595   0.000000  -0.000003  -0.039849   0.626189
    13  H   -0.018654   0.003332   0.000000  -0.000001  -0.006879   0.002715
    14  H   -0.037775  -0.005061  -0.000000  -0.000003   0.004374  -0.001242
    15  H    0.293614  -0.037757  -0.000001   0.000024  -0.000560  -0.000650
    16  H   -0.008471   0.347472  -0.000109   0.000006   0.000046   0.000003
    17  H   -0.027452   0.346497  -0.000012   0.000003  -0.000044   0.000238
              13         14         15         16         17
     1  N    0.000000  -0.000000   0.000001   0.004490  -0.000300
     2  C    0.000017   0.000048  -0.000579   0.000359   0.004139
     3  C   -0.000175   0.001656   0.005356  -0.017710  -0.007053
     4  C    0.000802   0.006836  -0.030134   0.001184  -0.014464
     5  C   -0.037849  -0.031241   0.014858  -0.000623   0.000467
     6  C    0.378645   0.328101  -0.029360   0.003207  -0.006303
     7  C   -0.018654  -0.037775   0.293614  -0.008471  -0.027452
     8  C    0.003332  -0.005061  -0.037757   0.347472   0.346497
     9  H    0.000000  -0.000000  -0.000001  -0.000109  -0.000012
    10  H   -0.000001  -0.000003   0.000024   0.000006   0.000003
    11  H   -0.006879   0.004374  -0.000560   0.000046  -0.000044
    12  H    0.002715  -0.001242  -0.000650   0.000003   0.000238
    13  H    0.622294  -0.049934  -0.016407  -0.000041  -0.000191
    14  H   -0.049934   0.691677  -0.003649  -0.000009   0.004135
    15  H   -0.016407  -0.003649   0.656255  -0.014097   0.001346
    16  H   -0.000041  -0.000009  -0.014097   0.591414  -0.046847
    17  H   -0.000191   0.004135   0.001346  -0.046847   0.626565
 Mulliken charges:
               1
     1  N   -0.411888
     2  C   -0.112601
     3  C    0.120578
     4  C    0.315473
     5  C   -0.316790
     6  C   -0.178218
     7  C   -0.307279
     8  C   -0.306566
     9  H    0.223120
    10  H    0.076147
    11  H    0.146841
    12  H    0.116029
    13  H    0.122325
    14  H    0.092087
    15  H    0.161739
    16  H    0.139724
    17  H    0.119277
 Sum of Mulliken charges =  -0.00000
 Mulliken charges with hydrogens summed into heavy atoms:
               1
     1  N   -0.188767
     2  C   -0.036454
     3  C    0.120578
     4  C    0.315473
     5  C   -0.053920
     6  C    0.036194
     7  C   -0.145540
     8  C   -0.047565
 Electronic spatial extent (au):  <R**2>=           1050.2151
 Charge=             -0.0000 electrons
 Dipole moment (field-independent basis, Debye):
    X=              1.9752    Y=             -2.1608    Z=              2.1903  Tot=              3.6562
 Quadrupole moment (field-independent basis, Debye-Ang):
   XX=            -46.4420   YY=            -44.5664   ZZ=            -50.9658
   XY=              2.9389   XZ=             -0.4896   YZ=              2.3718
 Traceless Quadrupole moment (field-independent basis, Debye-Ang):
   XX=              0.8827   YY=              2.7583   ZZ=             -3.6411
   XY=              2.9389   XZ=             -0.4896   YZ=              2.3718
 Octapole moment (field-independent basis, Debye-Ang**2):
  XXX=              0.9536  YYY=             -0.7862  ZZZ=              4.8923  XYY=              0.0308
  XXY=            -19.9286  XXZ=              5.2588  XZZ=             -1.0172  YZZ=             -3.0634
  YYZ=              3.1472  XYZ=              2.9751
 Hexadecapole moment (field-independent basis, Debye-Ang**3):
 XXXX=           -953.7470 YYYY=           -275.7050 ZZZZ=            -89.6719 XXXY=             57.7544
 XXXZ=            -18.8678 YYYX=             -0.6091 YYYZ=              4.7472 ZZZX=              4.0565
 ZZZY=              7.3444 XXYY=           -212.4806 XXZZ=           -194.0247 YYZZ=            -62.0464
 XXYZ=              6.3721 YYXZ=              1.5691 ZZXY=             -5.0421
 N-N= 3.424457271859D+02 E-N=-1.442066643643D+03  KE= 3.242554561250D+02
 PrsmSu:  requested number of processors reduced to:  13 ShMem   1 Linda.
 Calling FoFJK, ICntrl=      2127 FMM=F ISym2X=0 I1Cent= 0 IOpClX= 0 NMat=1 NMatS=1 NMatT=0.
 ***** Axes restored to original set *****
 -------------------------------------------------------------------
 Center     Atomic                   Forces (Hartrees/Bohr)
 Number     Number              X              Y              Z
 -------------------------------------------------------------------
      1        7           0.009853060   -0.001333257   -0.002966272
      2        6          -0.005405930    0.001974074   -0.003197038
      3        6          -0.000102183    0.089354698    0.051531792
      4        6          -0.038057194   -0.062130068   -0.024929142
      5        6           0.044836031    0.010336198    0.022112413
      6        6           0.030529080    0.004107800   -0.010617717
      7        6           0.002226737   -0.018921710   -0.059852479
      8        6          -0.021982718    0.012584662    0.017533547
      9        1           0.001323370   -0.001305323   -0.003298512
     10        1           0.001093221   -0.006166361   -0.000486490
     11        1          -0.005740570    0.000913372   -0.000600335
     12        1          -0.002378646    0.004662579    0.006786041
     13        1          -0.014062242    0.003814536   -0.000100819
     14        1           0.007412892    0.004465259    0.004514752
     15        1          -0.019337911   -0.033778613   -0.000980544
     16        1           0.005317717   -0.010801160   -0.002716358
     17        1           0.004475285    0.002223314    0.007267161
 -------------------------------------------------------------------
 Cartesian Forces:  Max     0.089354698 RMS     0.023220084

 GradGradGradGradGradGradGradGradGradGradGradGradGradGradGradGradGradGrad
 Berny optimization.
 FormGI is forming the generalized inverse of G from B-inverse, IUseBI=4.
 Internal  Forces:  Max     0.039321827 RMS     0.010722154
 Search for a local minimum.
 Step number   1 out of a maximum of  102
 All quantities printed in internal units (Hartrees-Bohrs-Radians)
 Mixed Optimization -- RFO/linear search
 Second derivative matrix not updated -- first step.
 ITU=  0
     Eigenvalues ---    0.00661   0.00979   0.01138   0.01148   0.01851
     Eigenvalues ---    0.01955   0.02766   0.03143   0.03465   0.03756
     Eigenvalues ---    0.04676   0.04857   0.05272   0.05526   0.05895
     Eigenvalues ---    0.05964   0.06222   0.06614   0.06899   0.07777
     Eigenvalues ---    0.08857   0.13618   0.14186   0.16000   0.16000
     Eigenvalues ---    0.20999   0.22000   0.22948   0.25112   0.25280
     Eigenvalues ---    0.29201   0.32376   0.32561   0.33055   0.33370
     Eigenvalues ---    0.33479   0.33790   0.33816   0.33905   0.33951
     Eigenvalues ---    0.34132   0.35603   0.43497   0.52984   0.69956
 RFO step:  Lambda=-6.75583610D-02 EMin= 6.60663876D-03
 Linear search not attempted -- first point.
 Maximum step size (   0.300) exceeded in Quadratic search.
    -- Step size scaled by   0.652
 Iteration  1 RMS(Cart)=  0.05771754 RMS(Int)=  0.00288760
 Iteration  2 RMS(Cart)=  0.00410991 RMS(Int)=  0.00084876
 Iteration  3 RMS(Cart)=  0.00000929 RMS(Int)=  0.00084873
 Iteration  4 RMS(Cart)=  0.00000001 RMS(Int)=  0.00084873
 Variable       Old X    -DE/DX   Delta X   Delta X   Delta X     New X
                                 (Linear)    (Quad)   (Total)
    R1        2.43835  -0.01191   0.00000  -0.01013  -0.01013   2.42822
    R2        1.93761  -0.00363   0.00000  -0.00470  -0.00470   1.93290
    R3        2.78007  -0.01367   0.00000  -0.02104  -0.02104   2.75903
    R4        2.08406  -0.00166   0.00000  -0.00270  -0.00270   2.08136
    R5        2.50751   0.02469   0.00000   0.02143   0.02215   2.52966
    R6        2.76055   0.02027   0.00000   0.02938   0.02887   2.78943
    R7        2.76039   0.01304   0.00000   0.01285   0.01305   2.77344
    R8        3.30311   0.00568   0.00000  -0.00165  -0.00154   3.30157
    R9        2.83107   0.02303   0.00000   0.04142   0.04108   2.87215
   R10        2.07108  -0.00137   0.00000  -0.00219  -0.00219   2.06889
   R11        2.07413   0.00075   0.00000   0.00120   0.00120   2.07533
   R12        2.93664   0.02735   0.00000   0.06458   0.06474   3.00137
   R13        2.08956  -0.00664   0.00000  -0.01088  -0.01088   2.07868
   R14        2.07685   0.00312   0.00000   0.00501   0.00501   2.08187
   R15        2.94167   0.03672   0.00000   0.08186   0.08159   3.02326
   R16        2.10160   0.00114   0.00000   0.00189   0.00189   2.10350
   R17        2.08218  -0.00367   0.00000  -0.00595  -0.00595   2.07623
   R18        2.07642  -0.00159   0.00000  -0.00256  -0.00256   2.07387
    A1        1.92440  -0.00117   0.00000  -0.00334  -0.00334   1.92106
    A2        2.11466  -0.00373   0.00000  -0.00845  -0.00845   2.10621
    A3        2.12162   0.00601   0.00000   0.01609   0.01609   2.13771
    A4        2.04684  -0.00228   0.00000  -0.00766  -0.00767   2.03918
    A5        2.26178   0.01018   0.00000   0.02635   0.02645   2.28823
    A6        2.30991   0.01580   0.00000   0.03774   0.03696   2.34686
    A7        1.68957  -0.02399   0.00000  -0.05143  -0.05285   1.63672
    A8        1.50173   0.02699   0.00000   0.08861   0.08850   1.59023
    A9        1.56431   0.01234   0.00000   0.04740   0.04773   1.61204
   A10        1.54092  -0.00829   0.00000  -0.02772  -0.02777   1.51316
   A11        2.01780  -0.00254   0.00000  -0.01890  -0.01873   1.99907
   A12        2.05386   0.00382   0.00000   0.00824   0.00832   2.06218
   A13        2.01478   0.00214   0.00000   0.00876   0.00766   2.02244
   A14        1.97179   0.00063   0.00000   0.01387   0.01407   1.98586
   A15        1.85785   0.00292   0.00000   0.01180   0.01179   1.86965
   A16        1.67765   0.00071   0.00000   0.01482   0.01467   1.69232
   A17        1.93424   0.00483   0.00000   0.01895   0.01927   1.95351
   A18        2.01378  -0.00554   0.00000  -0.02729  -0.02722   1.98656
   A19        1.97414  -0.00654   0.00000  -0.03004  -0.03015   1.94399
   A20        2.03047   0.00343   0.00000   0.00863   0.00889   2.03936
   A21        1.83610   0.00270   0.00000   0.01321   0.01328   1.84938
   A22        1.34378  -0.00440   0.00000  -0.02175  -0.02204   1.32173
   A23        1.36268  -0.01380   0.00000  -0.04033  -0.04146   1.32122
   A24        2.51779   0.01002   0.00000   0.08094   0.08212   2.59991
   A25        2.24937  -0.01726   0.00000  -0.05816  -0.05928   2.19009
   A26        1.52798   0.00466   0.00000   0.04019   0.04377   1.57175
   A27        1.52761   0.01389   0.00000   0.06374   0.06732   1.59493
   A28        1.55730   0.01665   0.00000   0.05642   0.05520   1.61250
   A29        1.97612   0.00004   0.00000   0.02158   0.02292   1.99905
   A30        2.04303  -0.01060   0.00000  -0.04996  -0.04984   1.99318
   A31        1.98541  -0.00605   0.00000  -0.02075  -0.02199   1.96342
   A32        2.04969  -0.00775   0.00000  -0.02597  -0.02468   2.02501
   A33        1.84866   0.00721   0.00000   0.01917   0.01880   1.86746
   A34        3.06604   0.03932   0.00000   0.13601   0.13623   3.20227
   A35        3.13130  -0.01536   0.00000  -0.10405  -0.10431   3.02699
    D1        3.11144   0.00065   0.00000   0.00423   0.00422   3.11566
    D2       -0.01793   0.00100   0.00000   0.00664   0.00665  -0.01128
    D3       -2.78675   0.00105   0.00000   0.00721   0.00710  -2.77965
    D4        0.63202  -0.00798   0.00000  -0.06444  -0.06435   0.56767
    D5        0.34312   0.00078   0.00000   0.00506   0.00496   0.34808
    D6       -2.52129  -0.00825   0.00000  -0.06659  -0.06648  -2.58778
    D7        2.92921  -0.00373   0.00000  -0.00069   0.00222   2.93143
    D8       -0.41750   0.00647   0.00000   0.06013   0.06070  -0.35680
    D9       -2.97298   0.00747   0.00000   0.04786   0.04621  -2.92678
   D10        1.27561   0.00130   0.00000   0.02662   0.02492   1.30053
   D11       -0.97855   0.00918   0.00000   0.05880   0.05757  -0.92098
   D12       -0.03271   0.00529   0.00000   0.04030   0.04083   0.00812
   D13       -2.06730  -0.00088   0.00000   0.01906   0.01954  -2.04776
   D14        1.96172   0.00700   0.00000   0.05123   0.05220   2.01392
   D15       -2.88407  -0.00273   0.00000  -0.02003  -0.02079  -2.90485
   D16       -0.86589  -0.00160   0.00000  -0.01234  -0.01256  -0.87845
   D17        1.29247  -0.00046   0.00000  -0.00862  -0.00877   1.28370
   D18        0.47153  -0.01209   0.00000  -0.08083  -0.07991   0.39162
   D19        2.48971  -0.01095   0.00000  -0.07315  -0.07168   2.41803
   D20       -1.63512  -0.00981   0.00000  -0.06943  -0.06789  -1.70301
   D21        0.38293   0.00084   0.00000  -0.01117  -0.01121   0.37172
   D22       -1.66837   0.00332   0.00000  -0.00243  -0.00221  -1.67059
   D23        2.39301  -0.00231   0.00000  -0.00914  -0.00905   2.38396
   D24        2.75279  -0.01602   0.00000  -0.09177  -0.09199   2.66080
   D25        0.39647  -0.00584   0.00000  -0.05781  -0.05821   0.33825
   D26        1.58936  -0.00931   0.00000  -0.06463  -0.06504   1.52432
   D27       -0.37851  -0.00066   0.00000   0.01228   0.01232  -0.36618
   D28       -2.73483   0.00952   0.00000   0.04624   0.04610  -2.68873
   D29       -1.54194   0.00605   0.00000   0.03941   0.03928  -1.50266
   D30       -0.43639   0.00250   0.00000   0.02253   0.02250  -0.41389
   D31       -2.48872   0.00792   0.00000   0.04283   0.04273  -2.44598
   D32        1.71050   0.00461   0.00000   0.03032   0.03025   1.74076
   D33        1.61767  -0.00423   0.00000  -0.01135  -0.01144   1.60623
   D34       -0.43466   0.00119   0.00000   0.00894   0.00880  -0.42586
   D35       -2.51862  -0.00211   0.00000  -0.00356  -0.00369  -2.52231
   D36       -2.52166   0.00204   0.00000   0.02361   0.02366  -2.49800
   D37        1.70920   0.00746   0.00000   0.04390   0.04390   1.75310
   D38       -0.37476   0.00416   0.00000   0.03140   0.03141  -0.34335
   D39        0.37081  -0.00062   0.00000  -0.01515  -0.01535   0.35546
   D40        1.46512  -0.01349   0.00000  -0.05670  -0.05588   1.40924
   D41        2.94574   0.01021   0.00000   0.06495   0.06461   3.01035
   D42        2.39109   0.00311   0.00000   0.00438   0.00399   2.39508
   D43       -2.79778  -0.00977   0.00000  -0.03717  -0.03654  -2.83433
   D44       -1.31716   0.01393   0.00000   0.08448   0.08395  -1.23321
   D45       -1.76346   0.00406   0.00000   0.00410   0.00379  -1.75967
   D46       -0.66915  -0.00882   0.00000  -0.03745  -0.03674  -0.70589
   D47        0.81148   0.01488   0.00000   0.08420   0.08375   0.89522
   D48       -0.35753   0.00366   0.00000   0.05037   0.05164  -0.30589
   D49       -2.36720  -0.00321   0.00000   0.00333   0.00444  -2.36276
   D50        1.74331  -0.00102   0.00000   0.01827   0.01879   1.76211
   D51       -1.44382   0.01268   0.00000   0.08448   0.08392  -1.35990
   D52        2.82969   0.00580   0.00000   0.03744   0.03673   2.86642
   D53        0.65702   0.00800   0.00000   0.05238   0.05108   0.70809
   D54       -2.92462  -0.00663   0.00000  -0.02597  -0.02446  -2.94908
   D55        1.34889  -0.01350   0.00000  -0.07301  -0.07165   1.27725
   D56       -0.82378  -0.01131   0.00000  -0.05807  -0.05730  -0.88108
         Item               Value     Threshold  Converged?
 Maximum Force            0.039322     0.000450     NO 
 RMS     Force            0.010722     0.000300     NO 
 Maximum Displacement     0.201071     0.001800     NO 
 RMS     Displacement     0.058446     0.001200     NO 
 Predicted change in Energy=-3.647024D-02
 GradGradGradGradGradGradGradGradGradGradGradGradGradGradGradGradGradGrad

                          Input orientation:                          
 ---------------------------------------------------------------------
 Center     Atomic      Atomic             Coordinates (Angstroms)
 Number     Number       Type             X           Y           Z
 ---------------------------------------------------------------------
      1          7           0        0.951866    0.367623    0.202897
      2          6           0        2.181315    0.001714    0.127491
      3          6           0        2.639347   -0.849674   -0.966583
      4          6           0        3.714907   -1.638997   -1.076532
      5          6           0        4.994424   -2.344055   -1.216879
      6          6           0        4.639174   -2.514287   -2.684819
      7          6           0        3.065264   -2.380914   -2.518731
      8          6           0        2.258883   -1.005725   -2.384246
      9          1           0        0.805647    0.936277    1.040434
     10          1           0        2.932837    0.295168    0.877286
     11          1           0        5.071135   -3.267391   -0.633633
     12          1           0        5.919718   -1.777133   -1.048025
     13          1           0        4.919751   -3.508486   -3.062737
     14          1           0        5.132726   -1.787233   -3.349268
     15          1           0        2.948089   -2.372622   -3.625639
     16          1           0        1.181083   -1.131866   -2.556181
     17          1           0        2.593422   -0.185979   -3.032694
 ---------------------------------------------------------------------
                    Distance matrix (angstroms):
                    1          2          3          4          5
     1  N    0.000000
     2  C    1.284959   0.000000
     3  C    2.386858   1.460018   0.000000
     4  C    3.646623   2.548236   1.338636   0.000000
     5  C    5.070625   3.901736   2.800394   1.467640   0.000000
     6  C    5.499141   4.503378   3.118105   2.051095   1.519878
     7  C    4.407740   3.668893   2.221546   1.747116   2.327625
     8  C    3.207443   2.707355   1.476101   2.056977   3.261450
     9  H    1.022847   1.897192   3.252722   4.424633   5.779437
    10  H    2.093871   1.101406   2.190127   2.858328   3.949831
    11  H    5.557111   4.429155   3.445258   2.164990   1.094811
    12  H    5.553768   4.303695   3.409933   2.209319   1.098217
    13  H    6.436824   5.477051   4.082081   2.981887   2.183728
    14  H    5.894139   4.898878   3.573953   2.682818   2.208226
    15  H    5.113858   4.506817   3.079817   2.761188   3.160764
    16  H    3.148574   3.080188   2.175543   2.977718   4.219561
    17  H    3.670181   3.192464   2.170579   2.682454   3.703955
                    6          7          8          9         10
     6  C    0.000000
     7  C    1.588259   0.000000
     8  C    2.834058   1.599838   0.000000
     9  H    6.362376   5.364447   4.196630   0.000000
    10  H    4.846981   4.325725   3.575491   2.227684   0.000000
    11  H    2.227358   2.891878   4.011052   6.218337   4.421202
    12  H    2.205059   3.267329   3.972690   6.154509   4.113723
    13  H    1.099990   2.237517   3.715424   7.315585   5.825753
    14  H    1.101677   2.305785   3.130653   6.738739   5.199968
    15  H    1.940355   1.113123   1.970905   6.108282   5.233897
    16  H    3.726396   2.260898   1.098693   4.165790   4.110202
    17  H    3.118835   2.303157   1.097444   4.587589   3.954068
                   11         12         13         14         15
    11  H    0.000000
    12  H    1.764280   0.000000
    13  H    2.445730   2.838412   0.000000
    14  H    3.093434   2.432114   1.757887   0.000000
    15  H    3.776247   3.978603   2.344034   2.278529   0.000000
    16  H    4.836234   5.014535   4.458986   4.083377   2.409466
    17  H    4.624895   4.187473   4.056077   3.018658   2.293203
                   16         17
    16  H    0.000000
    17  H    1.765351   0.000000
 Stoichiometry    C7H9N
 Framework group  C1[X(C7H9N)]
 Deg. of freedom    45
 Full point group                 C1      NOp   1
 Largest Abelian subgroup         C1      NOp   1
 Largest concise Abelian subgroup C1      NOp   1
                         Standard orientation:                         
 ---------------------------------------------------------------------
 Center     Atomic      Atomic             Coordinates (Angstroms)
 Number     Number       Type             X           Y           Z
 ---------------------------------------------------------------------
      1          7           0       -3.111977    0.052360   -0.157675
      2          6           0       -2.061750   -0.630596    0.128184
      3          6           0       -0.733336   -0.034538    0.020102
      4          6           0        0.476099   -0.595811   -0.099009
      5          6           0        1.785529   -1.256505   -0.045667
      6          6           0        2.377195    0.127595    0.164635
      7          6           0        1.190333    0.947367   -0.500119
      8          6           0       -0.191142    1.324755    0.213034
      9          1           0       -3.947734   -0.527413   -0.050020
     10          1           0       -2.109875   -1.683024    0.449391
     11          1           0        2.076275   -1.764954   -0.970631
     12          1           0        1.981603   -1.952245    0.781124
     13          1           0        3.317235    0.261212   -0.390747
     14          1           0        2.611672    0.356135    1.216530
     15          1           0        1.656620    1.899523   -0.160977
     16          1           0       -0.737939    2.114114   -0.320866
     17          1           0       -0.121589    1.636536    1.262957
 ---------------------------------------------------------------------
 Rotational constants (GHZ):           5.5605315           1.3349661           1.1227990
 Standard basis: 6-31G(2df,p) (6D, 7F)
 There are   293 symmetry adapted cartesian basis functions of A   symmetry.
 There are   269 symmetry adapted basis functions of A   symmetry.
   269 basis functions,   415 primitive gaussians,   293 cartesian basis functions
    29 alpha electrons       29 beta electrons
       nuclear repulsion energy       340.1382666051 Hartrees.
 NAtoms=   17 NActive=   17 NUniq=   17 SFac= 1.00D+00 NAtFMM=   60 NAOKFM=F Big=F
 Integral buffers will be    131072 words long.
 Raffenetti 2 integral format.
 Two-electron integral symmetry is turned on.
 One-electron integrals computed using PRISM.
 PrsmSu:  requested number of processors reduced to:  13 ShMem   1 Linda.
 NBasis=   269 RedAO= T EigKep=  3.31D-04  NBF=   269
 NBsUse=   269 1.00D-06 EigRej= -1.00D+00 NBFU=   269
 Initial guess from the checkpoint file:  "NdCC1dC2CCC2C1.chk"
 B after Tr=    -0.000000   -0.000000    0.000000
         Rot=    0.999965   -0.006653    0.001710    0.004855 Ang=  -0.96 deg.
 ExpMin= 1.61D-01 ExpMax= 4.17D+03 ExpMxC= 6.27D+02 IAcc=2 IRadAn=         4 AccDes= 0.00D+00
 Harris functional with IExCor=  402 and IRadAn=       4 diagonalized for initial guess.
 HarFok:  IExCor=  402 AccDes= 0.00D+00 IRadAn=         4 IDoV= 1 UseB2=F ITyADJ=14
 ICtDFT=  3500011 ScaDFX=  1.000000  1.000000  1.000000  1.000000
 FoFCou: FMM=F IPFlag=           0 FMFlag=      100000 FMFlg1=           0
         NFxFlg=           0 DoJE=T BraDBF=F KetDBF=T FulRan=T
         wScrn=  0.000000 ICntrl=       500 IOpCl=  0 I1Cent=   200000004 NGrid=           0
         NMat0=    1 NMatS0=      1 NMatT0=    0 NMatD0=    1 NMtDS0=    0 NMtDT0=    0
 Petite list used in FoFCou.
 Requested convergence on RMS density matrix=1.00D-08 within 128 cycles.
 Requested convergence on MAX density matrix=1.00D-06.
 Requested convergence on             energy=1.00D-06.
 No special actions if energy rises.
 Integral accuracy reduced to 1.0D-05 until final iterations.
 Initial convergence to 1.0D-05 achieved.  Increase integral accuracy.
 SCF Done:  E(RB3LYP) =  -326.640541486     A.U. after   14 cycles
            NFock= 14  Conv=0.81D-08     -V/T= 2.0080
 PrsmSu:  requested number of processors reduced to:  13 ShMem   1 Linda.
 Calling FoFJK, ICntrl=      2127 FMM=F ISym2X=0 I1Cent= 0 IOpClX= 0 NMat=1 NMatS=1 NMatT=0.
 ***** Axes restored to original set *****
 -------------------------------------------------------------------
 Center     Atomic                   Forces (Hartrees/Bohr)
 Number     Number              X              Y              Z
 -------------------------------------------------------------------
      1        7           0.004720019    0.000818883   -0.001731532
      2        6          -0.000825699    0.001294806   -0.006122328
      3        6           0.016419834    0.050542631    0.029357177
      4        6          -0.040550192   -0.054388992   -0.014066667
      5        6           0.025864809    0.012586675    0.014255772
      6        6           0.022175752    0.010834198   -0.006973198
      7        6           0.015108814    0.013837309   -0.042671094
      8        6          -0.011667956    0.006603178    0.011264744
      9        1           0.000154879   -0.000501417   -0.001358319
     10        1           0.000202211   -0.004964633    0.000050974
     11        1          -0.004288465   -0.000844101   -0.002336577
     12        1          -0.004269432    0.003706115    0.004888869
     13        1          -0.011072126    0.001281568    0.000599300
     14        1           0.003249734    0.002071222    0.004704205
     15        1          -0.021391176   -0.034318633    0.007722568
     16        1           0.003306231   -0.009390068   -0.001685158
     17        1           0.002862765    0.000831258    0.004101262
 -------------------------------------------------------------------
 Cartesian Forces:  Max     0.054388992 RMS     0.017080675

 GradGradGradGradGradGradGradGradGradGradGradGradGradGradGradGradGradGrad
 Berny optimization.
 Using GEDIIS/GDIIS optimizer.
 FormGI is forming the generalized inverse of G from B-inverse, IUseBI=4.
 Internal  Forces:  Max     0.027734615 RMS     0.007259596
 Search for a local minimum.
 Step number   2 out of a maximum of  102
 All quantities printed in internal units (Hartrees-Bohrs-Radians)
 Mixed Optimization -- RFO/linear search
 Update second derivatives using D2CorX and points    1    2
 DE= -3.84D-02 DEPred=-3.65D-02 R= 1.05D+00
 TightC=F SS=  1.41D+00  RLast= 4.52D-01 DXNew= 5.0454D-01 1.3568D+00
 Trust test= 1.05D+00 RLast= 4.52D-01 DXMaxT set to 5.05D-01
 ITU=  1  0
 Use linear search instead of GDIIS.
 Linear search step of   0.585 exceeds DXMaxT=   0.505 but not scaled.
 Quartic linear search produced a step of  1.93812.
 Iteration  1 RMS(Cart)=  0.11062537 RMS(Int)=  0.01211792
 Iteration  2 RMS(Cart)=  0.01810452 RMS(Int)=  0.00462340
 Iteration  3 RMS(Cart)=  0.00022739 RMS(Int)=  0.00462076
 Iteration  4 RMS(Cart)=  0.00000089 RMS(Int)=  0.00462076
 Variable       Old X    -DE/DX   Delta X   Delta X   Delta X     New X
                                 (Linear)    (Quad)   (Total)
    R1        2.42822  -0.00476  -0.01962   0.00000  -0.01962   2.40860
    R2        1.93290  -0.00141  -0.00912   0.00000  -0.00912   1.92378
    R3        2.75903  -0.01015  -0.04078   0.00000  -0.04078   2.71826
    R4        2.08136  -0.00115  -0.00524   0.00000  -0.00524   2.07612
    R5        2.52966   0.00475   0.04293   0.00000   0.04651   2.57617
    R6        2.78943   0.01070   0.05596   0.00000   0.05383   2.84325
    R7        2.77344   0.00165   0.02528   0.00000   0.02690   2.80034
    R8        3.30157  -0.00270  -0.00298   0.00000  -0.00252   3.29905
    R9        2.87215   0.01173   0.07962   0.00000   0.07825   2.95041
   R10        2.06889  -0.00083  -0.00424   0.00000  -0.00424   2.06466
   R11        2.07533  -0.00093   0.00233   0.00000   0.00233   2.07766
   R12        3.00137   0.01518   0.12547   0.00000   0.12645   3.12782
   R13        2.07868  -0.00419  -0.02108   0.00000  -0.02108   2.05760
   R14        2.08187  -0.00001   0.00971   0.00000   0.00971   2.09158
   R15        3.02326   0.01651   0.15813   0.00000   0.15553   3.17879
   R16        2.10350  -0.00568   0.00367   0.00000   0.00367   2.10717
   R17        2.07623  -0.00190  -0.01154   0.00000  -0.01154   2.06469
   R18        2.07387  -0.00093  -0.00495   0.00000  -0.00495   2.06892
    A1        1.92106   0.00024  -0.00648   0.00000  -0.00648   1.91458
    A2        2.10621  -0.00061  -0.01638   0.00000  -0.01638   2.08982
    A3        2.13771   0.00310   0.03118   0.00000   0.03118   2.16889
    A4        2.03918  -0.00249  -0.01486   0.00000  -0.01486   2.02432
    A5        2.28823   0.00555   0.05126   0.00000   0.05391   2.34214
    A6        2.34686   0.00872   0.07163   0.00000   0.06572   2.41259
    A7        1.63672  -0.01329  -0.10243   0.00000  -0.10939   1.52733
    A8        1.59023   0.01759   0.17153   0.00000   0.16950   1.75973
    A9        1.61204   0.01014   0.09251   0.00000   0.09393   1.70598
   A10        1.51316  -0.00562  -0.05382   0.00000  -0.05374   1.45942
   A11        1.99907  -0.00196  -0.03630   0.00000  -0.03595   1.96312
   A12        2.06218   0.00242   0.01613   0.00000   0.01651   2.07869
   A13        2.02244   0.00053   0.01485   0.00000   0.00841   2.03085
   A14        1.98586   0.00075   0.02727   0.00000   0.02881   2.01467
   A15        1.86965   0.00260   0.02285   0.00000   0.02289   1.89254
   A16        1.69232  -0.00005   0.02843   0.00000   0.02681   1.71912
   A17        1.95351   0.00172   0.03734   0.00000   0.03935   1.99286
   A18        1.98656  -0.00169  -0.05276   0.00000  -0.05225   1.93431
   A19        1.94399  -0.00407  -0.05844   0.00000  -0.05884   1.88515
   A20        2.03936   0.00135   0.01722   0.00000   0.01890   2.05826
   A21        1.84938   0.00241   0.02575   0.00000   0.02604   1.87542
   A22        1.32173  -0.00363  -0.04272   0.00000  -0.04374   1.27799
   A23        1.32122  -0.00813  -0.08036   0.00000  -0.08586   1.23536
   A24        2.59991   0.01410   0.15916   0.00000   0.16496   2.76487
   A25        2.19009  -0.01440  -0.11489   0.00000  -0.11899   2.07110
   A26        1.57175   0.00742   0.08483   0.00000   0.10315   1.67489
   A27        1.59493   0.01116   0.13047   0.00000   0.14883   1.74376
   A28        1.61250   0.00797   0.10698   0.00000   0.09839   1.71089
   A29        1.99905   0.00058   0.04443   0.00000   0.05174   2.05079
   A30        1.99318  -0.00468  -0.09660   0.00000  -0.09483   1.89835
   A31        1.96342  -0.00458  -0.04263   0.00000  -0.04919   1.91423
   A32        2.02501  -0.00455  -0.04783   0.00000  -0.04011   1.98490
   A33        1.86746   0.00476   0.03644   0.00000   0.03435   1.90181
   A34        3.20227   0.02773   0.26404   0.00000   0.26344   3.46571
   A35        3.02699  -0.01476  -0.20217   0.00000  -0.20290   2.82409
    D1        3.11566   0.00014   0.00818   0.00000   0.00811   3.12377
    D2       -0.01128   0.00046   0.01289   0.00000   0.01295   0.00167
    D3       -2.77965   0.00046   0.01376   0.00000   0.01310  -2.76655
    D4        0.56767  -0.00696  -0.12471   0.00000  -0.12413   0.44354
    D5        0.34808   0.00020   0.00962   0.00000   0.00904   0.35712
    D6       -2.58778  -0.00722  -0.12885   0.00000  -0.12820  -2.71597
    D7        2.93143  -0.00136   0.00431   0.00000   0.02076   2.95220
    D8       -0.35680   0.00528   0.11764   0.00000   0.12175  -0.23505
    D9       -2.92678   0.00637   0.08955   0.00000   0.07968  -2.84710
   D10        1.30053   0.00263   0.04830   0.00000   0.03852   1.33905
   D11       -0.92098   0.00732   0.11159   0.00000   0.10402  -0.81696
   D12        0.00812   0.00411   0.07913   0.00000   0.08165   0.08977
   D13       -2.04776   0.00037   0.03787   0.00000   0.04049  -2.00726
   D14        2.01392   0.00506   0.10116   0.00000   0.10599   2.11991
   D15       -2.90485  -0.00200  -0.04029   0.00000  -0.04377  -2.94863
   D16       -0.87845  -0.00282  -0.02435   0.00000  -0.02500  -0.90345
   D17        1.28370   0.00030  -0.01699   0.00000  -0.01728   1.26643
   D18        0.39162  -0.00844  -0.15487   0.00000  -0.14951   0.24211
   D19        2.41803  -0.00926  -0.13893   0.00000  -0.13074   2.28728
   D20       -1.70301  -0.00615  -0.13157   0.00000  -0.12302  -1.82603
   D21        0.37172   0.00010  -0.02173   0.00000  -0.02193   0.34979
   D22       -1.67059   0.00255  -0.00429   0.00000  -0.00293  -1.67351
   D23        2.38396  -0.00175  -0.01755   0.00000  -0.01633   2.36763
   D24        2.66080  -0.01471  -0.17828   0.00000  -0.17890   2.48191
   D25        0.33825  -0.00452  -0.11282   0.00000  -0.11603   0.22222
   D26        1.52432  -0.00919  -0.12605   0.00000  -0.12731   1.39702
   D27       -0.36618   0.00005   0.02389   0.00000   0.02400  -0.34218
   D28       -2.68873   0.01025   0.08935   0.00000   0.08686  -2.60187
   D29       -1.50266   0.00557   0.07612   0.00000   0.07559  -1.42707
   D30       -0.41389   0.00266   0.04361   0.00000   0.04333  -0.37057
   D31       -2.44598   0.00670   0.08283   0.00000   0.08238  -2.36360
   D32        1.74076   0.00348   0.05863   0.00000   0.05813   1.79889
   D33        1.60623  -0.00233  -0.02216   0.00000  -0.02275   1.58348
   D34       -0.42586   0.00172   0.01705   0.00000   0.01630  -0.40955
   D35       -2.52231  -0.00151  -0.00714   0.00000  -0.00794  -2.53025
   D36       -2.49800   0.00249   0.04586   0.00000   0.04604  -2.45196
   D37        1.75310   0.00654   0.08508   0.00000   0.08509   1.83819
   D38       -0.34335   0.00332   0.06088   0.00000   0.06084  -0.28250
   D39        0.35546  -0.00150  -0.02975   0.00000  -0.03070   0.32475
   D40        1.40924  -0.00642  -0.10830   0.00000  -0.10404   1.30520
   D41        3.01035   0.01225   0.12523   0.00000   0.12280   3.13315
   D42        2.39508  -0.00095   0.00773   0.00000   0.00582   2.40090
   D43       -2.83433  -0.00588  -0.07082   0.00000  -0.06751  -2.90184
   D44       -1.23321   0.01280   0.16270   0.00000   0.15932  -1.07389
   D45       -1.75967  -0.00004   0.00734   0.00000   0.00599  -1.75368
   D46       -0.70589  -0.00496  -0.07121   0.00000  -0.06734  -0.77323
   D47        0.89522   0.01371   0.16231   0.00000   0.15950   1.05472
   D48       -0.30589   0.00468   0.10008   0.00000   0.10649  -0.19940
   D49       -2.36276   0.00134   0.00861   0.00000   0.01535  -2.34740
   D50        1.76211   0.00245   0.03642   0.00000   0.03931   1.80142
   D51       -1.35990   0.00758   0.16264   0.00000   0.15890  -1.20100
   D52        2.86642   0.00425   0.07118   0.00000   0.06776   2.93418
   D53        0.70809   0.00536   0.09899   0.00000   0.09173   0.79982
   D54       -2.94908  -0.00896  -0.04740   0.00000  -0.04016  -2.98924
   D55        1.27725  -0.01230  -0.13886   0.00000  -0.13130   1.14594
   D56       -0.88108  -0.01118  -0.11105   0.00000  -0.10734  -0.98842
         Item               Value     Threshold  Converged?
 Maximum Force            0.027735     0.000450     NO 
 RMS     Force            0.007260     0.000300     NO 
 Maximum Displacement     0.404389     0.001800     NO 
 RMS     Displacement     0.117638     0.001200     NO 
 Predicted change in Energy=-4.055028D-02
 GradGradGradGradGradGradGradGradGradGradGradGradGradGradGradGradGradGrad

                          Input orientation:                          
 ---------------------------------------------------------------------
 Center     Atomic      Atomic             Coordinates (Angstroms)
 Number     Number       Type             X           Y           Z
 ---------------------------------------------------------------------
      1          7           0        1.067941    0.503874    0.201495
      2          6           0        2.236689   -0.002202    0.151928
      3          6           0        2.602068   -0.847156   -0.953358
      4          6           0        3.555556   -1.802535   -1.144574
      5          6           0        4.947371   -2.310832   -1.165571
      6          6           0        4.685396   -2.458958   -2.697580
      7          6           0        3.030932   -2.490500   -2.660894
      8          6           0        2.202278   -1.052037   -2.389312
      9          1           0        0.969409    1.057375    1.050198
     10          1           0        3.008144    0.146214    0.919930
     11          1           0        5.061596   -3.239210   -0.600970
     12          1           0        5.768283   -1.633251   -0.890285
     13          1           0        5.030802   -3.401151   -3.120101
     14          1           0        5.175965   -1.642607   -3.261459
     15          1           0        2.892406   -2.586616   -3.763139
     16          1           0        1.139984   -1.193617   -2.601991
     17          1           0        2.574770   -0.210372   -2.982178
 ---------------------------------------------------------------------
                    Distance matrix (angstroms):
                    1          2          3          4          5
     1  N    0.000000
     2  C    1.274575   0.000000
     3  C    2.347874   1.438439   0.000000
     4  C    3.649609   2.580993   1.363250   0.000000
     5  C    4.984116   3.796495   2.772693   1.481876   0.000000
     6  C    5.501726   4.489044   3.159189   2.029596   1.561289
     7  C    4.583981   3.838544   2.408357   1.745782   2.437418
     8  C    3.227981   2.749771   1.504584   1.985946   3.258472
     9  H    1.018021   1.880316   3.210459   4.436695   5.663800
    10  H    2.099632   1.098635   2.158910   2.891273   3.761249
    11  H    5.532080   4.361787   3.448968   2.151209   1.092569
    12  H    5.277547   4.027243   3.262950   2.233715   1.099453
    13  H    6.479698   5.483256   4.137199   2.938474   2.239630
    14  H    5.785783   4.793901   3.547537   2.670675   2.211679
    15  H    5.347722   4.736762   3.317361   2.812727   3.323596
    16  H    3.278140   3.194730   2.230631   2.886145   4.219913
    17  H    3.593947   3.159154   2.126582   2.621777   3.652565
                    6          7          8          9         10
     6  C    0.000000
     7  C    1.655172   0.000000
     8  C    2.870597   1.682142   0.000000
     9  H    6.341845   5.532585   4.218982   0.000000
    10  H    4.763032   4.446919   3.610583   2.236878   0.000000
    11  H    2.268501   2.987884   4.019651   6.158977   4.241569
    12  H    2.262908   3.370909   3.911686   5.833878   3.749899
    13  H    1.088832   2.244913   3.748724   7.332445   5.744284
    14  H    1.106818   2.383436   3.154714   6.601166   5.038188
    15  H    2.089623   1.115066   2.172236   6.335992   5.423365
    16  H    3.765657   2.293700   1.092587   4.293547   4.205841
    17  H    3.097076   2.347402   1.094824   4.521550   3.942260
                   11         12         13         14         15
    11  H    0.000000
    12  H    1.778261   0.000000
    13  H    2.524519   2.939631   0.000000
    14  H    3.104903   2.444053   1.770178   0.000000
    15  H    3.889805   4.175268   2.376910   2.521403   0.000000
    16  H    4.854646   4.954228   4.503344   4.114077   2.521844
    17  H    4.585665   4.074203   4.028919   2.982534   2.521374
                   16         17
    16  H    0.000000
    17  H    1.780428   0.000000
 Stoichiometry    C7H9N
 Framework group  C1[X(C7H9N)]
 Deg. of freedom    45
 Full point group                 C1      NOp   1
 Largest Abelian subgroup         C1      NOp   1
 Largest concise Abelian subgroup C1      NOp   1
                         Standard orientation:                         
 ---------------------------------------------------------------------
 Center     Atomic      Atomic             Coordinates (Angstroms)
 Number     Number       Type             X           Y           Z
 ---------------------------------------------------------------------
      1          7           0       -3.116482    0.075281   -0.052790
      2          6           0       -2.064644   -0.631075    0.085910
      3          6           0       -0.770542   -0.010699   -0.011768
      4          6           0        0.485214   -0.468861   -0.279382
      5          6           0        1.662573   -1.339656   -0.052452
      6          6           0        2.374093    0.007071    0.290603
      7          6           0        1.343728    1.035606   -0.496834
      8          6           0       -0.160693    1.350351    0.186725
      9          1           0       -3.940588   -0.516968    0.027579
     10          1           0       -2.066532   -1.715303    0.263234
     11          1           0        1.991465   -1.843501   -0.964416
     12          1           0        1.632367   -2.078364    0.761302
     13          1           0        3.362309    0.115203   -0.153574
     14          1           0        2.487510    0.124529    1.385311
     15          1           0        1.880586    1.972598   -0.218982
     16          1           0       -0.629276    2.192991   -0.327213
     17          1           0       -0.120840    1.565428    1.259475
 ---------------------------------------------------------------------
 Rotational constants (GHZ):           5.2200926           1.3345156           1.1131304
 Standard basis: 6-31G(2df,p) (6D, 7F)
 There are   293 symmetry adapted cartesian basis functions of A   symmetry.
 There are   269 symmetry adapted basis functions of A   symmetry.
   269 basis functions,   415 primitive gaussians,   293 cartesian basis functions
    29 alpha electrons       29 beta electrons
       nuclear repulsion energy       336.9474290024 Hartrees.
 NAtoms=   17 NActive=   17 NUniq=   17 SFac= 1.00D+00 NAtFMM=   60 NAOKFM=F Big=F
 Integral buffers will be    131072 words long.
 Raffenetti 2 integral format.
 Two-electron integral symmetry is turned on.
 One-electron integrals computed using PRISM.
 PrsmSu:  requested number of processors reduced to:  13 ShMem   1 Linda.
 NBasis=   269 RedAO= T EigKep=  3.86D-04  NBF=   269
 NBsUse=   269 1.00D-06 EigRej= -1.00D+00 NBFU=   269
 Initial guess from the checkpoint file:  "NdCC1dC2CCC2C1.chk"
 B after Tr=     0.000000    0.000000    0.000000
         Rot=    0.999773   -0.016010    0.003831    0.013527 Ang=  -2.44 deg.
 ExpMin= 1.61D-01 ExpMax= 4.17D+03 ExpMxC= 6.27D+02 IAcc=2 IRadAn=         4 AccDes= 0.00D+00
 Harris functional with IExCor=  402 and IRadAn=       4 diagonalized for initial guess.
 HarFok:  IExCor=  402 AccDes= 0.00D+00 IRadAn=         4 IDoV= 1 UseB2=F ITyADJ=14
 ICtDFT=  3500011 ScaDFX=  1.000000  1.000000  1.000000  1.000000
 FoFCou: FMM=F IPFlag=           0 FMFlag=      100000 FMFlg1=           0
         NFxFlg=           0 DoJE=T BraDBF=F KetDBF=T FulRan=T
         wScrn=  0.000000 ICntrl=       500 IOpCl=  0 I1Cent=   200000004 NGrid=           0
         NMat0=    1 NMatS0=      1 NMatT0=    0 NMatD0=    1 NMtDS0=    0 NMtDT0=    0
 Petite list used in FoFCou.
 Requested convergence on RMS density matrix=1.00D-08 within 128 cycles.
 Requested convergence on MAX density matrix=1.00D-06.
 Requested convergence on             energy=1.00D-06.
 No special actions if energy rises.
 Integral accuracy reduced to 1.0D-05 until final iterations.
 Initial convergence to 1.0D-05 achieved.  Increase integral accuracy.
 SCF Done:  E(RB3LYP) =  -326.676963928     A.U. after   14 cycles
            NFock= 14  Conv=0.64D-08     -V/T= 2.0091
 PrsmSu:  requested number of processors reduced to:  13 ShMem   1 Linda.
 Calling FoFJK, ICntrl=      2127 FMM=F ISym2X=0 I1Cent= 0 IOpClX= 0 NMat=1 NMatS=1 NMatT=0.
 ***** Axes restored to original set *****
 -------------------------------------------------------------------
 Center     Atomic                   Forces (Hartrees/Bohr)
 Number     Number              X              Y              Z
 -------------------------------------------------------------------
      1        7          -0.006260116    0.007537139    0.000966415
      2        6           0.006404689   -0.003275614   -0.009154470
      3        6           0.034439570   -0.023922105   -0.014637715
      4        6          -0.031711950   -0.025064304    0.012213105
      5        6          -0.005513202    0.005147746   -0.004999334
      6        6           0.006437974    0.014167759   -0.003200021
      7        6           0.037144499    0.061666085    0.002579898
      8        6          -0.003544423    0.003513953   -0.005843946
      9        1          -0.001895216    0.002047431    0.002272974
     10        1          -0.000771316   -0.002628942    0.001491263
     11        1           0.000084593   -0.003698667   -0.004867816
     12        1          -0.007734740    0.001886694    0.000574248
     13        1          -0.003321426   -0.004089339    0.000532748
     14        1          -0.004042878   -0.002491702    0.003756217
     15        1          -0.018306565   -0.023871405    0.021120176
     16        1          -0.001531605   -0.005947758    0.000277912
     17        1           0.000122112   -0.000976970   -0.003081654
 -------------------------------------------------------------------
 Cartesian Forces:  Max     0.061666085 RMS     0.014791589

 GradGradGradGradGradGradGradGradGradGradGradGradGradGradGradGradGradGrad
 Berny optimization.
 Using GEDIIS/GDIIS optimizer.
 FormGI is forming the generalized inverse of G from B-inverse, IUseBI=4.
 Internal  Forces:  Max     0.026776981 RMS     0.006219773
 Search for a local minimum.
 Step number   3 out of a maximum of  102
 All quantities printed in internal units (Hartrees-Bohrs-Radians)
 Mixed Optimization -- RFO/linear search
 Update second derivatives using D2CorX and points    2    3
 ITU=  0  1  0
 Use linear search instead of GDIIS.
     Eigenvalues ---    0.00617   0.00912   0.01141   0.01192   0.01424
     Eigenvalues ---    0.01748   0.01891   0.03103   0.03143   0.03622
     Eigenvalues ---    0.04712   0.04760   0.05376   0.05628   0.05979
     Eigenvalues ---    0.06122   0.06327   0.06640   0.07772   0.07859
     Eigenvalues ---    0.09118   0.12468   0.15966   0.16000   0.17099
     Eigenvalues ---    0.20544   0.22149   0.22582   0.24997   0.25114
     Eigenvalues ---    0.29448   0.32484   0.33074   0.33358   0.33381
     Eigenvalues ---    0.33488   0.33802   0.33819   0.33920   0.34132
     Eigenvalues ---    0.34353   0.35481   0.43513   0.54222   0.70154
 RFO step:  Lambda=-3.38052948D-02 EMin= 6.17284457D-03
 Quartic linear search produced a step of  0.17000.
 Iteration  1 RMS(Cart)=  0.08957419 RMS(Int)=  0.00829437
 Iteration  2 RMS(Cart)=  0.01103744 RMS(Int)=  0.00180872
 Iteration  3 RMS(Cart)=  0.00020832 RMS(Int)=  0.00180085
 Iteration  4 RMS(Cart)=  0.00000014 RMS(Int)=  0.00180085
 Variable       Old X    -DE/DX   Delta X   Delta X   Delta X     New X
                                 (Linear)    (Quad)   (Total)
    R1        2.40860   0.01141  -0.00334   0.01582   0.01248   2.42108
    R2        1.92378   0.00319  -0.00155   0.00693   0.00538   1.92916
    R3        2.71826  -0.00060  -0.00693  -0.00033  -0.00726   2.71100
    R4        2.07612   0.00015  -0.00089   0.00054  -0.00035   2.07577
    R5        2.57617  -0.02678   0.00791  -0.04200  -0.03230   2.54387
    R6        2.84325  -0.00363   0.00915  -0.00616   0.00466   2.84791
    R7        2.80034  -0.01212   0.00457  -0.02457  -0.01800   2.78234
    R8        3.29905  -0.01849  -0.00043  -0.11000  -0.11445   3.18460
    R9        2.95041  -0.00747   0.01330  -0.02044  -0.00526   2.94515
   R10        2.06466   0.00064  -0.00072   0.00178   0.00106   2.06572
   R11        2.07766  -0.00447   0.00040  -0.01178  -0.01138   2.06628
   R12        3.12782  -0.00652   0.02150  -0.02792  -0.00724   3.12058
   R13        2.05760   0.00228  -0.00358   0.00672   0.00313   2.06073
   R14        2.09158  -0.00554   0.00165  -0.01487  -0.01322   2.07836
   R15        3.17879  -0.01379   0.02644  -0.05033  -0.02550   3.15329
   R16        2.10717  -0.01655   0.00062  -0.04538  -0.04475   2.06242
   R17        2.06469   0.00221  -0.00196   0.00618   0.00422   2.06891
   R18        2.06892   0.00096  -0.00084   0.00266   0.00182   2.07074
    A1        1.91458   0.00319  -0.00110   0.01629   0.01519   1.92977
    A2        2.08982   0.00646  -0.00279   0.02535   0.02256   2.11238
    A3        2.16889  -0.00291   0.00530  -0.01162  -0.00633   2.16256
    A4        2.02432  -0.00354  -0.00253  -0.01360  -0.01614   2.00818
    A5        2.34214  -0.00293   0.00916  -0.01460  -0.00459   2.33756
    A6        2.41259  -0.00611   0.01117  -0.02672  -0.01645   2.39614
    A7        1.52733   0.00918  -0.01860   0.04393   0.02186   1.54919
    A8        1.75973  -0.00157   0.02882  -0.01305   0.01174   1.77147
    A9        1.70598   0.00208   0.01597   0.00459   0.01950   1.72547
   A10        1.45942   0.00152  -0.00914   0.01151   0.00251   1.46193
[...]
   zx         0.702834D+01      0.104149D+01      0.115882D+01
   zy        -0.221340D+02     -0.327992D+01     -0.364941D+01
   zz         0.107525D+03      0.159335D+02      0.177285D+02

 ----------------------------------------------------------------------
 1\1\GINC-LEWIS4-R630-HPC4-NODE301\Freq\RB3LYP\6-31G(2df,p)\C7H9N1\KS29
 C\04-Aug-2022\0\\#N Geom=AllCheck Guess=TCheck SCRF=Check GenChk RB3LY
 P/6-31G(2df,p) Freq\\Title Card Required\\0,1\N,1.547465554,0.89797188
 97,-0.1395319378\C,2.2941019247,-0.1263025728,0.0474463326\C,2.5069807
 702,-1.1079253038,-0.9859917208\C,3.3659839398,-2.1517968278,-1.134895
 4521\C,4.8463251322,-2.431420838,-1.1341318612\C,4.7095028406,-2.05480
 46379,-2.672250115\C,3.1494456698,-2.3051491508,-2.6122633209\C,2.1040
 293354,-1.1464884199,-2.4692619751\H,1.517851017,1.475391961,0.7026790
 299\H,2.809516175,-0.3368659775,0.9968133774\H,5.1001858952,-3.4885804
 735,-1.0114324827\H,5.4952370994,-1.8206234906,-0.5033026914\H,5.26580
 80595,-2.6911139206,-3.3649349755\H,4.9580779216,-1.0056241271,-2.8446
 174164\H,2.8313599699,-3.2446500867,-3.0664062317\H,1.0694078819,-1.39
 90814478,-2.7213081753\H,2.3783108137,-0.2265165762,-2.994470384\\Vers
 ion=ES64L-G16RevA.03\State=1-A\HF=-326.8017161\RMSD=6.392e-09\RMSF=1.3
 85e-05\ZeroPoint=0.1428531\Thermal=0.1499927\Dipole=0.8539992,-0.52426
 58,0.0846009\DipoleDeriv=-0.6108511,0.3068961,0.1785479,0.2997786,-0.8
 373906,-0.1892382,0.0061487,0.1196723,-0.3136667,0.3378484,-0.3567264,
 -0.0632059,-0.4154386,0.7705861,0.340373,-0.158057,0.3513538,0.6054996
 ,-0.3495871,0.2252444,0.207032,0.1340087,-0.2839897,-0.2858427,0.22563
 26,-0.3397748,-0.2485719,0.5243762,-0.5004789,-0.2631411,-0.0770532,-0
 .1272894,0.1757826,-0.2244202,0.2841013,0.1229181,0.1429917,0.0384684,
 0.0048637,-0.067654,0.2810969,0.0077077,0.2541296,-0.1070197,-0.050491
 5,-0.0213378,0.0029276,-0.0353055,0.0703423,0.0318078,-0.0603906,0.002
 5541,0.0051605,0.069649,-0.1564806,0.185598,0.1720886,-0.0459838,0.288
 6647,0.1966942,-0.0224851,-0.0030587,-0.0805685,0.1951616,0.0241464,0.
 0159843,0.1361985,-0.0307905,-0.0356238,0.0278753,-0.0273979,0.0865014
 ,0.2181109,-0.0363171,-0.0282095,-0.0128947,0.1849934,-0.0652367,0.038
 3045,-0.1697431,0.0204078,0.0218321,0.0591315,-0.1230684,0.0598784,0.0
 26071,0.0317155,-0.0815888,0.0016769,-0.1670285,0.0033361,0.0521612,-0
 .0047961,0.0960627,-0.1331062,0.0271059,-0.0497052,0.0388327,0.0461584
 ,-0.0864609,0.0194705,-0.0671936,-0.0823617,0.0122165,-0.0591777,-0.07
 11012,-0.045664,-0.0356598,-0.0922419,0.0970964,0.119742,0.0442999,0.0
 10232,-0.0543107,0.1280601,-0.0959399,-0.0932477,0.0031114,0.0042077,0
 .0211105,-0.0705835,-0.0818805,0.0561452,0.0243435,-0.0022788,0.001456
 2,0.0025969,-0.0441914,-0.0395697,-0.01658,-0.1333417,-0.1401645,-0.01
 73131,-0.0644934,0.0352545,-0.1496228,-0.0277915,-0.0983052,-0.0377248
 ,0.0544226,-0.0173898,-0.0524771,-0.0183016,-0.0029358,0.0172168,-0.04
 98428,0.0034262,-0.0142947,-0.0323025,0.0718505,-0.0299007,0.0728745,0
 .0043254\Polar=82.7478377,-28.5055229,90.4815112,-6.0048248,19.0982207
 ,78.3803924\Quadrupole=-1.643142,-1.1097183,2.7528602,1.351178,0.00341
 28,2.1157273\PG=C01 [X(C7H9N1)]\NImag=0\\0.26984843,-0.29133641,0.5888
 3571,0.05276418,0.13433533,0.40109463,-0.23242802,0.25334840,-0.036286
 21,0.41298378,0.22727788,-0.39412453,0.01378315,-0.30018215,0.64169053
 ,-0.07597643,0.07555390,-0.11661478,0.13586104,0.04221865,0.57012617,-
 0.01466184,0.02936978,0.02345855,-0.08206855,0.01259200,0.00168058,0.3
 8044450,0.02702151,-0.05611261,-0.02283110,0.01474779,-0.13503218,-0.0
 8408396,-0.26195998,0.54318691,0.01675339,-0.01518525,0.01351280,-0.00
 921726,-0.07869497,-0.20417971,0.00831780,0.17592532,0.49651870,0.0078
 2009,-0.00855706,-0.00176444,-0.00564581,0.00978217,0.01012283,-0.2196
 0180,0.18560624,-0.00278114,0.53814577,-0.00502978,0.00879081,-0.00447
 447,0.01407341,-0.02799376,-0.00263832,0.18865906,-0.27535389,-0.02807
 891,-0.25536895,0.43541265,-0.00127746,0.00210313,-0.00328210,0.014689
 36,-0.02488054,-0.00087326,0.02944657,-0.05646597,-0.05069976,0.019809
 75,0.07231722,0.38751134,-0.00032636,-0.00001603,-0.00052428,0.0021164
 2,-0.00101657,0.00123092,-0.00957563,-0.00375105,-0.00337520,-0.192434
 54,0.03655904,-0.02277333,0.48710347,0.00095598,-0.00135203,0.00005909
 ,-0.00290410,0.00162003,0.00307228,0.02005714,-0.00592196,0.00238035,0
 .01714970,-0.07507967,-0.01960252,0.00254358,0.57211326,0.00013763,-0.
 00195490,-0.00054262,-0.00159302,0.00055828,0.00405815,0.00267160,-0.0
 0098855,-0.00278223,-0.00590969,-0.01040883,-0.03669546,0.14386838,0.0
 4855014,0.38711671,0.00006334,0.00048162,-0.00000156,0.00254258,0.0008
 3118,-0.00149479,-0.00316053,0.00308973,0.00133505,-0.03278919,-0.0057
 3018,0.04577533,-0.04619949,-0.00244742,0.00342006,0.38512770,0.000151
 68,-0.00075798,0.00001833,-0.00179084,0.00060978,0.00065513,0.00540040
 ,0.00041998,-0.00131644,-0.01085467,0.00479532,0.00504285,-0.00341807,
 -0.07781108,0.00666208,-0.00311054,0.59676063,0.00010653,-0.00068269,-
 0.00035784,-0.00304573,-0.00171318,0.00233408,0.00147966,-0.00434148,-
 0.00440873,0.04948340,0.00845351,-0.04612907,-0.00882794,0.01742341,-0
 .12229795,-0.13046029,0.03918454,0.42200373,-0.00087734,0.00242923,0.0
 0102233,0.01044914,0.00624708,-0.00767106,-0.00585646,0.03117623,0.025
 03379,-0.04100690,-0.01822681,-0.03196995,-0.03797684,-0.00995474,-0.0
 3537663,-0.12541755,-0.00343011,0.00986643,0.41028061,-0.00134777,0.00
 201831,-0.00040004,0.00834248,-0.00288879,-0.00727254,0.01833963,-0.02
 385232,-0.03052606,-0.00011900,-0.05111993,-0.00098067,0.00617003,0.01
 418138,0.01265417,-0.02080687,-0.08094068,-0.00365065,0.02829475,0.529
 76493,-0.00033479,0.00001206,0.00011433,0.00355927,0.00152188,-0.00241
 001,0.01290086,-0.03014918,-0.04852608,-0.02558741,-0.03242578,-0.2031
 1928,-0.02863001,0.00263846,-0.02172121,-0.00449593,-0.00014441,-0.036
 85196,0.05949297,0.13802490,0.43257051,-0.00068557,-0.00166766,0.00113
 450,-0.00109974,0.00134405,0.00419452,-0.06168269,-0.01577848,-0.02562
 538,-0.02535628,0.03127110,-0.03415859,-0.00490436,0.00601211,-0.00358
 576,-0.00775676,0.01400163,-0.00782235,-0.10696180,0.03111760,0.011458
 42,0.54211249,-0.00065255,-0.00031282,0.00170953,-0.00636421,0.0068843
 8,-0.01452027,-0.01519869,-0.06126373,-0.00823795,0.04268001,-0.023592
 52,0.02522914,0.00406367,0.00744361,-0.00078855,-0.00006297,0.01041844
 ,0.00236320,0.02405223,-0.12869837,-0.00015474,0.06052260,0.49374556,-
 0.00070892,0.00242434,0.00130526,0.00000428,0.00248195,-0.01148171,-0.
 04103535,0.00132353,-0.16020469,-0.04157550,0.02539141,-0.03393869,-0.
 00109368,-0.00343412,-0.00329294,0.00464981,-0.00597957,-0.00446405,0.
 01589894,-0.00951201,-0.03592168,0.07275827,-0.09564500,0.40514193,-0.
 03281340,-0.00776930,-0.01310487,-0.00669640,0.02648809,0.02254930,0.0
 1001384,0.00731347,-0.00635489,0.00084079,0.00081406,-0.00005548,0.000
 06540,-0.00003246,0.00084782,-0.00062376,0.00009131,0.00063026,-0.0016
 0740,-0.00063445,-0.00007610,-0.00023109,-0.00000872,0.00020166,0.0372
 2381,0.01280604,-0.14490902,-0.14643913,0.00363822,-0.02780777,-0.0367
 1663,0.01164610,0.00036966,0.00112126,0.00021780,0.00001729,-0.0018560
 9,-0.00001852,-0.00014270,0.00055632,-0.00040874,0.00016684,0.00042629
 ,-0.00088908,-0.00088454,-0.00024906,-0.00018563,-0.00002047,0.0000422
 7,-0.02068092,0.17374774,0.01945556,-0.19725140,-0.29788616,-0.0117458
 4,0.01498757,-0.00353287,-0.00413222,-0.00180761,0.00425146,0.00040316
 ,-0.00081908,-0.00007063,-0.00001329,0.00002846,-0.00031989,0.00020841
 ,-0.00004394,-0.00013729,0.00044371,0.00004494,0.00006032,0.00011497,0
 .00046630,0.00047918,-0.00861342,0.18129640,0.29357266,0.00419845,0.02
 287405,-0.02714222,-0.10053715,0.01717797,-0.09005874,0.00770827,0.001
 69608,0.00278510,-0.00118735,-0.00098950,-0.00032113,-0.00032657,0.000
 30600,-0.00017185,-0.00006185,0.00013872,0.00007015,-0.00051053,-0.000
 62468,-0.00077186,0.00286243,0.00148934,-0.00009150,-0.00607846,-0.006
 19291,0.00382876,0.09405535,0.03025670,-0.00276185,0.02413306,0.016919
 48,-0.06351331,0.02552894,-0.00814177,0.00807460,-0.01946242,0.0003738
 0,-0.00080344,0.00128922,0.00034186,0.00028441,0.00012777,-0.00003395,
 0.00006731,0.00016848,-0.00095575,-0.00036958,-0.00075563,0.00242209,-
 0.00122581,-0.00169114,-0.00548752,-0.00056356,0.00314968,-0.03589200,
 0.06122498,-0.01212090,0.00296860,0.00213892,-0.09122004,0.02567622,-0
 .23847410,-0.01412994,0.00590866,-0.02104507,0.00050816,-0.00065666,0.
 00049440,0.00014494,-0.00025864,-0.00034022,0.00015075,-0.00029172,-0.
 00018826,0.00078852,-0.00022261,0.00005334,-0.00087535,-0.00272278,0.0
 0175196,0.00403632,0.00218619,0.00318882,0.11149359,-0.03240079,0.2530
 9791,-0.00033192,0.00055942,0.00024155,0.00026244,-0.00068857,-0.00120
 457,-0.00252576,0.00032954,-0.00129092,-0.00751574,0.03279321,0.000734
 36,-0.05906295,0.05685005,-0.00991632,0.00074720,-0.00453112,0.0005045
 6,0.00036794,-0.00189302,-0.00087329,-0.00158367,-0.00129442,0.0009189
 8,0.00008859,0.00009013,-0.00002948,-0.00003053,-0.00010267,0.00018860
 ,0.06311210,0.00015427,-0.00018489,-0.00011016,-0.00002925,0.00026169,
 0.00035238,-0.00113199,0.00152810,0.00080217,0.00437181,-0.00260370,-0
 .00133386,0.05422511,-0.29487987,0.02382761,0.00027248,-0.00644846,0.0
 0019801,0.00071988,-0.00037997,0.00006373,0.00080413,0.00029725,0.0002
 7485,-0.00004230,-0.00001647,0.00000201,-0.00005247,0.00000158,-0.0000
 1526,-0.06397196,0.31633601,-0.00005782,0.00018731,0.00005566,0.000175
 31,-0.00021703,-0.00035464,0.00104506,0.00031929,0.00147291,0.00537877
 ,-0.00863519,-0.00117530,-0.01130442,0.02464375,-0.04324137,-0.0079102
 6,0.02960641,-0.00575442,0.00098325,-0.00035602,-0.00163317,-0.0000008
 9,0.00025694,-0.00032548,-0.00007364,-0.00007768,-0.00002060,-0.000002
 18,-0.00002399,0.00008422,0.00901118,-0.02813852,0.05006288,-0.0001026
 5,0.00029717,0.00048401,-0.00070270,-0.00058833,-0.00070015,0.00144387
 ,-0.00024835,0.00000641,-0.01102785,-0.01834507,-0.02034737,-0.1392208
 3,-0.09076446,-0.08736507,0.00094885,0.00365650,0.00280939,-0.00588260
 ,0.00177367,0.00129680,0.00096493,0.00219705,-0.00158801,0.00005184,0.
 00011005,-0.00004969,0.00004706,0.00010087,0.00049897,0.00552243,0.004
 40056,0.00457284,0.14838128,-0.00003790,0.00000441,0.00010123,-0.00030
 701,-0.00008221,-0.00029746,-0.00063770,0.00062272,0.00017377,0.004749
 81,0.00341606,0.00493025,-0.09186499,-0.13761226,-0.08923820,0.0062388
 5,0.00402457,0.00369216,0.00228995,0.00108041,0.00275845,0.00032517,0.
 00015471,-0.00016620,0.00004889,0.00002915,-0.00003072,0.00009929,-0.0
 0002889,0.00001614,-0.01811168,-0.01604253,-0.01785048,0.09696108,0.14
 344208,0.00011945,0.00005593,0.00002848,-0.00000740,0.00055582,-0.0000
 9515,0.00021554,0.00079465,0.00045234,0.00016920,0.00643787,0.00143663
 ,-0.08713792,-0.08844373,-0.13817790,-0.01113746,-0.01621441,-0.006249
 91,-0.00328680,-0.00044299,-0.00057986,-0.00096205,-0.00159448,-0.0000
 8948,-0.00010138,-0.00003594,0.00006885,0.00002339,-0.00009981,0.00003
 473,0.00204852,0.00249050,0.00244616,0.10115780,0.09547807,0.14120225,
 -0.00021116,0.00060826,0.00022630,0.00129074,0.00023013,-0.00117521,-0
 .00070452,0.00129768,0.00193611,-0.00339909,-0.00155560,-0.00005246,0.
 00367275,-0.00548237,-0.00378541,-0.11164999,0.08190327,0.08491837,-0.
 01253163,0.01807909,0.01388847,-0.00148409,-0.00382943,0.00235889,-0.0
 0017096,-0.00013248,0.00006798,-0.00005242,-0.00004519,0.00022518,0.00
 043281,-0.00010180,0.00097615,0.00009604,0.00008951,-0.00112497,0.1181
 9959,-0.00009267,0.00026069,-0.00000323,0.00045363,0.00001878,-0.00032
 004,-0.00017101,0.00201236,0.00064352,0.00175823,-0.00067977,-0.000489
 35,-0.00421770,0.00362301,0.00807847,0.07946443,-0.14381935,-0.0993265
 0,-0.00667922,0.00127084,0.00286387,0.00013099,-0.00050483,0.00011038,
 -0.00012175,-0.00006919,0.00002496,-0.00002106,-0.00003021,0.00001031,
 0.00028736,0.00128113,-0.00063628,-0.00005478,0.00021462,0.00059998,-0
 .08672636,0.15006967,0.00014173,-0.00050954,-0.00009337,-0.00041895,0.
 00018901,0.00086331,0.00013290,0.00069605,-0.00111767,0.00138352,0.000
 69139,-0.00340511,0.01089451,-0.01589300,-0.01546280,0.08388423,-0.102
 48701,-0.15115671,-0.00018941,0.00520739,0.00408531,-0.00180317,-0.000
 57810,0.00018864,0.00012633,0.00011123,-0.00004007,-0.00002032,0.00005
 355,0.00000172,-0.00054389,-0.00020371,0.00277090,0.00099308,0.0004528
 8,-0.00253787,-0.09179036,0.10826181,0.16086161,-0.00012538,0.00029069
 ,0.00008936,0.00008381,0.00004825,-0.00038351,0.00075167,0.00170008,0.
 00087431,-0.00202090,-0.00216887,-0.00237583,0.00074966,0.00837380,-0.
 00195777,-0.05606158,-0.05704838,0.01317756,-0.00824737,-0.02907891,0.
 00553391,0.00226477,-0.00043354,-0.00105176,-0.00007846,-0.00003448,0.
 00001155,0.00002402,-0.00003103,-0.00000805,0.00039633,0.00030020,-0.0
 0215322,0.00029054,-0.00030082,0.00060220,0.00443223,0.01575103,-0.003
 18086,0.06150948,-0.00005624,0.00028103,0.00002689,0.00012177,-0.00024
 822,-0.00028102,-0.00110432,0.00020629,0.00049104,0.00162246,0.0009314
 6,-0.00151198,0.00002829,-0.00603430,0.00065063,-0.05668808,-0.3009169
 7,0.03819306,-0.00146896,-0.00229144,-0.00081253,0.00072273,0.00068275
 ,-0.00018543,-0.00003425,-0.00003003,0.00002123,0.00000731,-0.00001237
 ,0.00003703,-0.00015642,0.00079899,0.00121824,0.00017372,0.00087430,0.
 00008412,-0.00492009,-0.01503363,0.00373397,0.06265698,0.31968175,0.00
 006005,-0.00024470,-0.00006917,-0.00006812,0.00007070,0.00028818,-0.00
 009452,-0.00145170,0.00024118,-0.00203700,0.00232976,0.00002470,0.0068
 1348,0.02842629,-0.00650415,0.01236050,0.03653512,-0.05026071,-0.00075
 252,-0.00480759,-0.00089390,0.00099530,-0.00036162,0.00026075,0.000069
 95,0.00003561,-0.00002630,-0.00001508,0.00002875,-0.00002810,0.0011895
 8,0.00123056,-0.00461825,-0.00076550,-0.00051329,0.00208257,-0.0054706
 7,-0.01903945,0.00404589,-0.01094652,-0.04251988,0.05508793,0.00017961
 ,-0.00022729,-0.00007554,-0.00070912,-0.00013345,0.00160230,-0.0010652
 5,0.00230319,0.00020728,-0.00198669,0.00085935,0.00278951,-0.00219349,
 0.00015520,-0.00001245,-0.00806614,-0.02315971,-0.01121664,-0.06575988
 ,-0.06746103,-0.03592202,0.00688297,0.01389946,0.00795094,0.00006094,0
 .00004530,0.00004343,0.00007061,0.00023494,0.00020445,-0.00011552,0.00
 010058,-0.00044924,-0.00000180,0.00055824,-0.00064692,0.00226631,0.000
 43996,0.00050989,-0.00393751,-0.00044992,-0.00156703,0.07432047,0.0001
 5915,-0.00030712,-0.00010845,0.00014671,0.00128894,-0.00018545,0.00132
 319,-0.00271629,-0.00268613,0.00259122,0.00409998,-0.00148496,-0.00014
 198,-0.00114632,-0.00043311,0.00079883,-0.00470187,-0.00150868,-0.0671
 6470,-0.24720924,-0.09527212,-0.00976230,-0.01098230,-0.00677019,-0.00
 002913,0.00004525,-0.00002260,-0.00006117,-0.00020155,-0.00022698,-0.0
 0005514,0.00009928,0.00003554,0.00000735,-0.00004030,-0.00002846,0.000
 30915,0.00121953,0.00010606,-0.00103035,0.00033471,-0.00001576,0.07226
 491,0.26020719,-0.00008069,0.00021809,-0.00025017,0.00259971,-0.000255
 83,-0.00093210,-0.00149919,0.00007939,-0.00217004,-0.00582914,-0.02721
 355,-0.00369597,0.00048798,0.00047219,-0.00011673,0.00316242,0.0094512
 0,0.00375403,-0.03723115,-0.09623182,-0.08999077,0.00297507,0.00302605
 ,0.00070020,-0.00033534,-0.00035391,0.00012441,-0.00012465,0.00006152,
 -0.00007242,-0.00051317,0.00029748,0.00008079,-0.00065446,0.00051004,-
 0.00035434,-0.00151344,-0.00052950,0.00048954,0.00232114,0.00084489,0.
 00026912,0.03611720,0.10953709,0.09140852,0.00059047,-0.00065561,-0.00
 013939,-0.00067813,0.00111637,0.00103706,-0.00105781,0.00167156,-0.005
 38937,-0.00039741,0.00005652,-0.00255698,-0.00098757,0.00072593,-0.000
 35792,0.00062720,0.00131582,-0.00191504,-0.01153846,-0.00819553,-0.000
 26489,-0.28164932,-0.06082276,-0.04894408,-0.00004275,-0.00005187,0.00
 009656,-0.00010385,-0.00004561,0.00008551,-0.00013392,0.00014953,-0.00
 018959,-0.00004730,0.00001796,-0.00018136,-0.00018812,0.00009888,-0.00
 025180,0.00026358,0.00011076,0.00013975,0.00060919,0.00015604,0.000271
 67,0.30204519,-0.00009850,0.00046046,0.00032370,-0.00047081,-0.0001510
 9,-0.00091015,-0.00007844,-0.00061538,0.00392620,0.00122783,0.00101498
 ,0.00097156,0.00103063,-0.00020370,0.00056075,-0.00021463,-0.00244865,
 0.00215913,0.01866056,0.00748618,0.00177554,-0.05952213,-0.06299868,-0
 .01671131,0.00007135,0.00001828,-0.00001518,0.00016149,-0.00010046,-0.
 00018871,-0.00007418,-0.00013078,-0.00001561,-0.00005727,-0.00007150,0
 .00038619,0.00027646,-0.00000213,0.00031343,-0.00001542,0.00020531,-0.
 00006280,-0.00073379,0.00104606,-0.00086418,0.06566972,0.06198835,0.00
 063947,-0.00113039,0.00049347,-0.00222432,0.00268697,0.00022417,-0.026
 84538,-0.00768403,-0.00484547,-0.00061505,-0.00017670,-0.00274504,0.00
 059945,0.00182026,-0.00090275,0.00190317,-0.00142083,0.00044173,0.0059
 4334,0.00526580,0.00076096,-0.05378613,-0.01713622,-0.05822887,0.00006
 101,-0.00001101,0.00006201,0.00072292,0.00011094,-0.00084619,-0.000711
 43,0.00019018,0.00018277,0.00000891,-0.00009842,0.00014587,0.00025997,
 -0.00010384,0.00032383,-0.00034027,-0.00018252,-0.00008841,-0.00055842
 ,0.00016696,0.00048035,0.06027850,0.01409314,0.06053384,-0.00013676,-0
 .00002925,-0.00038227,0.00083670,-0.00052610,0.00038591,0.00159869,0.0
 0378477,-0.00321508,-0.00243711,0.00232902,0.00264370,-0.00049905,-0.0
 0154395,-0.00091361,0.00172997,0.00068412,0.00024168,0.00307709,0.0180
 4400,-0.01117442,-0.06169221,-0.06023708,0.03134704,-0.00000251,0.0000
 4099,-0.00009015,-0.00007749,0.00008574,0.00002929,0.00037020,-0.00016
 879,-0.00000128,-0.00076112,-0.00011864,0.00025014,0.00000154,-0.00029
 995,0.00013259,-0.00029490,-0.00056576,0.00008836,-0.00055470,0.000488
 23,-0.00015395,-0.00731098,-0.02583288,0.01466426,0.06615265,-0.000131
 42,0.00017142,-0.00012374,0.00025647,-0.00053228,-0.00015544,0.0010366
 1,0.00444776,-0.00127552,0.00276859,-0.00125187,-0.00327745,-0.0005172
 9,0.00091819,0.00158593,-0.00167374,0.00058216,-0.00103862,-0.00510055
 ,-0.01716719,0.01030455,-0.06175800,-0.23002717,0.10804622,0.00001364,
 0.00004954,-0.00003102,-0.00011647,-0.00004183,0.00018101,-0.00003052,
 0.00008262,-0.00031669,0.00038026,0.00001465,-0.00002330,-0.00000023,0
 .00016850,-0.00014541,0.00102076,0.00057036,0.00036000,0.00130406,-0.0
 0103593,0.00095083,-0.00131770,-0.00549723,0.00360969,0.06386552,0.248
 54830,0.00037903,-0.00089984,0.00035266,-0.00106208,0.00103134,0.00105
 425,0.00638747,0.02475669,-0.01646994,-0.00115943,-0.00009367,-0.00363
 738,-0.00035957,-0.00188269,0.00122337,-0.00134945,0.00074266,-0.00027
 667,-0.00299576,-0.00679420,0.00400316,0.03498863,0.10868855,-0.101880
 33,0.00019246,-0.00003613,0.00022608,-0.00020438,-0.00021814,0.0001483
 3,0.00024573,0.00007204,-0.00003306,-0.00035797,0.00008178,0.00018663,
 0.00005509,-0.00014512,0.00018285,-0.00021222,0.00019225,0.00018867,0.
 00102325,-0.00110277,0.00027559,-0.00171862,-0.00574171,0.00400774,-0.
 03385220,-0.11865104,0.11044805\\0.00000207,-0.00000532,-0.00000173,-0
 .00000863,-0.00001011,0.00000274,-0.00000996,0.00003220,0.00002277,-0.
 00002809,-0.00001835,-0.00003958,0.00004591,0.00000676,0.00000314,-0.0
 0001141,-0.00000146,-0.00000661,-0.00002435,-0.00000620,0.00000245,0.0
 0003524,0.00001726,0.00000222,-0.00000034,-0.00000162,-0.00000194,-0.0
 0000392,-0.00000134,-0.00000362,-0.00000235,0.00000292,0.00000602,0.00
 000527,-0.00000491,0.00000573,-0.00000301,0.00000090,-0.00000011,0.000
 01010,-0.00000522,0.00000779,0.00000615,-0.00000529,0.00000923,-0.0000
 0226,-0.00000172,-0.00000089,-0.00001041,0.00000148,-0.00000762\\\@


 THE REAL VOYAGE OF DISCOVERY CONSISTS NOT IN SEEKING NEW LANDSCAPES 
 BUT IN HAVING NEW EYES.
                                                    -- MARCEL PROUST
 Job cpu time:       0 days  1 hours 19 minutes 32.8 seconds.
 Elapsed time:       0 days  0 hours 19 minutes 53.5 seconds.
 File lengths (MBytes):  RWF=     97 Int=      0 D2E=      0 Chk=      7 Scr=      1
 Normal termination of Gaussian 16 at Thu Aug  4 01:19:01 2022.
### All Done ###
