### Starting Gaussian ###
 Entering Gaussian System, Link 0=g16
 Initial command:
 /cluster/software/gaussian/gaussian-16-A.03/avx2/g16/l1.exe "/local/scratch/yxie/Gau-5222.inp" -scrdir="/local/scratch/yxie/"
 Entering Link 1 = /cluster/software/gaussian/gaussian-16-A.03/avx2/g16/l1.exe PID=      5223.
  
 Copyright (c) 1988,1990,1992,1993,1995,1998,2003,2009,2016,
            Gaussian, Inc.  All Rights Reserved.
  
 This is part of the Gaussian(R) 16 program.  It is based on
 the Gaussian(R) 09 system (copyright 2009, Gaussian, Inc.),
 the Gaussian(R) 03 system (copyright 2003, Gaussian, Inc.),
 the Gaussian(R) 98 system (copyright 1998, Gaussian, Inc.),
 the Gaussian(R) 94 system (copyright 1995, Gaussian, Inc.),
 the Gaussian 92(TM) system (copyright 1992, Gaussian, Inc.),
 the Gaussian 90(TM) system (copyright 1990, Gaussian, Inc.),
 the Gaussian 88(TM) system (copyright 1988, Gaussian, Inc.),
 the Gaussian 86(TM) system (copyright 1986, Carnegie Mellon
 University), and the Gaussian 82(TM) system (copyright 1983,
 Carnegie Mellon University). Gaussian is a federally registered
 trademark of Gaussian, Inc.
  
 This software contains proprietary and confidential information,
 including trade secrets, belonging to Gaussian, Inc.
  
 This software is provided under written license and may be
 used, copied, transmitted, or stored only in accord with that
 written license.
  
 The following legend is applicable only to US Government
 contracts under FAR:
  
                    RESTRICTED RIGHTS LEGEND
  
 Use, reproduction and disclosure by the US Government is
 subject to restrictions as set forth in subparagraphs (a)
 and (c) of the Commercial Computer Software - Restricted
 Rights clause in FAR 52.227-19.
  
 Gaussian, Inc.
 340 Quinnipiac St., Bldg. 40, Wallingford CT 06492
  
  
 ---------------------------------------------------------------
 Warning -- This program may not be used in any manner that
 competes with the business of Gaussian, Inc. or will provide
 assistance to any competitor of Gaussian, Inc.  The licensee
 of this program is prohibited from giving any competitor of
 Gaussian, Inc. access to this program.  By using this program,
 the user acknowledges that Gaussian, Inc. is engaged in the
 business of creating and licensing software in the field of
 computational chemistry and represents and warrants to the
 licensee that it is not a competitor of Gaussian, Inc. and that
 it will not use this program in any manner prohibited above.
 ---------------------------------------------------------------
  

 Cite this work as:
 Gaussian 16, Revision A.03,
 M. J. Frisch, G. W. Trucks, H. B. Schlegel, G. E. Scuseria, 
 M. A. Robb, J. R. Cheeseman, G. Scalmani, V. Barone, 
 G. A. Petersson, H. Nakatsuji, X. Li, M. Caricato, A. V. Marenich, 
 J. Bloino, B. G. Janesko, R. Gomperts, B. Mennucci, H. P. Hratchian, 
 J. V. Ortiz, A. F. Izmaylov, J. L. Sonnenberg, D. Williams-Young, 
 F. Ding, F. Lipparini, F. Egidi, J. Goings, B. Peng, A. Petrone, 
 T. Henderson, D. Ranasinghe, V. G. Zakrzewski, J. Gao, N. Rega, 
 G. Zheng, W. Liang, M. Hada, M. Ehara, K. Toyota, R. Fukuda, 
 J. Hasegawa, M. Ishida, T. Nakajima, Y. Honda, O. Kitao, H. Nakai, 
 T. Vreven, K. Throssell, J. A. Montgomery, Jr., J. E. Peralta, 
 F. Ogliaro, M. J. Bearpark, J. J. Heyd, E. N. Brothers, K. N. Kudin, 
 V. N. Staroverov, T. A. Keith, R. Kobayashi, J. Normand, 
 K. Raghavachari, A. P. Rendell, J. C. Burant, S. S. Iyengar, 
 J. Tomasi, M. Cossi, J. M. Millam, M. Klene, C. Adamo, R. Cammi, 
 J. W. Ochterski, R. L. Martin, K. Morokuma, O. Farkas, 
 J. B. Foresman, and D. J. Fox, Gaussian, Inc., Wallingford CT, 2016.
 
 ******************************************
 Gaussian 16:  ES64L-G16RevA.03 25-Dec-2016
                 4-Aug-2022 
 ******************************************
 %chk=NtCC1CCCpNpCN1.chk
 %NProcShared=20
 Will use up to   20 processors via shared memory.
 -----------------------------
 # opt freq b3lyp/6-31g(2df,p)
 -----------------------------
 1/18=20,19=15,26=3,38=1/1,3;
 2/9=110,12=2,17=6,18=5,40=1/2;
 3/5=1,6=6,7=104,11=2,25=1,30=1,71=1,74=-5/1,2,3;
 4//1;
 5/5=2,38=5/2;
 6/7=2,8=2,9=2,10=2,28=1/1;
 7//1,2,3,16;
 1/18=20,19=15,26=3/3(2);
 2/9=110/2;
 99//99;
 2/9=110/2;
 3/5=1,6=6,7=104,11=2,25=1,30=1,71=1,74=-5/1,2,3;
 4/5=5,16=3,69=1/1;
 5/5=2,38=5/2;
 7//1,2,3,16;
 1/18=20,19=15,26=3/3(-5);
 2/9=110/2;
 6/7=2,8=2,9=2,10=2,19=2,28=1/1;
 99/9=1/99;
 -------------------
 Title Card Required
 -------------------
 Symbolic Z-matrix:
 Charge =  0 Multiplicity = 1
 N                     1.07742   0.01386   0.06176 
 C                     2.33839   0.01386   0.06176 
 C                     3.85839   0.01386   0.06176 
 C                     4.34715  -1.40343  -0.27712 
 C                     3.98075  -1.78744  -1.71918 
 C                     4.48366  -0.73704  -2.71963 
 N                     5.95464  -0.75764  -2.74433 
 C                     3.98015   0.66348  -2.29889 
 N                     4.38831   1.00005  -0.91672 
 H                     4.2108    0.29204   1.06105 
 H                     3.91424  -2.13579   0.41513 
 H                     5.43454  -1.45837  -0.14251 
 H                     2.88849  -1.86693  -1.80842 
 H                     4.37603  -2.78099  -1.95767 
 H                     4.11007  -0.97868  -3.72029 
 H                     6.28159  -0.38408  -1.85103 
 H                     6.28014  -0.06946  -3.42615 
 H                     2.88948   0.7188   -2.40991 
 H                     4.38819   1.42242  -2.97719 
 H                     4.00709   1.92045  -0.68727 
 

 GradGradGradGradGradGradGradGradGradGradGradGradGradGradGradGradGradGrad
 Berny optimization.
 Initialization pass.
                           ----------------------------
                           !    Initial Parameters    !
                           ! (Angstroms and Degrees)  !
 --------------------------                            --------------------------
 ! Name  Definition              Value          Derivative Info.                !
 --------------------------------------------------------------------------------
 ! R1    R(1,2)                  1.261          estimate D2E/DX2                !
 ! R2    R(2,3)                  1.52           estimate D2E/DX2                !
 ! R3    R(3,4)                  1.537          estimate D2E/DX2                !
 ! R4    R(3,9)                  1.4869         estimate D2E/DX2                !
 ! R5    R(3,10)                 1.0955         estimate D2E/DX2                !
 ! R6    R(4,5)                  1.5366         estimate D2E/DX2                !
 ! R7    R(4,11)                 1.0968         estimate D2E/DX2                !
 ! R8    R(4,12)                 1.0971         estimate D2E/DX2                !
 ! R9    R(5,6)                  1.5353         estimate D2E/DX2                !
 ! R10   R(5,13)                 1.0988         estimate D2E/DX2                !
 ! R11   R(5,14)                 1.0956         estimate D2E/DX2                !
 ! R12   R(6,7)                  1.4713         estimate D2E/DX2                !
 ! R13   R(6,8)                  1.5466         estimate D2E/DX2                !
 ! R14   R(6,15)                 1.0951         estimate D2E/DX2                !
 ! R15   R(7,16)                 1.022          estimate D2E/DX2                !
 ! R16   R(7,17)                 1.022          estimate D2E/DX2                !
 ! R17   R(8,9)                  1.48           estimate D2E/DX2                !
 ! R18   R(8,18)                 1.0977         estimate D2E/DX2                !
 ! R19   R(8,19)                 1.0966         estimate D2E/DX2                !
 ! R20   R(9,20)                 1.0223         estimate D2E/DX2                !
 ! A1    A(2,3,4)              108.5415         estimate D2E/DX2                !
 ! A2    A(2,3,9)              110.8791         estimate D2E/DX2                !
 ! A3    A(2,3,10)             108.7648         estimate D2E/DX2                !
 ! A4    A(4,3,9)              110.6814         estimate D2E/DX2                !
 ! A5    A(4,3,10)             109.4488         estimate D2E/DX2                !
 ! A6    A(9,3,10)             108.4941         estimate D2E/DX2                !
 ! A7    A(3,4,5)              111.1937         estimate D2E/DX2                !
 ! A8    A(3,4,11)             110.551          estimate D2E/DX2                !
 ! A9    A(3,4,12)             109.5307         estimate D2E/DX2                !
 ! A10   A(5,4,11)             109.3494         estimate D2E/DX2                !
 ! A11   A(5,4,12)             109.8143         estimate D2E/DX2                !
 ! A12   A(11,4,12)            106.2805         estimate D2E/DX2                !
 ! A13   A(4,5,6)              111.2504         estimate D2E/DX2                !
 ! A14   A(4,5,13)             109.3493         estimate D2E/DX2                !
 ! A15   A(4,5,14)             110.1751         estimate D2E/DX2                !
 ! A16   A(6,5,13)             108.7955         estimate D2E/DX2                !
 ! A17   A(6,5,14)             111.126          estimate D2E/DX2                !
 ! A18   A(13,5,14)            105.9842         estimate D2E/DX2                !
 ! A19   A(5,6,7)              109.1987         estimate D2E/DX2                !
 ! A20   A(5,6,8)              109.6108         estimate D2E/DX2                !
 ! A21   A(5,6,15)             109.4338         estimate D2E/DX2                !
 ! A22   A(7,6,8)              110.043          estimate D2E/DX2                !
 ! A23   A(7,6,15)             108.8221         estimate D2E/DX2                !
 ! A24   A(8,6,15)             109.714          estimate D2E/DX2                !
 ! A25   A(6,7,16)             107.4608         estimate D2E/DX2                !
 ! A26   A(6,7,17)             108.6749         estimate D2E/DX2                !
 ! A27   A(16,7,17)            103.599          estimate D2E/DX2                !
 ! A28   A(6,8,9)              111.729          estimate D2E/DX2                !
 ! A29   A(6,8,18)             109.974          estimate D2E/DX2                !
 ! A30   A(6,8,19)             109.7123         estimate D2E/DX2                !
 ! A31   A(9,8,18)             110.9173         estimate D2E/DX2                !
 ! A32   A(9,8,19)             108.5214         estimate D2E/DX2                !
 ! A33   A(18,8,19)            105.7994         estimate D2E/DX2                !
 ! A34   A(3,9,8)              111.4362         estimate D2E/DX2                !
 ! A35   A(3,9,20)             108.454          estimate D2E/DX2                !
 ! A36   A(8,9,20)             108.1508         estimate D2E/DX2                !
 ! A37   L(1,2,3,13,-1)        180.0            estimate D2E/DX2                !
 ! A38   L(1,2,3,13,-2)        180.0            estimate D2E/DX2                !
 ! D1    D(2,3,4,5)             66.4348         estimate D2E/DX2                !
 ! D2    D(2,3,4,11)           -55.2255         estimate D2E/DX2                !
 ! D3    D(2,3,4,12)          -172.0113         estimate D2E/DX2                !
 ! D4    D(9,3,4,5)            -55.4637         estimate D2E/DX2                !
 ! D5    D(9,3,4,11)          -177.124          estimate D2E/DX2                !
 ! D6    D(9,3,4,12)            66.0903         estimate D2E/DX2                !
 ! D7    D(10,3,4,5)          -174.9932         estimate D2E/DX2                !
 ! D8    D(10,3,4,11)           63.3465         estimate D2E/DX2                !
 ! D9    D(10,3,4,12)          -53.4393         estimate D2E/DX2                !
 ! D10   D(2,3,9,8)            -62.1683         estimate D2E/DX2                !
 ! D11   D(2,3,9,20)            56.7677         estimate D2E/DX2                !
 ! D12   D(4,3,9,8)             58.3476         estimate D2E/DX2                !
 ! D13   D(4,3,9,20)           177.2837         estimate D2E/DX2                !
 ! D14   D(10,3,9,8)           178.4499         estimate D2E/DX2                !
 ! D15   D(10,3,9,20)          -62.614          estimate D2E/DX2                !
 ! D16   D(3,4,5,6)             53.7306         estimate D2E/DX2                !
 ! D17   D(3,4,5,13)           -66.4651         estimate D2E/DX2                !
 ! D18   D(3,4,5,14)           177.4333         estimate D2E/DX2                !
 ! D19   D(11,4,5,6)           176.0886         estimate D2E/DX2                !
 ! D20   D(11,4,5,13)           55.893          estimate D2E/DX2                !
 ! D21   D(11,4,5,14)          -60.2086         estimate D2E/DX2                !
 ! D22   D(12,4,5,6)           -67.6577         estimate D2E/DX2                !
 ! D23   D(12,4,5,13)          172.1466         estimate D2E/DX2                !
 ! D24   D(12,4,5,14)           56.045          estimate D2E/DX2                !
 ! D25   D(4,5,6,7)             67.3947         estimate D2E/DX2                !
 ! D26   D(4,5,6,8)            -53.224          estimate D2E/DX2                !
 ! D27   D(4,5,6,15)          -173.5845         estimate D2E/DX2                !
 ! D28   D(13,5,6,7)          -172.0828         estimate D2E/DX2                !
 ! D29   D(13,5,6,8)            67.2985         estimate D2E/DX2                !
 ! D30   D(13,5,6,15)          -53.062          estimate D2E/DX2                !
 ! D31   D(14,5,6,7)           -55.7652         estimate D2E/DX2                !
 ! D32   D(14,5,6,8)          -176.3839         estimate D2E/DX2                !
 ! D33   D(14,5,6,15)           63.2556         estimate D2E/DX2                !
 ! D34   D(5,6,7,16)           -69.6432         estimate D2E/DX2                !
 ! D35   D(5,6,7,17)           178.8571         estimate D2E/DX2                !
 ! D36   D(8,6,7,16)            50.7108         estimate D2E/DX2                !
 ! D37   D(8,6,7,17)           -60.7889         estimate D2E/DX2                !
 ! D38   D(15,6,7,16)          170.9566         estimate D2E/DX2                !
 ! D39   D(15,6,7,17)           59.4569         estimate D2E/DX2                !
 ! D40   D(5,6,8,9)             56.1916         estimate D2E/DX2                !
 ! D41   D(5,6,8,18)           -67.4349         estimate D2E/DX2                !
 ! D42   D(5,6,8,19)           176.5917         estimate D2E/DX2                !
 ! D43   D(7,6,8,9)            -63.9133         estimate D2E/DX2                !
 ! D44   D(7,6,8,18)           172.4602         estimate D2E/DX2                !
 ! D45   D(7,6,8,19)            56.4868         estimate D2E/DX2                !
 ! D46   D(15,6,8,9)           176.3815         estimate D2E/DX2                !
 ! D47   D(15,6,8,18)           52.7549         estimate D2E/DX2                !
 ! D48   D(15,6,8,19)          -63.2184         estimate D2E/DX2                !
 ! D49   D(6,8,9,3)            -59.346          estimate D2E/DX2                !
 ! D50   D(6,8,9,20)          -178.4628         estimate D2E/DX2                !
 ! D51   D(18,8,9,3)            63.7464         estimate D2E/DX2                !
 ! D52   D(18,8,9,20)          -55.3704         estimate D2E/DX2                !
 ! D53   D(19,8,9,3)           179.56           estimate D2E/DX2                !
 ! D54   D(19,8,9,20)           60.4432         estimate D2E/DX2                !
 --------------------------------------------------------------------------------
 Trust Radius=3.00D-01 FncErr=1.00D-07 GrdErr=1.00D-06 EigMax=2.50D+02 EigMin=1.00D-04
 Number of steps in this run=    120 maximum allowed number of steps=    120.
 GradGradGradGradGradGradGradGradGradGradGradGradGradGradGradGradGradGrad

                          Input orientation:                          
 ---------------------------------------------------------------------
 Center     Atomic      Atomic             Coordinates (Angstroms)
 Number     Number       Type             X           Y           Z
 ---------------------------------------------------------------------
      1          7           0        1.077420    0.013860    0.061760
      2          6           0        2.338390    0.013860    0.061760
      3          6           0        3.858390    0.013860    0.061760
      4          6           0        4.347150   -1.403430   -0.277120
      5          6           0        3.980750   -1.787440   -1.719180
      6          6           0        4.483660   -0.737040   -2.719630
      7          7           0        5.954640   -0.757640   -2.744330
      8          6           0        3.980150    0.663480   -2.298890
      9          7           0        4.388310    1.000050   -0.916720
     10          1           0        4.210800    0.292040    1.061050
     11          1           0        3.914240   -2.135790    0.415130
     12          1           0        5.434540   -1.458370   -0.142510
     13          1           0        2.888490   -1.866930   -1.808420
     14          1           0        4.376030   -2.780990   -1.957670
     15          1           0        4.110070   -0.978680   -3.720290
     16          1           0        6.281590   -0.384080   -1.851030
     17          1           0        6.280140   -0.069460   -3.426150
     18          1           0        2.889480    0.718800   -2.409910
     19          1           0        4.388190    1.422420   -2.977190
     20          1           0        4.007090    1.920450   -0.687270
 ---------------------------------------------------------------------
                    Distance matrix (angstroms):
                    1          2          3          4          5
     1  N    0.000000
     2  C    1.260970   0.000000
     3  C    2.780970   1.520000   0.000000
     4  C    3.579760   2.481666   1.537022   0.000000
     5  C    3.853019   3.018903   2.536021   1.536636   0.000000
     6  C    4.461216   3.591958   2.948041   2.535462   1.535304
     7  N    5.679492   4.641833   3.586589   3.014663   2.451053
     8  C    3.797435   2.947889   2.451428   2.914509   2.518546
     9  N    3.590541   2.476321   1.486879   2.487468   2.929189
    10  H    3.300611   2.140534   1.095517   2.164234   3.479488
    11  H    3.576788   2.688711   2.179217   1.096801   2.163574
    12  H    4.603660   3.434433   2.166434   1.097067   2.169719
    13  H    3.211685   2.708792   2.824119   2.165041   1.098779
    14  H    4.771804   4.005154   3.486723   2.173190   1.095566
    15  H    4.948333   4.292772   3.918211   3.477361   2.162234
    16  H    5.558822   4.400676   3.112719   2.694128   2.698271
    17  H    6.264244   5.264015   4.247038   3.928399   3.339520
    18  H    3.144782   2.628649   2.746794   3.343270   2.819436
    19  H    4.709613   3.926950   3.391157   3.908643   3.471570
    20  H    3.574786   2.642100   2.053836   3.366310   3.848893
                    6          7          8          9         10
     6  C    0.000000
     7  N    1.471332   0.000000
     8  C    1.546609   2.473178   0.000000
     9  N    2.505406   2.980440   1.479955   0.000000
    10  H    3.927722   4.315521   3.388269   2.108166   0.000000
    11  H    3.479578   4.005586   3.899508   3.439776   2.529727
    12  H    2.840077   2.744266   3.356706   2.781695   2.451537
    13  H    2.156739   3.392304   2.799153   3.356213   3.826684
    14  H    2.184010   2.684174   3.483895   3.921733   4.310857
    15  H    1.095116   2.098522   2.175763   3.442789   4.948342
    16  H    2.027708   1.021973   2.567993   2.524532   3.636691
    17  H    2.042590   1.021969   2.664183   3.319655   4.954575
    18  H    2.181010   3.418613   1.097701   2.134294   3.738392
    19  H    2.176860   2.694560   1.096621   2.103315   4.197214
    20  H    3.379328   3.898283   2.044020   1.022307   2.397882
                   11         12         13         14         15
    11  H    0.000000
    12  H    1.755327   0.000000
    13  H    2.463458   3.069943   0.000000
    14  H    2.501942   2.482856   1.752300   0.000000
    15  H    4.298715   3.845105   2.436492   2.534933   0.000000
    16  H    3.715954   2.188752   3.703213   3.063937   2.926291
    17  H    4.962120   3.664206   4.165482   3.624150   2.371161
    18  H    4.144836   4.044565   2.654768   3.829214   2.467463
    19  H    4.938960   4.174831   3.799335   4.325301   2.528800
    20  H    4.204401   3.708207   4.105179   4.884012   4.196995
                   16         17         18         19         20
    16  H    0.000000
    17  H    1.606235   0.000000
    18  H    3.610416   3.626386   0.000000
    19  H    2.848972   2.450866   1.750148   0.000000
    20  H    3.440719   4.077740   2.379181   2.374238   0.000000
 Stoichiometry    C6H11N3
 Framework group  C1[X(C6H11N3)]
 Deg. of freedom    54
 Full point group                 C1      NOp   1
 Largest Abelian subgroup         C1      NOp   1
 Largest concise Abelian subgroup C1      NOp   1
                         Standard orientation:                         
 ---------------------------------------------------------------------
 Center     Atomic      Atomic             Coordinates (Angstroms)
 Number     Number       Type             X           Y           Z
 ---------------------------------------------------------------------
      1          7           0        3.022710   -0.050191   -0.869719
      2          6           0        2.076396   -0.025992   -0.036683
      3          6           0        0.935689    0.003178    0.967477
      4          6           0        0.123689    1.289536    0.747530
      5          6           0       -0.587523    1.271485   -0.614491
      6          6           0       -1.437312    0.003794   -0.781753
      7          7           0       -2.560378    0.045355    0.167885
      8          6           0       -0.564465   -1.245033   -0.516102
      9          7           0        0.069386   -1.196273    0.820358
     10          1           0        1.356546    0.005933    1.978927
     11          1           0        0.774534    2.170420    0.805991
     12          1           0       -0.614906    1.398970    1.551307
     13          1           0        0.162188    1.303574   -1.417123
     14          1           0       -1.196858    2.174013   -0.734565
     15          1           0       -1.837275   -0.034963   -1.800481
     16          1           0       -2.173017   -0.072370    1.106245
     17          1           0       -3.131036   -0.792233    0.036671
     18          1           0        0.191775   -1.348659   -1.304968
     19          1           0       -1.183427   -2.148334   -0.575340
     20          1           0        0.650609   -2.030389    0.927792
 ---------------------------------------------------------------------
 Rotational constants (GHZ):           2.9233911           1.2350164           1.1446000
 Standard basis: 6-31G(2df,p) (6D, 7F)
 There are   334 symmetry adapted cartesian basis functions of A   symmetry.
 There are   307 symmetry adapted basis functions of A   symmetry.
   307 basis functions,   473 primitive gaussians,   334 cartesian basis functions
    34 alpha electrons       34 beta electrons
       nuclear repulsion energy       458.7143796151 Hartrees.
 NAtoms=   20 NActive=   20 NUniq=   20 SFac= 1.00D+00 NAtFMM=   60 NAOKFM=F Big=F
 Integral buffers will be    131072 words long.
 Raffenetti 2 integral format.
 Two-electron integral symmetry is turned on.
 One-electron integrals computed using PRISM.
 PrsmSu:  requested number of processors reduced to:  13 ShMem   1 Linda.
 NBasis=   307 RedAO= T EigKep=  2.04D-04  NBF=   307
 NBsUse=   307 1.00D-06 EigRej= -1.00D+00 NBFU=   307
 ExpMin= 1.61D-01 ExpMax= 4.17D+03 ExpMxC= 6.27D+02 IAcc=3 IRadAn=         5 AccDes= 0.00D+00
 Harris functional with IExCor=  402 and IRadAn=       5 diagonalized for initial guess.
 HarFok:  IExCor=  402 AccDes= 0.00D+00 IRadAn=         5 IDoV= 1 UseB2=F ITyADJ=14
 ICtDFT=  3500011 ScaDFX=  1.000000  1.000000  1.000000  1.000000
 FoFCou: FMM=F IPFlag=           0 FMFlag=      100000 FMFlg1=           0
         NFxFlg=           0 DoJE=T BraDBF=F KetDBF=T FulRan=T
         wScrn=  0.000000 ICntrl=       500 IOpCl=  0 I1Cent=   200000004 NGrid=           0
         NMat0=    1 NMatS0=      1 NMatT0=    0 NMatD0=    1 NMtDS0=    0 NMtDT0=    0
 Petite list used in FoFCou.
 Requested convergence on RMS density matrix=1.00D-08 within 128 cycles.
 Requested convergence on MAX density matrix=1.00D-06.
 Requested convergence on             energy=1.00D-06.
 No special actions if energy rises.
 Integral accuracy reduced to 1.0D-05 until final iterations.
 Initial convergence to 1.0D-05 achieved.  Increase integral accuracy.
 SCF Done:  E(RB3LYP) =  -399.495275041     A.U. after   15 cycles
            NFock= 15  Conv=0.25D-08     -V/T= 2.0092

 **********************************************************************

            Population analysis using the SCF density.

 **********************************************************************

 Orbital symmetries:
       Occupied  (A) (A) (A) (A) (A) (A) (A) (A) (A) (A) (A) (A)
                 (A) (A) (A) (A) (A) (A) (A) (A) (A) (A) (A) (A)
                 (A) (A) (A) (A) (A) (A) (A) (A) (A) (A)
       Virtual   (A) (A) (A) (A) (A) (A) (A) (A) (A) (A) (A) (A)
                 (A) (A) (A) (A) (A) (A) (A) (A) (A) (A) (A) (A)
                 (A) (A) (A) (A) (A) (A) (A) (A) (A) (A) (A) (A)
                 (A) (A) (A) (A) (A) (A) (A) (A) (A) (A) (A) (A)
                 (A) (A) (A) (A) (A) (A) (A) (A) (A) (A) (A) (A)
                 (A) (A) (A) (A) (A) (A) (A) (A) (A) (A) (A) (A)
                 (A) (A) (A) (A) (A) (A) (A) (A) (A) (A) (A) (A)
                 (A) (A) (A) (A) (A) (A) (A) (A) (A) (A) (A) (A)
                 (A) (A) (A) (A) (A) (A) (A) (A) (A) (A) (A) (A)
                 (A) (A) (A) (A) (A) (A) (A) (A) (A) (A) (A) (A)
                 (A) (A) (A) (A) (A) (A) (A) (A) (A) (A) (A) (A)
                 (A) (A) (A) (A) (A) (A) (A) (A) (A) (A) (A) (A)
                 (A) (A) (A) (A) (A) (A) (A) (A) (A) (A) (A) (A)
                 (A) (A) (A) (A) (A) (A) (A) (A) (A) (A) (A) (A)
                 (A) (A) (A) (A) (A) (A) (A) (A) (A) (A) (A) (A)
                 (A) (A) (A) (A) (A) (A) (A) (A) (A) (A) (A) (A)
                 (A) (A) (A) (A) (A) (A) (A) (A) (A) (A) (A) (A)
                 (A) (A) (A) (A) (A) (A) (A) (A) (A) (A) (A) (A)
                 (A) (A) (A) (A) (A) (A) (A) (A) (A) (A) (A) (A)
                 (A) (A) (A) (A) (A) (A) (A) (A) (A) (A) (A) (A)
                 (A) (A) (A) (A) (A) (A) (A) (A) (A) (A) (A) (A)
                 (A) (A) (A) (A) (A) (A) (A) (A) (A) (A) (A) (A)
                 (A) (A) (A) (A) (A) (A) (A) (A) (A)
 The electronic state is 1-A.
 Alpha  occ. eigenvalues --  -14.35172 -14.34676 -14.30752 -10.26950 -10.24274
 Alpha  occ. eigenvalues --  -10.21801 -10.21413 -10.20489 -10.18798  -0.93990
 Alpha  occ. eigenvalues --   -0.88160  -0.85834  -0.79650  -0.75074  -0.66463
 Alpha  occ. eigenvalues --   -0.64424  -0.57452  -0.53952  -0.50656  -0.48841
 Alpha  occ. eigenvalues --   -0.46089  -0.44742  -0.42601  -0.41810  -0.40672
 Alpha  occ. eigenvalues --   -0.39942  -0.36639  -0.35008  -0.34102  -0.32977
 Alpha  occ. eigenvalues --   -0.31131  -0.30513  -0.25821  -0.23913
 Alpha virt. eigenvalues --    0.00019   0.00455   0.05837   0.09703   0.10111
 Alpha virt. eigenvalues --    0.12200   0.12613   0.13116   0.14673   0.15802
 Alpha virt. eigenvalues --    0.16003   0.16782   0.19189   0.19310   0.20775
 Alpha virt. eigenvalues --    0.21620   0.22358   0.24071   0.24600   0.26664
 Alpha virt. eigenvalues --    0.27222   0.34511   0.43320   0.45802   0.46684
 Alpha virt. eigenvalues --    0.48075   0.48901   0.49633   0.50694   0.51805
 Alpha virt. eigenvalues --    0.53725   0.55015   0.55472   0.57841   0.59217
 Alpha virt. eigenvalues --    0.60646   0.62384   0.63654   0.64982   0.65608
 Alpha virt. eigenvalues --    0.65946   0.68077   0.70782   0.71243   0.71613
 Alpha virt. eigenvalues --    0.71980   0.73030   0.73881   0.75679   0.77103
 Alpha virt. eigenvalues --    0.78189   0.79037   0.80688   0.81301   0.82644
 Alpha virt. eigenvalues --    0.84003   0.84398   0.85120   0.86689   0.86913
 Alpha virt. eigenvalues --    0.89273   0.89802   0.90347   0.93330   0.96354
 Alpha virt. eigenvalues --    1.02635   1.03345   1.05316   1.08257   1.08943
 Alpha virt. eigenvalues --    1.13431   1.14291   1.21893   1.23834   1.24763
 Alpha virt. eigenvalues --    1.26670   1.28757   1.33213   1.35479   1.36210
 Alpha virt. eigenvalues --    1.37517   1.39856   1.41661   1.42955   1.45541
 Alpha virt. eigenvalues --    1.45964   1.47788   1.48656   1.50291   1.50798
 Alpha virt. eigenvalues --    1.52441   1.56319   1.58517   1.60231   1.63186
 Alpha virt. eigenvalues --    1.64069   1.65946   1.70886   1.72592   1.76397
 Alpha virt. eigenvalues --    1.77848   1.79266   1.81268   1.82846   1.84258
 Alpha virt. eigenvalues --    1.85698   1.87802   1.91759   1.94304   1.95818
 Alpha virt. eigenvalues --    1.97678   2.03193   2.10437   2.19694   2.21350
 Alpha virt. eigenvalues --    2.22525   2.25590   2.31236   2.35416   2.37380
 Alpha virt. eigenvalues --    2.38060   2.41803   2.42717   2.47340   2.47853
 Alpha virt. eigenvalues --    2.51299   2.51368   2.52297   2.55980   2.58035
 Alpha virt. eigenvalues --    2.65195   2.69989   2.71720   2.74487   2.76638
 Alpha virt. eigenvalues --    2.78838   2.79322   2.79868   2.81127   2.84021
 Alpha virt. eigenvalues --    2.84291   2.87082   2.89066   2.90183   2.91400
 Alpha virt. eigenvalues --    2.93129   2.94214   2.96120   2.98169   2.99508
 Alpha virt. eigenvalues --    3.01351   3.04251   3.06483   3.07724   3.15210
 Alpha virt. eigenvalues --    3.17244   3.21077   3.25222   3.26550   3.27522
 Alpha virt. eigenvalues --    3.30016   3.31017   3.35205   3.35923   3.40672
 Alpha virt. eigenvalues --    3.42054   3.44320   3.47475   3.48259   3.50366
 Alpha virt. eigenvalues --    3.54723   3.55479   3.61046   3.63371   3.64319
 Alpha virt. eigenvalues --    3.64733   3.65222   3.68246   3.72738   3.74009
 Alpha virt. eigenvalues --    3.76124   3.77541   3.86265   3.87629   3.88529
 Alpha virt. eigenvalues --    3.93442   3.93807   3.95569   3.97960   4.02041
 Alpha virt. eigenvalues --    4.03217   4.08850   4.10702   4.13471   4.14307
 Alpha virt. eigenvalues --    4.15110   4.19421   4.21897   4.23466   4.25965
 Alpha virt. eigenvalues --    4.27115   4.29237   4.29644   4.30305   4.34451
 Alpha virt. eigenvalues --    4.35289   4.35836   4.38039   4.41774   4.44732
 Alpha virt. eigenvalues --    4.45658   4.50511   4.52539   4.53947   4.55935
 Alpha virt. eigenvalues --    4.56811   4.57912   4.59133   4.62577   4.64176
 Alpha virt. eigenvalues --    4.65102   4.67373   4.68510   4.69978   4.72178
 Alpha virt. eigenvalues --    4.74233   4.75360   4.75713   4.78388   4.81040
 Alpha virt. eigenvalues --    4.81469   4.82788   4.84743   4.86508   4.87585
 Alpha virt. eigenvalues --    4.90410   4.91593   4.94767   4.96651   4.99641
 Alpha virt. eigenvalues --    5.03728   5.05942   5.08623   5.10194   5.12735
 Alpha virt. eigenvalues --    5.15135   5.16294   5.19763   5.20926   5.30145
 Alpha virt. eigenvalues --    5.37390   5.41818   5.43631   5.46423   5.50146
 Alpha virt. eigenvalues --    5.53785   5.57219   5.75090   5.95161   6.19092
 Alpha virt. eigenvalues --    6.54741   9.79972  10.47382  11.20027  11.32365
 Alpha virt. eigenvalues --   11.39649  11.75970  11.86253  12.24984  12.55532
 Alpha virt. eigenvalues --   12.97691  14.44512  15.65407
          Condensed to atoms (all electrons):
               1          2          3          4          5          6
     1  N    6.520200   0.920189  -0.037317  -0.001790  -0.000908   0.000021
     2  C    0.920189   4.591635   0.326650  -0.039833  -0.008251  -0.002910
     3  C   -0.037317   0.326650   4.852015   0.381921  -0.022618  -0.011513
     4  C   -0.001790  -0.039833   0.381921   4.873647   0.409319  -0.015799
     5  C   -0.000908  -0.008251  -0.022618   0.409319   4.864072   0.402995
     6  C    0.000021  -0.002910  -0.011513  -0.015799   0.402995   4.678472
     7  N   -0.000001   0.000112  -0.001101  -0.004159  -0.038807   0.407245
     8  C   -0.001516  -0.004147  -0.064146  -0.024113  -0.025595   0.382264
     9  N   -0.001755  -0.066687   0.407905  -0.018666  -0.013574  -0.020257
    10  H    0.000302  -0.042366   0.376910  -0.036328   0.003723   0.000358
    11  H    0.000250  -0.002687  -0.028633   0.373281  -0.027986   0.003066
    12  H   -0.000024   0.003343  -0.025549   0.362191  -0.032661  -0.005035
    13  H    0.001355   0.010721  -0.006390  -0.034988   0.363161  -0.030392
    14  H    0.000013   0.000125   0.003775  -0.030454   0.362534  -0.024535
    15  H    0.000002  -0.000021   0.000449   0.004202  -0.038456   0.374983
    16  H   -0.000000   0.000247   0.000901   0.003249  -0.006104  -0.057383
    17  H    0.000000   0.000001   0.000030   0.000126   0.006540  -0.056783
    18  H    0.002313   0.015930  -0.002962  -0.000938  -0.003913  -0.032020
    19  H    0.000010   0.000010   0.004078   0.000473   0.004231  -0.026304
    20  H    0.000456  -0.000420  -0.046509   0.004705   0.000542   0.003687
               7          8          9         10         11         12
     1  N   -0.000001  -0.001516  -0.001755   0.000302   0.000250  -0.000024
     2  C    0.000112  -0.004147  -0.066687  -0.042366  -0.002687   0.003343
     3  C   -0.001101  -0.064146   0.407905   0.376910  -0.028633  -0.025549
     4  C   -0.004159  -0.024113  -0.018666  -0.036328   0.373281   0.362191
     5  C   -0.038807  -0.025595  -0.013574   0.003723  -0.027986  -0.032661
     6  C    0.407245   0.382264  -0.020257   0.000358   0.003066  -0.005035
     7  N    6.561643  -0.063849  -0.007562  -0.000039   0.000162   0.002328
     8  C   -0.063849   4.990856   0.376437   0.004419   0.000387   0.000910
     9  N   -0.007562   0.376437   6.378735  -0.029036   0.002503  -0.002214
    10  H   -0.000039   0.004419  -0.029036   0.601693  -0.001817  -0.003023
    11  H    0.000162   0.000387   0.002503  -0.001817   0.600811  -0.034086
    12  H    0.002328   0.000910  -0.002214  -0.003023  -0.034086   0.607974
    13  H    0.002968   0.000309  -0.000686   0.000104  -0.004059   0.005947
    14  H    0.001010   0.004954   0.000196  -0.000144  -0.002456  -0.002612
    15  H   -0.029273  -0.050677   0.002451   0.000015  -0.000163  -0.000035
    16  H    0.338096  -0.009804   0.017093  -0.000049  -0.000093   0.001918
    17  H    0.340393  -0.001610  -0.000023  -0.000000   0.000005  -0.000295
    18  H    0.005751   0.346687  -0.049311   0.000075   0.000032  -0.000038
    19  H   -0.002135   0.361248  -0.027118  -0.000185   0.000015  -0.000027
    20  H    0.000122  -0.041675   0.347923  -0.003696  -0.000176  -0.000107
              13         14         15         16         17         18
     1  N    0.001355   0.000013   0.000002  -0.000000   0.000000   0.002313
     2  C    0.010721   0.000125  -0.000021   0.000247   0.000001   0.015930
     3  C   -0.006390   0.003775   0.000449   0.000901   0.000030  -0.002962
     4  C   -0.034988  -0.030454   0.004202   0.003249   0.000126  -0.000938
     5  C    0.363161   0.362534  -0.038456  -0.006104   0.006540  -0.003913
     6  C   -0.030392  -0.024535   0.374983  -0.057383  -0.056783  -0.032020
     7  N    0.002968   0.001010  -0.029273   0.338096   0.340393   0.005751
     8  C    0.000309   0.004954  -0.050677  -0.009804  -0.001610   0.346687
     9  N   -0.000686   0.000196   0.002451   0.017093  -0.000023  -0.049311
    10  H    0.000104  -0.000144   0.000015  -0.000049  -0.000000   0.000075
    11  H   -0.004059  -0.002456  -0.000163  -0.000093   0.000005   0.000032
    12  H    0.005947  -0.002612  -0.000035   0.001918  -0.000295  -0.000038
    13  H    0.609187  -0.033754  -0.002910  -0.000087  -0.000239   0.001291
    14  H   -0.033754   0.614170  -0.003155  -0.000659  -0.000182  -0.000230
    15  H   -0.002910  -0.003155   0.660262   0.006900  -0.005229   0.000011
    16  H   -0.000087  -0.000659   0.006900   0.505640  -0.030277   0.000767
    17  H   -0.000239  -0.000182  -0.005229  -0.030277   0.521896   0.000083
    18  H    0.001291  -0.000230   0.000011   0.000767   0.000083   0.655884
    19  H   -0.000071  -0.000175  -0.002052  -0.000362   0.004866  -0.040003
    20  H   -0.000077   0.000021  -0.000178  -0.000456  -0.000033  -0.005078
              19         20
     1  N    0.000010   0.000456
     2  C    0.000010  -0.000420
     3  C    0.004078  -0.046509
     4  C    0.000473   0.004705
     5  C    0.004231   0.000542
     6  C   -0.026304   0.003687
     7  N   -0.002135   0.000122
     8  C    0.361248  -0.041675
     9  N   -0.027118   0.347923
    10  H   -0.000185  -0.003696
    11  H    0.000015  -0.000176
    12  H   -0.000027  -0.000107
    13  H   -0.000071  -0.000077
    14  H   -0.000175   0.000021
    15  H   -0.002052  -0.000178
    16  H   -0.000362  -0.000456
    17  H    0.004866  -0.000033
    18  H   -0.040003  -0.005078
    19  H    0.629597  -0.003103
    20  H   -0.003103   0.506400
 Mulliken charges:
               1
     1  N   -0.401799
     2  C    0.298358
     3  C   -0.107895
     4  C   -0.206048
     5  C   -0.198246
     6  C    0.029841
     7  N   -0.512902
     8  C   -0.181340
     9  N   -0.296353
    10  H    0.129084
    11  H    0.121643
    12  H    0.121099
    13  H    0.118608
    14  H    0.111559
    15  H    0.082873
    16  H    0.230461
    17  H    0.220730
    18  H    0.105669
    19  H    0.097005
    20  H    0.237652
 Sum of Mulliken charges =  -0.00000
 Mulliken charges with hydrogens summed into heavy atoms:
               1
     1  N   -0.401799
     2  C    0.298358
     3  C    0.021189
     4  C    0.036694
     5  C    0.031922
     6  C    0.112714
     7  N   -0.061711
     8  C    0.021334
     9  N   -0.058701
 Electronic spatial extent (au):  <R**2>=           1158.8577
 Charge=             -0.0000 electrons
 Dipole moment (field-independent basis, Debye):
    X=             -1.9103    Y=             -1.0593    Z=              1.7311  Tot=              2.7872
 Quadrupole moment (field-independent basis, Debye-Ang):
   XX=            -68.9989   YY=            -50.7351   ZZ=            -53.6369
   XY=              3.1056   XZ=              7.1235   YZ=              0.4969
 Traceless Quadrupole moment (field-independent basis, Debye-Ang):
   XX=            -11.2086   YY=              7.0552   ZZ=              4.1534
   XY=              3.1056   XZ=              7.1235   YZ=              0.4969
 Octapole moment (field-independent basis, Debye-Ang**2):
  XXX=            -40.2141  YYY=             -7.7394  ZZZ=              5.9262  XYY=             -0.5003
  XXY=            -14.3463  XXZ=             17.3799  XZZ=             -6.8605  YZZ=              0.9304
  YYZ=              1.7739  XYZ=             -1.9704
 Hexadecapole moment (field-independent basis, Debye-Ang**3):
 XXXX=          -1103.2329 YYYY=           -324.3025 ZZZZ=           -251.7340 XXXY=             48.3242
 XXXZ=             53.3468 YYYX=             -1.3690 YYYZ=             -6.0308 ZZZX=             11.7714
 ZZZY=              0.2081 XXYY=           -206.9690 XXZZ=           -202.1717 YYZZ=           -101.9344
 XXYZ=             -3.3999 YYXZ=              6.2059 ZZXY=             -2.1709
 N-N= 4.587143796151D+02 E-N=-1.844837168790D+03  KE= 3.958523059316D+02
 PrsmSu:  requested number of processors reduced to:  13 ShMem   1 Linda.
 Calling FoFJK, ICntrl=      2127 FMM=F ISym2X=0 I1Cent= 0 IOpClX= 0 NMat=1 NMatS=1 NMatT=0.
 ***** Axes restored to original set *****
 -------------------------------------------------------------------
 Center     Atomic                   Forces (Hartrees/Bohr)
 Number     Number              X              Y              Z
 -------------------------------------------------------------------
      1        7           0.177236398    0.001264553   -0.001168315
      2        6          -0.161329381   -0.000463536    0.007620999
      3        6          -0.012419771    0.006256637   -0.008991077
      4        6           0.000907469   -0.007922340   -0.003431586
      5        6          -0.005319475   -0.001963610   -0.001256732
      6        6           0.009604781    0.008211114    0.010870076
      7        7           0.005733983   -0.000019909   -0.003181161
      8        6          -0.008997895    0.001504456   -0.004124389
      9        7          -0.005436559   -0.009123069    0.003189781
     10        1          -0.003390147    0.001639950   -0.000536595
     11        1          -0.000268953    0.003665372    0.000733030
     12        1          -0.001463708    0.003102887    0.001059758
     13        1           0.000942796    0.001269268    0.001187685
     14        1           0.002620238    0.002780266   -0.000612936
     15        1           0.000508899    0.001739758    0.000317654
     16        1          -0.000774822   -0.001446686   -0.003691890
     17        1          -0.000940515   -0.003854702    0.000635100
     18        1          -0.004236746   -0.001282162   -0.000345907
     19        1           0.002399613   -0.000560058    0.002085632
     20        1           0.004623794   -0.004798192   -0.000359125
 -------------------------------------------------------------------
 Cartesian Forces:  Max     0.177236398 RMS     0.031251491

 GradGradGradGradGradGradGradGradGradGradGradGradGradGradGradGradGradGrad
 Berny optimization.
 FormGI is forming the generalized inverse of G from B-inverse, IUseBI=4.
 Internal  Forces:  Max     0.177236847 RMS     0.016985435
 Search for a local minimum.
 Step number   1 out of a maximum of  120
 All quantities printed in internal units (Hartrees-Bohrs-Radians)
 Mixed Optimization -- RFO/linear search
 Second derivative matrix not updated -- first step.
 ITU=  0
     Eigenvalues ---    0.00497   0.00501   0.00501   0.00511   0.00748
     Eigenvalues ---    0.00864   0.01798   0.02390   0.03287   0.04028
     Eigenvalues ---    0.04415   0.04763   0.04878   0.04933   0.04977
     Eigenvalues ---    0.05438   0.05534   0.06292   0.06821   0.06902
     Eigenvalues ---    0.08037   0.08072   0.08142   0.08824   0.09286
     Eigenvalues ---    0.10210   0.11888   0.13308   0.15337   0.15647
     Eigenvalues ---    0.16000   0.16000   0.18199   0.21551   0.26909
     Eigenvalues ---    0.28046   0.28206   0.28474   0.30367   0.32897
     Eigenvalues ---    0.33660   0.33818   0.33938   0.34009   0.34038
     Eigenvalues ---    0.34059   0.34177   0.34183   0.34228   0.35581
     Eigenvalues ---    0.43972   0.44025   0.44025   0.79312
 RFO step:  Lambda=-4.25237035D-02 EMin= 4.96900691D-03
 Linear search not attempted -- first point.
 Iteration  1 RMS(Cart)=  0.03584480 RMS(Int)=  0.00195966
 Iteration  2 RMS(Cart)=  0.00224377 RMS(Int)=  0.00015770
 Iteration  3 RMS(Cart)=  0.00001080 RMS(Int)=  0.00015755
 Iteration  4 RMS(Cart)=  0.00000000 RMS(Int)=  0.00015755
 Variable       Old X    -DE/DX   Delta X   Delta X   Delta X     New X
                                 (Linear)    (Quad)   (Total)
    R1        2.38289  -0.17724   0.00000  -0.21210  -0.21210   2.17079
    R2        2.87238  -0.01591   0.00000  -0.04595  -0.04595   2.82643
    R3        2.90455  -0.00041   0.00000   0.00011  -0.00005   2.90450
    R4        2.80979  -0.00986   0.00000  -0.02633  -0.02633   2.78346
    R5        2.07023  -0.00116   0.00000  -0.00303  -0.00303   2.06720
    R6        2.90382  -0.00184   0.00000  -0.00380  -0.00382   2.90000
    R7        2.07265  -0.00188   0.00000  -0.00491  -0.00491   2.06775
    R8        2.07316  -0.00148   0.00000  -0.00386  -0.00386   2.06930
    R9        2.90130   0.00070   0.00000   0.00255   0.00256   2.90386
   R10        2.07639  -0.00113   0.00000  -0.00296  -0.00296   2.07343
   R11        2.07032  -0.00144   0.00000  -0.00375  -0.00375   2.06657
   R12        2.78041   0.00420   0.00000   0.01053   0.01053   2.79095
   R13        2.92267  -0.00166   0.00000  -0.00662  -0.00646   2.91621
   R14        2.06947  -0.00085   0.00000  -0.00220  -0.00220   2.06727
   R15        1.93125  -0.00400   0.00000  -0.00829  -0.00829   1.92295
   R16        1.93124  -0.00332   0.00000  -0.00687  -0.00687   1.92437
   R17        2.79671  -0.00176   0.00000  -0.00599  -0.00598   2.79073
   R18        2.07435   0.00418   0.00000   0.01095   0.01095   2.08530
   R19        2.07231  -0.00079   0.00000  -0.00205  -0.00205   2.07026
   R20        1.93188  -0.00612   0.00000  -0.01270  -0.01270   1.91918
    A1        1.89441   0.00364   0.00000   0.02262   0.02252   1.91693
    A2        1.93521   0.00089   0.00000   0.01341   0.01332   1.94852
    A3        1.89830  -0.00391   0.00000  -0.03070  -0.03067   1.86763
    A4        1.93176  -0.00254   0.00000  -0.01109  -0.01104   1.92072
    A5        1.91024   0.00133   0.00000   0.00785   0.00786   1.91810
    A6        1.89358   0.00054   0.00000  -0.00263  -0.00259   1.89099
    A7        1.94070   0.00032   0.00000  -0.00004  -0.00007   1.94062
    A8        1.92948  -0.00266   0.00000  -0.01311  -0.01317   1.91631
    A9        1.91167  -0.00141   0.00000  -0.01889  -0.01892   1.89275
   A10        1.90851   0.00316   0.00000   0.02322   0.02326   1.93176
   A11        1.91662  -0.00005   0.00000   0.00296   0.00284   1.91946
   A12        1.85494   0.00066   0.00000   0.00621   0.00591   1.86085
   A13        1.94168  -0.00061   0.00000  -0.00060  -0.00074   1.94094
   A14        1.90851  -0.00081   0.00000  -0.00564  -0.00552   1.90298
   A15        1.92292   0.00102   0.00000   0.00294   0.00285   1.92577
   A16        1.89884   0.00167   0.00000   0.00621   0.00627   1.90511
   A17        1.93952  -0.00232   0.00000  -0.01545  -0.01541   1.92410
   A18        1.84977   0.00116   0.00000   0.01328   0.01330   1.86307
   A19        1.90588  -0.00120   0.00000   0.00947   0.00889   1.91477
   A20        1.91307  -0.00210   0.00000  -0.01026  -0.01069   1.90238
   A21        1.90998   0.00141   0.00000  -0.00500  -0.00517   1.90481
   A22        1.92061   0.00747   0.00000   0.04986   0.04988   1.97050
   A23        1.89930  -0.00323   0.00000  -0.02582  -0.02546   1.87384
   A24        1.91487  -0.00236   0.00000  -0.01841  -0.01839   1.89648
   A25        1.87554   0.00116   0.00000   0.00759   0.00757   1.88312
   A26        1.89674   0.00046   0.00000   0.00408   0.00406   1.90080
   A27        1.80814   0.00031   0.00000   0.00595   0.00589   1.81404
   A28        1.95004  -0.00352   0.00000  -0.02525  -0.02505   1.92499
   A29        1.91941   0.00208   0.00000   0.01150   0.01163   1.93104
   A30        1.91484  -0.00086   0.00000  -0.00517  -0.00569   1.90915
   A31        1.93587   0.00128   0.00000   0.01377   0.01366   1.94953
   A32        1.89406   0.00042   0.00000  -0.00651  -0.00682   1.88723
   A33        1.84655   0.00079   0.00000   0.01335   0.01340   1.85995
   A34        1.94493   0.00513   0.00000   0.01961   0.01938   1.96431
   A35        1.89288  -0.00296   0.00000  -0.00753  -0.00774   1.88514
   A36        1.88759  -0.00025   0.00000   0.00553   0.00564   1.89323
   A37        3.14159   0.00017   0.00000   0.00368   0.00368   3.14527
   A38        3.14159  -0.00401   0.00000  -0.08438  -0.08438   3.05722
    D1        1.15951   0.00347   0.00000   0.04148   0.04148   1.20099
    D2       -0.96387   0.00106   0.00000   0.02102   0.02110  -0.94277
    D3       -3.00216   0.00266   0.00000   0.03246   0.03244  -2.96972
    D4       -0.96802   0.00158   0.00000   0.01705   0.01708  -0.95094
    D5       -3.09140  -0.00082   0.00000  -0.00341  -0.00330  -3.09470
    D6        1.15349   0.00078   0.00000   0.00803   0.00804   1.16153
    D7       -3.05421   0.00164   0.00000   0.02219   0.02218  -3.03202
    D8        1.10560  -0.00076   0.00000   0.00174   0.00180   1.10741
    D9       -0.93269   0.00084   0.00000   0.01318   0.01314  -0.91955
   D10       -1.08504  -0.00251   0.00000  -0.02139  -0.02137  -1.10642
   D11        0.99078  -0.00162   0.00000  -0.00761  -0.00770   0.98309
   D12        1.01836   0.00098   0.00000   0.00860   0.00856   1.02692
   D13        3.09418   0.00186   0.00000   0.02238   0.02224   3.11642
   D14        3.11454   0.00142   0.00000   0.00988   0.00994   3.12448
   D15       -1.09282   0.00230   0.00000   0.02365   0.02362  -1.06920
   D16        0.93778   0.00156   0.00000   0.00168   0.00170   0.93948
   D17       -1.16003   0.00039   0.00000  -0.00199  -0.00202  -1.16206
   D18        3.09680  -0.00112   0.00000  -0.01645  -0.01651   3.08029
   D19        3.07333   0.00057   0.00000   0.00096   0.00099   3.07431
   D20        0.97552  -0.00059   0.00000  -0.00271  -0.00274   0.97278
   D21       -1.05084  -0.00210   0.00000  -0.01717  -0.01722  -1.06806
   D22       -1.18085   0.00315   0.00000   0.02349   0.02360  -1.15725
   D23        3.00453   0.00199   0.00000   0.01982   0.01987   3.02440
   D24        0.97817   0.00048   0.00000   0.00536   0.00539   0.98356
   D25        1.17626   0.00372   0.00000   0.03534   0.03517   1.21143
   D26       -0.92893  -0.00340   0.00000  -0.02540  -0.02542  -0.95436
   D27       -3.02962  -0.00007   0.00000   0.00663   0.00648  -3.02314
   D28       -3.00341   0.00342   0.00000   0.03202   0.03193  -2.97148
   D29        1.17458  -0.00370   0.00000  -0.02873  -0.02866   1.14592
   D30       -0.92611  -0.00037   0.00000   0.00331   0.00325  -0.92286
   D31       -0.97329   0.00450   0.00000   0.04305   0.04295  -0.93034
   D32       -3.07848  -0.00262   0.00000  -0.01769  -0.01765  -3.09613
   D33        1.10402   0.00071   0.00000   0.01434   0.01426   1.11828
   D34       -1.21550  -0.00087   0.00000  -0.02139  -0.02175  -1.23725
   D35        3.12165  -0.00201   0.00000  -0.03389  -0.03428   3.08736
   D36        0.88507   0.00040   0.00000   0.00270   0.00320   0.88827
   D37       -1.06097  -0.00074   0.00000  -0.00980  -0.00933  -1.07030
   D38        2.98376   0.00003   0.00000  -0.00562  -0.00570   2.97805
   D39        1.03772  -0.00111   0.00000  -0.01812  -0.01824   1.01948
   D40        0.98073   0.00130   0.00000   0.02489   0.02460   1.00533
   D41       -1.17696   0.00063   0.00000   0.01662   0.01645  -1.16051
   D42        3.08211  -0.00103   0.00000  -0.00316  -0.00323   3.07888
   D43       -1.11550  -0.00055   0.00000  -0.01143  -0.01166  -1.12716
   D44        3.01000  -0.00123   0.00000  -0.01969  -0.01981   2.99018
   D45        0.98588  -0.00289   0.00000  -0.03947  -0.03949   0.94639
   D46        3.07844   0.00026   0.00000   0.00094   0.00089   3.07933
   D47        0.92075  -0.00041   0.00000  -0.00733  -0.00726   0.91348
   D48       -1.10337  -0.00207   0.00000  -0.02711  -0.02694  -1.13031
   D49       -1.03578  -0.00365   0.00000  -0.03103  -0.03117  -1.06695
   D50       -3.11476  -0.00290   0.00000  -0.03693  -0.03699   3.13143
   D51        1.11258  -0.00255   0.00000  -0.02426  -0.02439   1.08819
   D52       -0.96640  -0.00180   0.00000  -0.03016  -0.03022  -0.99661
   D53        3.13391  -0.00063   0.00000  -0.00430  -0.00455   3.12936
   D54        1.05493   0.00012   0.00000  -0.01020  -0.01038   1.04456
         Item               Value     Threshold  Converged?
 Maximum Force            0.177237     0.000450     NO 
 RMS     Force            0.016985     0.000300     NO 
 Maximum Displacement     0.205143     0.001800     NO 
 RMS     Displacement     0.036172     0.001200     NO 
 Predicted change in Energy=-2.313734D-02
 GradGradGradGradGradGradGradGradGradGradGradGradGradGradGradGradGradGrad

                          Input orientation:                          
 ---------------------------------------------------------------------
 Center     Atomic      Atomic             Coordinates (Angstroms)
 Number     Number       Type             X           Y           Z
 ---------------------------------------------------------------------
      1          7           0        1.185977    0.093756    0.074988
      2          6           0        2.331560    0.014242    0.105064
      3          6           0        3.826608    0.002819    0.062997
      4          6           0        4.327888   -1.409567   -0.277936
      5          6           0        3.985836   -1.785038   -1.726059
      6          6           0        4.501323   -0.724881   -2.711787
      7          7           0        5.976993   -0.763599   -2.758155
      8          6           0        3.949508    0.655778   -2.298599
      9          7           0        4.350026    0.973739   -0.913178
     10          1           0        4.176922    0.292120    1.058103
     11          1           0        3.898521   -2.133906    0.420820
     12          1           0        5.412593   -1.437232   -0.130520
     13          1           0        2.896484   -1.870021   -1.825897
     14          1           0        4.402328   -2.765588   -1.972986
     15          1           0        4.136834   -0.961317   -3.715765
     16          1           0        6.327298   -0.394403   -1.876987
     17          1           0        6.303044   -0.093214   -3.451894
     18          1           0        2.853788    0.690359   -2.424686
     19          1           0        4.364342    1.425539   -2.958584
     20          1           0        3.981648    1.889385   -0.673790
 ---------------------------------------------------------------------
                    Distance matrix (angstroms):
                    1          2          3          4          5
     1  N    0.000000
     2  C    1.148733   0.000000
     3  C    2.642224   1.495684   0.000000
     4  C    3.500877   2.481782   1.536994   0.000000
     5  C    3.822676   3.054021   2.534267   1.534613   0.000000
     6  C    4.407698   3.631642   2.946899   2.534266   1.536658
     7  N    5.631660   4.700238   3.629111   3.047672   2.464399
     8  C    3.686040   2.967645   2.453283   2.914086   2.507330
     9  N    3.429584   2.455942   1.472945   2.466611   2.899010
    10  H    3.154618   2.095438   1.093915   2.168762   3.478887
    11  H    3.527035   2.677612   2.167673   1.094204   2.176792
    12  H    4.500049   3.413947   2.150940   1.095026   2.168490
    13  H    3.224224   2.756482   2.817904   2.158036   1.097214
    14  H    4.766021   4.041512   3.484359   2.171987   1.093580
    15  H    4.918389   4.336988   3.912141   3.472190   2.158761
    16  H    5.521023   4.479000   3.189793   2.754118   2.727470
    17  H    6.217574   5.332558   4.300746   3.963336   3.348167
    18  H    3.063642   2.670110   2.758198   3.345324   2.810196
    19  H    4.591102   3.938261   3.382787   3.901927   3.459796
    20  H    3.405985   2.616403   2.031261   3.340608   3.822129
                    6          7          8          9         10
     6  C    0.000000
     7  N    1.476905   0.000000
     8  C    1.543193   2.517244   0.000000
     9  N    2.478547   3.011529   1.476789   0.000000
    10  H    3.918111   4.349554   3.383994   2.092969   0.000000
    11  H    3.487398   4.037780   3.896175   3.411871   2.523735
    12  H    2.828567   2.770702   3.349906   2.748523   2.435234
    13  H    2.161401   3.403353   2.777043   3.321567   3.825158
    14  H    2.172581   2.665336   3.466528   3.886964   4.311367
    15  H    1.093951   2.083818   2.158344   3.412388   4.935842
    16  H    2.034770   1.017583   2.633348   2.590434   3.702727
    17  H    2.047671   1.018331   2.725841   3.376055   5.000895
    18  H    2.190823   3.461157   1.103493   2.145621   3.746879
    19  H    2.168867   2.726379   1.095537   2.094759   4.177744
    20  H    3.355276   3.919732   2.040300   1.015587   2.364073
                   11         12         13         14         15
    11  H    0.000000
    12  H    1.755490   0.000000
    13  H    2.474157   3.064705   0.000000
    14  H    2.526489   2.485929   1.758193   0.000000
    15  H    4.306170   3.835106   2.436352   2.522531   0.000000
    16  H    3.768919   2.230319   3.735043   3.055691   2.915585
    17  H    4.994403   3.691992   4.171997   3.597425   2.348552
    18  H    4.143048   4.041945   2.629813   3.813866   2.457870
    19  H    4.930215   4.158393   3.781310   4.305624   2.514392
    20  H    4.170366   3.661846   4.078979   4.851150   4.171834
                   16         17         18         19         20
    16  H    0.000000
    17  H    1.603631   0.000000
    18  H    3.679940   3.683274   0.000000
    19  H    2.887082   2.511679   1.762757   0.000000
    20  H    3.487900   4.127643   2.403200   2.362603   0.000000
 Stoichiometry    C6H11N3
 Framework group  C1[X(C6H11N3)]
 Deg. of freedom    54
 Full point group                 C1      NOp   1
 Largest Abelian subgroup         C1      NOp   1
 Largest concise Abelian subgroup C1      NOp   1
                         Standard orientation:                         
 ---------------------------------------------------------------------
 Center     Atomic      Atomic             Coordinates (Angstroms)
 Number     Number       Type             X           Y           Z
 ---------------------------------------------------------------------
      1          7           0        2.948107   -0.119284   -0.829118
      2          6           0        2.108291    0.013506   -0.056678
      3          6           0        0.975789    0.074012    0.918436
      4          6           0        0.132427    1.332838    0.660656
      5          6           0       -0.624908    1.230207   -0.670114
      6          6           0       -1.458228   -0.059118   -0.737479
      7          7           0       -2.584093    0.025204    0.214659
      8          6           0       -0.536187   -1.267682   -0.471666
      9          7           0        0.126946   -1.127211    0.840366
     10          1           0        1.416733    0.119618    1.918505
     11          1           0        0.775170    2.218293    0.672231
     12          1           0       -0.576840    1.449868    1.486686
     13          1           0        0.098703    1.234699   -1.494884
     14          1           0       -1.267600    2.103868   -0.810046
     15          1           0       -1.885075   -0.158300   -1.739822
     16          1           0       -2.203098   -0.040175    1.155958
     17          1           0       -3.156950   -0.811743    0.123251
     18          1           0        0.196326   -1.385189   -1.288559
     19          1           0       -1.134875   -2.185005   -0.454585
     20          1           0        0.717671   -1.939475    0.990989
 ---------------------------------------------------------------------
 Rotational constants (GHZ):           3.0113845           1.2467927           1.1486981
 Standard basis: 6-31G(2df,p) (6D, 7F)
 There are   334 symmetry adapted cartesian basis functions of A   symmetry.
 There are   307 symmetry adapted basis functions of A   symmetry.
   307 basis functions,   473 primitive gaussians,   334 cartesian basis functions
    34 alpha electrons       34 beta electrons
       nuclear repulsion energy       461.8453829771 Hartrees.
 NAtoms=   20 NActive=   20 NUniq=   20 SFac= 1.00D+00 NAtFMM=   60 NAOKFM=F Big=F
 Integral buffers will be    131072 words long.
 Raffenetti 2 integral format.
 Two-electron integral symmetry is turned on.
 One-electron integrals computed using PRISM.
 PrsmSu:  requested number of processors reduced to:  13 ShMem   1 Linda.
 NBasis=   307 RedAO= T EigKep=  1.53D-04  NBF=   307
 NBsUse=   307 1.00D-06 EigRej= -1.00D+00 NBFU=   307
 Initial guess from the checkpoint file:  "NtCC1CCCpNpCN1.chk"
 B after Tr=    -0.000000    0.000000    0.000000
         Rot=    0.999619    0.026243   -0.006973   -0.005041 Ang=   3.17 deg.
 ExpMin= 1.61D-01 ExpMax= 4.17D+03 ExpMxC= 6.27D+02 IAcc=2 IRadAn=         4 AccDes= 0.00D+00
 Harris functional with IExCor=  402 and IRadAn=       4 diagonalized for initial guess.
 HarFok:  IExCor=  402 AccDes= 0.00D+00 IRadAn=         4 IDoV= 1 UseB2=F ITyADJ=14
 ICtDFT=  3500011 ScaDFX=  1.000000  1.000000  1.000000  1.000000
 FoFCou: FMM=F IPFlag=           0 FMFlag=      100000 FMFlg1=           0
         NFxFlg=           0 DoJE=T BraDBF=F KetDBF=T FulRan=T
         wScrn=  0.000000 ICntrl=       500 IOpCl=  0 I1Cent=   200000004 NGrid=           0
         NMat0=    1 NMatS0=      1 NMatT0=    0 NMatD0=    1 NMtDS0=    0 NMtDT0=    0
 Petite list used in FoFCou.
 Requested convergence on RMS density matrix=1.00D-08 within 128 cycles.
 Requested convergence on MAX density matrix=1.00D-06.
 Requested convergence on             energy=1.00D-06.
 No special actions if energy rises.
 Integral accuracy reduced to 1.0D-05 until final iterations.
 Initial convergence to 1.0D-05 achieved.  Increase integral accuracy.
 SCF Done:  E(RB3LYP) =  -399.517706424     A.U. after   12 cycles
            NFock= 12  Conv=0.72D-08     -V/T= 2.0079
 PrsmSu:  requested number of processors reduced to:  13 ShMem   1 Linda.
 Calling FoFJK, ICntrl=      2127 FMM=F ISym2X=0 I1Cent= 0 IOpClX= 0 NMat=1 NMatS=1 NMatT=0.
 ***** Axes restored to original set *****
 -------------------------------------------------------------------
 Center     Atomic                   Forces (Hartrees/Bohr)
 Number     Number              X              Y              Z
 -------------------------------------------------------------------
      1        7          -0.019547385    0.000480119    0.000586978
      2        6           0.023809935    0.000996867    0.000209909
      3        6          -0.006115886    0.000820688   -0.002942783
      4        6           0.001975936   -0.003780792   -0.000425350
      5        6          -0.002399928   -0.001586392   -0.000560539
      6        6           0.005623931    0.003020704    0.004173043
      7        7          -0.002003286    0.000717703   -0.000418916
      8        6          -0.002190592    0.001023573   -0.001440654
      9        7          -0.003822444   -0.003840881    0.000506805
     10        1           0.000654152    0.000427967    0.000194343
     11        1          -0.000617355    0.000605091    0.000042861
     12        1          -0.000220465    0.001384549    0.000803099
     13        1           0.000201613    0.000782910   -0.000219750
     14        1           0.001623538    0.000933196    0.000083861
     15        1          -0.000655444    0.000215408   -0.000458265
     16        1           0.000117277   -0.000052092   -0.000103308
     17        1          -0.000652465   -0.001619535   -0.001096863
     18        1          -0.000048390   -0.002108100   -0.000270664
     19        1           0.000994237    0.000612663    0.001425666
     20        1           0.003273022    0.000966354   -0.000089474
 -------------------------------------------------------------------
 Cartesian Forces:  Max     0.023809935 RMS     0.004392241

 GradGradGradGradGradGradGradGradGradGradGradGradGradGradGradGradGradGrad
 Berny optimization.
 Using GEDIIS/GDIIS optimizer.
 FormGI is forming the generalized inverse of G from B-inverse, IUseBI=4.
 Internal  Forces:  Max     0.019512544 RMS     0.002054390
 Search for a local minimum.
 Step number   2 out of a maximum of  120
 All quantities printed in internal units (Hartrees-Bohrs-Radians)
 Mixed Optimization -- RFO/linear search
 Update second derivatives using D2CorX and points    1    2
 DE= -2.24D-02 DEPred=-2.31D-02 R= 9.69D-01
 TightC=F SS=  1.41D+00  RLast= 2.97D-01 DXNew= 5.0454D-01 8.9019D-01
 Trust test= 9.69D-01 RLast= 2.97D-01 DXMaxT set to 5.05D-01
 ITU=  1  0
 Use linear search instead of GDIIS.
     Eigenvalues ---    0.00501   0.00501   0.00511   0.00518   0.00748
     Eigenvalues ---    0.00879   0.01762   0.02404   0.03266   0.04074
     Eigenvalues ---    0.04459   0.04790   0.04792   0.04930   0.05009
     Eigenvalues ---    0.05396   0.05547   0.06226   0.06733   0.06931
     Eigenvalues ---    0.08022   0.08061   0.08123   0.08775   0.09066
     Eigenvalues ---    0.10199   0.11864   0.13269   0.15435   0.15792
     Eigenvalues ---    0.15999   0.16002   0.18184   0.21672   0.26908
     Eigenvalues ---    0.28020   0.28196   0.28483   0.30145   0.32837
     Eigenvalues ---    0.33628   0.33817   0.33940   0.34008   0.34038
     Eigenvalues ---    0.34059   0.34176   0.34185   0.34230   0.35616
     Eigenvalues ---    0.43964   0.44018   0.44026   0.91488
 RFO step:  Lambda=-3.03238031D-03 EMin= 5.00746220D-03
 Quartic linear search produced a step of -0.04909.
 Iteration  1 RMS(Cart)=  0.05960299 RMS(Int)=  0.00515909
 Iteration  2 RMS(Cart)=  0.00682426 RMS(Int)=  0.00019729
 Iteration  3 RMS(Cart)=  0.00014086 RMS(Int)=  0.00016734
 Iteration  4 RMS(Cart)=  0.00000006 RMS(Int)=  0.00016734
 Variable       Old X    -DE/DX   Delta X   Delta X   Delta X     New X
                                 (Linear)    (Quad)   (Total)
    R1        2.17079   0.01951   0.01041   0.00179   0.01220   2.18299
    R2        2.82643  -0.00421   0.00226  -0.01870  -0.01644   2.80999
    R3        2.90450   0.00105   0.00000   0.00552   0.00541   2.90991
    R4        2.78346  -0.00211   0.00129  -0.01140  -0.01004   2.77342
    R5        2.06720   0.00050   0.00015   0.00101   0.00116   2.06836
    R6        2.90000  -0.00052   0.00019   0.00206   0.00214   2.90213
    R7        2.06775  -0.00013   0.00024  -0.00095  -0.00071   2.06704
    R8        2.06930  -0.00015   0.00019  -0.00086  -0.00067   2.06862
    R9        2.90386   0.00019  -0.00013   0.00357   0.00339   2.90725
   R10        2.07343  -0.00025   0.00015  -0.00106  -0.00091   2.07252
   R11        2.06657  -0.00024   0.00018  -0.00110  -0.00092   2.06565
   R12        2.79095  -0.00246  -0.00052  -0.00526  -0.00578   2.78517
   R13        2.91621  -0.00102   0.00032  -0.00661  -0.00618   2.91004
   R14        2.06727   0.00059   0.00011   0.00136   0.00147   2.06874
   R15        1.92295  -0.00007   0.00041  -0.00107  -0.00067   1.92229
   R16        1.92437  -0.00053   0.00034  -0.00190  -0.00156   1.92280
   R17        2.79073  -0.00113   0.00029  -0.00725  -0.00685   2.78387
   R18        2.08530   0.00001  -0.00054   0.00134   0.00080   2.08610
   R19        2.07026  -0.00005   0.00010  -0.00039  -0.00029   2.06998
   R20        1.91918  -0.00034   0.00062  -0.00215  -0.00152   1.91766
    A1        1.91693   0.00168  -0.00111   0.02296   0.02165   1.93858
    A2        1.94852   0.00002  -0.00065   0.01687   0.01598   1.96450
    A3        1.86763  -0.00073   0.00151  -0.01305  -0.01138   1.85625
    A4        1.92072  -0.00034   0.00054  -0.00556  -0.00503   1.91569
    A5        1.91810  -0.00058  -0.00039  -0.00860  -0.00910   1.90900
    A6        1.89099  -0.00010   0.00013  -0.01367  -0.01366   1.87733
    A7        1.94062  -0.00050   0.00000   0.00482   0.00461   1.94524
    A8        1.91631  -0.00018   0.00065  -0.00395  -0.00332   1.91299
    A9        1.89275  -0.00085   0.00093  -0.02172  -0.02070   1.87206
   A10        1.93176   0.00075  -0.00114   0.00873   0.00766   1.93943
   A11        1.91946   0.00059  -0.00014   0.00581   0.00568   1.92514
   A12        1.86085   0.00020  -0.00029   0.00569   0.00527   1.86612
   A13        1.94094  -0.00032   0.00004   0.01148   0.01129   1.95224
   A14        1.90298   0.00027   0.00027  -0.00204  -0.00168   1.90130
   A15        1.92577   0.00003  -0.00014  -0.00479  -0.00482   1.92095
   A16        1.90511  -0.00004  -0.00031  -0.00653  -0.00674   1.89837
   A17        1.92410  -0.00051   0.00076  -0.01133  -0.01052   1.91358
   A18        1.86307   0.00062  -0.00065   0.01327   0.01256   1.87562
   A19        1.91477  -0.00017  -0.00044   0.01717   0.01620   1.93097
   A20        1.90238   0.00016   0.00052   0.00275   0.00292   1.90530
   A21        1.90481  -0.00014   0.00025  -0.01870  -0.01841   1.88640
   A22        1.97050   0.00129  -0.00245   0.02930   0.02652   1.99701
   A23        1.87384  -0.00066   0.00125  -0.01686  -0.01532   1.85852
   A24        1.89648  -0.00053   0.00090  -0.01584  -0.01492   1.88156
   A25        1.88312   0.00058  -0.00037   0.00782   0.00742   1.89054
   A26        1.90080  -0.00054  -0.00020   0.00070   0.00048   1.90127
   A27        1.81404   0.00067  -0.00029   0.01244   0.01210   1.82614
   A28        1.92499  -0.00082   0.00123  -0.02141  -0.02002   1.90497
   A29        1.93104  -0.00044  -0.00057  -0.00420  -0.00468   1.92637
   A30        1.90915   0.00020   0.00028   0.00514   0.00505   1.91419
   A31        1.94953   0.00090  -0.00067   0.01531   0.01445   1.96398
   A32        1.88723  -0.00051   0.00033  -0.01244  -0.01218   1.87506
   A33        1.85995   0.00070  -0.00066   0.01875   0.01814   1.87808
   A34        1.96431   0.00093  -0.00095   0.01229   0.01092   1.97523
   A35        1.88514  -0.00004   0.00038   0.02542   0.02498   1.91012
   A36        1.89323   0.00041  -0.00028   0.02376   0.02282   1.91605
   A37        3.14527   0.00043  -0.00018   0.05553   0.05535   3.20063
   A38        3.05722   0.00293   0.00414   0.22429   0.22843   3.28565
    D1        1.20099   0.00108  -0.00204   0.06521   0.06325   1.26424
    D2       -0.94277   0.00059  -0.00104   0.05360   0.05267  -0.89010
    D3       -2.96972   0.00094  -0.00159   0.06122   0.05966  -2.91006
    D4       -0.95094   0.00015  -0.00084   0.03224   0.03147  -0.91947
    D5       -3.09470  -0.00034   0.00016   0.02063   0.02089  -3.07381
    D6        1.16153   0.00001  -0.00039   0.02825   0.02788   1.18941
    D7       -3.03202   0.00084  -0.00109   0.05786   0.05672  -2.97531
    D8        1.10741   0.00035  -0.00009   0.04625   0.04614   1.15355
    D9       -0.91955   0.00070  -0.00065   0.05387   0.05313  -0.86642
   D10       -1.10642  -0.00131   0.00105  -0.02122  -0.02037  -1.12679
   D11        0.98309  -0.00027   0.00038   0.03271   0.03312   1.01621
   D12        1.02692   0.00060  -0.00042   0.01564   0.01501   1.04193
   D13        3.11642   0.00165  -0.00109   0.06957   0.06850  -3.09826
   D14        3.12448  -0.00036  -0.00049  -0.00658  -0.00711   3.11737
   D15       -1.06920   0.00068  -0.00116   0.04736   0.04638  -1.02282
   D16        0.93948  -0.00002  -0.00008  -0.03848  -0.03849   0.90099
   D17       -1.16206   0.00005   0.00010  -0.03623  -0.03610  -1.19816
   D18        3.08029  -0.00088   0.00081  -0.04835  -0.04754   3.03275
   D19        3.07431  -0.00008  -0.00005  -0.03409  -0.03410   3.04021
   D20        0.97278  -0.00000   0.00013  -0.03184  -0.03171   0.94107
   D21       -1.06806  -0.00093   0.00085  -0.04396  -0.04315  -1.11121
   D22       -1.15725   0.00098  -0.00116  -0.01822  -0.01929  -1.17654
   D23        3.02440   0.00106  -0.00098  -0.01598  -0.01690   3.00750
   D24        0.98356   0.00013  -0.00026  -0.02809  -0.02834   0.95522
   D25        1.21143   0.00081  -0.00173   0.06156   0.05982   1.27125
   D26       -0.95436  -0.00080   0.00125   0.01180   0.01307  -0.94129
   D27       -3.02314  -0.00017  -0.00032   0.04017   0.03976  -2.98337
   D28       -2.97148   0.00091  -0.00157   0.06198   0.06040  -2.91108
   D29        1.14592  -0.00070   0.00141   0.01222   0.01365   1.15957
   D30       -0.92286  -0.00007  -0.00016   0.04059   0.04034  -0.88252
   D31       -0.93034   0.00135  -0.00211   0.06767   0.06562  -0.86472
   D32       -3.09613  -0.00026   0.00087   0.01791   0.01886  -3.07726
   D33        1.11828   0.00037  -0.00070   0.04628   0.04556   1.16384
   D34       -1.23725  -0.00072   0.00107  -0.07938  -0.07854  -1.31579
   D35        3.08736  -0.00153   0.00168  -0.09813  -0.09670   2.99067
   D36        0.88827   0.00024  -0.00016  -0.04348  -0.04337   0.84490
   D37       -1.07030  -0.00056   0.00046  -0.06223  -0.06152  -1.13182
   D38        2.97805  -0.00008   0.00028  -0.05673  -0.05646   2.92159
   D39        1.01948  -0.00088   0.00090  -0.07548  -0.07461   0.94487
   D40        1.00533   0.00036  -0.00121   0.01068   0.00945   1.01478
   D41       -1.16051   0.00009  -0.00081   0.00914   0.00822  -1.15229
   D42        3.07888  -0.00063   0.00016  -0.01436  -0.01425   3.06463
   D43       -1.12716  -0.00041   0.00057  -0.03294  -0.03243  -1.15959
   D44        2.99018  -0.00068   0.00097  -0.03447  -0.03366   2.95653
   D45        0.94639  -0.00140   0.00194  -0.05798  -0.05613   0.89026
   D46        3.07933  -0.00003  -0.00004  -0.01942  -0.01940   3.05993
   D47        0.91348  -0.00030   0.00036  -0.02095  -0.02062   0.89286
   D48       -1.13031  -0.00102   0.00132  -0.04446  -0.04309  -1.17340
   D49       -1.06695  -0.00080   0.00153  -0.03500  -0.03351  -1.10046
   D50        3.13143  -0.00159   0.00182  -0.09010  -0.08841   3.04302
   D51        1.08819  -0.00131   0.00120  -0.04504  -0.04389   1.04430
   D52       -0.99661  -0.00210   0.00148  -0.10014  -0.09879  -1.09540
   D53        3.12936  -0.00026   0.00022  -0.02111  -0.02104   3.10832
   D54        1.04456  -0.00105   0.00051  -0.07621  -0.07594   0.96862
         Item               Value     Threshold  Converged?
 Maximum Force            0.019513     0.000450     NO 
 RMS     Force            0.002054     0.000300     NO 
 Maximum Displacement     0.455208     0.001800     NO 
 RMS     Displacement     0.062880     0.001200     NO 
 Predicted change in Energy=-1.649148D-03
 GradGradGradGradGradGradGradGradGradGradGradGradGradGradGradGradGradGrad

                          Input orientation:                          
 ---------------------------------------------------------------------
 Center     Atomic      Atomic             Coordinates (Angstroms)
 Number     Number       Type             X           Y           Z
 ---------------------------------------------------------------------
      1          7           0        1.160788    0.033159    0.315874
      2          6           0        2.297043    0.057688    0.109032
      3          6           0        3.781987    0.008515    0.048682
      4          6           0        4.276217   -1.413915   -0.273175
      5          6           0        4.003564   -1.785228   -1.738199
      6          6           0        4.533382   -0.715211   -2.708344
      7          7           0        6.004926   -0.759813   -2.777613
      8          6           0        3.955937    0.656400   -2.312603
      9          7           0        4.337762    0.958469   -0.922217
     10          1           0        4.140642    0.301896    1.040291
     11          1           0        3.806465   -2.128744    0.408601
     12          1           0        5.351396   -1.438175   -0.068965
     13          1           0        2.921459   -1.888682   -1.883685
     14          1           0        4.459742   -2.750815   -1.971442
     15          1           0        4.167727   -0.955446   -3.711846
     16          1           0        6.377811   -0.340785   -1.929007
     17          1           0        6.318954   -0.146653   -3.526435
     18          1           0        2.862499    0.671104   -2.463643
     19          1           0        4.388774    1.436176   -2.948581
     20          1           0        4.042445    1.899032   -0.681576
 ---------------------------------------------------------------------
                    Distance matrix (angstroms):
                    1          2          3          4          5
     1  N    0.000000
     2  C    1.155188   0.000000
     3  C    2.634897   1.486983   0.000000
     4  C    3.485240   2.495762   1.539859   0.000000
     5  C    3.950585   3.117823   2.541565   1.535744   0.000000
     6  C    4.591333   3.679157   2.947806   2.546443   1.538449
     7  N    5.802080   4.769635   3.676918   3.112634   2.477358
     8  C    3.887181   2.995781   2.454726   2.923705   2.508736
     9  N    3.533020   2.457522   1.467631   2.460336   2.881907
    10  H    3.078397   2.079841   1.094530   2.165083   3.477770
    11  H    3.417898   2.673683   2.167492   1.093831   2.183026
    12  H    4.458040   3.405638   2.137710   1.094669   2.173347
    13  H    3.410498   2.854676   2.841463   2.157433   1.096732
    14  H    4.885225   4.110149   3.486281   2.169122   1.093095
    15  H    5.122651   4.373216   3.901229   3.470797   2.147271
    16  H    5.691806   4.578762   3.282007   2.882722   2.785655
    17  H    6.434465   5.425325   4.386541   4.045050   3.353170
    18  H    3.320920   2.704566   2.756131   3.338272   2.803903
    19  H    4.800523   3.952793   3.374906   3.910690   3.462782
    20  H    3.574960   2.657450   2.043323   3.346202   3.832981
                    6          7          8          9         10
     6  C    0.000000
     7  N    1.473848   0.000000
     8  C    1.539925   2.533821   0.000000
     9  N    2.455549   3.028931   1.473163   0.000000
    10  H    3.903974   4.379403   3.376639   2.078794   0.000000
    11  H    3.498833   4.105991   3.896707   3.403563   2.533519
    12  H    2.856246   2.867760   3.371715   2.738503   2.392536
    13  H    2.157636   3.403119   2.780568   3.322138   3.851581
    14  H    2.166133   2.646052   3.461115   3.856752   4.300163
    15  H    1.094730   2.070353   2.144944   3.387331   4.915736
    16  H    2.037027   1.017231   2.647074   2.619826   3.772890
    17  H    2.044700   1.017504   2.775271   3.453747   5.079491
    18  H    2.184857   3.467124   1.103919   2.152899   3.748002
    19  H    2.169583   2.731949   1.095385   2.082537   4.154427
    20  H    3.344110   3.913331   2.052284   1.014780   2.350599
                   11         12         13         14         15
    11  H    0.000000
    12  H    1.758343   0.000000
    13  H    2.468895   3.066066   0.000000
    14  H    2.545260   2.477395   1.765584   0.000000
    15  H    4.299445   3.860659   2.401309   2.517465   0.000000
    16  H    3.908073   2.391139   3.787401   3.080427   2.905305
    17  H    5.072060   3.815533   4.156472   3.557573   2.305710
    18  H    4.120681   4.046993   2.625325   3.808277   2.430493
    19  H    4.931371   4.180996   3.787044   4.300085   2.520177
    20  H    4.179373   3.636702   4.128978   4.843446   4.164886
                   16         17         18         19         20
    16  H    0.000000
    17  H    1.610257   0.000000
    18  H    3.696915   3.707470   0.000000
    19  H    2.855415   2.562198   1.774829   0.000000
    20  H    3.467968   4.178581   2.464923   2.339549   0.000000
 Stoichiometry    C6H11N3
 Framework group  C1[X(C6H11N3)]
 Deg. of freedom    54
 Full point group                 C1      NOp   1
 Largest Abelian subgroup         C1      NOp   1
 Largest concise Abelian subgroup C1      NOp   1
                         Standard orientation:                         
 ---------------------------------------------------------------------
 Center     Atomic      Atomic             Coordinates (Angstroms)
 Number     Number       Type             X           Y           Z
 ---------------------------------------------------------------------
      1          7           0        3.088253   -0.033932   -0.740510
      2          6           0        2.126586   -0.079403   -0.102083
      3          6           0        0.996758   -0.005498    0.861838
      4          6           0        0.195653    1.296528    0.677108
      5          6           0       -0.640962    1.263423   -0.610327
      6          6           0       -1.502833   -0.007731   -0.700726
      7          7           0       -2.628113    0.059050    0.248755
      8          6           0       -0.599976   -1.243756   -0.532018
      9          7           0        0.096347   -1.160284    0.763503
     10          1           0        1.442887   -0.018705    1.861232
     11          1           0        0.878224    2.151245    0.681744
     12          1           0       -0.455427    1.404000    1.550518
     13          1           0        0.033940    1.294333   -1.474255
     14          1           0       -1.282523    2.146846   -0.663432
[...]
 5,-0.00314896,0.00008056,0.01814139,-0.00041936,0.00100169,-0.00124188
 ,0.00786947,-0.00682358,-0.00318438,-0.08351682,0.02051573,0.00382180,
 -0.03624308,0.03357261,0.00833346,0.55585032,-0.00080307,0.00026354,-0
 .00002983,0.00070753,-0.00014501,0.00106024,0.00791421,0.00938907,0.02
 461698,0.00094195,0.00119578,-0.00065761,0.00669734,-0.03454719,-0.000
 78398,0.02850412,-0.14938462,-0.01193461,0.00696601,0.00024325,0.00048
 789,0.04814176,0.52826292,-0.00274031,0.00088611,-0.00175182,0.0009890
 4,-0.00330219,0.00282902,-0.00603533,0.00600865,-0.03510180,-0.0013869
 4,0.00017993,0.00183172,-0.00799585,0.02084303,0.00799302,0.00880827,-
 0.01967200,-0.08439148,0.00238790,0.00114536,0.00167463,-0.02465340,-0
 .07116221,0.48871645,-0.00135645,0.00447418,-0.00388532,-0.02990097,-0
 .03056131,0.03072806,-0.06810528,-0.01531845,0.01387630,0.00581227,0.0
 0442655,-0.00476219,-0.00006791,-0.00110711,-0.00040366,0.00203606,0.0
 0172688,0.00878738,0.00118547,0.00065833,0.00184996,-0.07505378,-0.008
 04232,-0.01481715,0.20415829,0.00141327,0.00153105,-0.00111630,-0.0217
 3712,-0.00618121,0.00855420,-0.03702470,-0.14146272,0.03999165,-0.0144
 5809,-0.03397758,0.02705925,-0.00140524,0.00468114,0.00155073,-0.00970
 533,-0.01081539,-0.03906726,-0.00071435,0.00229168,-0.00082513,-0.0143
 9126,-0.10620886,-0.02336156,-0.03934373,0.66606045,-0.00054570,-0.001
 40799,0.00051440,0.02342203,0.01091507,-0.00741500,0.03370028,0.034925
 05,-0.13898043,-0.00233784,-0.00096606,0.00605755,-0.00005847,0.001698
 79,-0.00096822,-0.00051668,-0.01207151,-0.01858190,-0.00013244,-0.0012
 4649,0.00049292,-0.05834385,-0.01391227,-0.17947598,-0.02806173,0.0537
 0541,0.49040162,-0.00096039,0.00158941,0.00414249,-0.02316291,-0.01013
 934,-0.03184281,-0.07796802,-0.02529349,-0.08568229,0.00372958,0.00373
 458,0.01070357,-0.00031758,0.00216660,-0.00002189,0.00016964,-0.000109
 35,-0.00024339,-0.00011711,0.00007239,-0.00001895,-0.00007343,-0.00201
 097,0.00113891,0.00509405,0.00298420,0.01557944,0.09205841,0.00047736,
 0.00022036,-0.00059371,0.00155963,0.00149012,0.00202475,-0.02632498,-0
 .06311428,-0.06623313,-0.00910481,-0.00975285,-0.02856410,0.00308418,-
 0.00549620,0.00085515,-0.00006734,-0.00067778,0.00040291,-0.00002805,0
 .00024302,-0.00008313,-0.00156983,-0.00346278,0.00202906,0.00477585,0.
 00475760,0.02733318,0.02693828,0.07250471,0.00245157,-0.00032503,-0.00
 071191,-0.00587079,-0.00002891,0.00291226,-0.07818660,-0.05986013,-0.2
 5088891,-0.00166420,-0.00309247,-0.00501448,0.00082518,-0.00111096,0.0
 0117723,-0.00032256,0.00037514,0.00042985,0.00022127,-0.00023232,-0.00
 000725,0.00199151,0.00456403,0.00022804,-0.00338149,-0.00268297,-0.026
 74307,0.08468136,0.06251047,0.27886055,0.00005915,0.00006867,0.0000395
 0,0.00040976,0.00008079,-0.00056006,0.00336866,0.00906464,-0.00825750,
 -0.09709470,-0.07577069,0.07141939,0.00283425,0.00569370,-0.00587286,-
 0.00046628,-0.00066338,-0.00156118,0.00029784,-0.00018488,0.00002182,-
 0.00004927,-0.00015560,0.00012736,-0.00017637,0.00199437,0.00111370,0.
 00005689,-0.00060777,0.00001083,0.10147094,0.00052627,0.00013276,-0.00
 015483,-0.00087454,0.00049078,0.00051337,-0.01402311,-0.01811544,0.019
 01611,-0.07204517,-0.16158487,0.10570424,0.00437412,0.00720250,-0.0058
 8554,-0.00053041,-0.00021285,-0.00204533,-0.00008325,0.00011065,-0.000
 00721,-0.00021819,-0.00011730,-0.00117523,0.00234692,-0.00662283,-0.00
 246533,-0.00042657,0.00075672,-0.00027073,0.07991861,0.17714211,-0.000
 17375,-0.00023768,-0.00004801,0.00011755,0.00035009,0.00055949,-0.0041
 0799,-0.00476861,0.00440269,0.07036909,0.10779793,-0.14646460,0.013462
 69,0.02173141,-0.02036223,-0.00311881,-0.00427828,-0.00502870,-0.00007
 642,-0.00018690,0.00037391,0.00033666,-0.00090618,-0.00028293,0.000565
 86,-0.00215033,0.00056052,-0.00034874,0.00053413,0.00040756,-0.0757959
 1,-0.11508424,0.16073826,0.00024480,-0.00011048,-0.00018478,-0.0003820
 9,0.00208594,0.00087719,-0.01209865,0.00030757,-0.00049784,-0.30086583
 ,0.00338264,-0.04054213,-0.00552574,-0.00037887,-0.00240026,-0.0009168
 5,-0.00042809,0.00019627,0.00011677,-0.00073494,0.00017699,-0.00001464
 ,0.00001203,-0.00019420,0.00142492,-0.00104502,-0.00028097,0.00062203,
 -0.00000040,0.00040014,-0.01275382,0.00035827,-0.00205376,0.32750493,0
 .00120559,0.00127880,0.00016723,0.00141880,-0.00642524,-0.00092953,0.0
 3258692,-0.00467584,0.00278982,-0.00007003,-0.04767764,0.00249205,-0.0
 0898683,-0.00033473,-0.00178504,0.00045374,-0.00021134,0.00028769,0.00
 011211,0.00014805,0.00027667,0.00014602,-0.00021549,0.00013435,-0.0007
 5764,0.00223577,-0.00020467,-0.00018376,0.00154385,0.00026329,-0.02127
 329,0.00079353,-0.00399365,-0.00358768,0.05286875,0.00052316,0.0003529
 6,0.00001440,0.00066147,-0.00235629,0.00043651,0.00836209,-0.00140392,
 -0.00020897,-0.04086229,0.00202725,-0.05361012,-0.03300344,-0.00058930
 ,-0.00599258,-0.00140821,0.00004236,0.00123705,0.00057924,0.00013432,0
 .00079126,-0.00001046,-0.00004257,-0.00050994,-0.00049898,0.00062848,0
 .00009621,0.00057303,0.00038749,0.00038618,0.01933862,-0.00097058,0.00
 308944,0.04484156,0.00213262,0.05988868,0.00024364,0.00039158,0.000377
 58,-0.00015511,-0.00043450,-0.00000820,-0.00023944,0.00008178,0.000050
 30,-0.00614434,-0.00035621,-0.00177762,-0.29558640,-0.02205761,-0.0298
 5142,-0.01110176,0.00120361,-0.00203427,-0.00016979,-0.00171019,0.0027
 0176,-0.00052574,0.00061015,-0.00049480,0.00026754,-0.00022789,-0.0000
 3410,0.00012120,-0.00007327,-0.00004807,0.00064516,0.00012877,-0.00037
 742,0.00113172,-0.00009434,-0.00102821,0.32303370,0.00028385,-0.000059
 60,0.00011888,-0.00007709,-0.00008890,-0.00029790,-0.00118824,0.000204
 25,0.00043881,-0.00783733,-0.00120515,-0.00127680,-0.01998595,-0.05316
 092,-0.00275820,-0.02226259,-0.00157703,-0.00424371,-0.00127032,-0.002
 04275,0.00361762,-0.00070056,0.00046758,-0.00056979,0.00052265,-0.0002
 1772,0.00013661,0.00012831,0.00010550,0.00003299,0.00058978,0.00032348
 ,0.00024956,-0.00036926,0.00057458,-0.00139163,0.02486774,0.05272811,0
 .00058217,0.00026747,0.00002736,0.00009372,-0.00061929,-0.00004305,-0.
 00076924,0.00064631,0.00127402,-0.03435126,-0.00269675,-0.00680292,-0.
 03001904,-0.00247249,-0.05032810,0.02037570,-0.00003557,0.00250079,0.0
 0257324,0.00315899,-0.00301911,-0.00027953,-0.00048419,0.00042032,0.00
 009067,-0.00010855,-0.00024822,0.00027374,0.00034825,0.00005483,0.0002
 8425,0.00054325,0.00143897,-0.00096229,-0.00231325,-0.00633203,0.03378
 735,0.00197606,0.06002052,0.00031198,0.00015600,0.00020139,-0.00024483
 ,-0.00038395,-0.00023713,0.00023814,-0.00059807,-0.00188698,0.00266519
 ,-0.00764551,-0.00253567,-0.09594892,0.10206709,0.02499665,0.00346684,
 -0.01125452,-0.00197403,0.00122991,-0.00019153,-0.00053772,-0.00094329
 ,-0.00142378,0.00136964,-0.00002840,0.00030298,0.00009647,0.00019322,-
 0.00025129,-0.00015713,0.00001463,0.00027634,0.00043987,0.00056911,-0.
 00031634,0.00047913,-0.01265065,0.02757673,0.00676871,0.10012211,0.000
 13232,0.00003064,0.00001980,-0.00020213,0.00006053,0.00001976,-0.00076
 996,0.00116116,-0.00114558,0.00257800,-0.00613336,-0.00205919,0.098654
 38,-0.24956956,-0.05143961,0.01069885,-0.02274403,-0.00445307,0.000811
 10,0.00246904,-0.00127018,-0.00278623,-0.00164121,0.00459659,-0.000042
 07,0.00062071,0.00007012,0.00023703,-0.00028680,0.00002238,-0.00004561
 ,0.00046731,-0.00035243,-0.00020560,0.00022731,0.00003721,-0.00159371,
 0.00367760,0.00113917,-0.10829849,0.27136445,0.00029941,0.00009949,0.0
 0012224,-0.00101297,-0.00000827,-0.00004384,-0.00174123,0.00001627,-0.
 00701231,0.01404941,-0.02908335,-0.00797166,0.02464358,-0.05194974,-0.
 05963672,-0.00943620,0.02013739,0.00453978,-0.00106792,-0.00100036,0.0
 0060644,0.00234332,0.00278387,-0.00359930,0.00003422,0.00025640,0.0005
 5544,0.00051873,-0.00191054,-0.00031051,0.00053211,0.00056261,0.001029
 50,-0.00024561,0.00027885,0.00145615,-0.00157046,0.00405587,0.00044445
 ,-0.02657800,0.05527644,0.06834437,-0.00005948,0.00000099,-0.00003563,
 0.00010101,-0.00000604,0.00002127,-0.00001488,-0.00001370,-0.00036495,
 -0.00034545,-0.00215020,0.00122389,0.00310267,0.00204386,0.01100975,-0
 .07154296,-0.01571641,-0.06908727,-0.02045258,-0.00907593,-0.03385481,
 0.00410234,0.00156612,0.01084267,-0.00021423,0.00322798,0.00050980,-0.
 00006568,-0.00003697,0.00000626,0.00015795,0.00007562,0.00064225,0.000
 06903,-0.00004818,0.00026727,0.00053513,0.00048941,0.00019949,0.000093
 37,0.00013507,-0.00055026,0.08972528,0.00007936,-0.00004263,0.00003899
 ,-0.00004912,0.00019976,-0.00012216,-0.00015948,-0.00104202,0.00048764
 ,-0.00224506,-0.00377498,0.00240822,0.00658088,0.00499642,0.02395027,-
 0.01620373,-0.06185556,-0.05299793,-0.00089216,0.00058214,0.00077186,-
 0.00934422,-0.00521414,-0.02784006,0.00237063,-0.00642095,-0.00146042,
 0.00003439,0.00020757,-0.00009610,0.00017547,0.00041046,0.00152445,0.0
 0008468,-0.00004341,-0.00016531,0.00021980,0.00103095,-0.00075142,0.00
 062282,0.00082566,-0.00052080,0.01982078,0.06772096,0.00014788,0.00000
 892,0.00006900,-0.00016565,-0.00005118,-0.00005900,-0.00037806,0.00030
 546,0.00062119,0.00234175,0.00409832,-0.00045248,-0.00494514,-0.003708
 19,-0.02026743,-0.07530059,-0.05387952,-0.26629671,0.00038389,0.000444
 41,0.00191339,-0.00291188,-0.00081507,-0.00788107,0.00087941,-0.001982
 59,0.00120792,-0.00001258,-0.00003828,0.00003510,-0.00029144,-0.000457
 03,-0.00126088,-0.00005694,-0.00000862,0.00022598,0.00051610,-0.000244
 55,0.00062105,-0.00039218,0.00013398,0.00075303,0.07925474,0.05663409,
 0.28755137,0.00028558,-0.00008252,0.00006845,0.00003979,0.00035235,-0.
 00029596,-0.00083154,-0.00087908,0.00123164,-0.00027738,-0.00025510,0.
 00031068,-0.00014885,-0.00013843,-0.00040790,-0.01917388,-0.02036276,-
 0.03564091,-0.08593252,-0.06441079,-0.07672181,0.00032205,-0.00054024,
 -0.00232455,0.00116680,-0.00056992,-0.00032203,0.00005085,0.00005013,-
 0.00010702,0.00024616,0.00011085,0.00006730,0.00033239,-0.00022424,0.0
 0051293,-0.00001055,0.00002510,0.00034995,-0.00005671,0.00011243,0.000
 09748,-0.00743458,-0.00014950,0.00081313,0.10536628,-0.00006383,0.0001
 1556,-0.00002669,-0.00006912,-0.00064704,0.00027609,0.00016076,0.00133
 240,-0.00074145,-0.00139878,0.00053871,-0.00060834,-0.00122082,-0.0003
 3397,-0.00089473,0.00663060,-0.00262219,0.00185487,-0.09379237,-0.1286
 4524,-0.17964943,0.00117514,0.00065820,0.00106612,0.00006450,-0.000842
 03,0.00084879,-0.00004366,-0.00003875,0.00010741,0.00050600,-0.0001995
 3,0.00004080,0.00040021,-0.00034608,0.00143308,0.00007690,0.00002799,0
 .00051354,-0.00008455,-0.00005803,-0.00015149,0.00076182,0.00050632,0.
 00038517,0.07947653,0.12464664,-0.00011353,0.00001548,-0.00005845,0.00
 003951,0.00007210,0.00003269,0.00070240,-0.00001636,-0.00042857,0.0005
 3122,-0.00005554,-0.00020612,0.00006979,0.00012639,0.00064463,-0.00349
 514,-0.00031531,0.00100472,-0.09007934,-0.13323258,-0.27779894,0.00193
 185,-0.00111682,0.00067550,0.00080046,0.00062626,-0.00038841,0.0000502
 3,-0.00002051,-0.00007563,-0.00021357,-0.00000271,-0.00001183,0.000538
 12,0.00082067,-0.00107164,0.00001826,-0.00000300,-0.00028832,0.0000071
 5,-0.00004976,-0.00002922,0.00010538,-0.00027573,0.00176107,0.10141920
 ,0.15428794,0.30438377,0.00007693,0.00003205,-0.00000333,0.00007266,-0
 .00001247,-0.00004414,-0.00011164,-0.00028537,0.00014729,-0.00019579,0
 .00015035,-0.00075695,-0.00700505,0.00151085,-0.00146433,-0.01658055,-
 0.02150583,0.03427920,-0.08031384,-0.05940870,0.07420102,0.00024764,-0
 .00089074,0.00084489,0.00017299,0.00007824,-0.00038450,0.00001237,0.00
 009330,-0.00004287,0.00020704,-0.00000879,0.00005781,0.00022389,0.0000
 1090,0.00046521,-0.00061162,-0.00143608,0.00131378,0.00013951,0.000095
 29,-0.00025370,0.00159568,-0.00038270,-0.00056978,0.00458083,0.0079469
 9,-0.01146745,0.09709454,-0.00004354,0.00002222,0.00004875,0.00001842,
 0.00004676,-0.00000123,-0.00012837,-0.00010423,0.00012691,-0.00019271,
 -0.00000799,-0.00045771,-0.00323071,0.00003462,-0.00026474,0.00751706,
 -0.00552532,-0.00176702,-0.08478294,-0.11827660,0.18124915,0.00103761,
 0.00146414,-0.00134684,0.00037872,-0.00080322,-0.00010817,-0.00002280,
 0.00002181,0.00005253,0.00006830,0.00001522,0.00010233,0.00022077,-0.0
 0001938,-0.00035227,-0.00078567,-0.00030879,0.00091777,0.00016262,0.00
 052901,-0.00011670,-0.00047845,0.00027044,-0.00033078,0.00720427,0.006
 06329,-0.02089694,0.07280976,0.11711191,0.00001260,0.00001311,0.000033
 54,-0.00000700,-0.00012754,-0.00002675,-0.00008819,0.00019361,-0.00000
 148,-0.00046695,-0.00007274,0.00011939,-0.00034429,-0.00052938,0.00146
 465,-0.00254009,0.00148493,0.00072558,0.08929409,0.13720528,-0.2923831
 8,-0.00104499,-0.00004413,-0.00076700,0.00030694,-0.00082515,-0.000114
 54,-0.00001665,-0.00000934,0.00003279,0.00015019,0.00000528,0.00011987
 ,0.00025491,-0.00005076,0.00017183,-0.00029491,-0.00002422,0.00006837,
 -0.00003694,0.00004809,-0.00006005,-0.00066098,-0.00046161,0.00129514,
 0.01073597,0.02104787,-0.02735730,-0.09564476,-0.15737851,0.31619471,0
 .00072379,-0.00036320,0.00097919,-0.00060911,0.00105155,-0.00106481,0.
 00077720,-0.00082644,0.00086944,0.00010137,-0.00008551,-0.00029858,-0.
 00015962,-0.00088402,-0.00017857,-0.01259450,-0.00267737,-0.00008317,-
 0.00124342,0.00404784,0.00063511,-0.27979847,0.00035624,-0.01678001,-0
 .00713831,-0.00266049,-0.01144683,0.00011491,0.00007242,-0.00012932,0.
 00001165,0.00008801,-0.00000182,0.00006703,-0.00009654,0.00020470,0.00
 083611,0.00041050,-0.00020752,0.00025794,0.00001245,0.00024495,0.00031
 260,0.00032884,0.00066373,0.00066188,-0.00051354,0.00004936,0.00033302
 ,-0.00002874,-0.00028427,0.30852088,0.00024348,-0.00042570,0.00030285,
 0.00005681,0.00060602,-0.00043079,0.00119921,-0.00032910,0.00097502,0.
 00005579,-0.00028725,0.00003680,0.00010423,0.00100481,0.00001920,0.027
 42222,0.00303569,0.00279759,0.00501637,-0.00555577,-0.00143274,-0.0011
 0445,-0.05426799,0.00210614,-0.00888082,0.00241171,-0.00515489,0.00002
 495,-0.00004725,-0.00003296,-0.00000414,0.00005053,0.00009384,-0.00008
 000,-0.00003461,-0.00009848,-0.00021822,-0.00071379,0.00025675,-0.0002
 5757,0.00026512,-0.00022312,-0.00062438,0.00105205,-0.00026069,-0.0003
 4657,0.00015388,-0.00036655,0.00003825,-0.00020797,0.00009719,0.001355
 44,0.05248162,0.00088214,-0.00051638,0.00006164,0.00120449,0.00104565,
 -0.00019140,-0.00445070,-0.00318473,0.00411508,0.00031794,0.00016398,-
 0.00046864,-0.00045925,0.00029444,-0.00004270,0.00817679,0.00232827,0.
 00145907,0.00240058,-0.00345780,0.00051250,-0.01552525,0.00197528,-0.0
 5094310,-0.03745996,-0.00242000,-0.01941729,0.00052757,-0.00005327,0.0
 0002785,-0.00000210,0.00024296,0.00009610,0.00010288,-0.00015476,-0.00
 002888,-0.00010046,0.00009872,0.00020922,0.00004963,0.00000837,-0.0000
 1781,0.00002142,0.00043147,0.00012171,0.00008387,-0.00028605,-0.000651
 21,-0.00053149,0.00024544,0.00038379,0.02747482,0.00266855,0.06146318,
 0.00033369,-0.00001906,0.00034276,-0.00020808,0.00020815,-0.00045987,0
 .00000800,-0.00026451,-0.00175960,-0.00000224,-0.00003717,0.00000283,-
 0.00083515,0.00196739,0.00054225,0.00295951,0.01021306,-0.00722778,0.0
 0186617,-0.00051268,-0.00073811,-0.08914268,-0.07595031,0.05963728,0.0
 0383706,0.00838064,-0.00761727,0.00024649,0.00013922,-0.00028021,0.000
 00429,0.00001341,0.00003722,0.00001028,-0.00000765,-0.00000681,0.00032
 161,0.00026548,-0.00007140,0.00052949,0.00042757,-0.00030282,0.0001448
 8,-0.00085959,-0.00010254,-0.00011636,0.00020092,-0.00025937,0.0000081
 9,0.00017308,0.00039410,-0.01172153,-0.02313107,0.01736477,0.09140142,
 0.00005040,0.00000569,0.00006465,-0.00014956,0.00004074,-0.00017560,0.
 00005300,0.00081817,-0.00248653,-0.00015646,-0.00005235,-0.00071494,0.
 00374972,-0.00427989,-0.00339830,-0.01254172,-0.02256667,0.01754418,-0
 .00163303,0.00380176,-0.00045859,-0.07292307,-0.18273015,0.11008948,0.
 00298117,0.00666108,-0.00604303,0.00002010,0.00029801,-0.00036649,-0.0
 0001949,0.00010278,0.00012238,0.00007166,0.00004534,0.00015164,0.00000
 090,0.00032384,-0.00022209,-0.00053313,-0.00140666,0.00149810,-0.00021
 055,0.00086536,-0.00040035,0.00048319,-0.00022732,0.00040667,0.0011394
 0,-0.00031923,-0.00058874,0.00038164,0.00058401,-0.00043083,0.07881045
 ,0.19720780,0.00034377,-0.00003752,0.00019416,-0.00090915,-0.00001455,
 -0.00010093,-0.00205050,-0.00353604,-0.00525338,0.00017633,-0.00065509
 ,-0.00003994,0.00116921,-0.00217136,0.00003626,-0.00344889,-0.00667285
 ,0.00650772,-0.00121432,-0.00016294,0.00034083,0.05505094,0.10216286,-
 0.12976339,0.01016158,0.02549262,-0.02698267,0.00061342,0.00128938,-0.
 00126476,-0.00002808,0.00014600,0.00015418,-0.00001237,0.00007314,0.00
 003514,0.00015166,0.00012068,-0.00010909,-0.00011113,-0.00057828,0.000
 60712,-0.00039352,0.00057723,0.00053236,0.00008354,0.00017590,-0.00024
 058,-0.00013243,0.00031871,0.00009315,-0.00010504,-0.00145515,0.002588
 46,-0.06026097,-0.11518971,0.15188701,-0.00034344,0.00068995,0.0001584
 6,0.00257824,-0.00205742,-0.00078253,-0.00438452,-0.02051926,0.0010053
 5,-0.00019545,-0.00047109,0.00096495,-0.00012945,-0.00017169,-0.000065
 30,-0.00100055,0.00038812,-0.00061041,0.00034150,0.00024983,0.00075802
 ,-0.00221305,-0.01260043,-0.00872341,-0.04311375,0.12490144,0.03566067
 ,0.00019548,0.00087434,-0.00039786,0.00075607,-0.00000715,-0.00004165,
 0.00024072,-0.00028755,0.00000997,0.00005959,-0.00003215,-0.00003248,0
 .00004135,0.00004931,-0.00000403,0.00018988,-0.00003211,0.00012614,0.0
 0092975,-0.00021370,-0.00063451,0.00005320,0.00010331,0.00028123,0.000
 54657,-0.00086953,-0.00007768,0.00035497,0.00042538,0.00091595,0.04509
 289,0.00008912,-0.00010550,0.00026494,0.00011379,0.00090545,-0.0011544
 3,0.00919760,-0.02206464,-0.00532207,-0.00286419,-0.00165593,0.0044201
 0,-0.00009715,0.00091574,0.00043898,-0.00080540,0.00126452,-0.00159367
 ,-0.00032730,0.00027375,0.00019013,0.00443846,-0.00400974,-0.00065494,
 0.07932706,-0.37769868,-0.08459220,0.00029968,0.00072742,0.00017081,0.
 00056453,-0.00114599,-0.00058861,0.00001657,0.00026779,0.00004294,-0.0
 0002962,-0.00008924,-0.00006395,0.00007415,0.00014109,-0.00000090,0.00
 023915,-0.00027442,0.00016650,0.00014429,-0.00008280,-0.00000368,0.000
 02530,-0.00000669,0.00001676,0.00003090,0.00022401,0.00100068,-0.00001
 732,0.00082769,0.00011698,-0.09041961,0.40158616,0.00041516,-0.0002085
 6,-0.00012716,-0.00022542,0.00042224,0.00032668,-0.00718871,0.02762494
 ,0.00653215,0.00300985,0.00297075,-0.00381047,0.00004059,0.00043465,-0
 .00062053,-0.00382861,0.00058494,-0.00744827,-0.00015575,0.00002514,0.
 00040895,0.01112610,-0.03576168,-0.00990088,0.02518967,-0.08332516,-0.
 08057083,-0.00061518,-0.00020876,0.00046427,-0.00045509,0.00178493,0.0
 0048869,0.00004307,-0.00027610,-0.00007467,0.00001696,-0.00003599,0.00
 009094,0.00003828,-0.00002380,0.00022292,0.00084323,-0.00213269,-0.000
 49075,0.00004603,0.00032060,0.00010383,-0.00001347,-0.00004065,0.00000
 747,-0.00054136,0.00010145,0.00072243,0.00076555,0.00059809,0.00077835
 ,-0.02851089,0.08714565,0.09289688\\-0.00002571,0.00000270,0.00000028,
 -0.00000583,-0.00001469,0.00000326,0.00006265,0.00002523,-0.00002563,-
 0.00000922,-0.00000186,0.00000811,0.00001042,0.00001103,-0.00000738,-0
 .00000677,-0.00001078,-0.00000295,0.00000439,0.00000120,0.00000234,0.0
 0001421,0.00000585,0.00003452,-0.00002622,-0.00001754,0.00000208,-0.00
 000875,0.00000046,-0.00000138,0.00000116,0.00000466,0.00000175,0.00000
 233,-0.00000106,-0.00000308,0.00000064,0.00000105,-0.00000715,-0.00000
 288,-0.00000391,0.00000134,0.00000529,0.00000178,0.00000051,-0.0000040
 3,-0.00000170,-0.00000065,-0.00000640,-0.00000194,0.00000074,-0.000006
 31,0.00000030,-0.00000706,-0.00000020,-0.00000152,-0.00000521,0.000001
 22,0.00000073,0.00000554\\\@


 THERE IS MORE TO LIFE THAN INCREASING ITS SPEED.

                                       -- GANDHI
 Job cpu time:       0 days  2 hours 26 minutes 32.5 seconds.
 Elapsed time:       0 days  0 hours 36 minutes 39.0 seconds.
 File lengths (MBytes):  RWF=    145 Int=      0 D2E=      0 Chk=      9 Scr=      1
 Normal termination of Gaussian 16 at Thu Aug  4 02:31:01 2022.
### All Done ###
