### Starting Gaussian ###
 Entering Gaussian System, Link 0=g16
 Initial command:
 /cluster/software/gaussian/gaussian-16-A.03/avx2/g16/l1.exe "/local/scratch/ks29c/Gau-3542.inp" -scrdir="/local/scratch/ks29c/"
 Entering Link 1 = /cluster/software/gaussian/gaussian-16-A.03/avx2/g16/l1.exe PID=      3543.
  
 Copyright (c) 1988,1990,1992,1993,1995,1998,2003,2009,2016,
            Gaussian, Inc.  All Rights Reserved.
  
 This is part of the Gaussian(R) 16 program.  It is based on
 the Gaussian(R) 09 system (copyright 2009, Gaussian, Inc.),
 the Gaussian(R) 03 system (copyright 2003, Gaussian, Inc.),
 the Gaussian(R) 98 system (copyright 1998, Gaussian, Inc.),
 the Gaussian(R) 94 system (copyright 1995, Gaussian, Inc.),
 the Gaussian 92(TM) system (copyright 1992, Gaussian, Inc.),
 the Gaussian 90(TM) system (copyright 1990, Gaussian, Inc.),
 the Gaussian 88(TM) system (copyright 1988, Gaussian, Inc.),
 the Gaussian 86(TM) system (copyright 1986, Carnegie Mellon
 University), and the Gaussian 82(TM) system (copyright 1983,
 Carnegie Mellon University). Gaussian is a federally registered
 trademark of Gaussian, Inc.
  
 This software contains proprietary and confidential information,
 including trade secrets, belonging to Gaussian, Inc.
  
 This software is provided under written license and may be
 used, copied, transmitted, or stored only in accord with that
 written license.
  
 The following legend is applicable only to US Government
 contracts under FAR:
  
                    RESTRICTED RIGHTS LEGEND
  
 Use, reproduction and disclosure by the US Government is
 subject to restrictions as set forth in subparagraphs (a)
 and (c) of the Commercial Computer Software - Restricted
 Rights clause in FAR 52.227-19.
  
 Gaussian, Inc.
 340 Quinnipiac St., Bldg. 40, Wallingford CT 06492
  
  
 ---------------------------------------------------------------
 Warning -- This program may not be used in any manner that
 competes with the business of Gaussian, Inc. or will provide
 assistance to any competitor of Gaussian, Inc.  The licensee
 of this program is prohibited from giving any competitor of
 Gaussian, Inc. access to this program.  By using this program,
 the user acknowledges that Gaussian, Inc. is engaged in the
 business of creating and licensing software in the field of
 computational chemistry and represents and warrants to the
 licensee that it is not a competitor of Gaussian, Inc. and that
 it will not use this program in any manner prohibited above.
 ---------------------------------------------------------------
  

 Cite this work as:
 Gaussian 16, Revision A.03,
 M. J. Frisch, G. W. Trucks, H. B. Schlegel, G. E. Scuseria, 
 M. A. Robb, J. R. Cheeseman, G. Scalmani, V. Barone, 
 G. A. Petersson, H. Nakatsuji, X. Li, M. Caricato, A. V. Marenich, 
 J. Bloino, B. G. Janesko, R. Gomperts, B. Mennucci, H. P. Hratchian, 
 J. V. Ortiz, A. F. Izmaylov, J. L. Sonnenberg, D. Williams-Young, 
 F. Ding, F. Lipparini, F. Egidi, J. Goings, B. Peng, A. Petrone, 
 T. Henderson, D. Ranasinghe, V. G. Zakrzewski, J. Gao, N. Rega, 
 G. Zheng, W. Liang, M. Hada, M. Ehara, K. Toyota, R. Fukuda, 
 J. Hasegawa, M. Ishida, T. Nakajima, Y. Honda, O. Kitao, H. Nakai, 
 T. Vreven, K. Throssell, J. A. Montgomery, Jr., J. E. Peralta, 
 F. Ogliaro, M. J. Bearpark, J. J. Heyd, E. N. Brothers, K. N. Kudin, 
 V. N. Staroverov, T. A. Keith, R. Kobayashi, J. Normand, 
 K. Raghavachari, A. P. Rendell, J. C. Burant, S. S. Iyengar, 
 J. Tomasi, M. Cossi, J. M. Millam, M. Klene, C. Adamo, R. Cammi, 
 J. W. Ochterski, R. L. Martin, K. Morokuma, O. Farkas, 
 J. B. Foresman, and D. J. Fox, Gaussian, Inc., Wallingford CT, 2016.
 
 ******************************************
 Gaussian 16:  ES64L-G16RevA.03 25-Dec-2016
                 3-Jul-2022 
 ******************************************
 %chk=NtCC1CCCpNOpN1.chk
 %NProcShared=20
 Will use up to   20 processors via shared memory.
 -----------------------------
 # opt freq b3lyp/6-31g(2df,p)
 -----------------------------
 1/18=20,19=15,26=3,38=1/1,3;
 2/9=110,12=2,17=6,18=5,40=1/2;
 3/5=1,6=6,7=104,11=2,25=1,30=1,71=1,74=-5/1,2,3;
 4//1;
 5/5=2,38=5/2;
 6/7=2,8=2,9=2,10=2,28=1/1;
 7//1,2,3,16;
 1/18=20,19=15,26=3/3(2);
 2/9=110/2;
 99//99;
 2/9=110/2;
 3/5=1,6=6,7=104,11=2,25=1,30=1,71=1,74=-5/1,2,3;
 4/5=5,16=3,69=1/1;
 5/5=2,38=5/2;
 7//1,2,3,16;
 1/18=20,19=15,26=3/3(-5);
 2/9=110/2;
 6/7=2,8=2,9=2,10=2,19=2,28=1/1;
 99/9=1/99;
 -------------------
 Title Card Required
 -------------------
 Symbolic Z-matrix:
 Charge =  0 Multiplicity = 1
 N                     1.06742  -0.07093   0.02058 
 C                     2.32839  -0.07093   0.02058 
 C                     3.84839  -0.07093   0.02058 
 C                     4.38206   1.06939   0.87995 
 C                     5.77569   0.60377   1.23665 
 C                     5.60563  -0.89689   1.40785 
 N                     6.75688  -1.61409   0.89702 
 O                     6.54917  -3.01162   1.25235 
 N                     4.42983  -1.29889   0.62816 
 H                     4.21606   0.01683  -1.00838 
 H                     3.78835   1.19858   1.79445 
 H                     4.39633   2.02588   0.34854 
 H                     6.15086   1.08045   2.14867 
 H                     6.46774   0.84828   0.42098 
 H                     5.4465   -1.1302    2.46911 
 H                     7.58769  -1.37685   1.445 
 H                     5.88127  -3.26846   0.58084 
 H                     3.75383  -1.68888   1.28611 
 

 GradGradGradGradGradGradGradGradGradGradGradGradGradGradGradGradGradGrad
 Berny optimization.
 Initialization pass.
                           ----------------------------
                           !    Initial Parameters    !
                           ! (Angstroms and Degrees)  !
 --------------------------                            --------------------------
 ! Name  Definition              Value          Derivative Info.                !
 --------------------------------------------------------------------------------
 ! R1    R(1,2)                  1.261          estimate D2E/DX2                !
 ! R2    R(2,3)                  1.52           estimate D2E/DX2                !
 ! R3    R(3,4)                  1.5244         estimate D2E/DX2                !
 ! R4    R(3,9)                  1.4883         estimate D2E/DX2                !
 ! R5    R(3,10)                 1.0962         estimate D2E/DX2                !
 ! R6    R(4,5)                  1.512          estimate D2E/DX2                !
 ! R7    R(4,11)                 1.0979         estimate D2E/DX2                !
 ! R8    R(4,12)                 1.0943         estimate D2E/DX2                !
 ! R9    R(5,6)                  1.5199         estimate D2E/DX2                !
 ! R10   R(5,13)                 1.0953         estimate D2E/DX2                !
 ! R11   R(5,14)                 1.0973         estimate D2E/DX2                !
 ! R12   R(6,7)                  1.4494         estimate D2E/DX2                !
 ! R13   R(6,9)                  1.467          estimate D2E/DX2                !
 ! R14   R(6,15)                 1.0982         estimate D2E/DX2                !
 ! R15   R(7,8)                  1.4569         estimate D2E/DX2                !
 ! R16   R(7,16)                 1.0231         estimate D2E/DX2                !
 ! R17   R(8,17)                 0.9813         estimate D2E/DX2                !
 ! R18   R(9,18)                 1.0208         estimate D2E/DX2                !
 ! A1    A(2,3,4)              110.4932         estimate D2E/DX2                !
 ! A2    A(2,3,9)              112.996          estimate D2E/DX2                !
 ! A3    A(2,3,10)             109.5972         estimate D2E/DX2                !
 ! A4    A(4,3,9)              104.4945         estimate D2E/DX2                !
 ! A5    A(4,3,10)             110.6017         estimate D2E/DX2                !
 ! A6    A(9,3,10)             108.5549         estimate D2E/DX2                !
 ! A7    A(3,4,5)              103.0214         estimate D2E/DX2                !
 ! A8    A(3,4,11)             111.6092         estimate D2E/DX2                !
 ! A9    A(3,4,12)             112.6225         estimate D2E/DX2                !
 ! A10   A(5,4,11)             109.7638         estimate D2E/DX2                !
 ! A11   A(5,4,12)             111.8209         estimate D2E/DX2                !
 ! A12   A(11,4,12)            107.98           estimate D2E/DX2                !
 ! A13   A(4,5,6)              103.149          estimate D2E/DX2                !
 ! A14   A(4,5,13)             112.2165         estimate D2E/DX2                !
 ! A15   A(4,5,14)             109.7139         estimate D2E/DX2                !
 ! A16   A(6,5,13)             111.9754         estimate D2E/DX2                !
 ! A17   A(6,5,14)             111.981          estimate D2E/DX2                !
 ! A18   A(13,5,14)            107.8152         estimate D2E/DX2                !
 ! A19   A(5,6,7)              111.0994         estimate D2E/DX2                !
 ! A20   A(5,6,9)              107.4798         estimate D2E/DX2                !
 ! A21   A(5,6,15)             109.5613         estimate D2E/DX2                !
 ! A22   A(7,6,9)              108.2836         estimate D2E/DX2                !
 ! A23   A(7,6,15)             110.5218         estimate D2E/DX2                !
 ! A24   A(9,6,15)             109.8318         estimate D2E/DX2                !
 ! A25   A(6,7,8)              105.9899         estimate D2E/DX2                !
 ! A26   A(6,7,16)             109.9675         estimate D2E/DX2                !
 ! A27   A(8,7,16)             101.9801         estimate D2E/DX2                !
 ! A28   A(7,8,17)             100.44           estimate D2E/DX2                !
 ! A29   A(3,9,6)              107.6982         estimate D2E/DX2                !
 ! A30   A(3,9,18)             108.6407         estimate D2E/DX2                !
 ! A31   A(6,9,18)             107.0324         estimate D2E/DX2                !
 ! A32   L(1,2,3,11,-1)        180.0            estimate D2E/DX2                !
 ! A33   L(1,2,3,11,-2)        180.0            estimate D2E/DX2                !
 ! D1    D(2,3,4,5)            157.4433         estimate D2E/DX2                !
 ! D2    D(2,3,4,11)            39.7389         estimate D2E/DX2                !
 ! D3    D(2,3,4,12)           -81.9135         estimate D2E/DX2                !
 ! D4    D(9,3,4,5)             35.6139         estimate D2E/DX2                !
 ! D5    D(9,3,4,11)           -82.0905         estimate D2E/DX2                !
 ! D6    D(9,3,4,12)           156.257          estimate D2E/DX2                !
 ! D7    D(10,3,4,5)           -81.0213         estimate D2E/DX2                !
 ! D8    D(10,3,4,11)          161.2743         estimate D2E/DX2                !
 ! D9    D(10,3,4,12)           39.6219         estimate D2E/DX2                !
 ! D10   D(2,3,9,6)           -141.1266         estimate D2E/DX2                !
 ! D11   D(2,3,9,18)           -25.5239         estimate D2E/DX2                !
 ! D12   D(4,3,9,6)            -20.9588         estimate D2E/DX2                !
 ! D13   D(4,3,9,18)            94.6439         estimate D2E/DX2                !
 ! D14   D(10,3,9,6)            97.0844         estimate D2E/DX2                !
 ! D15   D(10,3,9,18)         -147.3128         estimate D2E/DX2                !
 ! D16   D(3,4,5,6)            -36.2092         estimate D2E/DX2                !
 ! D17   D(3,4,5,13)          -156.9072         estimate D2E/DX2                !
 ! D18   D(3,4,5,14)            83.264          estimate D2E/DX2                !
 ! D19   D(11,4,5,6)            82.7867         estimate D2E/DX2                !
 ! D20   D(11,4,5,13)          -37.9113         estimate D2E/DX2                !
 ! D21   D(11,4,5,14)         -157.74           estimate D2E/DX2                !
 ! D22   D(12,4,5,6)          -157.3992         estimate D2E/DX2                !
 ! D23   D(12,4,5,13)           81.9028         estimate D2E/DX2                !
 ! D24   D(12,4,5,14)          -37.9259         estimate D2E/DX2                !
 ! D25   D(4,5,6,7)            142.3646         estimate D2E/DX2                !
 ! D26   D(4,5,6,9)             24.0668         estimate D2E/DX2                !
 ! D27   D(4,5,6,15)           -95.2322         estimate D2E/DX2                !
 ! D28   D(13,5,6,7)           -96.7731         estimate D2E/DX2                !
 ! D29   D(13,5,6,9)           144.9291         estimate D2E/DX2                !
 ! D30   D(13,5,6,15)           25.6301         estimate D2E/DX2                !
 ! D31   D(14,5,6,7)            24.4695         estimate D2E/DX2                !
 ! D32   D(14,5,6,9)           -93.8283         estimate D2E/DX2                !
 ! D33   D(14,5,6,15)          146.8727         estimate D2E/DX2                !
 ! D34   D(5,6,7,8)            173.6482         estimate D2E/DX2                !
 ! D35   D(5,6,7,16)            64.1456         estimate D2E/DX2                !
 ! D36   D(9,6,7,8)            -68.5406         estimate D2E/DX2                !
 ! D37   D(9,6,7,16)          -178.0432         estimate D2E/DX2                !
 ! D38   D(15,6,7,8)            51.803          estimate D2E/DX2                !
 ! D39   D(15,6,7,16)          -57.6996         estimate D2E/DX2                !
 ! D40   D(5,6,9,3)             -1.8968         estimate D2E/DX2                !
 ! D41   D(5,6,9,18)          -118.5545         estimate D2E/DX2                !
 ! D42   D(7,6,9,3)           -121.998          estimate D2E/DX2                !
 ! D43   D(7,6,9,18)           121.3443         estimate D2E/DX2                !
 ! D44   D(15,6,9,3)           117.229          estimate D2E/DX2                !
 ! D45   D(15,6,9,18)            0.5712         estimate D2E/DX2                !
 ! D46   D(6,7,8,17)            76.5533         estimate D2E/DX2                !
 ! D47   D(16,7,8,17)         -168.3628         estimate D2E/DX2                !
 --------------------------------------------------------------------------------
 Trust Radius=3.00D-01 FncErr=1.00D-07 GrdErr=1.00D-06 EigMax=2.50D+02 EigMin=1.00D-04
 Number of steps in this run=    108 maximum allowed number of steps=    108.
 GradGradGradGradGradGradGradGradGradGradGradGradGradGradGradGradGradGrad

                          Input orientation:                          
 ---------------------------------------------------------------------
 Center     Atomic      Atomic             Coordinates (Angstroms)
 Number     Number       Type             X           Y           Z
 ---------------------------------------------------------------------
      1          7           0        1.067420   -0.070930    0.020580
      2          6           0        2.328390   -0.070930    0.020580
      3          6           0        3.848390   -0.070930    0.020580
      4          6           0        4.382060    1.069390    0.879950
      5          6           0        5.775690    0.603770    1.236650
      6          6           0        5.605630   -0.896890    1.407850
      7          7           0        6.756880   -1.614090    0.897020
      8          8           0        6.549170   -3.011620    1.252350
      9          7           0        4.429830   -1.298890    0.628160
     10          1           0        4.216060    0.016830   -1.008380
     11          1           0        3.788350    1.198580    1.794450
     12          1           0        4.396330    2.025880    0.348540
     13          1           0        6.150860    1.080450    2.148670
     14          1           0        6.467740    0.848280    0.420980
     15          1           0        5.446500   -1.130200    2.469110
     16          1           0        7.587690   -1.376850    1.445000
     17          1           0        5.881270   -3.268460    0.580840
     18          1           0        3.753830   -1.688880    1.286110
 ---------------------------------------------------------------------
                    Distance matrix (angstroms):
                    1          2          3          4          5
     1  N    0.000000
     2  C    1.260970   0.000000
     3  C    2.780970   1.520000   0.000000
     4  C    3.609111   2.501281   1.524352   0.000000
     5  C    4.909364   3.717247   2.376664   1.512032   0.000000
     6  C    4.816854   3.653359   2.386340   2.375302   1.519938
     7  N    5.959819   4.770850   3.407169   3.583452   2.448874
     8  O    6.341490   5.289603   4.178412   4.635697   3.697237
     9  N    3.630818   2.508603   1.488325   2.382106   2.408675
    10  H    3.313668   2.151687   1.096194   2.168232   2.795908
    11  H    3.487367   2.624834   2.182172   1.097949   2.148129
    12  H    3.947887   2.963199   2.191896   1.094291   2.171122
    13  H    5.629903   4.523905   3.340032   2.176793   1.095334
    14  H    5.492606   4.259047   2.804686   2.146999   1.097286
    15  H    5.127738   4.103652   3.109873   2.914903   2.152667
    16  H    6.800612   5.603092   4.209129   4.071785   2.692510
    17  H    5.806138   4.812592   3.830234   4.599352   3.928791
    18  H    3.381734   2.500242   2.056276   2.857917   3.057222
                    6          7          8          9         10
     6  C    0.000000
     7  N    1.449379   0.000000
     8  O    2.320890   1.456878   0.000000
     9  N    1.466979   2.363641   2.795471   0.000000
    10  H    2.933250   3.570184   4.441375   2.110706   0.000000
    11  H    2.800529   4.186725   5.063772   2.830033   3.071697
    12  H    3.335735   4.372918   5.552297   3.336676   2.431051
    13  H    2.180817   3.032232   4.207978   3.306834   3.852493
    14  H    2.182376   2.524576   3.949258   2.967548   2.793643
    15  H    1.098193   2.103025   2.497224   2.109780   3.862978
    16  H    2.039682   1.023137   1.946307   3.262727   4.396511
    17  H    2.526711   1.898316   0.981317   2.447064   4.011443
    18  H    2.017729   3.029075   3.092686   1.020768   2.896168
                   11         12         13         14         15
    11  H    0.000000
    12  H    1.773336   0.000000
    13  H    2.391836   2.685644   0.000000
    14  H    3.031214   2.383847   1.771787   0.000000
    15  H    2.937319   3.944682   2.342174   3.025252   0.000000
    16  H    4.603253   4.792241   2.932227   2.693345   2.386280
    17  H    5.080119   5.503549   4.630744   4.161376   2.885610
    18  H    2.932069   3.884750   3.762838   3.814569   2.139333
                   16         17         18
    16  H    0.000000
    17  H    2.690136   0.000000
    18  H    3.849817   2.741985   0.000000
 Stoichiometry    C5H9N3O
 Framework group  C1[X(C5H9N3O)]
 Deg. of freedom    48
 Full point group                 C1      NOp   1
 Largest Abelian subgroup         C1      NOp   1
 Largest concise Abelian subgroup C1      NOp   1
                         Standard orientation:                         
 ---------------------------------------------------------------------
 Center     Atomic      Atomic             Coordinates (Angstroms)
 Number     Number       Type             X           Y           Z
 ---------------------------------------------------------------------
      1          7           0        3.560025   -1.057424   -0.225934
      2          6           0        2.455879   -0.552467    0.114543
      3          6           0        1.124917    0.056218    0.524963
      4          6           0        0.961756    1.443553   -0.085225
      5          6           0       -0.536983    1.643561   -0.080811
      6          6           0       -1.072159    0.253905   -0.385200
      7          7           0       -2.277985   -0.018145    0.371552
      8          8           0       -2.775882   -1.298517   -0.113461
      9          7           0       -0.045889   -0.712308    0.021284
     10          1           0        1.065092    0.106284    1.618377
     11          1           0        1.337963    1.478667   -1.116112
     12          1           0        1.477335    2.219300    0.489117
     13          1           0       -0.858854    2.379043   -0.825943
     14          1           0       -0.859782    2.001146    0.905074
     15          1           0       -1.264709    0.161858   -1.462456
     16          1           0       -3.022671    0.621932    0.084229
     17          1           0       -2.155365   -1.912150    0.335312
     18          1           0        0.234536   -1.221427   -0.817838
 ---------------------------------------------------------------------
 Rotational constants (GHZ):           3.3529656           0.9566380           0.7831753
 Standard basis: 6-31G(2df,p) (6D, 7F)
 There are   324 symmetry adapted cartesian basis functions of A   symmetry.
 There are   297 symmetry adapted basis functions of A   symmetry.
   297 basis functions,   459 primitive gaussians,   324 cartesian basis functions
    34 alpha electrons       34 beta electrons
       nuclear repulsion energy       443.1581416254 Hartrees.
 NAtoms=   18 NActive=   18 NUniq=   18 SFac= 1.00D+00 NAtFMM=   60 NAOKFM=F Big=F
 Integral buffers will be    131072 words long.
 Raffenetti 2 integral format.
 Two-electron integral symmetry is turned on.
 One-electron integrals computed using PRISM.
 PrsmSu:  requested number of processors reduced to:  13 ShMem   1 Linda.
 NBasis=   297 RedAO= T EigKep=  1.97D-04  NBF=   297
 NBsUse=   297 1.00D-06 EigRej= -1.00D+00 NBFU=   297
 ExpMin= 1.61D-01 ExpMax= 5.48D+03 ExpMxC= 8.25D+02 IAcc=3 IRadAn=         5 AccDes= 0.00D+00
 Harris functional with IExCor=  402 and IRadAn=       5 diagonalized for initial guess.
 HarFok:  IExCor=  402 AccDes= 0.00D+00 IRadAn=         5 IDoV= 1 UseB2=F ITyADJ=14
 ICtDFT=  3500011 ScaDFX=  1.000000  1.000000  1.000000  1.000000
 FoFCou: FMM=F IPFlag=           0 FMFlag=      100000 FMFlg1=           0
         NFxFlg=           0 DoJE=T BraDBF=F KetDBF=T FulRan=T
         wScrn=  0.000000 ICntrl=       500 IOpCl=  0 I1Cent=   200000004 NGrid=           0
         NMat0=    1 NMatS0=      1 NMatT0=    0 NMatD0=    1 NMtDS0=    0 NMtDT0=    0
 Petite list used in FoFCou.
 Requested convergence on RMS density matrix=1.00D-08 within 128 cycles.
 Requested convergence on MAX density matrix=1.00D-06.
 Requested convergence on             energy=1.00D-06.
 No special actions if energy rises.
 Integral accuracy reduced to 1.0D-05 until final iterations.
 Initial convergence to 1.0D-05 achieved.  Increase integral accuracy.
 SCF Done:  E(RB3LYP) =  -435.343120289     A.U. after   14 cycles
            NFock= 14  Conv=0.67D-08     -V/T= 2.0081

 **********************************************************************

            Population analysis using the SCF density.

 **********************************************************************

 Orbital symmetries:
       Occupied  (A) (A) (A) (A) (A) (A) (A) (A) (A) (A) (A) (A)
                 (A) (A) (A) (A) (A) (A) (A) (A) (A) (A) (A) (A)
                 (A) (A) (A) (A) (A) (A) (A) (A) (A) (A)
       Virtual   (A) (A) (A) (A) (A) (A) (A) (A) (A) (A) (A) (A)
                 (A) (A) (A) (A) (A) (A) (A) (A) (A) (A) (A) (A)
                 (A) (A) (A) (A) (A) (A) (A) (A) (A) (A) (A) (A)
                 (A) (A) (A) (A) (A) (A) (A) (A) (A) (A) (A) (A)
                 (A) (A) (A) (A) (A) (A) (A) (A) (A) (A) (A) (A)
                 (A) (A) (A) (A) (A) (A) (A) (A) (A) (A) (A) (A)
                 (A) (A) (A) (A) (A) (A) (A) (A) (A) (A) (A) (A)
                 (A) (A) (A) (A) (A) (A) (A) (A) (A) (A) (A) (A)
                 (A) (A) (A) (A) (A) (A) (A) (A) (A) (A) (A) (A)
                 (A) (A) (A) (A) (A) (A) (A) (A) (A) (A) (A) (A)
                 (A) (A) (A) (A) (A) (A) (A) (A) (A) (A) (A) (A)
                 (A) (A) (A) (A) (A) (A) (A) (A) (A) (A) (A) (A)
                 (A) (A) (A) (A) (A) (A) (A) (A) (A) (A) (A) (A)
                 (A) (A) (A) (A) (A) (A) (A) (A) (A) (A) (A) (A)
                 (A) (A) (A) (A) (A) (A) (A) (A) (A) (A) (A) (A)
                 (A) (A) (A) (A) (A) (A) (A) (A) (A) (A) (A) (A)
                 (A) (A) (A) (A) (A) (A) (A) (A) (A) (A) (A) (A)
                 (A) (A) (A) (A) (A) (A) (A) (A) (A) (A) (A) (A)
                 (A) (A) (A) (A) (A) (A) (A) (A) (A) (A) (A) (A)
                 (A) (A) (A) (A) (A) (A) (A) (A) (A) (A) (A) (A)
                 (A) (A) (A) (A) (A) (A) (A) (A) (A) (A) (A) (A)
                 (A) (A) (A) (A) (A) (A) (A) (A) (A) (A) (A)
 The electronic state is 1-A.
 Alpha  occ. eigenvalues --  -19.15891 -14.36990 -14.36168 -14.34579 -10.27527
 Alpha  occ. eigenvalues --  -10.25498 -10.24961 -10.21229 -10.20449  -1.05000
 Alpha  occ. eigenvalues --   -0.95550  -0.87025  -0.83416  -0.79867  -0.74052
 Alpha  occ. eigenvalues --   -0.63101  -0.60391  -0.57273  -0.52885  -0.50001
 Alpha  occ. eigenvalues --   -0.48017  -0.46469  -0.43382  -0.42435  -0.40251
 Alpha  occ. eigenvalues --   -0.38957  -0.38138  -0.36685  -0.35972  -0.32055
 Alpha  occ. eigenvalues --   -0.31494  -0.30497  -0.26847  -0.23304
 Alpha virt. eigenvalues --   -0.01232  -0.00092   0.04927   0.07552   0.08365
 Alpha virt. eigenvalues --    0.09597   0.11868   0.12705   0.13790   0.14560
 Alpha virt. eigenvalues --    0.15761   0.16775   0.17491   0.19011   0.20528
 Alpha virt. eigenvalues --    0.22740   0.25633   0.26894   0.29270   0.32850
 Alpha virt. eigenvalues --    0.43677   0.45184   0.46618   0.48013   0.48949
 Alpha virt. eigenvalues --    0.49484   0.51618   0.54320   0.54778   0.56554
 Alpha virt. eigenvalues --    0.57498   0.59152   0.59737   0.60468   0.62397
 Alpha virt. eigenvalues --    0.64484   0.64900   0.67013   0.67831   0.68313
 Alpha virt. eigenvalues --    0.70294   0.72452   0.73642   0.74391   0.75167
 Alpha virt. eigenvalues --    0.76385   0.77284   0.78190   0.79219   0.79989
 Alpha virt. eigenvalues --    0.80262   0.81133   0.82376   0.83557   0.84127
 Alpha virt. eigenvalues --    0.84943   0.86911   0.88871   0.92398   0.93431
 Alpha virt. eigenvalues --    0.94003   1.01450   1.03502   1.04833   1.05375
 Alpha virt. eigenvalues --    1.09114   1.09667   1.14579   1.14922   1.18636
 Alpha virt. eigenvalues --    1.20001   1.21622   1.25333   1.26505   1.30398
 Alpha virt. eigenvalues --    1.32235   1.33758   1.37055   1.39933   1.41161
 Alpha virt. eigenvalues --    1.43883   1.45090   1.45997   1.47709   1.48921
 Alpha virt. eigenvalues --    1.49955   1.51817   1.56083   1.58650   1.59812
 Alpha virt. eigenvalues --    1.62893   1.64539   1.66775   1.71596   1.73965
 Alpha virt. eigenvalues --    1.75007   1.75700   1.79377   1.82088   1.86708
 Alpha virt. eigenvalues --    1.87950   1.89170   1.91057   1.96927   2.00123
 Alpha virt. eigenvalues --    2.07879   2.10742   2.13178   2.15131   2.17273
 Alpha virt. eigenvalues --    2.23450   2.28343   2.30110   2.33614   2.37386
 Alpha virt. eigenvalues --    2.39896   2.46995   2.48515   2.49932   2.53601
 Alpha virt. eigenvalues --    2.54640   2.59575   2.61035   2.63429   2.63780
 Alpha virt. eigenvalues --    2.64339   2.71578   2.76111   2.77465   2.77960
 Alpha virt. eigenvalues --    2.79673   2.80658   2.84174   2.86097   2.87351
 Alpha virt. eigenvalues --    2.88243   2.89558   2.92207   2.95403   2.96538
 Alpha virt. eigenvalues --    3.00548   3.02056   3.06136   3.07909   3.12039
 Alpha virt. eigenvalues --    3.12898   3.14096   3.19392   3.22400   3.26568
 Alpha virt. eigenvalues --    3.28054   3.32489   3.34272   3.37291   3.41610
 Alpha virt. eigenvalues --    3.44440   3.46993   3.50441   3.51692   3.59732
 Alpha virt. eigenvalues --    3.60696   3.63730   3.63954   3.65001   3.66751
 Alpha virt. eigenvalues --    3.70750   3.73555   3.75301   3.77099   3.78693
 Alpha virt. eigenvalues --    3.80914   3.84435   3.88505   3.90725   3.93947
 Alpha virt. eigenvalues --    3.96304   4.03244   4.05312   4.06373   4.08889
 Alpha virt. eigenvalues --    4.10634   4.13011   4.13715   4.15925   4.16722
 Alpha virt. eigenvalues --    4.21337   4.22623   4.25011   4.26395   4.27789
 Alpha virt. eigenvalues --    4.31680   4.31800   4.34545   4.37202   4.39688
 Alpha virt. eigenvalues --    4.40947   4.41864   4.42963   4.46391   4.48039
 Alpha virt. eigenvalues --    4.50129   4.54049   4.55850   4.57475   4.59181
 Alpha virt. eigenvalues --    4.62047   4.63894   4.65355   4.66911   4.68778
 Alpha virt. eigenvalues --    4.70365   4.72089   4.74097   4.75251   4.76932
 Alpha virt. eigenvalues --    4.78544   4.80211   4.82391   4.86323   4.87815
 Alpha virt. eigenvalues --    4.88292   4.90200   4.92862   4.98237   5.00688
 Alpha virt. eigenvalues --    5.02654   5.05950   5.09400   5.10731   5.11684
 Alpha virt. eigenvalues --    5.13337   5.15381   5.21220   5.24411   5.30098
 Alpha virt. eigenvalues --    5.36825   5.38404   5.39885   5.45964   5.48076
 Alpha virt. eigenvalues --    5.50338   5.56276   5.56802   5.62840   5.71764
 Alpha virt. eigenvalues --    5.85771   5.94651   6.02116   6.04022   6.44001
 Alpha virt. eigenvalues --    6.95213  10.07021  10.39065  11.20347  11.32294
 Alpha virt. eigenvalues --   11.41193  11.64291  11.91262  12.20770  12.89836
 Alpha virt. eigenvalues --   13.21842  14.09064  17.41028
          Condensed to atoms (all electrons):
               1          2          3          4          5          6
     1  N    6.495977   0.918241  -0.034023  -0.002398  -0.000004  -0.000004
     2  C    0.918241   4.519013   0.368379  -0.017307   0.001767   0.002452
     3  C   -0.034023   0.368379   4.811943   0.362960  -0.050077  -0.070406
     4  C   -0.002398  -0.017307   0.362960   4.965466   0.376882  -0.044204
     5  C   -0.000004   0.001767  -0.050077   0.376882   5.050110   0.336983
     6  C   -0.000004   0.002452  -0.070406  -0.044204   0.336983   4.796306
     7  N    0.000000  -0.000091   0.001143   0.000280  -0.039476   0.346852
     8  O    0.000000  -0.000007   0.000655  -0.000164   0.004910  -0.060054
     9  N   -0.001531  -0.026601   0.382268  -0.066169  -0.047816   0.346296
    10  H    0.000279  -0.039017   0.376943  -0.056384   0.002359   0.000712
    11  H    0.000812  -0.004538  -0.022339   0.363777  -0.031341   0.001558
    12  H   -0.000005   0.000627  -0.019491   0.358452  -0.025114   0.003336
    13  H    0.000000  -0.000105   0.003502  -0.019955   0.366129  -0.022767
    14  H    0.000000   0.000143   0.001824  -0.024978   0.353775  -0.024937
    15  H    0.000002   0.000128   0.009384   0.003140  -0.038973   0.374523
    16  H    0.000000   0.000003  -0.000106  -0.000036   0.004178  -0.049824
    17  H    0.000000   0.000018   0.000296   0.000113  -0.000224  -0.010823
    18  H    0.000916  -0.001479  -0.051449   0.001087   0.006484  -0.035623
               7          8          9         10         11         12
     1  N    0.000000   0.000000  -0.001531   0.000279   0.000812  -0.000005
     2  C   -0.000091  -0.000007  -0.026601  -0.039017  -0.004538   0.000627
     3  C    0.001143   0.000655   0.382268   0.376943  -0.022339  -0.019491
     4  C    0.000280  -0.000164  -0.066169  -0.056384   0.363777   0.358452
     5  C   -0.039476   0.004910  -0.047816   0.002359  -0.031341  -0.025114
     6  C    0.346852  -0.060054   0.346296   0.000712   0.001558   0.003336
     7  N    6.516592   0.221330  -0.054215   0.001287   0.000108   0.000029
     8  O    0.221330   7.979904  -0.004594   0.000019   0.000002   0.000001
     9  N   -0.054215  -0.004594   6.509150  -0.034457  -0.001306   0.004927
    10  H    0.001287   0.000019  -0.034457   0.598130   0.005482  -0.003681
    11  H    0.000108   0.000002  -0.001306   0.005482   0.599007  -0.034533
    12  H    0.000029   0.000001   0.004927  -0.003681  -0.034533   0.600271
    13  H    0.002027  -0.000057   0.004016  -0.000109  -0.007859   0.002335
    14  H    0.002792   0.000088  -0.004478   0.001792   0.005358  -0.006783
    15  H   -0.066972   0.009656  -0.063278  -0.000258   0.000603  -0.000245
    16  H    0.324462  -0.021853   0.005821  -0.000033   0.000002  -0.000005
    17  H   -0.053617   0.299535   0.023476  -0.000132  -0.000003  -0.000002
    18  H    0.004233   0.001288   0.338651   0.005728   0.000887  -0.000088
              13         14         15         16         17         18
     1  N    0.000000   0.000000   0.000002   0.000000   0.000000   0.000916
     2  C   -0.000105   0.000143   0.000128   0.000003   0.000018  -0.001479
     3  C    0.003502   0.001824   0.009384  -0.000106   0.000296  -0.051449
     4  C   -0.019955  -0.024978   0.003140  -0.000036   0.000113   0.001087
     5  C    0.366129   0.353775  -0.038973   0.004178  -0.000224   0.006484
     6  C   -0.022767  -0.024937   0.374523  -0.049824  -0.010823  -0.035623
     7  N    0.002027   0.002792  -0.066972   0.324462  -0.053617   0.004233
     8  O   -0.000057   0.000088   0.009656  -0.021853   0.299535   0.001288
     9  N    0.004016  -0.004478  -0.063278   0.005821   0.023476   0.338651
    10  H   -0.000109   0.001792  -0.000258  -0.000033  -0.000132   0.005728
    11  H   -0.007859   0.005358   0.000603   0.000002  -0.000003   0.000887
    12  H    0.002335  -0.006783  -0.000245  -0.000005  -0.000002  -0.000088
    13  H    0.604347  -0.038512  -0.008113   0.000161  -0.000008  -0.000210
    14  H   -0.038512   0.606460   0.007247  -0.000261  -0.000025  -0.000098
    15  H   -0.008113   0.007247   0.716216  -0.004022   0.000484  -0.011247
    16  H    0.000161  -0.000261  -0.004022   0.494673   0.005631  -0.000344
    17  H   -0.000008  -0.000025   0.000484   0.005631   0.431874  -0.001342
    18  H   -0.000210  -0.000098  -0.011247  -0.000344  -0.001342   0.501663
 Mulliken charges:
               1
     1  N   -0.378263
     2  C    0.278374
     3  C   -0.071406
     4  C   -0.200563
     5  C   -0.270553
     6  C    0.109624
     7  N   -0.206763
     8  O   -0.430659
     9  N   -0.310162
    10  H    0.141342
    11  H    0.124322
    12  H    0.119968
    13  H    0.115177
    14  H    0.120593
    15  H    0.071727
    16  H    0.241553
    17  H    0.304747
    18  H    0.240944
 Sum of Mulliken charges =  -0.00000
 Mulliken charges with hydrogens summed into heavy atoms:
               1
     1  N   -0.378263
     2  C    0.278374
     3  C    0.069935
     4  C    0.043727
     5  C   -0.034783
     6  C    0.181351
     7  N    0.034790
     8  O   -0.125912
     9  N   -0.069219
 Electronic spatial extent (au):  <R**2>=           1406.9840
 Charge=             -0.0000 electrons
 Dipole moment (field-independent basis, Debye):
    X=             -1.8730    Y=              2.9264    Z=             -0.3226  Tot=              3.4894
 Quadrupole moment (field-independent basis, Debye-Ang):
   XX=            -72.4230   YY=            -50.7307   ZZ=            -52.0814
   XY=              1.8010   XZ=              3.0526   YZ=             -0.4774
 Traceless Quadrupole moment (field-independent basis, Debye-Ang):
   XX=            -14.0113   YY=              7.6810   ZZ=              6.3303
   XY=              1.8010   XZ=              3.0526   YZ=             -0.4774
 Octapole moment (field-independent basis, Debye-Ang**2):
  XXX=            -72.7226  YYY=             -7.3203  ZZZ=             -0.8650  XYY=            -15.2948
  XXY=             34.0244  XXZ=              5.8755  XZZ=             -2.0169  YZZ=             -0.9533
  YYZ=              1.1756  XYZ=              2.1157
 Hexadecapole moment (field-independent basis, Debye-Ang**3):
 XXXX=          -1576.5491 YYYY=           -386.7736 ZZZZ=           -102.9358 XXXY=             43.1313
 XXXZ=             25.6047 YYYX=             36.2535 YYYZ=             -1.9644 ZZZX=              5.2944
 ZZZY=              0.8215 XXYY=           -303.1522 XXZZ=           -239.9113 YYZZ=            -81.7503
 XXYZ=            -14.0539 YYXZ=             -2.8782 ZZXY=              5.9661
 N-N= 4.431581416254D+02 E-N=-1.900779282206D+03  KE= 4.318239004242D+02
 PrsmSu:  requested number of processors reduced to:  13 ShMem   1 Linda.
 Calling FoFJK, ICntrl=      2127 FMM=F ISym2X=0 I1Cent= 0 IOpClX= 0 NMat=1 NMatS=1 NMatT=0.
 ***** Axes restored to original set *****
 -------------------------------------------------------------------
 Center     Atomic                   Forces (Hartrees/Bohr)
 Number     Number              X              Y              Z
 -------------------------------------------------------------------
      1        7           0.179910223    0.000525741    0.000964167
      2        6          -0.150080104   -0.005355307   -0.005705163
      3        6          -0.024644816   -0.006092570    0.005598754
      4        6          -0.002228441    0.021734468    0.002090396
      5        6           0.009466749    0.009853940    0.001528015
      6        6           0.009553168   -0.001428997    0.006148234
      7        7           0.004125536   -0.010236127   -0.001536559
      8        8          -0.007079980    0.001786360   -0.010367973
      9        7          -0.017009038   -0.004075176    0.006294264
     10        1          -0.004285053    0.000712062   -0.000786049
     11        1          -0.002371896   -0.001852540   -0.004092546
     12        1          -0.002916487    0.000163114    0.000829933
     13        1           0.000186275   -0.000423757   -0.002063722
     14        1           0.001143303   -0.004531440    0.000871259
     15        1          -0.001965003   -0.003257903    0.000727223
     16        1          -0.003992248   -0.000645727   -0.000830497
     17        1           0.010950328    0.002915119    0.007850852
     18        1           0.001237484    0.000208741   -0.007520590
 -------------------------------------------------------------------
 Cartesian Forces:  Max     0.179910223 RMS     0.032609983

 GradGradGradGradGradGradGradGradGradGradGradGradGradGradGradGradGradGrad
 Berny optimization.
 FormGI is forming the generalized inverse of G from B-inverse, IUseBI=4.
 Internal  Forces:  Max     0.179910246 RMS     0.018806396
 Search for a local minimum.
 Step number   1 out of a maximum of  108
 All quantities printed in internal units (Hartrees-Bohrs-Radians)
 Mixed Optimization -- RFO/linear search
 Second derivative matrix not updated -- first step.
 ITU=  0
     Eigenvalues ---    0.00501   0.00501   0.00542   0.00634   0.00685
     Eigenvalues ---    0.01039   0.02308   0.02807   0.03999   0.04866
     Eigenvalues ---    0.04885   0.05199   0.05359   0.05650   0.05714
     Eigenvalues ---    0.06270   0.06390   0.06905   0.06924   0.06986
     Eigenvalues ---    0.08687   0.09020   0.10104   0.12105   0.14309
     Eigenvalues ---    0.14778   0.16000   0.19396   0.21737   0.23873
     Eigenvalues ---    0.27892   0.29435   0.29817   0.30367   0.32711
     Eigenvalues ---    0.33883   0.33910   0.33984   0.34107   0.34203
     Eigenvalues ---    0.34321   0.35012   0.37358   0.38326   0.43841
     Eigenvalues ---    0.44216   0.51130   0.79312
 RFO step:  Lambda=-4.65250998D-02 EMin= 5.01385868D-03
 Linear search not attempted -- first point.
 Iteration  1 RMS(Cart)=  0.04141866 RMS(Int)=  0.00164189
 Iteration  2 RMS(Cart)=  0.00174223 RMS(Int)=  0.00015194
 Iteration  3 RMS(Cart)=  0.00000304 RMS(Int)=  0.00015193
 Iteration  4 RMS(Cart)=  0.00000000 RMS(Int)=  0.00015193
 Variable       Old X    -DE/DX   Delta X   Delta X   Delta X     New X
                                 (Linear)    (Quad)   (Total)
    R1        2.38289  -0.17991   0.00000  -0.21427  -0.21427   2.16862
    R2        2.87238  -0.02983   0.00000  -0.08518  -0.08518   2.78720
    R3        2.88061   0.01081   0.00000   0.03046   0.03059   2.91120
    R4        2.81253  -0.00104   0.00000  -0.00504  -0.00500   2.80753
    R5        2.07151  -0.00064   0.00000  -0.00166  -0.00166   2.06985
    R6        2.85733   0.01367   0.00000   0.04031   0.04036   2.89769
    R7        2.07482  -0.00234   0.00000  -0.00608  -0.00608   2.06874
    R8        2.06791  -0.00030   0.00000  -0.00077  -0.00077   2.06714
    R9        2.87227   0.01310   0.00000   0.03935   0.03925   2.91151
   R10        2.06988  -0.00184   0.00000  -0.00473  -0.00473   2.06515
   R11        2.07357  -0.00094   0.00000  -0.00242  -0.00242   2.07115
   R12        2.73893   0.00796   0.00000   0.01852   0.01852   2.75745
   R13        2.77219   0.00940   0.00000   0.02229   0.02218   2.79437
   R14        2.07528   0.00168   0.00000   0.00436   0.00436   2.07964
   R15        2.75310  -0.00568   0.00000  -0.01351  -0.01351   2.73959
   R16        1.93345  -0.00384   0.00000  -0.00791  -0.00791   1.92554
   R17        1.85442  -0.01359   0.00000  -0.02436  -0.02436   1.83006
   R18        1.92897  -0.00575   0.00000  -0.01176  -0.01176   1.91721
    A1        1.92847   0.00383   0.00000   0.02750   0.02767   1.95614
    A2        1.97215  -0.00551   0.00000  -0.02132  -0.02208   1.95007
    A3        1.91283  -0.00223   0.00000  -0.02736  -0.02745   1.88538
    A4        1.82377   0.00683   0.00000   0.02699   0.02698   1.85075
    A5        1.93036  -0.00195   0.00000  -0.00541  -0.00552   1.92484
    A6        1.89464  -0.00072   0.00000   0.00164   0.00153   1.89617
    A7        1.79806  -0.00569   0.00000  -0.02356  -0.02344   1.77463
    A8        1.94795  -0.00156   0.00000  -0.01965  -0.01949   1.92846
    A9        1.96563   0.00186   0.00000   0.00571   0.00586   1.97149
   A10        1.91574   0.00321   0.00000   0.01943   0.01906   1.93480
   A11        1.95164   0.00374   0.00000   0.02316   0.02295   1.97459
   A12        1.88461  -0.00146   0.00000  -0.00459  -0.00495   1.87966
   A13        1.80029   0.00102   0.00000   0.01150   0.01155   1.81184
   A14        1.95855  -0.00050   0.00000   0.00413   0.00412   1.96266
   A15        1.91487   0.00212   0.00000   0.00977   0.00977   1.92464
   A16        1.95434   0.00088   0.00000   0.00384   0.00368   1.95802
   A17        1.95444  -0.00379   0.00000  -0.02944  -0.02945   1.92499
   A18        1.88173   0.00025   0.00000   0.00023   0.00012   1.88185
   A19        1.93905  -0.00176   0.00000  -0.00860  -0.00860   1.93045
   A20        1.87588  -0.00104   0.00000  -0.00471  -0.00480   1.87108
   A21        1.91221   0.00260   0.00000   0.01803   0.01806   1.93027
   A22        1.88991   0.00142   0.00000   0.00489   0.00498   1.89489
   A23        1.92897   0.00021   0.00000   0.00406   0.00404   1.93301
   A24        1.91693  -0.00150   0.00000  -0.01437  -0.01439   1.90254
   A25        1.84987   0.00896   0.00000   0.03069   0.03079   1.88066
   A26        1.91930  -0.00425   0.00000  -0.02242  -0.02235   1.89695
   A27        1.77989  -0.00181   0.00000  -0.00569  -0.00543   1.77446
   A28        1.75301   0.00004   0.00000   0.00018   0.00018   1.75319
   A29        1.87969  -0.00050   0.00000  -0.00236  -0.00245   1.87724
   A30        1.89614  -0.00040   0.00000   0.00413   0.00392   1.90005
   A31        1.86807   0.00423   0.00000   0.03288   0.03274   1.90081
   A32        3.14159  -0.00260   0.00000  -0.05041  -0.05041   3.09119
   A33        3.14159  -0.00026   0.00000  -0.00512  -0.00512   3.13647
    D1        2.74790  -0.00078   0.00000  -0.00004   0.00042   2.74832
    D2        0.69357  -0.00058   0.00000  -0.00022  -0.00008   0.69349
    D3       -1.42966   0.00113   0.00000   0.01606   0.01630  -1.41336
    D4        0.62158  -0.00034   0.00000  -0.00552  -0.00543   0.61615
    D5       -1.43275  -0.00015   0.00000  -0.00570  -0.00593  -1.43868
    D6        2.72720   0.00156   0.00000   0.01058   0.01046   2.73765
    D7       -1.41409  -0.00233   0.00000  -0.01971  -0.01954  -1.43362
    D8        2.81477  -0.00213   0.00000  -0.01989  -0.02004   2.79473
    D9        0.69153  -0.00042   0.00000  -0.00361  -0.00365   0.68788
   D10       -2.46312  -0.00709   0.00000  -0.04853  -0.04816  -2.51128
   D11       -0.44548  -0.00259   0.00000  -0.00902  -0.00878  -0.45425
   D12       -0.36580  -0.00107   0.00000  -0.00943  -0.00944  -0.37524
   D13        1.65185   0.00343   0.00000   0.03008   0.02994   1.68178
   D14        1.69444  -0.00012   0.00000  -0.00092  -0.00084   1.69360
   D15       -2.57109   0.00437   0.00000   0.03859   0.03853  -2.53256
   D16       -0.63197   0.00270   0.00000   0.01907   0.01906  -0.61291
   D17       -2.73855   0.00128   0.00000   0.00530   0.00525  -2.73330
   D18        1.45323  -0.00015   0.00000  -0.00427  -0.00431   1.44893
   D19        1.44490  -0.00068   0.00000  -0.00740  -0.00756   1.43734
   D20       -0.66168  -0.00210   0.00000  -0.02118  -0.02136  -0.68304
   D21       -2.75308  -0.00353   0.00000  -0.03075  -0.03092  -2.78400
   D22       -2.74713   0.00203   0.00000   0.01471   0.01487  -2.73227
   D23        1.42947   0.00061   0.00000   0.00093   0.00106   1.43054
   D24       -0.66193  -0.00082   0.00000  -0.00864  -0.00849  -0.67043
   D25        2.48473  -0.00000   0.00000  -0.01406  -0.01419   2.47054
   D26        0.42004  -0.00009   0.00000  -0.01225  -0.01251   0.40753
   D27       -1.66212   0.00086   0.00000  -0.00236  -0.00248  -1.66460
   D28       -1.68901   0.00048   0.00000  -0.00014  -0.00015  -1.68916
   D29        2.52949   0.00039   0.00000   0.00166   0.00153   2.53102
   D30        0.44733   0.00134   0.00000   0.01155   0.01156   0.45889
   D31        0.42707  -0.00128   0.00000  -0.01819  -0.01813   0.40894
   D32       -1.63761  -0.00137   0.00000  -0.01639  -0.01645  -1.65407
   D33        2.56341  -0.00042   0.00000  -0.00649  -0.00642   2.55699
   D34        3.03073   0.00173   0.00000   0.01350   0.01345   3.04418
   D35        1.11955   0.00128   0.00000   0.01479   0.01490   1.13445
   D36       -1.19626   0.00031   0.00000   0.00578   0.00568  -1.19058
   D37       -3.10744  -0.00014   0.00000   0.00707   0.00713  -3.10031
   D38        0.90413  -0.00051   0.00000  -0.00632  -0.00641   0.89773
   D39       -1.00705  -0.00096   0.00000  -0.00503  -0.00496  -1.01200
   D40       -0.03311   0.00012   0.00000   0.01180   0.01180  -0.02131
   D41       -2.06917  -0.00132   0.00000  -0.00863  -0.00868  -2.07785
   D42       -2.12927   0.00202   0.00000   0.02198   0.02198  -2.10728
   D43        2.11786   0.00058   0.00000   0.00156   0.00151   2.11936
   D44        2.04603   0.00179   0.00000   0.02263   0.02263   2.06866
   D45        0.00997   0.00034   0.00000   0.00221   0.00215   0.01212
   D46        1.33611   0.00319   0.00000   0.04870   0.04866   1.38477
   D47       -2.93848   0.00105   0.00000   0.03290   0.03293  -2.90555
         Item               Value     Threshold  Converged?
 Maximum Force            0.179910     0.000450     NO 
 RMS     Force            0.018806     0.000300     NO 
 Maximum Displacement     0.265940     0.001800     NO 
 RMS     Displacement     0.042367     0.001200     NO 
 Predicted change in Energy=-2.524656D-02
 GradGradGradGradGradGradGradGradGradGradGradGradGradGradGradGradGradGrad

                          Input orientation:                          
 ---------------------------------------------------------------------
 Center     Atomic      Atomic             Coordinates (Angstroms)
 Number     Number       Type             X           Y           Z
 ---------------------------------------------------------------------
      1          7           0        1.208150   -0.085678    0.037050
      2          6           0        2.355422   -0.094466    0.011826
      3          6           0        3.829750   -0.065871    0.042460
      4          6           0        4.368864    1.111414    0.877097
      5          6           0        5.773437    0.615900    1.241693
      6          6           0        5.591142   -0.902741    1.426827
      7          7           0        6.741472   -1.626582    0.895792
      8          8           0        6.568962   -3.029197    1.219249
      9          7           0        4.391121   -1.296209    0.657583
     10          1           0        4.188886    0.004651   -0.989900
     11          1           0        3.760472    1.254303    1.775918
     12          1           0        4.376011    2.056699    0.326669
     13          1           0        6.165386    1.097168    2.141156
     14          1           0        6.472087    0.817725    0.421707
     15          1           0        5.432637   -1.147097    2.488084
     16          1           0        7.562292   -1.386752    1.449865
     17          1           0        5.940754   -3.292258    0.530769
     18          1           0        3.705245   -1.686499    1.295194
 ---------------------------------------------------------------------
                    Distance matrix (angstroms):
                    1          2          3          4          5
     1  N    0.000000
     2  C    1.147583   0.000000
     3  C    2.621681   1.474923   0.000000
     4  C    3.482647   2.501358   1.540540   0.000000
     5  C    4.773387   3.701354   2.383462   1.533391   0.000000
     6  C    4.670085   3.622902   2.391511   2.419294   1.540706
     7  N    5.807709   4.729293   3.412055   3.623015   2.466874
     8  O    6.228982   5.274888   4.203500   4.701293   3.730965
     9  N    3.461468   2.450564   1.485680   2.417712   2.430668
    10  H    3.153977   2.091619   1.095317   2.177842   2.804361
    11  H    3.366536   2.627806   2.180031   1.094732   2.178298
    12  H    3.835232   2.968066   2.210087   1.093886   2.205895
    13  H    5.513673   4.524364   3.348490   2.196711   1.092830
    14  H    5.354730   4.236393   2.811853   2.171907   1.096003
    15  H    4.998047   4.087681   3.117591   2.971155   2.185816
    16  H    6.638070   5.554229   4.202069   4.094738   2.693316
    17  H    5.737897   4.832162   3.886432   4.688615   3.975816
    18  H    3.221963   2.450230   2.052140   2.905772   3.095371
                    6          7          8          9         10
     6  C    0.000000
     7  N    1.459180   0.000000
     8  O    2.349689   1.449729   0.000000
     9  N    1.478717   2.385380   2.839314   0.000000
    10  H    2.937729   3.568256   4.444022   2.108871   0.000000
    11  H    2.850623   4.237981   5.152269   2.855435   3.065114
    12  H    3.383072   4.414281   5.609998   3.369233   2.445256
    13  H    2.199923   3.049857   4.247315   3.328252   3.860526
    14  H    2.178608   2.504388   3.929920   2.975697   2.804770
    15  H    1.100500   2.116211   2.538401   2.111332   3.869084
    16  H    2.029835   1.018951   1.933266   3.269898   4.389570
    17  H    2.575838   1.883844   0.968427   2.530149   4.031263
    18  H    2.046512   3.062971   3.163777   1.014545   2.883670
                   11         12         13         14         15
    11  H    0.000000
    12  H    1.767216   0.000000
    13  H    2.437560   2.723037   0.000000
    14  H    3.062245   2.436724   1.768802   0.000000
    15  H    3.011650   4.006555   2.386212   3.034946   0.000000
    16  H    4.640616   4.824035   2.932420   2.665591   2.381336
    17  H    5.193770   5.576865   4.680905   4.145620   2.948047
    18  H    2.980346   3.924220   3.810085   3.832692   2.167446
                   16         17         18
    16  H    0.000000
    17  H    2.665535   0.000000
    18  H    3.871767   2.856626   0.000000
 Stoichiometry    C5H9N3O
 Framework group  C1[X(C5H9N3O)]
 Deg. of freedom    48
 Full point group                 C1      NOp   1
 Largest Abelian subgroup         C1      NOp   1
 Largest concise Abelian subgroup C1      NOp   1
                         Standard orientation:                         
 ---------------------------------------------------------------------
 Center     Atomic      Atomic             Coordinates (Angstroms)
 Number     Number       Type             X           Y           Z
 ---------------------------------------------------------------------
      1          7           0        3.415113   -1.077775   -0.215184
      2          6           0        2.421124   -0.614625    0.123084
      3          6           0        1.148114    0.027756    0.500168
      4          6           0        1.028829    1.454597   -0.068305
      5          6           0       -0.490358    1.662822   -0.068040
      6          6           0       -1.052775    0.268337   -0.404007
      7          7           0       -2.261327    0.002090    0.369117
      8          8           0       -2.809933   -1.259378   -0.088533
      9          7           0       -0.022689   -0.722016   -0.023577
     10          1           0        1.089881    0.048580    1.593738
     11          1           0        1.427698    1.495894   -1.086950
     12          1           0        1.564650    2.198044    0.528996
     13          1           0       -0.807907    2.420471   -0.788740
     14          1           0       -0.829939    1.980671    0.924372
     15          1           0       -1.252766    0.181145   -1.482664
     16          1           0       -2.985043    0.658546    0.080047
     17          1           0       -2.234884   -1.881533    0.380608
     18          1           0        0.260494   -1.236220   -0.851044
 ---------------------------------------------------------------------
 Rotational constants (GHZ):           3.3308462           0.9803944           0.7969936
 Standard basis: 6-31G(2df,p) (6D, 7F)
 There are   324 symmetry adapted cartesian basis functions of A   symmetry.
 There are   297 symmetry adapted basis functions of A   symmetry.
   297 basis functions,   459 primitive gaussians,   324 cartesian basis functions
    34 alpha electrons       34 beta electrons
       nuclear repulsion energy       445.3591161017 Hartrees.
 NAtoms=   18 NActive=   18 NUniq=   18 SFac= 1.00D+00 NAtFMM=   60 NAOKFM=F Big=F
 Integral buffers will be    131072 words long.
 Raffenetti 2 integral format.
 Two-electron integral symmetry is turned on.
 One-electron integrals computed using PRISM.
 PrsmSu:  requested number of processors reduced to:  13 ShMem   1 Linda.
 NBasis=   297 RedAO= T EigKep=  1.45D-04  NBF=   297
 NBsUse=   297 1.00D-06 EigRej= -1.00D+00 NBFU=   297
 Initial guess from the checkpoint file:  "NtCC1CCCpNOpN1.chk"
 B after Tr=     0.000000   -0.000000   -0.000000
         Rot=    0.999951   -0.003338   -0.000544    0.009274 Ang=  -1.13 deg.
 ExpMin= 1.61D-01 ExpMax= 5.48D+03 ExpMxC= 8.25D+02 IAcc=2 IRadAn=         4 AccDes= 0.00D+00
 Harris functional with IExCor=  402 and IRadAn=       4 diagonalized for initial guess.
 HarFok:  IExCor=  402 AccDes= 0.00D+00 IRadAn=         4 IDoV= 1 UseB2=F ITyADJ=14
 ICtDFT=  3500011 ScaDFX=  1.000000  1.000000  1.000000  1.000000
 FoFCou: FMM=F IPFlag=           0 FMFlag=      100000 FMFlg1=           0
         NFxFlg=           0 DoJE=T BraDBF=F KetDBF=T FulRan=T
         wScrn=  0.000000 ICntrl=       500 IOpCl=  0 I1Cent=   200000004 NGrid=           0
         NMat0=    1 NMatS0=      1 NMatT0=    0 NMatD0=    1 NMtDS0=    0 NMtDT0=    0
 Petite list used in FoFCou.
 Requested convergence on RMS density matrix=1.00D-08 within 128 cycles.
 Requested convergence on MAX density matrix=1.00D-06.
 Requested convergence on             energy=1.00D-06.
 No special actions if energy rises.
 Integral accuracy reduced to 1.0D-05 until final iterations.
 Initial convergence to 1.0D-05 achieved.  Increase integral accuracy.
 SCF Done:  E(RB3LYP) =  -435.367898944     A.U. after   13 cycles
            NFock= 13  Conv=0.29D-08     -V/T= 2.0072
 PrsmSu:  requested number of processors reduced to:  13 ShMem   1 Linda.
 Calling FoFJK, ICntrl=      2127 FMM=F ISym2X=0 I1Cent= 0 IOpClX= 0 NMat=1 NMatS=1 NMatT=0.
 ***** Axes restored to original set *****
 -------------------------------------------------------------------
 Center     Atomic                   Forces (Hartrees/Bohr)
 Number     Number              X              Y              Z
 -------------------------------------------------------------------
      1        7          -0.019480428   -0.000563070   -0.000448032
      2        6           0.026157837   -0.000286608   -0.000263173
      3        6          -0.008749672   -0.004467304    0.000728019
      4        6           0.003738493    0.004634230   -0.000264984
      5        6           0.000479560    0.002905103    0.000700480
      6        6           0.001394760   -0.001484493    0.002965066
      7        7           0.001252149   -0.003062280   -0.001855003
      8        8          -0.003480689    0.004519433   -0.001948372
      9        7          -0.003251831    0.003786136    0.003989604
     10        1           0.000374944    0.001262595   -0.000764340
     11        1          -0.000819315   -0.001449733   -0.000768965
     12        1          -0.000537828   -0.000934481   -0.000129057
     13        1           0.000025543   -0.000347233   -0.000303355
     14        1           0.000058769   -0.002281894    0.000012609
     15        1          -0.000378845   -0.001453957   -0.000423590
     16        1          -0.000151285    0.000421188   -0.000269319
     17        1           0.002850225   -0.000709199    0.000870930
     18        1           0.000517613   -0.000488435   -0.001828521
 -------------------------------------------------------------------
 Cartesian Forces:  Max     0.026157837 RMS     0.004979284

 GradGradGradGradGradGradGradGradGradGradGradGradGradGradGradGradGradGrad
 Berny optimization.
 Using GEDIIS/GDIIS optimizer.
 FormGI is forming the generalized inverse of G from B-inverse, IUseBI=4.
 Internal  Forces:  Max     0.019460988 RMS     0.002325338
 Search for a local minimum.
 Step number   2 out of a maximum of  108
 All quantities printed in internal units (Hartrees-Bohrs-Radians)
 Mixed Optimization -- RFO/linear search
 Update second derivatives using D2CorX and points    1    2
 DE= -2.48D-02 DEPred=-2.52D-02 R= 9.81D-01
 TightC=F SS=  1.41D+00  RLast= 2.92D-01 DXNew= 5.0454D-01 8.7678D-01
 Trust test= 9.81D-01 RLast= 2.92D-01 DXMaxT set to 5.05D-01
 ITU=  1  0
 Use linear search instead of GDIIS.
     Eigenvalues ---    0.00501   0.00506   0.00543   0.00633   0.00679
     Eigenvalues ---    0.01039   0.02284   0.02755   0.03936   0.04792
     Eigenvalues ---    0.04877   0.05184   0.05334   0.05611   0.05763
     Eigenvalues ---    0.06160   0.06347   0.06705   0.06977   0.07042
     Eigenvalues ---    0.08810   0.09152   0.10111   0.12239   0.14606
     Eigenvalues ---    0.14752   0.15999   0.19398   0.21845   0.24020
     Eigenvalues ---    0.27892   0.29259   0.29836   0.29978   0.32755
     Eigenvalues ---    0.33883   0.33908   0.33983   0.34108   0.34202
     Eigenvalues ---    0.34321   0.35016   0.37285   0.38313   0.43840
     Eigenvalues ---    0.44192   0.51028   0.92619
 RFO step:  Lambda=-3.02273888D-03 EMin= 5.01379609D-03
 Quartic linear search produced a step of -0.03879.
 Iteration  1 RMS(Cart)=  0.06396441 RMS(Int)=  0.00805207
 Iteration  2 RMS(Cart)=  0.00997426 RMS(Int)=  0.00022073
 Iteration  3 RMS(Cart)=  0.00022561 RMS(Int)=  0.00010176
 Iteration  4 RMS(Cart)=  0.00000010 RMS(Int)=  0.00010176
 Variable       Old X    -DE/DX   Delta X   Delta X   Delta X     New X
                                 (Linear)    (Quad)   (Total)
    R1        2.16862   0.01946   0.00831   0.00531   0.01362   2.18224
    R2        2.78720  -0.00664   0.00330  -0.02960  -0.02630   2.76090
    R3        2.91120   0.00245  -0.00119   0.00958   0.00840   2.91960
    R4        2.80753  -0.00209   0.00019  -0.00848  -0.00823   2.79930
    R5        2.06985   0.00092   0.00006   0.00241   0.00248   2.07233
    R6        2.89769   0.00101  -0.00157   0.00938   0.00776   2.90545
    R7        2.06874  -0.00036   0.00024  -0.00163  -0.00139   2.06735
    R8        2.06714  -0.00075   0.00003  -0.00214  -0.00211   2.06503
    R9        2.91151   0.00082  -0.00152   0.00855   0.00699   2.91850
   R10        2.06515  -0.00039   0.00018  -0.00157  -0.00138   2.06376
   R11        2.07115  -0.00039   0.00009  -0.00134  -0.00125   2.06990
   R12        2.75745   0.00096  -0.00072   0.00417   0.00346   2.76091
   R13        2.79437   0.00012  -0.00086   0.00201   0.00118   2.79555
   R14        2.07964  -0.00003  -0.00017   0.00035   0.00018   2.07982
   R15        2.73959  -0.00385   0.00052  -0.01113  -0.01061   2.72898
   R16        1.92554  -0.00017   0.00031  -0.00111  -0.00081   1.92473
   R17        1.83006  -0.00228   0.00094  -0.00646  -0.00552   1.82454
   R18        1.91721  -0.00131   0.00046  -0.00393  -0.00347   1.91374
    A1        1.95614   0.00256  -0.00107   0.02228   0.02120   1.97734
    A2        1.95007  -0.00086   0.00086  -0.00368  -0.00280   1.94727
    A3        1.88538  -0.00065   0.00106  -0.01196  -0.01084   1.87455
    A4        1.85075  -0.00032  -0.00105  -0.00122  -0.00238   1.84837
    A5        1.92484  -0.00140   0.00021  -0.01174  -0.01142   1.91342
    A6        1.89617   0.00063  -0.00006   0.00609   0.00601   1.90218
    A7        1.77463  -0.00011   0.00091  -0.00252  -0.00169   1.77294
    A8        1.92846  -0.00091   0.00076  -0.02080  -0.02007   1.90840
    A9        1.97149  -0.00033  -0.00023  -0.00162  -0.00180   1.96969
   A10        1.93480   0.00028  -0.00074   0.00846   0.00764   1.94244
   A11        1.97459   0.00068  -0.00089   0.01100   0.01013   1.98472
   A12        1.87966   0.00032   0.00019   0.00447   0.00451   1.88417
   A13        1.81184  -0.00015  -0.00045   0.00989   0.00914   1.82098
   A14        1.96266   0.00047  -0.00016   0.01123   0.01100   1.97366
   A15        1.92464   0.00054  -0.00038   0.00061   0.00033   1.92497
   A16        1.95802   0.00020  -0.00014   0.00515   0.00496   1.96298
   A17        1.92499  -0.00139   0.00114  -0.03051  -0.02935   1.89564
   A18        1.88185   0.00028  -0.00000   0.00263   0.00253   1.88438
   A19        1.93045  -0.00173   0.00033  -0.01552  -0.01520   1.91525
   A20        1.87108  -0.00027   0.00019  -0.00453  -0.00458   1.86650
   A21        1.93027   0.00140  -0.00070   0.02042   0.01980   1.95007
   A22        1.89489   0.00063  -0.00019  -0.00411  -0.00441   1.89048
   A23        1.93301   0.00059  -0.00016   0.00930   0.00916   1.94217
   A24        1.90254  -0.00065   0.00056  -0.00642  -0.00577   1.89677
   A25        1.88066  -0.00128  -0.00119  -0.00240  -0.00362   1.87705
   A26        1.89695  -0.00098   0.00087  -0.01279  -0.01193   1.88502
   A27        1.77446   0.00086   0.00021   0.00255   0.00271   1.77717
   A28        1.75319   0.00178  -0.00001   0.01047   0.01047   1.76365
   A29        1.87724   0.00128   0.00009   0.00809   0.00776   1.88500
   A30        1.90005   0.00033  -0.00015   0.01836   0.01771   1.91777
   A31        1.90081   0.00071  -0.00127   0.02810   0.02650   1.92731
   A32        3.09119   0.00245   0.00196   0.22954   0.23150   3.32268
   A33        3.13647  -0.00007   0.00020  -0.01490  -0.01470   3.12177
    D1        2.74832  -0.00031  -0.00002   0.00922   0.00919   2.75751
    D2        0.69349  -0.00018   0.00000   0.00976   0.00980   0.70329
    D3       -1.41336   0.00028  -0.00063   0.02000   0.01936  -1.39400
    D4        0.61615  -0.00055   0.00021   0.00130   0.00147   0.61762
    D5       -1.43868  -0.00043   0.00023   0.00185   0.00208  -1.43660
    D6        2.73765   0.00004  -0.00041   0.01208   0.01164   2.74929
    D7       -1.43362  -0.00039   0.00076   0.00083   0.00154  -1.43208
    D8        2.79473  -0.00027   0.00078   0.00138   0.00215   2.79688
    D9        0.68788   0.00020   0.00014   0.01161   0.01171   0.69959
   D10       -2.51128  -0.00226   0.00187  -0.05552  -0.05375  -2.56503
   D11       -0.45425  -0.00053   0.00034  -0.00782  -0.00743  -0.46168
   D12       -0.37524   0.00016   0.00037  -0.03111  -0.03089  -0.40613
   D13        1.68178   0.00189  -0.00116   0.01659   0.01544   1.69722
   D14        1.69360  -0.00133   0.00003  -0.04243  -0.04251   1.65108
   D15       -2.53256   0.00039  -0.00149   0.00528   0.00381  -2.52875
   D16       -0.61291   0.00075  -0.00074   0.02424   0.02365  -0.58927
   D17       -2.73330   0.00035  -0.00020   0.00564   0.00550  -2.72779
   D18        1.44893  -0.00070   0.00017  -0.00565  -0.00544   1.44349
   D19        1.43734  -0.00024   0.00029   0.00253   0.00286   1.44020
   D20       -0.68304  -0.00063   0.00083  -0.01606  -0.01529  -0.69832
   D21       -2.78400  -0.00168   0.00120  -0.02736  -0.02623  -2.81023
   D22       -2.73227   0.00086  -0.00058   0.02222   0.02174  -2.71052
   D23        1.43054   0.00047  -0.00004   0.00362   0.00360   1.43414
   D24       -0.67043  -0.00058   0.00033  -0.00767  -0.00734  -0.67777
   D25        2.47054  -0.00078   0.00055  -0.05868  -0.05809   2.41245
   D26        0.40753  -0.00042   0.00049  -0.04247  -0.04197   0.36556
   D27       -1.66460  -0.00027   0.00010  -0.04344  -0.04333  -1.70793
   D28       -1.68916  -0.00021   0.00001  -0.03609  -0.03607  -1.72522
   D29        2.53102   0.00015  -0.00006  -0.01988  -0.01995   2.51107
   D30        0.45889   0.00031  -0.00045  -0.02085  -0.02131   0.43758
   D31        0.40894  -0.00067   0.00070  -0.05030  -0.04953   0.35941
   D32       -1.65407  -0.00031   0.00064  -0.03409  -0.03341  -1.68748
   D33        2.55699  -0.00015   0.00025  -0.03506  -0.03477   2.52222
   D34        3.04418   0.00069  -0.00052   0.01993   0.01945   3.06363
   D35        1.13445   0.00075  -0.00058   0.02399   0.02342   1.15787
   D36       -1.19058  -0.00025  -0.00022   0.00309   0.00286  -1.18772
   D37       -3.10031  -0.00019  -0.00028   0.00716   0.00684  -3.09348
   D38        0.89773  -0.00030   0.00025  -0.00177  -0.00151   0.89622
   D39       -1.01200  -0.00024   0.00019   0.00230   0.00247  -1.00954
   D40       -0.02131   0.00029  -0.00046   0.04599   0.04563   0.02432
   D41       -2.07785  -0.00120   0.00034   0.00458   0.00480  -2.07305
   D42       -2.10728   0.00215  -0.00085   0.06921   0.06847  -2.03881
   D43        2.11936   0.00067  -0.00006   0.02780   0.02764   2.14700
   D44        2.06866   0.00145  -0.00088   0.06422   0.06343   2.13209
   D45        0.01212  -0.00003  -0.00008   0.02281   0.02260   0.03472
   D46        1.38477   0.00222  -0.00189   0.24002   0.23814   1.62291
   D47       -2.90555   0.00103  -0.00128   0.22602   0.22474  -2.68081
         Item               Value     Threshold  Converged?
 Maximum Force            0.019461     0.000450     NO 
 RMS     Force            0.002325     0.000300     NO 
 Maximum Displacement     0.344422     0.001800     NO 
 RMS     Displacement     0.070720     0.001200     NO 
 Predicted change in Energy=-1.666207D-03
 GradGradGradGradGradGradGradGradGradGradGradGradGradGradGradGradGradGrad

                          Input orientation:                          
 ---------------------------------------------------------------------
 Center     Atomic      Atomic             Coordinates (Angstroms)
 Number     Number       Type             X           Y           Z
 ---------------------------------------------------------------------
      1          7           0        1.222461   -0.220620   -0.145210
      2          6           0        2.351179   -0.066641    0.044063
      3          6           0        3.811303   -0.053568    0.093160
      4          6           0        4.385290    1.142440    0.885051
      5          6           0        5.782901    0.622496    1.259546
      6          6           0        5.583263   -0.894710    1.467908
      7          7           0        6.698685   -1.625638    0.871146
      8          8           0        6.519980   -3.024074    1.184046
      9          7           0        4.345017   -1.269157    0.750286
     10          1           0        4.173971   -0.018695   -0.941174
     11          1           0        3.773606    1.314441    1.775603
     12          1           0        4.401727    2.067666    0.303824
     13          1           0        6.200360    1.113534    2.141183
     14          1           0        6.479497    0.772445    0.427652
     15          1           0        5.463896   -1.147611    2.532381
     16          1           0        7.540731   -1.399878    1.397817
     17          1           0        6.038379   -3.328073    0.404401
     18          1           0        3.659844   -1.639846    1.397356
 ---------------------------------------------------------------------
                    Distance matrix (angstroms):
                    1          2          3          4          5
     1  N    0.000000
     2  C    1.154790   0.000000
     3  C    2.605155   1.461008   0.000000
     4  C    3.594838   2.511323   1.544987   0.000000
     5  C    4.845802   3.705269   2.388454   1.537499   0.000000
     6  C    4.698207   3.627589   2.395265   2.434100   1.544404
     7  N    5.744222   4.692051   3.378407   3.607526   2.458377
     8  O    6.139217   5.236876   4.165437   4.691070   3.721083
     9  N    3.413459   2.433143   1.481324   2.415695   2.430063
    10  H    3.063617   2.072574   1.096628   2.174394   2.800526
    11  H    3.543202   2.632283   2.168752   1.093994   2.186862
    12  H    3.942794   2.971109   2.211925   1.092767   2.215753
    13  H    5.638000   4.539485   3.356206   2.207529   1.092097
    14  H    5.380593   4.230155   2.813084   2.175273   1.095344
    15  H    5.100841   4.129071   3.142895   3.020169   2.203441
    16  H    6.610002   5.526447   4.174124   4.084497   2.683111
    17  H    5.757726   4.935811   3.972294   4.790534   4.050128
    18  H    3.214739   2.453361   2.059161   2.920589   3.105568
                    6          7          8          9         10
     6  C    0.000000
     7  N    1.461009   0.000000
     8  O    2.343545   1.444114   0.000000
     9  N    1.479340   2.383576   2.828134   0.000000
    10  H    2.925266   3.498706   4.364931   2.110438   0.000000
    11  H    2.872261   4.244784   5.168677   2.837739   3.052609
    12  H    3.395113   4.386156   5.584586   3.367036   2.440245
    13  H    2.206163   3.060128   4.258881   3.324772   3.858643
    14  H    2.159808   2.448577   3.871346   2.971234   2.795539
    15  H    1.100596   2.124363   2.540558   2.107730   3.873493
    16  H    2.022817   1.018524   1.930192   3.263276   4.325924
    17  H    2.694334   1.884712   0.965506   2.688168   4.029711
    18  H    2.063916   3.084097   3.184645   1.012706   2.891571
                   11         12         13         14         15
    11  H    0.000000
    12  H    1.768620   0.000000
    13  H    2.462346   2.742506   0.000000
    14  H    3.071250   2.451542   1.769307   0.000000
    15  H    3.080826   4.053724   2.410019   3.024557   0.000000
    16  H    4.658485   4.803544   2.943880   2.605077   2.379941
    17  H    5.344374   5.639392   4.771847   4.124242   3.100443
    18  H    2.980575   3.935969   3.819504   3.835351   2.187506
                   16         17         18
    16  H    0.000000
    17  H    2.638536   0.000000
    18  H    3.888299   3.081152   0.000000
 Stoichiometry    C5H9N3O
 Framework group  C1[X(C5H9N3O)]
 Deg. of freedom    48
 Full point group                 C1      NOp   1
 Largest Abelian subgroup         C1      NOp   1
 Largest concise Abelian subgroup C1      NOp   1
                         Standard orientation:                         
 ---------------------------------------------------------------------
 Center     Atomic      Atomic             Coordinates (Angstroms)
 Number     Number       Type             X           Y           Z
 ---------------------------------------------------------------------
      1          7           0        3.387717   -1.168703   -0.102446
      2          6           0        2.429293   -0.544941    0.058445
      3          6           0        1.152728    0.056083    0.437517
      4          6           0        0.995039    1.513681   -0.049851
      5          6           0       -0.533696    1.677502   -0.043821
      6          6           0       -1.069432    0.280819   -0.427811
      7          7           0       -2.223828   -0.050634    0.404088
      8          8           0       -2.749711   -1.311703   -0.063476
      9          7           0        0.008211   -0.689592   -0.135518
     10          1           0        1.087326    0.024365    1.531733
     11          1           0        1.400191    1.603131   -1.062113
     12          1           0        1.516645    2.232772    0.586526
     13          1           0       -0.883198    2.459411   -0.721423
     14          1           0       -0.885590    1.921893    0.964257
     15          1           0       -1.317841    0.219816   -1.498270
     16          1           0       -2.978049    0.591143    0.166045
     17          1           0       -2.285922   -1.931115    0.513958
     18          1           0        0.295829   -1.164160   -0.982650
 ---------------------------------------------------------------------
 Rotational constants (GHZ):           3.1990807           0.9990186           0.8002860
 Standard basis: 6-31G(2df,p) (6D, 7F)
 There are   324 symmetry adapted cartesian basis functions of A   symmetry.
 There are   297 symmetry adapted basis functions of A   symmetry.
   297 basis functions,   459 primitive gaussians,   324 cartesian basis functions
    34 alpha electrons       34 beta electrons
       nuclear repulsion energy       445.3903535698 Hartrees.
 NAtoms=   18 NActive=   18 NUniq=   18 SFac= 1.00D+00 NAtFMM=   60 NAOKFM=F Big=F
 Integral buffers will be    131072 words long.
 Raffenetti 2 integral format.
 Two-electron integral symmetry is turned on.
 One-electron integrals computed using PRISM.
 PrsmSu:  requested number of processors reduced to:  13 ShMem   1 Linda.
 NBasis=   297 RedAO= T EigKep=  1.58D-04  NBF=   297
 NBsUse=   297 1.00D-06 EigRej= -1.00D+00 NBFU=   297
 Initial guess from the checkpoint file:  "NtCC1CCCpNOpN1.chk"
 B after Tr=    -0.000000    0.000000    0.000000
         Rot=    0.999980   -0.003664   -0.000775   -0.005158 Ang=  -0.73 deg.
 ExpMin= 1.61D-01 ExpMax= 5.48D+03 ExpMxC= 8.25D+02 IAcc=2 IRadAn=         4 AccDes= 0.00D+00
 Harris functional with IExCor=  402 and IRadAn=       4 diagonalized for initial guess.
 HarFok:  IExCor=  402 AccDes= 0.00D+00 IRadAn=         4 IDoV= 1 UseB2=F ITyADJ=14
 ICtDFT=  3500011 ScaDFX=  1.000000  1.000000  1.000000  1.000000
 FoFCou: FMM=F IPFlag=           0 FMFlag=      100000 FMFlg1=           0
         NFxFlg=           0 DoJE=T BraDBF=F KetDBF=T FulRan=T
         wScrn=  0.000000 ICntrl=       500 IOpCl=  0 I1Cent=   200000004 NGrid=           0
         NMat0=    1 NMatS0=      1 NMatT0=    0 NMatD0=    1 NMtDS0=    0 NMtDT0=    0
 Petite list used in FoFCou.
 Requested convergence on RMS density matrix=1.00D-08 within 128 cycles.
 Requested convergence on MAX density matrix=1.00D-06.
 Requested convergence on             energy=1.00D-06.
 No special actions if energy rises.
 Integral accuracy reduced to 1.0D-05 until final iterations.
 Initial convergence to 1.0D-05 achieved.  Increase integral accuracy.
 SCF Done:  E(RB3LYP) =  -435.367466729     A.U. after   14 cycles
            NFock= 14  Conv=0.47D-08     -V/T= 2.0072
 PrsmSu:  requested number of processors reduced to:  13 ShMem   1 Linda.
 Calling FoFJK, ICntrl=      2127 FMM=F ISym2X=0 I1Cent= 0 IOpClX= 0 NMat=1 NMatS=1 NMatT=0.
 ***** Axes restored to original set *****
 -------------------------------------------------------------------
 Center     Atomic                   Forces (Hartrees/Bohr)
 Number     Number              X              Y              Z
 -------------------------------------------------------------------
      1        7          -0.004719530    0.004659333    0.005417063
      2        6           0.002926272   -0.010144056   -0.012186519
      3        6           0.000596410    0.002472124    0.007182729
      4        6           0.003605801   -0.000466922   -0.000168871
      5        6          -0.000464750    0.001633411    0.000199083
      6        6          -0.004924462   -0.001300451   -0.000188247
      7        7           0.000563094   -0.002407727    0.001036516
      8        8          -0.000598987    0.002043857   -0.001794578
      9        7          -0.000142864    0.003960401    0.001455592
     10        1          -0.000472970    0.000404658   -0.000746213
     11        1           0.000339212   -0.000118761    0.000701247
     12        1           0.000375142   -0.000203553   -0.000061184
     13        1          -0.000451456    0.000083315    0.000084921
     14        1           0.000091329    0.000005848   -0.000217084
     15        1           0.000795281   -0.000816032   -0.000831286
     16        1           0.001234409    0.000868141   -0.000679910
     17        1           0.000612193   -0.000470083    0.001314118
     18        1           0.000635876   -0.000203503   -0.000517378
 -------------------------------------------------------------------
 Cartesian Forces:  Max     0.012186519 RMS     0.002969196

 GradGradGradGradGradGradGradGradGradGradGradGradGradGradGradGradGradGrad
 Berny optimization.
 Using GEDIIS/GDIIS optimizer.
 FormGI is forming the generalized inverse of G from B-inverse, IUseBI=4.
 Internal  Forces:  Max     0.017404986 RMS     0.001943519
 Search for a local minimum.
 Step number   3 out of a maximum of  108
 All quantities printed in internal units (Hartrees-Bohrs-Radians)
 Mixed Optimization -- RFO/linear search
 Update second derivatives using D2CorX and points    1    3    2
 DE=  4.32D-04 DEPred=-1.67D-03 R=-2.59D-01
 Trust test=-2.59D-01 RLast= 4.50D-01 DXMaxT set to 2.52D-01
 ITU= -1  1  0
 Use linear search instead of GDIIS.
     Eigenvalues ---    0.00241   0.00501   0.00619   0.00671   0.01034
     Eigenvalues ---    0.01989   0.02514   0.03425   0.04696   0.04835
     Eigenvalues ---    0.04985   0.05237   0.05387   0.05723   0.05762
     Eigenvalues ---    0.06133   0.06501   0.06898   0.07024   0.07313
     Eigenvalues ---    0.08905   0.09194   0.10098   0.12160   0.13582
     Eigenvalues ---    0.14701   0.15935   0.19246   0.21949   0.24040
     Eigenvalues ---    0.27672   0.28159   0.29821   0.30168   0.32766
     Eigenvalues ---    0.33890   0.33913   0.33984   0.34091   0.34199
     Eigenvalues ---    0.34312   0.35089   0.36942   0.38311   0.43857
     Eigenvalues ---    0.44140   0.50844   0.84564
 RFO step:  Lambda=-4.42653803D-03 EMin= 2.41312656D-03
 Quartic linear search produced a step of -0.56747.
 Maximum step size (   0.252) exceeded in Quadratic search.
    -- Step size scaled by   0.870
 Iteration  1 RMS(Cart)=  0.04577334 RMS(Int)=  0.01426341
 Iteration  2 RMS(Cart)=  0.02687355 RMS(Int)=  0.00188405
 Iteration  3 RMS(Cart)=  0.00182346 RMS(Int)=  0.00010507
 Iteration  4 RMS(Cart)=  0.00000117 RMS(Int)=  0.00010507
 Iteration  5 RMS(Cart)=  0.00000000 RMS(Int)=  0.00010507
 Variable       Old X    -DE/DX   Delta X   Delta X   Delta X     New X
                                 (Linear)    (Quad)   (Total)
    R1        2.18224   0.00310  -0.00773   0.04322   0.03549   2.21773
    R2        2.76090   0.00207   0.01492  -0.04434  -0.02941   2.73149
    R3        2.91960   0.00149  -0.00477   0.01663   0.01182   2.93143
    R4        2.79930  -0.00189   0.00467  -0.01717  -0.01244   2.78686
    R5        2.07233   0.00056  -0.00141   0.00554   0.00413   2.07646
    R6        2.90545  -0.00233  -0.00441   0.01014   0.00567   2.91112
    R7        2.06735   0.00034   0.00079  -0.00206  -0.00127   2.06608
    R8        2.06503  -0.00013   0.00120  -0.00429  -0.00309   2.06194
    R9        2.91850   0.00047  -0.00397   0.01075   0.00677   2.92527
   R10        2.06376  -0.00007   0.00079  -0.00248  -0.00169   2.06207
   R11        2.06990   0.00022   0.00071  -0.00214  -0.00143   2.06847
   R12        2.76091   0.00141  -0.00196   0.00659   0.00463   2.76554
   R13        2.79555  -0.00184  -0.00067  -0.00092  -0.00151   2.79403
   R14        2.07982  -0.00070  -0.00010  -0.00053  -0.00063   2.07919
[...]
 92,-0.6273954,0.0512919,-0.215186,-0.0380325,-0.2571754,-0.0007254,-0.
 0214673,0.037503,0.0058661,0.0185594,-0.0142924,-0.0022707,-0.0006276,
 -0.0511332,-0.0512149,0.051736,0.0535379,0.0137916,0.0250118,-0.009450
 3,0.0568684,-0.045773,-0.0412512,0.0330522,-0.0130813,0.0053953,0.0044
 547,-0.0764144,0.0658648,-0.0088229,0.1005812,-0.0133294,-0.0047208,0.
 0013441,-0.0329704,0.0030415,-0.0019553,-0.041584,-0.0659658,-0.080146
 1,-0.0815548,-0.092596,-0.0192449,0.0396278,-0.0191828,0.04922,0.00560
 18,0.0754597,0.0458611,-0.0081125,-0.0675929,0.0477356,0.0051621,0.002
 0359,-0.0153137,0.0744901,0.006141,0.0152312,-0.1620679,0.0674128,-0.0
 222583,-0.0292113,-0.0068754,0.0806677,-0.0273485,-0.1462819,-0.025413
 6,0.2020104,0.2301009,-0.0380308,-0.0739065,-0.0453065,0.329538,0.0379
 369,-0.0910767,0.0612729,0.225777,0.084904,0.0405886,0.0160305,0.11436
 39,0.2188825,-0.052753,0.0534727,0.0364372,0.057413\Polar=88.9598871,-
 4.412025,71.8482104,7.9841483,0.1900717,60.5173915\Quadrupole=-7.96299
 42,3.3289404,4.6340538,4.229289,-3.2478394,1.3844814\PG=C01 [X(C5H9N3O
 1)]\NImag=0\\1.23036724,-0.04274723,0.01948497,0.18496879,-0.00593184,
 0.04633228,-1.22715557,0.04272911,-0.18138393,1.54077336,0.04261748,-0
 .03770150,0.00552400,-0.05046881,0.10986159,-0.18296053,0.00567153,-0.
 06542975,0.22420764,-0.00825740,0.14675704,-0.00355012,0.00035896,-0.0
 0382530,-0.25120666,0.00122440,-0.02249493,0.56704169,-0.00054901,0.01
 767458,0.00072063,0.00704571,-0.06805062,0.00006530,-0.01301209,0.3679
 2957,-0.00164861,0.00018035,0.01794831,-0.02749411,0.00144767,-0.07361
 989,-0.02883974,0.00962587,0.54481667,0.00058654,0.00276413,0.00117788
 ,-0.01939974,-0.02807832,-0.01445634,-0.07498181,-0.01851683,-0.003173
 00,0.46214319,0.00585274,-0.00186010,-0.00014002,-0.01071290,0.0047452
 2,-0.00090561,-0.01420735,-0.11340878,-0.03266964,-0.03796271,0.532403
 48,0.00229324,-0.00044013,0.00053319,-0.00702683,-0.00385103,-0.003482
 00,-0.00493625,-0.03656253,-0.09311464,-0.08707949,-0.06289152,0.54126
 425,0.00036944,0.00018602,0.00018165,-0.00083492,-0.00191547,-0.001646
 69,-0.02168219,-0.01187246,-0.01051136,-0.14663887,0.02960674,-0.02677
 437,0.51968128,-0.00108361,0.00093551,-0.00020225,0.00068243,-0.004757
 08,-0.00000671,-0.01806223,0.00591821,-0.00627464,0.02388577,-0.079386
 39,0.00929355,0.05064489,0.42316250,-0.00033981,0.00070965,0.00036036,
 -0.00120981,-0.00340266,-0.00160372,-0.02381944,-0.00472923,-0.0104586
 7,-0.02945465,0.01010991,-0.08886829,-0.03185427,0.05990954,0.58074762
 ,0.00139882,0.00014727,0.00040221,-0.00257730,-0.00042811,-0.00186340,
 -0.02121585,0.00962693,-0.02634673,0.00311120,0.02162675,-0.00031037,-
 0.07349049,-0.00264179,0.00536857,0.47006336,0.00087269,0.00112450,-0.
 00014718,-0.00024033,-0.00629534,0.00219304,0.02376136,-0.00290764,0.0
 0917494,0.01634814,-0.02062838,0.01540404,-0.00608717,-0.13524036,0.00
 957645,-0.02533674,0.46894157,-0.00055122,-0.00055549,0.00086925,-0.00
 066831,0.00311295,-0.00427495,-0.03135408,0.00092066,-0.01502628,-0.00
 410040,0.01189374,-0.00292637,0.00612927,0.00700809,-0.08347178,0.0168
 2841,-0.08485500,0.59359613,-0.00023283,0.00000632,-0.00013283,0.00043
 077,0.00030752,-0.00017380,-0.00147807,-0.00033585,0.00084309,-0.00132
 705,-0.00176000,0.00036789,0.00478468,0.00310043,-0.00368407,-0.128900
 45,0.01496403,0.07922827,0.62625817,-0.00011127,-0.00006691,-0.0000550
 7,-0.00011532,0.00034366,-0.00010573,0.00012858,-0.00056139,0.00101302
 ,-0.00104149,-0.00172282,-0.00030289,0.01747786,-0.02873018,-0.0187046
 7,0.02525759,-0.08210621,-0.04291703,0.07814448,0.42192052,0.00035133,
 -0.00001275,-0.00000774,-0.00079092,-0.00009019,0.00048566,0.00019318,
 0.00123319,-0.00000584,0.00000947,0.00147417,-0.00048758,-0.00435446,-
 0.00254241,0.00081849,0.02993266,-0.00800176,-0.12981881,0.02958267,0.
 05063185,0.25118914,-0.00014163,0.00001167,-0.00004057,0.00021793,0.00
 004301,0.00003117,0.00038048,0.00016441,0.00146797,0.00032917,0.000695
 96,-0.00100041,-0.00166713,0.00095749,0.00329325,-0.00089778,0.0242720
 4,-0.00890860,-0.07779605,-0.02388578,-0.00975977,0.32035980,0.0004386
 0,0.00004174,0.00011910,-0.00030976,0.00018213,-0.00013456,-0.00039958
 ,-0.00036465,-0.00004240,-0.00112585,-0.00148121,-0.00068900,0.0057664
 3,0.00092054,-0.00494636,-0.00101077,-0.04888888,0.00809173,0.00442853
 ,-0.21209139,0.02318015,0.11532538,0.37012562,-0.00008078,-0.00000055,
 -0.00002204,0.00010324,-0.00002434,0.00022759,-0.00003226,0.00005927,-
 0.00146574,-0.00029045,-0.00144571,-0.00002117,0.00491430,-0.00283442,
 0.00067416,0.00058626,-0.02405152,0.00598074,-0.01576150,0.04291936,-0
 .05918715,0.24529841,0.07399600,0.27213297,0.00050062,-0.00290315,0.00
 208245,-0.02014443,0.03156162,-0.02599783,-0.09054681,0.02196354,0.008
 99134,-0.00053241,0.00248076,-0.00399935,-0.01701376,-0.02042406,-0.00
 579322,-0.15215560,-0.04932586,-0.04610590,-0.04931033,-0.00690114,0.0
 0308661,0.00037133,-0.00029671,-0.00026366,0.54960282,-0.00390659,0.00
 007499,0.00043210,0.00945801,-0.00124198,0.00136312,0.00461141,-0.1217
 0752,0.03364926,-0.00660113,-0.04725698,0.02085977,-0.02482238,-0.0192
 6401,-0.00152720,-0.00622791,-0.07172846,0.01094756,0.00509071,0.00203
 474,0.00299698,0.00465864,0.00292484,-0.00056852,0.03142653,0.28201058
 ,0.00261004,0.00028328,0.00084401,-0.00970678,0.00542714,-0.00701062,-
 0.00373305,0.08344651,-0.10998466,-0.00135664,0.00722920,0.00444212,-0
 .00775934,-0.00571351,0.00373514,-0.01178428,-0.00151969,-0.10860386,0
 .02139242,0.00827839,0.01337936,-0.00007406,0.00091476,0.00087526,-0.1
 2980277,-0.12530497,0.49951528,0.00010012,-0.00066510,-0.00421335,-0.0
 2522970,0.00543797,0.02961436,-0.10656013,0.01665949,0.10577014,0.0067
 7726,-0.00283725,-0.00979382,0.00104805,-0.00005867,-0.00002821,0.0005
 4708,-0.00064578,-0.00027766,0.00033378,0.00085475,0.00018251,-0.00008
 750,-0.00005691,0.00007972,0.00689981,0.00017608,-0.00726925,0.1159441
 4,-0.00026197,0.00054513,-0.00022761,0.00014862,-0.00010350,0.00002486
 ,0.01919042,-0.04704384,-0.03873570,0.01233861,-0.00871954,-0.02522950
 ,0.00072753,0.00033705,0.00074719,-0.00117485,0.00080100,0.00037261,0.
 00013520,-0.00034470,-0.00051394,0.00002941,-0.00014965,0.00001372,-0.
 01362326,-0.00461511,0.02941384,-0.01811311,0.06341313,-0.00277006,-0.
 00007632,-0.00168321,0.00124278,0.00040359,0.00784973,0.10055363,-0.03
 451422,-0.23591030,0.00659742,-0.00517257,-0.01183422,0.00031483,-0.00
 009127,0.00036240,0.00182941,0.00016030,-0.00089550,0.00029789,-0.0002
 0997,0.00059438,-0.00025222,-0.00018891,0.00039077,0.00811383,0.009472
 67,-0.02051958,-0.11128280,0.03142079,0.26319270,-0.00005740,0.0000112
 1,0.00021081,0.00182547,0.00018743,-0.00093900,0.00750998,-0.00591155,
 -0.01200207,-0.15176325,0.04893546,0.12244874,-0.01963879,0.00694272,0
 .01794313,-0.00179401,-0.00087348,-0.00003849,0.00023548,0.00007681,-0
 .00015900,0.00006922,0.00049712,0.00010477,0.00016215,0.00117145,-0.00
 012263,-0.00031794,-0.00297070,-0.00133862,0.16774981,-0.00054729,0.00
 004705,0.00020026,0.00178075,0.00088246,0.00017458,0.01569214,-0.00907
 118,-0.02189202,0.04853323,-0.07240200,-0.05139371,0.00448863,-0.00195
 092,-0.00600391,0.00049686,-0.00008151,0.00034082,-0.00002413,0.000075
 89,0.00010138,-0.00006411,-0.00009228,0.00005278,-0.00084858,0.0022315
 7,0.00089243,-0.00198300,-0.00381061,-0.00191481,-0.05223623,0.0757914
 7,-0.00062966,0.00032581,0.00014012,0.00137794,0.00007165,0.00023239,0
 .00817396,-0.00468145,-0.01452678,0.12111473,-0.05279863,-0.18161286,-
 0.01109574,0.00489003,0.00944988,-0.00092738,-0.00058423,-0.00013423,0
 .00006657,0.00005090,0.00006021,0.00006167,0.00025128,0.00005901,-0.00
 008515,0.00045506,0.00163158,-0.00185285,-0.00295365,-0.00012830,-0.12
 707548,0.06097213,0.19709522,-0.00031752,0.00031008,-0.00018473,0.0005
 5044,-0.00038359,0.00027137,-0.00235885,-0.00736070,0.00919405,-0.0500
 1585,-0.02589093,0.02341691,0.00300034,0.02167809,-0.01647947,-0.00480
 486,0.00115480,-0.00261650,0.00065493,0.00028134,-0.00041972,-0.000156
 94,0.00060023,0.00028545,0.00019159,-0.00329702,-0.00127853,0.00054430
 ,0.00073506,-0.00010594,-0.00245134,-0.01542287,0.01287266,0.05405280,
 -0.00057894,0.00035386,-0.00012289,0.00075131,-0.00070943,-0.00000661,
 -0.00209632,-0.01450179,0.01707984,-0.02436294,-0.19474567,0.12917676,
 -0.00203037,-0.00337604,0.00299451,-0.00207190,-0.00169610,-0.00000664
 ,0.00008110,0.00011199,-0.00004531,0.00036044,-0.00010714,-0.00019195,
 0.00113347,-0.00648788,-0.00000270,0.00064856,0.00115671,0.00012557,0.
 00145818,0.00830830,-0.00669490,0.02614621,0.21192034,-0.00015204,0.00
 006824,-0.00001779,0.00029336,-0.00000414,0.00022034,-0.00171167,-0.01
 159287,0.01027698,0.02290028,0.13305279,-0.16476393,0.00249194,0.00706
 526,-0.00632861,-0.00186668,-0.00097324,-0.00045141,0.00023071,0.00007
 144,-0.00018682,-0.00002704,0.00031408,0.00007849,-0.00053375,-0.00384
 142,0.00077811,0.00036038,0.00076438,0.00105418,0.00285637,0.01770566,
 -0.01451375,-0.02423126,-0.14206841,0.17281962,-0.00045601,0.00032113,
 0.00008878,0.00007780,-0.00151859,-0.00051295,-0.00432464,0.00153988,-
 0.00201501,-0.00611648,-0.01164511,-0.02416579,-0.05240796,-0.01944498
 ,-0.03823202,-0.00117110,-0.00028302,-0.00186604,0.00031130,0.00084690
 ,0.00057049,-0.00014376,0.00088008,-0.00043207,-0.00073384,-0.00037974
 ,0.00013933,0.00004694,0.00006450,-0.00005326,0.00170401,-0.00049262,0
 .00024331,-0.00103882,0.00031489,-0.00080390,0.05895612,0.00016974,-0.
 00008068,0.00000807,-0.00023749,0.00047047,-0.00000569,0.00169287,-0.0
 0304755,0.00171171,0.00357271,0.00595467,0.01170780,-0.02024970,-0.092
 14185,-0.10094889,-0.00220844,-0.00999341,-0.02863308,-0.00201332,-0.0
 0278391,0.00112292,0.00116981,-0.00186753,-0.00028007,-0.00263209,-0.0
 0164999,-0.00031922,-0.00007603,0.00009216,0.00003517,-0.00071161,0.00
 086649,-0.00042977,0.00037584,-0.00027283,0.00040918,0.01943450,0.1001
 4499,-0.00005300,0.00003617,0.00001588,-0.00025709,-0.00047370,-0.0001
 2244,-0.00102691,0.00172969,-0.00005392,-0.00060802,-0.00445270,-0.008
 70830,-0.04002520,-0.10203053,-0.26299891,0.00092101,0.00447566,0.0044
 0123,0.00012414,-0.00057188,0.00008841,-0.00006124,0.00002829,0.000291
 17,0.00068646,0.00065090,0.00019101,0.00017401,0.00021388,0.00015430,0
 .00029076,0.00013586,0.00181686,-0.00090670,0.00001151,-0.00039844,0.0
 4414791,0.10838962,0.28139521,-0.00009723,0.00003010,-0.00000287,0.000
 03047,-0.00028320,-0.00042858,-0.00029506,-0.00031744,0.00078109,-0.02
 104040,-0.00317735,0.01735105,-0.19670891,-0.04387791,0.12012980,-0.00
 121066,-0.00052570,0.00055970,-0.00014656,0.00241267,0.00044705,0.0003
 6658,0.00015272,-0.00010421,-0.00077548,-0.00085226,-0.00073273,-0.000
 15511,-0.00040416,-0.00039006,-0.00360854,0.00068337,-0.00260841,0.001
 82017,-0.00001619,0.00012539,0.00502229,0.00151050,-0.00357404,0.21657
 189,-0.00002445,0.00002656,0.00004922,0.00006209,0.00002225,-0.0000801
 7,0.00023019,-0.00034230,0.00107583,0.01123740,0.00082109,-0.00722883,
 -0.04377002,-0.05776849,0.03340464,-0.02372317,-0.00620245,0.02106396,
 -0.00057491,0.00042772,0.00079654,0.00036822,0.00183330,-0.00082983,-0
 .00183624,-0.00484427,-0.00178751,-0.00004280,0.00019014,-0.00016391,0
 .00289681,0.00004383,0.00138057,-0.00028803,0.00057783,-0.00053616,0.0
 1081208,0.00336507,-0.00817437,0.04441843,0.06634420,-0.00006122,0.000
 00768,0.00000079,0.00019376,-0.00005571,-0.00008252,-0.00031747,-0.000
 19868,0.00017212,-0.01156682,-0.00244319,0.00876077,0.12211923,0.03331
 590,-0.14494124,0.00037231,0.00213028,-0.00217603,0.00059677,-0.001841
 79,0.00071137,-0.00006007,-0.00013662,-0.00025464,-0.00052515,-0.00037
 288,-0.00054826,0.00006803,-0.00005085,-0.00016056,-0.00242227,0.00035
 725,-0.00002769,0.00038356,-0.00025982,0.00132227,0.02251481,0.0069915
 4,-0.01704464,-0.13110107,-0.03908792,0.15376163,-0.00048038,-0.000228
 24,0.00020873,0.00002427,0.00127176,-0.00125337,-0.00441447,-0.0031300
 9,-0.00229803,-0.00085700,-0.00099858,0.00017557,0.00195027,-0.0019777
 2,0.00318478,-0.05085671,0.00586533,-0.02091014,-0.00439546,-0.0026877
 1,0.03482108,0.00109085,-0.00236712,-0.00382111,-0.01049055,0.01061928
 ,-0.03163544,-0.00014795,0.00035630,-0.00031482,0.00005393,0.00011991,
 0.00006212,0.00025860,0.00018194,0.00008972,0.00045451,0.00028018,0.00
 011300,-0.00018165,-0.00041740,0.00037659,0.06558254,-0.00009270,-0.00
 007991,0.00000108,0.00019174,0.00050500,-0.00009418,-0.00170107,-0.001
 75577,-0.00060933,-0.00017862,-0.00220357,0.00116375,0.00094596,-0.007
 92564,0.02373662,0.00811561,-0.08175530,0.08623044,0.00432933,0.001930
 61,-0.01664057,-0.00081080,0.00447551,-0.00052956,-0.00396852,0.005247
 60,-0.00937403,-0.00003227,0.00008496,-0.00007521,0.00035945,-0.000155
 72,0.00011526,0.00092978,-0.00036789,0.00019600,0.00006661,0.00120933,
 -0.00018694,0.00012255,-0.00315428,0.00096274,-0.00816388,0.08336638,-
 0.00010470,-0.00002345,0.00007013,-0.00010189,0.00041985,-0.00047489,-
 0.00148980,-0.00180401,0.00058147,0.00004738,-0.00067826,0.00019210,0.
 00001767,-0.00181398,0.00251117,-0.02659361,0.08087370,-0.26212687,0.0
 1160338,0.00260365,-0.02917882,-0.00208339,0.00007015,0.00504620,-0.00
 402706,0.00546291,-0.01120670,0.00029227,-0.00017077,0.00015682,-0.000
 03146,0.00007280,0.00004596,0.00010439,0.00004648,0.00008687,0.0002095
 6,0.00053965,0.00114693,-0.00019657,-0.00052025,0.00035041,0.02246011,
 -0.08573309,0.29077297,0.00005070,-0.00001227,-0.00001113,-0.00006413,
 0.00017333,-0.00002033,0.00008210,-0.00069133,0.00071414,-0.00006151,-
 0.00010252,-0.00077325,0.00075138,-0.00015173,0.00115219,-0.02223829,-
 0.00819060,-0.01529498,-0.36092226,-0.09447838,-0.08203163,0.00615743,
 0.00470686,-0.00194557,-0.00474791,0.00084344,0.00467744,0.00010625,0.
 00004424,-0.00011628,0.00027136,-0.00003127,0.00009962,0.00010931,0.00
 007463,0.00006919,0.00009845,0.00019142,-0.00004488,0.00056431,0.00088
 498,-0.00038379,0.00149446,-0.00081467,-0.00000624,0.37886585,0.000075
 16,0.00000764,0.00000559,-0.00011379,-0.00015696,0.00013217,0.00012648
 ,0.00067558,-0.00034132,-0.00028645,0.00005469,0.00018530,0.00139705,0
 .00104420,-0.00031705,0.01220925,0.00621951,0.00575364,-0.07381616,-0.
 06953735,-0.02766316,-0.03849816,-0.03222099,-0.01548962,0.00409890,-0
 .00035782,-0.00267057,-0.00016561,0.00001822,0.00001114,-0.00020160,0.
 00005043,-0.00011776,0.00001180,-0.00010853,-0.00001632,-0.00021225,-0
 .00010931,0.00011544,-0.00003394,-0.00125284,0.00077096,-0.00017118,0.
 00023240,-0.00024822,0.09545181,0.10432227,-0.00011749,0.00003356,-0.0
 0006500,0.00023828,-0.00009334,0.00016320,0.00015399,-0.00045636,0.000
 04017,0.00015920,0.00024038,-0.00014867,-0.00091868,0.00030232,0.00047
 730,0.02974511,0.00318075,-0.00249138,-0.13498551,-0.04956927,-0.05688
 261,0.00953603,0.00980541,-0.00048169,0.00149485,-0.00090374,-0.001046
 24,0.00025232,-0.00023875,0.00014930,0.00006896,-0.00000021,0.00002880
 ,-0.00008357,0.00008952,-0.00003103,0.00024074,-0.00005629,-0.00021462
 ,-0.00017023,0.00090945,0.00010819,-0.00019060,0.00034855,0.00079538,0
 .09335689,0.03554331,0.05855298,-0.00000035,-0.00005613,0.00000714,-0.
 00006599,-0.00000382,0.00000936,-0.00028190,0.00062573,-0.00107232,0.0
 0012949,-0.00000159,0.00031238,-0.00080682,0.00009938,0.00032824,0.004
 86952,0.00281999,0.00106906,-0.00140815,0.00742813,0.00123771,-0.24899
 745,-0.12722037,-0.22866783,-0.00012848,-0.00172630,-0.00131120,-0.000
 01889,0.00005195,0.00021125,-0.00007217,0.00002769,-0.00004151,-0.0001
 5338,-0.00016827,-0.00007090,-0.00013949,0.00004862,0.00004268,-0.0001
 5418,-0.00033241,-0.00005169,-0.00036123,-0.00020423,0.00046721,0.0009
 1056,-0.00118075,0.00068580,0.24667019,-0.00019247,-0.00003382,-0.0000
 5120,0.00018590,0.00008796,0.00008318,0.00031308,-0.00062229,0.0006740
 9,-0.00000234,-0.00004245,-0.00036157,0.00084876,-0.00036651,0.0003136
 0,-0.00180890,-0.00407370,-0.00272127,-0.03524275,-0.03000113,-0.02517
 808,-0.08450296,-0.08323768,-0.07130449,-0.00075423,0.00127392,0.00058
 574,0.00005516,-0.00007691,-0.00002088,0.00004548,-0.00001661,0.000050
 97,0.00008689,0.00014447,0.00002215,-0.00005217,0.00011309,0.00007392,
 0.00009447,0.00008235,-0.00008736,-0.00015626,-0.00013463,0.00044960,0
 .00109875,-0.00848190,0.00062723,0.11993876,0.12475709,-0.00007693,-0.
 00002142,-0.00005138,0.00007293,0.00007696,-0.00003963,0.00006411,0.00
 010889,0.00111191,0.00004564,0.00020740,-0.00014905,-0.00003312,0.0000
 6041,0.00014741,-0.00064616,-0.00185905,-0.00122743,0.01123339,0.00988
 304,0.00887231,-0.23757634,-0.11087706,-0.22441550,-0.00072516,0.00119
 636,-0.00110696,-0.00005664,0.00025116,-0.00016677,-0.00006159,-0.0000
 4152,-0.00004747,0.00003306,0.00013534,0.00003053,-0.00002191,0.000139
 62,-0.00000001,0.00002030,-0.00004164,0.00009334,-0.00024318,0.0002584
 0,-0.00007076,0.00103823,0.00429088,0.00031353,0.22691267,0.09667677,0
 .21695601,-0.00088442,-0.00026389,0.00046626,0.00274793,0.00025540,-0.
 00138614,0.00788230,0.00407168,-0.01236084,-0.00034246,0.00009788,-0.0
 0050585,-0.00069560,-0.00026850,-0.00050499,-0.01867686,0.00145031,0.0
 2887762,-0.00709189,-0.00368799,-0.00289925,0.00054547,-0.00000888,0.0
 0002730,-0.21114873,-0.02024222,0.17774746,0.00016948,0.00272620,-0.00
 253697,0.00012204,-0.00017250,0.00024360,0.00011508,0.00017419,-0.0000
 2009,-0.00013934,-0.00031751,0.00005709,-0.00000192,0.00009923,-0.0001
 3551,0.00127597,0.00090574,-0.00056726,-0.00142808,0.00130944,0.000533
 93,0.00000871,0.00004485,0.00002070,0.22754233,0.00006911,-0.00049362,
 -0.00018201,-0.00083727,0.00191568,-0.00011110,-0.01785127,-0.00881262
 ,0.02493247,-0.00052329,-0.00012127,0.00115974,-0.00134229,-0.00141053
 ,-0.00092215,-0.01084766,-0.00548885,0.00395231,0.00317948,0.00110086,
 -0.00084899,-0.00029467,-0.00000227,0.00050944,0.01084902,-0.01664424,
 0.01022091,0.00084451,-0.00177465,0.00079885,0.00032305,-0.00071665,-0
 .00030327,0.00033303,-0.00020021,-0.00063660,-0.00025208,-0.00026920,0
 .00002917,0.00006333,-0.00016969,-0.00000153,0.00160348,0.00048091,0.0
 0045323,0.00100333,-0.00039926,0.00023748,-0.00014637,0.00062876,-0.00
 044453,0.01382657,0.03237686,-0.00067733,-0.00025431,0.00016259,0.0009
 0974,-0.00023131,0.00020445,0.01444203,-0.00337066,-0.02078093,0.00003
 381,-0.00060972,0.00092462,-0.00119566,-0.00033536,-0.00061271,-0.0156
 4735,-0.00517748,0.00877756,-0.00082947,-0.00117335,-0.00044395,0.0001
 5523,0.00024395,0.00009156,0.19340344,0.04503204,-0.26536498,-0.002019
 17,0.00489832,-0.00260615,0.00026707,0.00024024,0.00043105,-0.00025503
 ,-0.00026032,0.00002438,-0.00005198,-0.00038227,0.00004029,-0.00010560
 ,-0.00022962,-0.00004532,-0.00082502,0.00023007,0.00130162,-0.00047960
 ,0.00005558,0.00073241,-0.00006804,0.00016761,-0.00025008,-0.18705706,
 -0.03884342,0.27741357\\-0.00000820,0.00000078,-0.00000157,0.00000828,
 0.00000273,0.00000070,-0.00000221,-0.00000735,-0.00000053,-0.00000075,
 0.00000695,-0.00000310,0.00000506,0.00000715,0.00000222,-0.00002163,-0
 .00000727,0.00001058,0.00000685,0.00000413,-0.00001124,-0.00000213,-0.
 00001225,-0.00000241,0.00001398,0.00000534,-0.00000036,-0.00000111,0.0
 0000186,-0.00000164,-0.00000184,-0.00000221,0.00000008,-0.00000034,-0.
 00000023,0.00000210,0.00000043,0.00000034,-0.00000028,-0.00000139,-0.0
 0000077,0.00000017,0.00000297,0.00000180,-0.00000220,0.00000070,0.,0.0
 0000248,0.00000203,-0.00000125,0.00000162,-0.00000070,0.00000023,0.000
 00337\\\@


 The juvenile sea squirt wanders through the sea searching
 for a suitable rock or hunk of coral to cling to and make
 its home for life.  For this task it has a rudimentary
 nervous system.  When it finds its spot and takes root, it
 doesn't need its brain any more so it eats it.
 It's rather like getting tenure.

                               -- source unknown
 Job cpu time:       0 days  1 hours 55 minutes 15.2 seconds.
 Elapsed time:       0 days  0 hours 28 minutes 49.4 seconds.
 File lengths (MBytes):  RWF=    130 Int=      0 D2E=      0 Chk=      8 Scr=      1
 Normal termination of Gaussian 16 at Mon Jul  4 01:09:25 2022.
### All Done ###
