### Starting Gaussian ###
 Entering Gaussian System, Link 0=g16
 Initial command:
 /cluster/software/gaussian/gaussian-16-A.03/avx2/g16/l1.exe "/local/scratch/ks29c/Gau-8104.inp" -scrdir="/local/scratch/ks29c/"
 Entering Link 1 = /cluster/software/gaussian/gaussian-16-A.03/avx2/g16/l1.exe PID=      8105.
  
 Copyright (c) 1988,1990,1992,1993,1995,1998,2003,2009,2016,
            Gaussian, Inc.  All Rights Reserved.
  
 This is part of the Gaussian(R) 16 program.  It is based on
 the Gaussian(R) 09 system (copyright 2009, Gaussian, Inc.),
 the Gaussian(R) 03 system (copyright 2003, Gaussian, Inc.),
 the Gaussian(R) 98 system (copyright 1998, Gaussian, Inc.),
 the Gaussian(R) 94 system (copyright 1995, Gaussian, Inc.),
 the Gaussian 92(TM) system (copyright 1992, Gaussian, Inc.),
 the Gaussian 90(TM) system (copyright 1990, Gaussian, Inc.),
 the Gaussian 88(TM) system (copyright 1988, Gaussian, Inc.),
 the Gaussian 86(TM) system (copyright 1986, Carnegie Mellon
 University), and the Gaussian 82(TM) system (copyright 1983,
 Carnegie Mellon University). Gaussian is a federally registered
 trademark of Gaussian, Inc.
  
 This software contains proprietary and confidential information,
 including trade secrets, belonging to Gaussian, Inc.
  
 This software is provided under written license and may be
 used, copied, transmitted, or stored only in accord with that
 written license.
  
 The following legend is applicable only to US Government
 contracts under FAR:
  
                    RESTRICTED RIGHTS LEGEND
  
 Use, reproduction and disclosure by the US Government is
 subject to restrictions as set forth in subparagraphs (a)
 and (c) of the Commercial Computer Software - Restricted
 Rights clause in FAR 52.227-19.
  
 Gaussian, Inc.
 340 Quinnipiac St., Bldg. 40, Wallingford CT 06492
  
  
 ---------------------------------------------------------------
 Warning -- This program may not be used in any manner that
 competes with the business of Gaussian, Inc. or will provide
 assistance to any competitor of Gaussian, Inc.  The licensee
 of this program is prohibited from giving any competitor of
 Gaussian, Inc. access to this program.  By using this program,
 the user acknowledges that Gaussian, Inc. is engaged in the
 business of creating and licensing software in the field of
 computational chemistry and represents and warrants to the
 licensee that it is not a competitor of Gaussian, Inc. and that
 it will not use this program in any manner prohibited above.
 ---------------------------------------------------------------
  

 Cite this work as:
 Gaussian 16, Revision A.03,
 M. J. Frisch, G. W. Trucks, H. B. Schlegel, G. E. Scuseria, 
 M. A. Robb, J. R. Cheeseman, G. Scalmani, V. Barone, 
 G. A. Petersson, H. Nakatsuji, X. Li, M. Caricato, A. V. Marenich, 
 J. Bloino, B. G. Janesko, R. Gomperts, B. Mennucci, H. P. Hratchian, 
 J. V. Ortiz, A. F. Izmaylov, J. L. Sonnenberg, D. Williams-Young, 
 F. Ding, F. Lipparini, F. Egidi, J. Goings, B. Peng, A. Petrone, 
 T. Henderson, D. Ranasinghe, V. G. Zakrzewski, J. Gao, N. Rega, 
 G. Zheng, W. Liang, M. Hada, M. Ehara, K. Toyota, R. Fukuda, 
 J. Hasegawa, M. Ishida, T. Nakajima, Y. Honda, O. Kitao, H. Nakai, 
 T. Vreven, K. Throssell, J. A. Montgomery, Jr., J. E. Peralta, 
 F. Ogliaro, M. J. Bearpark, J. J. Heyd, E. N. Brothers, K. N. Kudin, 
 V. N. Staroverov, T. A. Keith, R. Kobayashi, J. Normand, 
 K. Raghavachari, A. P. Rendell, J. C. Burant, S. S. Iyengar, 
 J. Tomasi, M. Cossi, J. M. Millam, M. Klene, C. Adamo, R. Cammi, 
 J. W. Ochterski, R. L. Martin, K. Morokuma, O. Farkas, 
 J. B. Foresman, and D. J. Fox, Gaussian, Inc., Wallingford CT, 2016.
 
 ******************************************
 Gaussian 16:  ES64L-G16RevA.03 25-Dec-2016
                 4-Aug-2022 
 ******************************************
 %chk=NtCCc1cnnnn1.chk
 %NProcShared=20
 Will use up to   20 processors via shared memory.
 -----------------------------
 # opt freq b3lyp/6-31g(2df,p)
 -----------------------------
 1/18=20,19=15,26=3,38=1/1,3;
 2/9=110,12=2,17=6,18=5,40=1/2;
 3/5=1,6=6,7=104,11=2,25=1,30=1,71=1,74=-5/1,2,3;
 4//1;
 5/5=2,38=5/2;
 6/7=2,8=2,9=2,10=2,28=1/1;
 7//1,2,3,16;
 1/18=20,19=15,26=3/3(2);
 2/9=110/2;
 99//99;
 2/9=110/2;
 3/5=1,6=6,7=104,11=2,25=1,30=1,71=1,74=-5/1,2,3;
 4/5=5,16=3,69=1/1;
 5/5=2,38=5/2;
 7//1,2,3,16;
 1/18=20,19=15,26=3/3(-5);
 2/9=110/2;
 6/7=2,8=2,9=2,10=2,19=2,28=1/1;
 99/9=1/99;
 -------------------
 Title Card Required
 -------------------
 Symbolic Z-matrix:
 Charge =  0 Multiplicity = 1
 N                     0.92815  -0.06881   0.01008 
 C                     2.18911  -0.06881   0.01008 
 C                     3.70911  -0.06881   0.01008 
 C                     4.20095  -0.55025  -1.32171 
 C                     4.67944   0.29312  -2.27825 
 N                     5.0395   -0.17448  -3.47759 
 N                     4.90331  -1.44959  -3.69051 
 N                     4.46293  -2.25224  -2.80286 
 N                     4.10548  -1.85559  -1.61053 
 H                     4.07768  -0.72774   0.8037 
 H                     4.07572   0.94215   0.21944 
 H                     4.78805   1.35885  -2.13563 
 

 GradGradGradGradGradGradGradGradGradGradGradGradGradGradGradGradGradGrad
 Berny optimization.
 Initialization pass.
                           ----------------------------
                           !    Initial Parameters    !
                           ! (Angstroms and Degrees)  !
 --------------------------                            --------------------------
 ! Name  Definition              Value          Derivative Info.                !
 --------------------------------------------------------------------------------
 ! R1    R(1,2)                  1.261          estimate D2E/DX2                !
 ! R2    R(2,3)                  1.52           estimate D2E/DX2                !
 ! R3    R(3,4)                  1.4991         estimate D2E/DX2                !
 ! R4    R(3,10)                 1.0954         estimate D2E/DX2                !
 ! R5    R(3,11)                 1.0956         estimate D2E/DX2                !
 ! R6    R(4,5)                  1.3621         estimate D2E/DX2                !
 ! R7    R(4,9)                  1.3403         estimate D2E/DX2                !
 ! R8    R(5,6)                  1.3367         estimate D2E/DX2                !
 ! R9    R(5,12)                 1.0807         estimate D2E/DX2                !
 ! R10   R(6,7)                  1.2999         estimate D2E/DX2                !
 ! R11   R(7,8)                  1.2752         estimate D2E/DX2                !
 ! R12   R(8,9)                  1.3064         estimate D2E/DX2                !
 ! A1    A(2,3,4)              109.1527         estimate D2E/DX2                !
 ! A2    A(2,3,10)             109.6623         estimate D2E/DX2                !
 ! A3    A(2,3,11)             109.55           estimate D2E/DX2                !
 ! A4    A(4,3,10)             109.8808         estimate D2E/DX2                !
 ! A5    A(4,3,11)             110.8748         estimate D2E/DX2                !
 ! A6    A(10,3,11)            107.7009         estimate D2E/DX2                !
 ! A7    A(3,4,5)              122.7037         estimate D2E/DX2                !
 ! A8    A(3,4,9)              118.7399         estimate D2E/DX2                !
 ! A9    A(5,4,9)              118.4716         estimate D2E/DX2                !
 ! A10   A(4,5,6)              120.5403         estimate D2E/DX2                !
 ! A11   A(4,5,12)             123.5894         estimate D2E/DX2                !
 ! A12   A(6,5,12)             115.869          estimate D2E/DX2                !
 ! A13   A(5,6,7)              117.5092         estimate D2E/DX2                !
 ! A14   A(6,7,8)              122.6556         estimate D2E/DX2                !
 ! A15   A(7,8,9)              122.5941         estimate D2E/DX2                !
 ! A16   A(4,9,8)              118.2207         estimate D2E/DX2                !
 ! A17   L(1,2,3,8,-1)         180.0            estimate D2E/DX2                !
 ! A18   L(1,2,3,8,-2)         180.0            estimate D2E/DX2                !
 ! D1    D(2,3,4,5)            102.6469         estimate D2E/DX2                !
 ! D2    D(2,3,4,9)            -73.9511         estimate D2E/DX2                !
 ! D3    D(10,3,4,5)          -137.0643         estimate D2E/DX2                !
 ! D4    D(10,3,4,9)            46.3377         estimate D2E/DX2                !
 ! D5    D(11,3,4,5)           -18.1217         estimate D2E/DX2                !
 ! D6    D(11,3,4,9)           165.2804         estimate D2E/DX2                !
 ! D7    D(3,4,5,6)           -176.3607         estimate D2E/DX2                !
 ! D8    D(3,4,5,12)             3.1974         estimate D2E/DX2                !
 ! D9    D(9,4,5,6)              0.2459         estimate D2E/DX2                !
 ! D10   D(9,4,5,12)           179.804          estimate D2E/DX2                !
 ! D11   D(3,4,9,8)            175.99           estimate D2E/DX2                !
 ! D12   D(5,4,9,8)             -0.7535         estimate D2E/DX2                !
 ! D13   D(4,5,6,7)              0.5824         estimate D2E/DX2                !
 ! D14   D(12,5,6,7)          -179.0085         estimate D2E/DX2                !
 ! D15   D(5,6,7,8)             -0.9376         estimate D2E/DX2                !
 ! D16   D(6,7,8,9)              0.4333         estimate D2E/DX2                !
 ! D17   D(7,8,9,4)              0.4472         estimate D2E/DX2                !
 --------------------------------------------------------------------------------
 Trust Radius=3.00D-01 FncErr=1.00D-07 GrdErr=1.00D-06 EigMax=2.50D+02 EigMin=1.00D-04
 Number of steps in this run=     57 maximum allowed number of steps=    100.
 GradGradGradGradGradGradGradGradGradGradGradGradGradGradGradGradGradGrad

                          Input orientation:                          
 ---------------------------------------------------------------------
 Center     Atomic      Atomic             Coordinates (Angstroms)
 Number     Number       Type             X           Y           Z
 ---------------------------------------------------------------------
      1          7           0        0.928150   -0.068810    0.010080
      2          6           0        2.189110   -0.068810    0.010080
      3          6           0        3.709110   -0.068810    0.010080
      4          6           0        4.200950   -0.550250   -1.321710
      5          6           0        4.679440    0.293120   -2.278250
      6          7           0        5.039500   -0.174480   -3.477590
      7          7           0        4.903310   -1.449590   -3.690510
      8          7           0        4.462930   -2.252240   -2.802860
      9          7           0        4.105480   -1.855590   -1.610530
     10          1           0        4.077680   -0.727740    0.803700
     11          1           0        4.075720    0.942150    0.219440
     12          1           0        4.788050    1.358850   -2.135630
 ---------------------------------------------------------------------
                    Distance matrix (angstroms):
                    1          2          3          4          5
     1  N    0.000000
     2  C    1.260960   0.000000
     3  C    2.780960   1.520000   0.000000
     4  C    3.566044   2.460274   1.499118   0.000000
     5  C    4.409039   3.401351   2.511770   1.362055   0.000000
     6  N    5.392421   4.505522   3.734293   2.343542   1.336678
     7  N    5.603822   4.792473   4.126383   2.629322   2.254248
     8  N    5.017436   4.224956   3.639814   2.271389   2.607863
     9  N    3.989284   3.080817   2.444600   1.340315   2.322119
    10  H    3.314146   2.151910   1.095384   2.136367   3.301922
    11  H    3.312562   2.150621   1.095570   2.148973   2.650316
    12  H    4.641240   3.660160   2.793993   2.156807   1.080702
                    6          7          8          9         10
     6  N    0.000000
     7  N    1.299919   0.000000
     8  N    2.259376   1.275188   0.000000
     9  N    2.680380   2.264439   1.306427   0.000000
    10  H    4.422741   4.626084   3.934437   2.664831   0.000000
    11  H    3.980423   4.657578   4.414562   3.343206   1.769151
    12  H    2.053091   3.212207   3.686580   3.327801   3.673982
                   11         12
    11  H    0.000000
    12  H    2.495477   0.000000
 Stoichiometry    C4H3N5
 Framework group  C1[X(C4H3N5)]
 Deg. of freedom    30
 Full point group                 C1      NOp   1
 Largest Abelian subgroup         C1      NOp   1
 Largest concise Abelian subgroup C1      NOp   1
                         Standard orientation:                         
 ---------------------------------------------------------------------
 Center     Atomic      Atomic             Coordinates (Angstroms)
 Number     Number       Type             X           Y           Z
 ---------------------------------------------------------------------
      1          7           0       -3.219573   -0.516916   -0.996730
      2          6           0       -2.421974   -0.035624   -0.146898
      3          6           0       -1.460523    0.544540    0.877515
      4          6           0       -0.052995    0.256777    0.449249
      5          6           0        0.748221    1.196683   -0.125054
      6          7           0        1.971623    0.874456   -0.556525
      7          7           0        2.351887   -0.360633   -0.416015
      8          7           0        1.615547   -1.249952    0.125297
      9          7           0        0.416190   -0.992449    0.574728
     10          1           0       -1.650943    0.094621    1.857912
     11          1           0       -1.628239    1.623419    0.967880
     12          1           0        0.453087    2.226159   -0.269938
 ---------------------------------------------------------------------
 Rotational constants (GHZ):           4.1080202           1.0836775           0.9998819
 Standard basis: 6-31G(2df,p) (6D, 7F)
 There are   294 symmetry adapted cartesian basis functions of A   symmetry.
 There are   267 symmetry adapted basis functions of A   symmetry.
   267 basis functions,   417 primitive gaussians,   294 cartesian basis functions
    31 alpha electrons       31 beta electrons
       nuclear repulsion energy       385.0388067747 Hartrees.
 NAtoms=   12 NActive=   12 NUniq=   12 SFac= 1.00D+00 NAtFMM=   60 NAOKFM=F Big=F
 Integral buffers will be    131072 words long.
 Raffenetti 2 integral format.
 Two-electron integral symmetry is turned on.
 One-electron integrals computed using PRISM.
 PrsmSu:  requested number of processors reduced to:  13 ShMem   1 Linda.
 NBasis=   267 RedAO= T EigKep=  1.12D-04  NBF=   267
 NBsUse=   267 1.00D-06 EigRej= -1.00D+00 NBFU=   267
 ExpMin= 1.61D-01 ExpMax= 4.17D+03 ExpMxC= 6.27D+02 IAcc=3 IRadAn=         5 AccDes= 0.00D+00
 Harris functional with IExCor=  402 and IRadAn=       5 diagonalized for initial guess.
 HarFok:  IExCor=  402 AccDes= 0.00D+00 IRadAn=         5 IDoV= 1 UseB2=F ITyADJ=14
 ICtDFT=  3500011 ScaDFX=  1.000000  1.000000  1.000000  1.000000
 FoFCou: FMM=F IPFlag=           0 FMFlag=      100000 FMFlg1=           0
         NFxFlg=           0 DoJE=T BraDBF=F KetDBF=T FulRan=T
         wScrn=  0.000000 ICntrl=       500 IOpCl=  0 I1Cent=   200000004 NGrid=           0
         NMat0=    1 NMatS0=      1 NMatT0=    0 NMatD0=    1 NMtDS0=    0 NMtDT0=    0
 Petite list used in FoFCou.
 Requested convergence on RMS density matrix=1.00D-08 within 128 cycles.
 Requested convergence on MAX density matrix=1.00D-06.
 Requested convergence on             energy=1.00D-06.
 No special actions if energy rises.
 Integral accuracy reduced to 1.0D-05 until final iterations.
 Initial convergence to 1.0D-05 achieved.  Increase integral accuracy.
 SCF Done:  E(RB3LYP) =  -427.847458870     A.U. after   14 cycles
            NFock= 14  Conv=0.81D-08     -V/T= 2.0076

 **********************************************************************

            Population analysis using the SCF density.

 **********************************************************************

 Orbital symmetries:
       Occupied  (A) (A) (A) (A) (A) (A) (A) (A) (A) (A) (A) (A)
                 (A) (A) (A) (A) (A) (A) (A) (A) (A) (A) (A) (A)
                 (A) (A) (A) (A) (A) (A) (A)
       Virtual   (A) (A) (A) (A) (A) (A) (A) (A) (A) (A) (A) (A)
                 (A) (A) (A) (A) (A) (A) (A) (A) (A) (A) (A) (A)
                 (A) (A) (A) (A) (A) (A) (A) (A) (A) (A) (A) (A)
                 (A) (A) (A) (A) (A) (A) (A) (A) (A) (A) (A) (A)
                 (A) (A) (A) (A) (A) (A) (A) (A) (A) (A) (A) (A)
                 (A) (A) (A) (A) (A) (A) (A) (A) (A) (A) (A) (A)
                 (A) (A) (A) (A) (A) (A) (A) (A) (A) (A) (A) (A)
                 (A) (A) (A) (A) (A) (A) (A) (A) (A) (A) (A) (A)
                 (A) (A) (A) (A) (A) (A) (A) (A) (A) (A) (A) (A)
                 (A) (A) (A) (A) (A) (A) (A) (A) (A) (A) (A) (A)
                 (A) (A) (A) (A) (A) (A) (A) (A) (A) (A) (A) (A)
                 (A) (A) (A) (A) (A) (A) (A) (A) (A) (A) (A) (A)
                 (A) (A) (A) (A) (A) (A) (A) (A) (A) (A) (A) (A)
                 (A) (A) (A) (A) (A) (A) (A) (A) (A) (A) (A) (A)
                 (A) (A) (A) (A) (A) (A) (A) (A) (A) (A) (A) (A)
                 (A) (A) (A) (A) (A) (A) (A) (A) (A) (A) (A) (A)
                 (A) (A) (A) (A) (A) (A) (A) (A) (A) (A) (A) (A)
                 (A) (A) (A) (A) (A) (A) (A) (A) (A) (A) (A) (A)
                 (A) (A) (A) (A) (A) (A) (A) (A) (A) (A) (A) (A)
                 (A) (A) (A) (A) (A) (A) (A) (A)
 The electronic state is 1-A.
 Alpha  occ. eigenvalues --  -14.43135 -14.42880 -14.41766 -14.41671 -14.37959
 Alpha  occ. eigenvalues --  -10.29885 -10.28663 -10.28446 -10.27651  -1.14838
 Alpha  occ. eigenvalues --   -1.00719  -0.93910  -0.88865  -0.82611  -0.75966
 Alpha  occ. eigenvalues --   -0.72264  -0.62066  -0.56648  -0.55000  -0.51460
 Alpha  occ. eigenvalues --   -0.50446  -0.48570  -0.43204  -0.39341  -0.38669
 Alpha  occ. eigenvalues --   -0.36792  -0.36248  -0.33417  -0.33224  -0.28343
 Alpha  occ. eigenvalues --   -0.27486
 Alpha virt. eigenvalues --   -0.11417  -0.09050  -0.01763  -0.01743   0.05912
 Alpha virt. eigenvalues --    0.06655   0.09127   0.11939   0.13325   0.16263
 Alpha virt. eigenvalues --    0.19892   0.23671   0.26890   0.27255   0.31061
 Alpha virt. eigenvalues --    0.33863   0.35838   0.41070   0.43623   0.43876
 Alpha virt. eigenvalues --    0.46063   0.48073   0.49675   0.50534   0.52118
 Alpha virt. eigenvalues --    0.53750   0.54858   0.55672   0.57550   0.58059
 Alpha virt. eigenvalues --    0.60311   0.60582   0.61693   0.63317   0.65367
 Alpha virt. eigenvalues --    0.65860   0.66595   0.68501   0.69804   0.71784
 Alpha virt. eigenvalues --    0.72031   0.73198   0.75254   0.75793   0.77022
 Alpha virt. eigenvalues --    0.78144   0.79249   0.79541   0.80168   0.82848
 Alpha virt. eigenvalues --    0.86739   0.89210   0.90164   0.93228   0.94558
 Alpha virt. eigenvalues --    0.98225   0.98949   1.00053   1.01830   1.05443
 Alpha virt. eigenvalues --    1.06578   1.08113   1.12965   1.17249   1.20722
 Alpha virt. eigenvalues --    1.22812   1.23633   1.24813   1.27803   1.31070
 Alpha virt. eigenvalues --    1.38257   1.39026   1.40552   1.42618   1.46293
 Alpha virt. eigenvalues --    1.47229   1.47805   1.52030   1.53001   1.55551
 Alpha virt. eigenvalues --    1.58561   1.60521   1.62986   1.65439   1.65837
 Alpha virt. eigenvalues --    1.66725   1.69083   1.71990   1.75945   1.80614
 Alpha virt. eigenvalues --    1.81711   1.87276   1.88017   1.98581   2.00239
 Alpha virt. eigenvalues --    2.06758   2.10020   2.11657   2.16937   2.22116
 Alpha virt. eigenvalues --    2.25041   2.26791   2.30655   2.40063   2.45292
 Alpha virt. eigenvalues --    2.56598   2.57949   2.61082   2.64851   2.73387
 Alpha virt. eigenvalues --    2.75147   2.78064   2.79372   2.85244   2.86455
 Alpha virt. eigenvalues --    2.88109   2.93442   2.95627   2.96300   2.97700
 Alpha virt. eigenvalues --    3.00714   3.09836   3.13341   3.17034   3.18571
 Alpha virt. eigenvalues --    3.19596   3.19999   3.20375   3.23515   3.25382
 Alpha virt. eigenvalues --    3.25777   3.31657   3.34138   3.39051   3.42933
 Alpha virt. eigenvalues --    3.43433   3.45662   3.49283   3.50239   3.55452
 Alpha virt. eigenvalues --    3.59022   3.62256   3.62409   3.64958   3.67123
 Alpha virt. eigenvalues --    3.68911   3.71256   3.72747   3.75856   3.78053
 Alpha virt. eigenvalues --    3.79195   3.81734   3.85906   3.88278   3.93897
 Alpha virt. eigenvalues --    3.95893   3.97782   3.98700   4.00904   4.01867
 Alpha virt. eigenvalues --    4.05223   4.05559   4.07637   4.09543   4.12321
 Alpha virt. eigenvalues --    4.14901   4.15859   4.21080   4.22419   4.23183
 Alpha virt. eigenvalues --    4.25772   4.26745   4.29075   4.31014   4.33887
 Alpha virt. eigenvalues --    4.35654   4.38475   4.39257   4.40186   4.41138
 Alpha virt. eigenvalues --    4.42780   4.43703   4.45141   4.47981   4.50639
 Alpha virt. eigenvalues --    4.54417   4.55819   4.59160   4.60234   4.62124
 Alpha virt. eigenvalues --    4.68349   4.70115   4.71281   4.73945   4.76043
 Alpha virt. eigenvalues --    4.78435   4.82144   4.84098   4.87780   4.93279
 Alpha virt. eigenvalues --    4.93920   4.98120   5.05276   5.06984   5.10046
 Alpha virt. eigenvalues --    5.12859   5.15484   5.21447   5.25904   5.30534
 Alpha virt. eigenvalues --    5.35408   5.36560   5.48046   5.51805   5.56267
 Alpha virt. eigenvalues --    5.69207   5.72165   5.75229   5.83479   5.97500
 Alpha virt. eigenvalues --    6.13629   6.31640   6.76227   9.51452  10.06658
 Alpha virt. eigenvalues --   10.61053  11.23594  11.25900  11.29701  11.34300
 Alpha virt. eigenvalues --   11.44239  11.74940  12.10205  12.70357  14.31588
 Alpha virt. eigenvalues --   27.70982
          Condensed to atoms (all electrons):
               1          2          3          4          5          6
     1  N    6.458555   0.931802  -0.042244  -0.003020   0.000049   0.000002
     2  C    0.931802   4.496359   0.355970  -0.037977  -0.001517   0.000009
     3  C   -0.042244   0.355970   5.074447   0.384415  -0.053326   0.004110
     4  C   -0.003020  -0.037977   0.384415   4.442463   0.562048   0.020000
     5  C    0.000049  -0.001517  -0.053326   0.562048   4.774102   0.466154
     6  N    0.000002   0.000009   0.004110   0.020000   0.466154   6.346312
     7  N   -0.000000  -0.000008  -0.000549  -0.002663  -0.104987   0.478042
     8  N   -0.000004   0.000312   0.002155  -0.101085  -0.007262  -0.094399
     9  N   -0.000438  -0.004174  -0.040274   0.451904   0.012333  -0.035854
    10  H   -0.000798  -0.020367   0.353301  -0.015022   0.003066  -0.000141
    11  H   -0.000303  -0.023553   0.366372  -0.027781  -0.001319   0.000267
    12  H   -0.000000   0.000164  -0.006061  -0.042799   0.363388  -0.025779
               7          8          9         10         11         12
     1  N   -0.000000  -0.000004  -0.000438  -0.000798  -0.000303  -0.000000
     2  C   -0.000008   0.000312  -0.004174  -0.020367  -0.023553   0.000164
     3  C   -0.000549   0.002155  -0.040274   0.353301   0.366372  -0.006061
     4  C   -0.002663  -0.101085   0.451904  -0.015022  -0.027781  -0.042799
     5  C   -0.104987  -0.007262   0.012333   0.003066  -0.001319   0.363388
     6  N    0.478042  -0.094399  -0.035854  -0.000141   0.000267  -0.025779
     7  N    6.275658   0.475595  -0.097214   0.000042   0.000031   0.003253
     8  N    0.475595   6.285422   0.480244   0.000108  -0.000152  -0.000888
     9  N   -0.097214   0.480244   6.440377  -0.000145   0.001865   0.004542
    10  H    0.000042   0.000108  -0.000145   0.515482  -0.029829  -0.000205
    11  H    0.000031  -0.000152   0.001865  -0.029829   0.536004   0.003463
    12  H    0.003253  -0.000888   0.004542  -0.000205   0.003463   0.549084
 Mulliken charges:
               1
     1  N   -0.343600
     2  C    0.302980
     3  C   -0.398315
     4  C    0.369516
     5  C   -0.012728
     6  N   -0.158722
     7  N   -0.027200
     8  N   -0.040046
     9  N   -0.213164
    10  H    0.194508
    11  H    0.174934
    12  H    0.151837
 Sum of Mulliken charges =  -0.00000
 Mulliken charges with hydrogens summed into heavy atoms:
               1
     1  N   -0.343600
     2  C    0.302980
     3  C   -0.028873
     4  C    0.369516
     5  C    0.139110
     6  N   -0.158722
     7  N   -0.027200
     8  N   -0.040046
     9  N   -0.213164
 Electronic spatial extent (au):  <R**2>=           1133.2255
 Charge=             -0.0000 electrons
 Dipole moment (field-independent basis, Debye):
    X=             -0.9398    Y=              4.1483    Z=              2.9683  Tot=              5.1868
 Quadrupole moment (field-independent basis, Debye-Ang):
   XX=            -67.1117   YY=            -50.7014   ZZ=            -49.3325
   XY=             -2.5292   XZ=             -4.6220   YZ=              1.4103
 Traceless Quadrupole moment (field-independent basis, Debye-Ang):
   XX=            -11.3965   YY=              5.0138   ZZ=              6.3827
   XY=             -2.5292   XZ=             -4.6220   YZ=              1.4103
 Octapole moment (field-independent basis, Debye-Ang**2):
  XXX=             20.9236  YYY=             14.0394  ZZZ=              6.6063  XYY=             -4.1315
  XXY=             11.0381  XXZ=             27.6374  XZZ=              3.7870  YZZ=              1.0454
  YYZ=             -0.0365  XYZ=              3.4804
 Hexadecapole moment (field-independent basis, Debye-Ang**3):
 XXXX=          -1300.3479 YYYY=           -247.1330 ZZZZ=           -149.3618 XXXY=            -30.1005
 XXXZ=            -42.0925 YYYX=             -0.2749 YYYZ=              4.0197 ZZZX=            -15.4531
 ZZZY=             -0.4335 XXYY=           -242.0192 XXZZ=           -223.1824 YYZZ=            -70.0497
 XXYZ=             -4.2965 YYXZ=             -2.8912 ZZXY=             -6.6851
 N-N= 3.850388067747D+02 E-N=-1.765305975296D+03  KE= 4.246154513283D+02
 PrsmSu:  requested number of processors reduced to:  13 ShMem   1 Linda.
 Calling FoFJK, ICntrl=      2127 FMM=F ISym2X=0 I1Cent= 0 IOpClX= 0 NMat=1 NMatS=1 NMatT=0.
 ***** Axes restored to original set *****
 -------------------------------------------------------------------
 Center     Atomic                   Forces (Hartrees/Bohr)
 Number     Number              X              Y              Z
 -------------------------------------------------------------------
      1        7           0.181621578    0.000332226   -0.000701114
      2        6          -0.152764261    0.000880510    0.004834816
      3        6          -0.025723285   -0.001873757    0.005444887
      4        6          -0.007982571   -0.015813011    0.003519570
      5        6           0.010075813    0.012056902   -0.020761160
      6        7           0.000569558    0.023647993    0.010373373
      7        7           0.014427354    0.003893972   -0.040754325
      8        7          -0.010141559   -0.037245948    0.017225475
      9        7          -0.004474313    0.011058445    0.019809529
     10        1          -0.003518331   -0.000720456    0.000237647
     11        1          -0.002603091   -0.000240629   -0.000649530
     12        1           0.000513108    0.004023752    0.001420831
 -------------------------------------------------------------------
 Cartesian Forces:  Max     0.181621578 RMS     0.041819259

 GradGradGradGradGradGradGradGradGradGradGradGradGradGradGradGradGradGrad
 Berny optimization.
 FormGI is forming the generalized inverse of G from B-inverse, IUseBI=4.
 Internal  Forces:  Max     0.181621544 RMS     0.028400373
 Search for a local minimum.
 Step number   1 out of a maximum of   57
 All quantities printed in internal units (Hartrees-Bohrs-Radians)
 Mixed Optimization -- RFO/linear search
 Second derivative matrix not updated -- first step.
 ITU=  0
     Eigenvalues ---    0.00501   0.00501   0.00778   0.01699   0.02518
     Eigenvalues ---    0.02566   0.02576   0.02758   0.07461   0.07741
     Eigenvalues ---    0.16000   0.16000   0.16000   0.22422   0.23335
     Eigenvalues ---    0.24969   0.24990   0.24999   0.30367   0.32470
     Eigenvalues ---    0.34177   0.34198   0.35910   0.50188   0.54378
     Eigenvalues ---    0.56746   0.63734   0.65420   0.72516   0.79315
 RFO step:  Lambda=-4.80914905D-02 EMin= 5.01385868D-03
 Linear search not attempted -- first point.
 Iteration  1 RMS(Cart)=  0.04503166 RMS(Int)=  0.00241801
 Iteration  2 RMS(Cart)=  0.00238351 RMS(Int)=  0.00007426
 Iteration  3 RMS(Cart)=  0.00000284 RMS(Int)=  0.00007423
 Iteration  4 RMS(Cart)=  0.00000000 RMS(Int)=  0.00007423
 Variable       Old X    -DE/DX   Delta X   Delta X   Delta X     New X
                                 (Linear)    (Quad)   (Total)
    R1        2.38287  -0.18162   0.00000  -0.21590  -0.21590   2.16697
    R2        2.87238  -0.02886   0.00000  -0.08204  -0.08204   2.79035
    R3        2.83292   0.00860   0.00000   0.02308   0.02308   2.85600
    R4        2.06998  -0.00058   0.00000  -0.00148  -0.00148   2.06849
    R5        2.07033  -0.00122   0.00000  -0.00312  -0.00312   2.06721
    R6        2.57391   0.02567   0.00000   0.04149   0.04146   2.61537
    R7        2.53283  -0.00276   0.00000  -0.00628  -0.00630   2.52653
    R8        2.52596  -0.00156   0.00000  -0.00366  -0.00367   2.52229
    R9        2.04223   0.00421   0.00000   0.01033   0.01033   2.05256
   R10        2.45649   0.02504   0.00000   0.03646   0.03648   2.49297
   R11        2.40976   0.04524   0.00000   0.05936   0.05939   2.46914
   R12        2.46879   0.01789   0.00000   0.02663   0.02664   2.49543
    A1        1.90507   0.00670   0.00000   0.02285   0.02281   1.92788
    A2        1.91397  -0.00444   0.00000  -0.02067  -0.02073   1.89324
    A3        1.91201  -0.00401   0.00000  -0.01891  -0.01891   1.89310
    A4        1.91778   0.00108   0.00000   0.00757   0.00752   1.92530
    A5        1.93513  -0.00027   0.00000   0.00089   0.00087   1.93600
    A6        1.87973   0.00072   0.00000   0.00745   0.00740   1.88714
    A7        2.14158   0.00251   0.00000   0.01424   0.01416   2.15575
    A8        2.07240  -0.00782   0.00000  -0.02044  -0.02053   2.05187
    A9        2.06772   0.00540   0.00000   0.00756   0.00742   2.07514
   A10        2.10382   0.00148   0.00000  -0.00500  -0.00504   2.09878
   A11        2.15704  -0.00154   0.00000  -0.00134  -0.00133   2.15571
   A12        2.02230   0.00006   0.00000   0.00639   0.00640   2.02869
   A13        2.05092   0.00374   0.00000   0.01318   0.01321   2.06413
   A14        2.14074  -0.00816   0.00000  -0.01474  -0.01466   2.12608
   A15        2.13967  -0.00613   0.00000  -0.00983  -0.00977   2.12990
   A16        2.06334   0.00366   0.00000   0.00881   0.00880   2.07214
   A17        3.14159  -0.00083   0.00000  -0.01572  -0.01572   3.12588
   A18        3.14159  -0.00139   0.00000  -0.02618  -0.02618   3.11541
    D1        1.79153   0.00053   0.00000   0.00610   0.00601   1.79754
    D2       -1.29069  -0.00145   0.00000  -0.02147  -0.02142  -1.31211
    D3       -2.39222  -0.00009   0.00000  -0.00043  -0.00049  -2.39271
    D4        0.80875  -0.00206   0.00000  -0.02800  -0.02792   0.78082
    D5       -0.31628   0.00132   0.00000   0.01417   0.01412  -0.30217
    D6        2.88469  -0.00066   0.00000  -0.01340  -0.01332   2.87137
    D7       -3.07808  -0.00128   0.00000  -0.02107  -0.02129  -3.09937
    D8        0.05580  -0.00073   0.00000  -0.01360  -0.01379   0.04201
    D9        0.00429   0.00027   0.00000   0.00551   0.00559   0.00988
   D10        3.13817   0.00081   0.00000   0.01299   0.01309  -3.13192
   D11        3.07161   0.00181   0.00000   0.02514   0.02491   3.09652
   D12       -0.01315  -0.00000   0.00000  -0.00153  -0.00151  -0.01466
   D13        0.01017  -0.00014   0.00000  -0.00360  -0.00363   0.00654
   D14       -3.12429  -0.00064   0.00000  -0.01049  -0.01057  -3.13486
   D15       -0.01636  -0.00009   0.00000  -0.00220  -0.00219  -0.01856
   D16        0.00756   0.00040   0.00000   0.00645   0.00648   0.01405
   D17        0.00781  -0.00041   0.00000  -0.00449  -0.00457   0.00324
         Item               Value     Threshold  Converged?
 Maximum Force            0.181622     0.000450     NO 
 RMS     Force            0.028400     0.000300     NO 
 Maximum Displacement     0.228771     0.001800     NO 
 RMS     Displacement     0.046635     0.001200     NO 
 Predicted change in Energy=-2.568704D-02
 GradGradGradGradGradGradGradGradGradGradGradGradGradGradGradGradGradGrad

                          Input orientation:                          
 ---------------------------------------------------------------------
 Center     Atomic      Atomic             Coordinates (Angstroms)
 Number     Number       Type             X           Y           Z
 ---------------------------------------------------------------------
      1          7           0        1.049211   -0.048572    0.029077
      2          6           0        2.195741   -0.066404    0.039083
      3          6           0        3.672067   -0.077909    0.013773
      4          6           0        4.173710   -0.544818   -1.333249
      5          6           0        4.674033    0.309409   -2.300418
      6          7           0        5.055219   -0.168012   -3.487131
      7          7           0        4.933894   -1.462977   -3.707795
      8          7           0        4.474712   -2.277243   -2.794908
      9          7           0        4.091037   -1.851208   -1.605339
     10          1           0        4.027327   -0.746638    0.804178
     11          1           0        4.030296    0.931608    0.235591
     12          1           0        4.782185    1.380564   -2.156562
 ---------------------------------------------------------------------
                    Distance matrix (angstroms):
                    1          2          3          4          5
     1  N    0.000000
     2  C    1.146712   0.000000
     3  C    2.623065   1.476588   0.000000
     4  C    3.444515   2.454493   1.511330   0.000000
     5  C    4.323660   3.428766   2.551359   1.383995   0.000000
     6  N    5.331613   4.541050   3.765310   2.357595   1.334737
     7  N    5.572748   4.846338   4.166616   2.656946   2.278066
     8  N    4.967488   4.255941   3.656501   2.286558   2.641026
     9  N    3.895320   3.079253   2.437550   1.336983   2.343349
    10  H    3.155511   2.098283   1.094599   2.151918   3.342451
    11  H    3.144880   2.097674   1.093918   2.159088   2.689399
    12  H    4.555715   3.688396   2.840750   2.180638   1.086170
                    6          7          8          9         10
     6  N    0.000000
     7  N    1.319222   0.000000
     8  N    2.294563   1.306614   0.000000
     9  N    2.702581   2.298141   1.320526   0.000000
    10  H    4.450473   4.657564   3.936538   2.651397   0.000000
    11  H    4.014759   4.701150   4.436007   3.337181   1.771951
    12  H    2.059866   3.242693   3.725799   3.350505   3.723006
                   11         12
    11  H    0.000000
    12  H    2.547409   0.000000
 Stoichiometry    C4H3N5
 Framework group  C1[X(C4H3N5)]
 Deg. of freedom    30
 Full point group                 C1      NOp   1
 Largest Abelian subgroup         C1      NOp   1
 Largest concise Abelian subgroup C1      NOp   1
                         Standard orientation:                         
 ---------------------------------------------------------------------
 Center     Atomic      Atomic             Coordinates (Angstroms)
 Number     Number       Type             X           Y           Z
 ---------------------------------------------------------------------
      1          7           0       -3.152072   -0.416326   -0.987898
      2          6           0       -2.443812   -0.044288   -0.166372
      3          6           0       -1.506220    0.446645    0.863297
      4          6           0       -0.076985    0.217018    0.428929
      5          6           0        0.742445    1.218050   -0.062917
      6          7           0        1.980211    0.933006   -0.473047
      7          7           0        2.388965   -0.319293   -0.402229
      8          7           0        1.625601   -1.267215    0.073120
      9          7           0        0.396853   -1.031411    0.495451
     10          1           0       -1.709069   -0.084490    1.798655
     11          1           0       -1.698374    1.510928    1.027723
     12          1           0        0.437958    2.257682   -0.141780
 ---------------------------------------------------------------------
 Rotational constants (GHZ):           4.2159245           1.0913355           0.9980701
 Standard basis: 6-31G(2df,p) (6D, 7F)
 There are   294 symmetry adapted cartesian basis functions of A   symmetry.
 There are   267 symmetry adapted basis functions of A   symmetry.
   267 basis functions,   417 primitive gaussians,   294 cartesian basis functions
    31 alpha electrons       31 beta electrons
       nuclear repulsion energy       385.7466206642 Hartrees.
 NAtoms=   12 NActive=   12 NUniq=   12 SFac= 1.00D+00 NAtFMM=   60 NAOKFM=F Big=F
 Integral buffers will be    131072 words long.
 Raffenetti 2 integral format.
 Two-electron integral symmetry is turned on.
 One-electron integrals computed using PRISM.
 PrsmSu:  requested number of processors reduced to:  13 ShMem   1 Linda.
 NBasis=   267 RedAO= T EigKep=  1.18D-04  NBF=   267
 NBsUse=   267 1.00D-06 EigRej= -1.00D+00 NBFU=   267
 Initial guess from the checkpoint file:  "NtCCc1cnnnn1.chk"
 B after Tr=    -0.000000   -0.000000   -0.000000
         Rot=    0.999415   -0.033793    0.004735   -0.002144 Ang=  -3.92 deg.
 ExpMin= 1.61D-01 ExpMax= 4.17D+03 ExpMxC= 6.27D+02 IAcc=2 IRadAn=         4 AccDes= 0.00D+00
 Harris functional with IExCor=  402 and IRadAn=       4 diagonalized for initial guess.
 HarFok:  IExCor=  402 AccDes= 0.00D+00 IRadAn=         4 IDoV= 1 UseB2=F ITyADJ=14
 ICtDFT=  3500011 ScaDFX=  1.000000  1.000000  1.000000  1.000000
 FoFCou: FMM=F IPFlag=           0 FMFlag=      100000 FMFlg1=           0
         NFxFlg=           0 DoJE=T BraDBF=F KetDBF=T FulRan=T
         wScrn=  0.000000 ICntrl=       500 IOpCl=  0 I1Cent=   200000004 NGrid=           0
         NMat0=    1 NMatS0=      1 NMatT0=    0 NMatD0=    1 NMtDS0=    0 NMtDT0=    0
 Petite list used in FoFCou.
 Requested convergence on RMS density matrix=1.00D-08 within 128 cycles.
 Requested convergence on MAX density matrix=1.00D-06.
 Requested convergence on             energy=1.00D-06.
 No special actions if energy rises.
 Integral accuracy reduced to 1.0D-05 until final iterations.
 Initial convergence to 1.0D-05 achieved.  Increase integral accuracy.
 SCF Done:  E(RB3LYP) =  -427.873205874     A.U. after   14 cycles
            NFock= 14  Conv=0.55D-08     -V/T= 2.0070
 PrsmSu:  requested number of processors reduced to:  13 ShMem   1 Linda.
 Calling FoFJK, ICntrl=      2127 FMM=F ISym2X=0 I1Cent= 0 IOpClX= 0 NMat=1 NMatS=1 NMatT=0.
 ***** Axes restored to original set *****
 -------------------------------------------------------------------
 Center     Atomic                   Forces (Hartrees/Bohr)
 Number     Number              X              Y              Z
 -------------------------------------------------------------------
      1        7          -0.019417936    0.000451967    0.000503404
      2        6           0.025744339    0.000102305   -0.000294003
      3        6          -0.008963815   -0.000436161    0.002313947
      4        6          -0.002248495   -0.006375761   -0.001245688
      5        6           0.003666182    0.000246876   -0.008057880
      6        7          -0.001355356    0.007835855    0.006616917
      7        7           0.003765279    0.001087953   -0.009599983
      8        7          -0.002416367   -0.009408786    0.004875953
      9        7          -0.000310987    0.007008535    0.005620697
     10        1           0.000743310   -0.000604662   -0.001090555
     11        1           0.000920120   -0.000027529   -0.000343434
     12        1          -0.000126275    0.000119408    0.000700624
 -------------------------------------------------------------------
 Cartesian Forces:  Max     0.025744339 RMS     0.006808999

 GradGradGradGradGradGradGradGradGradGradGradGradGradGradGradGradGradGrad
 Berny optimization.
 Using GEDIIS/GDIIS optimizer.
 FormGI is forming the generalized inverse of G from B-inverse, IUseBI=4.
 Internal  Forces:  Max     0.019417410 RMS     0.003882621
 Search for a local minimum.
 Step number   2 out of a maximum of   57
 All quantities printed in internal units (Hartrees-Bohrs-Radians)
 Mixed Optimization -- RFO/linear search
 Update second derivatives using D2CorX and points    1    2
 DE= -2.57D-02 DEPred=-2.57D-02 R= 1.00D+00
 TightC=F SS=  1.41D+00  RLast= 2.61D-01 DXNew= 5.0454D-01 7.8406D-01
 Trust test= 1.00D+00 RLast= 2.61D-01 DXMaxT set to 5.05D-01
 ITU=  1  0
 Use linear search instead of GDIIS.
     Eigenvalues ---    0.00501   0.00503   0.00778   0.01702   0.02518
     Eigenvalues ---    0.02566   0.02576   0.02756   0.07327   0.07664
     Eigenvalues ---    0.15996   0.16000   0.16019   0.22326   0.23330
     Eigenvalues ---    0.24965   0.24996   0.25002   0.29951   0.32456
     Eigenvalues ---    0.34178   0.34198   0.35910   0.50275   0.54408
     Eigenvalues ---    0.55896   0.63376   0.64483   0.71435   0.94809
 RFO step:  Lambda=-1.62474569D-03 EMin= 5.01337744D-03
 Quartic linear search produced a step of -0.03268.
 Iteration  1 RMS(Cart)=  0.07544561 RMS(Int)=  0.00582739
 Iteration  2 RMS(Cart)=  0.00628840 RMS(Int)=  0.00019205
 Iteration  3 RMS(Cart)=  0.00004929 RMS(Int)=  0.00018914
 Iteration  4 RMS(Cart)=  0.00000001 RMS(Int)=  0.00018914
 Variable       Old X    -DE/DX   Delta X   Delta X   Delta X     New X
                                 (Linear)    (Quad)   (Total)
    R1        2.16697   0.01942   0.00706   0.00835   0.01540   2.18237
    R2        2.79035  -0.00632   0.00268  -0.02742  -0.02474   2.76561
    R3        2.85600   0.00114  -0.00075   0.00540   0.00465   2.86065
    R4        2.06849  -0.00018   0.00005  -0.00063  -0.00058   2.06791
    R5        2.06721   0.00021   0.00010   0.00031   0.00041   2.06762
    R6        2.61537   0.00415  -0.00135   0.00947   0.00819   2.62356
    R7        2.52653  -0.00506   0.00021  -0.00973  -0.00945   2.51708
    R8        2.52229  -0.00524   0.00012  -0.00949  -0.00937   2.51292
    R9        2.05256   0.00020  -0.00034   0.00141   0.00108   2.05364
   R10        2.49297   0.00604  -0.00119   0.01198   0.01071   2.50368
   R11        2.46914   0.01096  -0.00194   0.01938   0.01736   2.48650
   R12        2.49543   0.00368  -0.00087   0.00786   0.00698   2.50241
    A1        1.92788   0.00288  -0.00075   0.01602   0.01531   1.94319
    A2        1.89324   0.00028   0.00068   0.00325   0.00398   1.89721
    A3        1.89310  -0.00028   0.00062   0.00029   0.00092   1.89401
    A4        1.92530  -0.00240  -0.00025  -0.01355  -0.01383   1.91147
    A5        1.93600  -0.00127  -0.00003  -0.00742  -0.00750   1.92850
    A6        1.88714   0.00081  -0.00024   0.00154   0.00119   1.88833
    A7        2.15575   0.00014  -0.00046   0.00493   0.00369   2.15944
    A8        2.05187  -0.00227   0.00067  -0.00774  -0.00784   2.04403
    A9        2.07514   0.00216  -0.00024   0.00468   0.00401   2.07915
   A10        2.09878   0.00111   0.00016  -0.00069  -0.00038   2.09840
   A11        2.15571  -0.00126   0.00004  -0.00431  -0.00437   2.15134
   A12        2.02869   0.00015  -0.00021   0.00501   0.00470   2.03340
   A13        2.06413   0.00054  -0.00043   0.00328   0.00286   2.06699
   A14        2.12608  -0.00221   0.00048  -0.00442  -0.00405   2.12204
   A15        2.12990  -0.00243   0.00032  -0.00551  -0.00519   2.12471
   A16        2.07214   0.00083  -0.00029   0.00247   0.00240   2.07454
   A17        3.12588   0.00136   0.00051   0.17379   0.17431   3.30018
   A18        3.11541   0.00053   0.00086   0.03715   0.03801   3.15342
    D1        1.79754   0.00023  -0.00020  -0.00638  -0.00663   1.79091
    D2       -1.31211  -0.00085   0.00070  -0.07591  -0.07512  -1.38723
    D3       -2.39271   0.00089   0.00002  -0.00076  -0.00088  -2.39359
    D4        0.78082  -0.00019   0.00091  -0.07029  -0.06937   0.71145
    D5       -0.30217  -0.00048  -0.00046  -0.01247  -0.01296  -0.31512
    D6        2.87137  -0.00156   0.00044  -0.08200  -0.08144   2.78992
    D7       -3.09937  -0.00081   0.00070  -0.05084  -0.05033   3.13349
    D8        0.04201  -0.00059   0.00045  -0.04012  -0.03984   0.00217
    D9        0.00988   0.00021  -0.00018   0.01935   0.01925   0.02913
   D10       -3.13192   0.00043  -0.00043   0.03008   0.02974  -3.10218
   D11        3.09652   0.00098  -0.00081   0.05504   0.05406  -3.13261
   D12       -0.01466  -0.00002   0.00005  -0.01120  -0.01115  -0.02581
   D13        0.00654  -0.00019   0.00012  -0.01274  -0.01264  -0.00610
   D14       -3.13486  -0.00039   0.00035  -0.02270  -0.02244   3.12589
   D15       -0.01856   0.00005   0.00007  -0.00170  -0.00161  -0.02017
   D16        0.01405   0.00013  -0.00021   0.01002   0.00985   0.02389
   D17        0.00324  -0.00017   0.00015  -0.00317  -0.00307   0.00017
         Item               Value     Threshold  Converged?
 Maximum Force            0.019417     0.000450     NO 
 RMS     Force            0.003883     0.000300     NO 
 Maximum Displacement     0.333147     0.001800     NO 
 RMS     Displacement     0.077437     0.001200     NO 
 Predicted change in Energy=-8.405615D-04
 GradGradGradGradGradGradGradGradGradGradGradGradGradGradGradGradGradGrad

                          Input orientation:                          
 ---------------------------------------------------------------------
 Center     Atomic      Atomic             Coordinates (Angstroms)
 Number     Number       Type             X           Y           Z
 ---------------------------------------------------------------------
      1          7           0        1.040670    0.076898    0.205371
      2          6           0        2.173307   -0.060129    0.026308
      3          6           0        3.635731   -0.101125   -0.011933
      4          6           0        4.138860   -0.552114   -1.366566
      5          6           0        4.653698    0.311227   -2.324191
      6          7           0        5.085203   -0.162109   -3.489553
      7          7           0        5.016632   -1.467664   -3.704410
      8          7           0        4.556764   -2.293499   -2.789071
      9          7           0        4.114932   -1.859839   -1.618482
     10          1           0        3.987578   -0.794419    0.758148
     11          1           0        4.017685    0.896191    0.225991
     12          1           0        4.738370    1.384384   -2.175312
 ---------------------------------------------------------------------
                    Distance matrix (angstroms):
                    1          2          3          4          5
     1  N    0.000000
     2  C    1.154862   0.000000
     3  C    2.610221   1.463498   0.000000
     4  C    3.530641   2.458769   1.513790   0.000000
     5  C    4.416737   3.437308   2.559849   1.388330   0.000000
     6  N    5.483415   4.566270   3.768094   2.356850   1.329780
     7  N    5.786220   4.897337   4.172374   2.659743   2.280609
     8  N    5.191183   4.312211   3.656132   2.287047   2.647660
     9  N    4.065523   3.116760   2.429755   1.331983   2.345596
    10  H    3.122342   2.089581   1.094293   2.143830   3.341703
    11  H    3.087763   2.087139   1.094137   2.156040   2.692605
    12  H    4.588045   3.676044   2.846535   2.182546   1.086739
                    6          7          8          9         10
     6  N    0.000000
     7  N    1.324892   0.000000
     8  N    2.304939   1.315800   0.000000
     9  N    2.706404   2.306071   1.324219   0.000000
    10  H    4.432558   4.628892   3.892811   2.607626   0.000000
    11  H    4.008099   4.694013   4.422140   3.317716   1.772642
    12  H    2.058923   3.248038   3.733162   3.350182   3.730424
                   11         12
    11  H    0.000000
    12  H    2.554207   0.000000
 Stoichiometry    C4H3N5
 Framework group  C1[X(C4H3N5)]
 Deg. of freedom    30
 Full point group                 C1      NOp   1
 Largest Abelian subgroup         C1      NOp   1
 Largest concise Abelian subgroup C1      NOp   1
                         Standard orientation:                         
 ---------------------------------------------------------------------
 Center     Atomic      Atomic             Coordinates (Angstroms)
 Number     Number       Type             X           Y           Z
 ---------------------------------------------------------------------
      1          7           0       -3.324283   -0.251005   -0.915465
      2          6           0       -2.449560   -0.057319   -0.186732
      3          6           0       -1.497352    0.302754    0.864683
      4          6           0       -0.068241    0.148285    0.389980
      5          6           0        0.737967    1.213570    0.012281
      6          7           0        1.988486    0.998627   -0.385607
      7          7           0        2.439278   -0.247081   -0.403911
      8          7           0        1.688963   -1.257202   -0.019189
      9          7           0        0.438325   -1.083571    0.379948
     10          1           0       -1.667539   -0.345949    1.729379
     11          1           0       -1.690275    1.335753    1.169361
     12          1           0        0.405553    2.248077    0.029561
 ---------------------------------------------------------------------
 Rotational constants (GHZ):           4.4374820           1.0507033           0.9576850
 Standard basis: 6-31G(2df,p) (6D, 7F)
 There are   294 symmetry adapted cartesian basis functions of A   symmetry.
 There are   267 symmetry adapted basis functions of A   symmetry.
   267 basis functions,   417 primitive gaussians,   294 cartesian basis functions
    31 alpha electrons       31 beta electrons
       nuclear repulsion energy       384.1562755278 Hartrees.
 NAtoms=   12 NActive=   12 NUniq=   12 SFac= 1.00D+00 NAtFMM=   60 NAOKFM=F Big=F
 Integral buffers will be    131072 words long.
 Raffenetti 2 integral format.
 Two-electron integral symmetry is turned on.
 One-electron integrals computed using PRISM.
 PrsmSu:  requested number of processors reduced to:  13 ShMem   1 Linda.
 NBasis=   267 RedAO= T EigKep=  1.19D-04  NBF=   267
 NBsUse=   267 1.00D-06 EigRej= -1.00D+00 NBFU=   267
 Initial guess from the checkpoint file:  "NtCCc1cnnnn1.chk"
 B after Tr=     0.000000   -0.000000    0.000000
         Rot=    0.998724   -0.050170   -0.005315   -0.002203 Ang=  -5.79 deg.
 ExpMin= 1.61D-01 ExpMax= 4.17D+03 ExpMxC= 6.27D+02 IAcc=2 IRadAn=         4 AccDes= 0.00D+00
 Harris functional with IExCor=  402 and IRadAn=       4 diagonalized for initial guess.
 HarFok:  IExCor=  402 AccDes= 0.00D+00 IRadAn=         4 IDoV= 1 UseB2=F ITyADJ=14
 ICtDFT=  3500011 ScaDFX=  1.000000  1.000000  1.000000  1.000000
 FoFCou: FMM=F IPFlag=           0 FMFlag=      100000 FMFlg1=           0
         NFxFlg=           0 DoJE=T BraDBF=F KetDBF=T FulRan=T
         wScrn=  0.000000 ICntrl=       500 IOpCl=  0 I1Cent=   200000004 NGrid=           0
         NMat0=    1 NMatS0=      1 NMatT0=    0 NMatD0=    1 NMtDS0=    0 NMtDT0=    0
 Petite list used in FoFCou.
 Requested convergence on RMS density matrix=1.00D-08 within 128 cycles.
 Requested convergence on MAX density matrix=1.00D-06.
 Requested convergence on             energy=1.00D-06.
 No special actions if energy rises.
 Integral accuracy reduced to 1.0D-05 until final iterations.
 Initial convergence to 1.0D-05 achieved.  Increase integral accuracy.
 SCF Done:  E(RB3LYP) =  -427.872867046     A.U. after   14 cycles
            NFock= 14  Conv=0.66D-08     -V/T= 2.0071
 PrsmSu:  requested number of processors reduced to:  13 ShMem   1 Linda.
 Calling FoFJK, ICntrl=      2127 FMM=F ISym2X=0 I1Cent= 0 IOpClX= 0 NMat=1 NMatS=1 NMatT=0.
 ***** Axes restored to original set *****
 -------------------------------------------------------------------
 Center     Atomic                   Forces (Hartrees/Bohr)
 Number     Number              X              Y              Z
 -------------------------------------------------------------------
      1        7          -0.001504326   -0.003097881   -0.005166357
      2        6           0.000059784    0.006743310    0.011124094
      3        6          -0.001930475   -0.002574184   -0.005399290
      4        6           0.004060254   -0.003088239    0.001409917
      5        6           0.001051319   -0.000610619   -0.003541092
      6        7          -0.000897369    0.002948531    0.002615786
      7        7           0.000980414   -0.000717566   -0.001944412
      8        7          -0.001008803   -0.001775805    0.000107554
      9        7          -0.000329403    0.002699659    0.001467829
     10        1           0.000216340   -0.000743532   -0.000774395
     11        1          -0.000091097    0.000299113   -0.000061043
     12        1          -0.000606637   -0.000082786    0.000161410
 -------------------------------------------------------------------
 Cartesian Forces:  Max     0.011124094 RMS     0.003010814

 GradGradGradGradGradGradGradGradGradGradGradGradGradGradGradGradGradGrad
 Berny optimization.
 Using GEDIIS/GDIIS optimizer.
 FormGI is forming the generalized inverse of G from B-inverse, IUseBI=4.
 Internal  Forces:  Max     0.013418337 RMS     0.002251146
 Search for a local minimum.
 Step number   3 out of a maximum of   57
 All quantities printed in internal units (Hartrees-Bohrs-Radians)
 Mixed Optimization -- RFO/linear search
 Update second derivatives using D2CorX and points    1    3    2
 DE=  3.39D-04 DEPred=-8.41D-04 R=-4.03D-01
 Trust test=-4.03D-01 RLast= 2.46D-01 DXMaxT set to 2.52D-01
 ITU= -1  1  0
 Use linear search instead of GDIIS.
     Eigenvalues ---    0.00489   0.00556   0.01129   0.02418   0.02565
     Eigenvalues ---    0.02573   0.02754   0.05028   0.07255   0.07695
     Eigenvalues ---    0.14759   0.16003   0.16023   0.19569   0.23367
     Eigenvalues ---    0.24850   0.24997   0.25008   0.28650   0.32424
     Eigenvalues ---    0.34177   0.34197   0.35905   0.47118   0.50287
     Eigenvalues ---    0.54524   0.61735   0.64017   0.70418   0.86757
 RFO step:  Lambda=-3.82697793D-03 EMin= 4.89351454D-03
 Quartic linear search produced a step of -0.58741.
 Maximum step size (   0.252) exceeded in Quadratic search.
    -- Step size scaled by   0.830
 Iteration  1 RMS(Cart)=  0.04959235 RMS(Int)=  0.01785799
 Iteration  2 RMS(Cart)=  0.03356991 RMS(Int)=  0.00202123
 Iteration  3 RMS(Cart)=  0.00187337 RMS(Int)=  0.00025524
 Iteration  4 RMS(Cart)=  0.00000028 RMS(Int)=  0.00025524
 Variable       Old X    -DE/DX   Delta X   Delta X   Delta X     New X
                                 (Linear)    (Quad)   (Total)
    R1        2.18237   0.00031  -0.00905   0.04693   0.03788   2.22026
    R2        2.76561   0.00170   0.01453  -0.05786  -0.04333   2.72228
    R3        2.86065   0.00101  -0.00273   0.01192   0.00919   2.86984
    R4        2.06791  -0.00000   0.00034  -0.00142  -0.00108   2.06683
    R5        2.06762   0.00023  -0.00024   0.00139   0.00115   2.06877
    R6        2.62356   0.00105  -0.00481   0.02010   0.01538   2.63894
    R7        2.51708  -0.00204   0.00555  -0.02511  -0.01947   2.49761
    R8        2.51292  -0.00243   0.00550  -0.02526  -0.01975   2.49317
    R9        2.05364  -0.00011  -0.00063   0.00224   0.00161   2.05525
   R10        2.50368   0.00191  -0.00629   0.02712   0.02074   2.52442
   R11        2.48650   0.00196  -0.01020   0.04339   0.03311   2.51961
   R12        2.50241   0.00127  -0.00410   0.01762   0.01352   2.51593
    A1        1.94319   0.00430  -0.00899   0.04400   0.03512   1.97831
    A2        1.89721  -0.00068  -0.00234   0.01069   0.00855   1.90576
    A3        1.89401  -0.00161  -0.00054   0.00108   0.00056   1.89458
    A4        1.91147  -0.00219   0.00812  -0.03937  -0.03135   1.88012
    A5        1.92850  -0.00056   0.00440  -0.01983  -0.01562   1.91288
    A6        1.88833   0.00066  -0.00070   0.00324   0.00209   1.89042
    A7        2.15944  -0.00004  -0.00217   0.00738   0.00430   2.16374
    A8        2.04403  -0.00017   0.00460  -0.02056  -0.01679   2.02724
    A9        2.07915   0.00023  -0.00236   0.00915   0.00628   2.08543
   A10        2.09840   0.00072   0.00022   0.00037   0.00076   2.09916
   A11        2.15134  -0.00076   0.00256  -0.01230  -0.00984   2.14151
   A12        2.03340   0.00005  -0.00276   0.01177   0.00890   2.04230
   A13        2.06699   0.00006  -0.00168   0.00670   0.00504   2.07203
   A14        2.12204  -0.00077   0.00238  -0.01052  -0.00825   2.11379
   A15        2.12471  -0.00051   0.00305  -0.01308  -0.01002   2.11469
   A16        2.07454   0.00027  -0.00141   0.00652   0.00538   2.07992
   A17        3.30018  -0.01342  -0.10239  -0.21573  -0.31812   2.98206
   A18        3.15342  -0.00125  -0.02233   0.02465   0.00233   3.15575
    D1        1.79091  -0.00057   0.00390  -0.01170  -0.00791   1.78299
    D2       -1.38723   0.00010   0.04413  -0.14157  -0.09720  -1.48443
    D3       -2.39359  -0.00011   0.00052   0.00379   0.00387  -2.38972
    D4        0.71145   0.00055   0.04075  -0.12607  -0.08541   0.62604
    D5       -0.31512  -0.00102   0.00761  -0.02899  -0.02136  -0.33648
    D6        2.78992  -0.00035   0.04784  -0.15885  -0.11064   2.67928
    D7        3.13349   0.00049   0.02956  -0.09815  -0.06892   3.06456
    D8        0.00217   0.00012   0.02340  -0.07934  -0.05627  -0.05410
    D9        0.02913  -0.00018  -0.01131   0.03476   0.02361   0.05275
   D10       -3.10218  -0.00055  -0.01747   0.05357   0.03627  -3.06591
   D11       -3.13261  -0.00055  -0.03176   0.10553   0.07350  -3.05911
   D12       -0.02581   0.00007   0.00655  -0.01811  -0.01155  -0.03736
   D13       -0.00610   0.00008   0.00742  -0.02485  -0.01748  -0.02358
   D14        3.12589   0.00043   0.01318  -0.04255  -0.02954   3.09635
   D15       -0.02017   0.00016   0.00095  -0.00041   0.00054  -0.01964
   D16        0.02389  -0.00029  -0.00578   0.01717   0.01146   0.03535
   D17        0.00017   0.00016   0.00180  -0.00730  -0.00555  -0.00538
         Item               Value     Threshold  Converged?
 Maximum Force            0.013418     0.000450     NO 
 RMS     Force            0.002251     0.000300     NO 
 Maximum Displacement     0.235776     0.001800     NO 
 RMS     Displacement     0.066114     0.001200     NO 
 Predicted change in Energy=-2.495817D-03
 GradGradGradGradGradGradGradGradGradGradGradGradGradGradGradGradGradGrad

                          Input orientation:                          
 ---------------------------------------------------------------------
 Center     Atomic      Atomic             Coordinates (Angstroms)
 Number     Number       Type             X           Y           Z
 ---------------------------------------------------------------------
      1          7           0        1.034552    0.009555    0.080604
      2          6           0        2.208550    0.032329    0.120892
      3          6           0        3.638422   -0.095880    0.001434
      4          6           0        4.089697   -0.539509   -1.379091
      5          6           0        4.623874    0.321873   -2.339714
      6          7           0        5.073068   -0.155376   -3.484738
      7          7           0        5.030712   -1.474521   -3.691135
      8          7           0        4.566426   -2.303609   -2.755833
      9          7           0        4.092320   -1.842535   -1.600331
     10          1           0        3.994402   -0.837376    0.722329
     11          1           0        4.096139    0.868241    0.245215
     12          1           0        4.711267    1.394609   -2.183333
 ---------------------------------------------------------------------
                    Distance matrix (angstroms):
                    1          2          3          4          5
     1  N    0.000000
     2  C    1.174909   0.000000
     3  C    2.607206   1.440571   0.000000
     4  C    3.430173   2.472986   1.518652   0.000000
     5  C    4.340358   3.460088   2.574219   1.396467   0.000000
     6  N    5.389664   4.608825   3.770298   2.355489   1.319327
     7  N    5.691906   4.976620   4.180214   2.665578   2.284489
     8  N    5.086280   4.392236   3.652093   2.287956   2.658874
     9  N    3.950409   3.166436   2.412981   1.321678   2.348170
    10  H    3.144807   2.075423   1.093721   2.124564   3.334097
    11  H    3.183984   2.068139   1.094744   2.149458   2.694231
    12  H    4.534536   3.664540   2.854078   2.184941   1.087592
                    6          7          8          9         10
     6  N    0.000000
     7  N    1.335866   0.000000
     8  N    2.324412   1.333318   0.000000
     9  N    2.712815   2.321094   1.331372   0.000000
    10  H    4.396369   4.578052   3.817678   2.532722   0.000000
    11  H    3.989328   4.675127   4.391822   3.279384   1.774011
    12  H    2.055970   3.256904   3.745071   3.346953   3.733433
                   11         12
    11  H    0.000000
    12  H    2.559940   0.000000
 Stoichiometry    C4H3N5
 Framework group  C1[X(C4H3N5)]
 Deg. of freedom    30
 Full point group                 C1      NOp   1
 Largest Abelian subgroup         C1      NOp   1
 Largest concise Abelian subgroup C1      NOp   1
                         Standard orientation:                         
 ---------------------------------------------------------------------
 Center     Atomic      Atomic             Coordinates (Angstroms)
 Number     Number       Type             X           Y           Z
 ---------------------------------------------------------------------
      1          7           0       -3.214763   -0.304896   -0.988325
      2          6           0       -2.516281    0.026376   -0.103569
      3          6           0       -1.501209    0.298791    0.881653
      4          6           0       -0.087764    0.144232    0.348182
      5          6           0        0.731646    1.215882   -0.012724
      6          7           0        1.978995    1.003058   -0.386155
      7          7           0        2.444761   -0.248979   -0.384624
      8          7           0        1.679372   -1.268281    0.006452
      9          7           0        0.412901   -1.078740    0.370701
     10          1           0       -1.618397   -0.394137    1.719713
     11          1           0       -1.643247    1.317878    1.255487
     12          1           0        0.394431    2.249441    0.017203
 ---------------------------------------------------------------------
 Rotational constants (GHZ):           4.3498063           1.0633479           0.9694940
 Standard basis: 6-31G(2df,p) (6D, 7F)
 There are   294 symmetry adapted cartesian basis functions of A   symmetry.
 There are   267 symmetry adapted basis functions of A   symmetry.
   267 basis functions,   417 primitive gaussians,   294 cartesian basis functions
    31 alpha electrons       31 beta electrons
       nuclear repulsion energy       383.8269492549 Hartrees.
 NAtoms=   12 NActive=   12 NUniq=   12 SFac= 1.00D+00 NAtFMM=   60 NAOKFM=F Big=F
 Integral buffers will be    131072 words long.
 Raffenetti 2 integral format.
 Two-electron integral symmetry is turned on.
 One-electron integrals computed using PRISM.
 PrsmSu:  requested number of processors reduced to:  13 ShMem   1 Linda.
 NBasis=   267 RedAO= T EigKep=  1.21D-04  NBF=   267
 NBsUse=   267 1.00D-06 EigRej= -1.00D+00 NBFU=   267
 Lowest energy guess from the checkpoint file:  "NtCCc1cnnnn1.chk"
 B after Tr=     0.000000    0.000000    0.000000
         Rot=    0.998855   -0.047691   -0.002655   -0.002563 Ang=  -5.48 deg.
 B after Tr=    -0.000000    0.000000   -0.000000
         Rot=    0.999993    0.002505    0.002662   -0.000211 Ang=   0.42 deg.
 Requested convergence on RMS density matrix=1.00D-08 within 128 cycles.
 Requested convergence on MAX density matrix=1.00D-06.
 Requested convergence on             energy=1.00D-06.
 No special actions if energy rises.
 Integral accuracy reduced to 1.0D-05 until final iterations.
 Initial convergence to 1.0D-05 achieved.  Increase integral accuracy.
 SCF Done:  E(RB3LYP) =  -427.870807604     A.U. after   14 cycles
            NFock= 14  Conv=0.96D-08     -V/T= 2.0074
 PrsmSu:  requested number of processors reduced to:  13 ShMem   1 Linda.
 Calling FoFJK, ICntrl=      2127 FMM=F ISym2X=0 I1Cent= 0 IOpClX= 0 NMat=1 NMatS=1 NMatT=0.
 ***** Axes restored to original set *****
 -------------------------------------------------------------------
 Center     Atomic                   Forces (Hartrees/Bohr)
 Number     Number              X              Y              Z
 -------------------------------------------------------------------
      1        7           0.043702505    0.005522087    0.005677702
      2        6          -0.059792781   -0.009318932   -0.010011245
      3        6           0.012259494    0.006074613    0.000924387
      4        6           0.006598827    0.004060242    0.003284283
      5        6          -0.004519147   -0.000791860    0.006284502
      6        7           0.001925253   -0.006825356   -0.005381001
      7        7          -0.005036961   -0.003375527    0.011338912
      8        7           0.002072257    0.011704565   -0.007785864
      9        7           0.001069071   -0.006641640   -0.005428821
     10        1           0.000364023    0.000057840    0.000961137
     11        1           0.002458490   -0.000161890    0.000904139
     12        1          -0.001101031   -0.000304143   -0.000768131
 -------------------------------------------------------------------
 Cartesian Forces:  Max     0.059792781 RMS     0.013525036

 GradGradGradGradGradGradGradGradGradGradGradGradGradGradGradGradGradGrad
 Berny optimization.
 Using GEDIIS/GDIIS optimizer.
 FormGI is forming the generalized inverse of G from B-inverse, IUseBI=4.
 Internal  Forces:  Max     0.043970316 RMS     0.007655514
 Search for a local minimum.
 Step number   4 out of a maximum of   57
 All quantities printed in internal units (Hartrees-Bohrs-Radians)
 Mixed Optimization -- RFO/linear search
 Iteration  1 RMS(Cart)=  0.04994740 RMS(Int)=  0.01752754
 Iteration  2 RMS(Cart)=  0.03132697 RMS(Int)=  0.00186653
 Iteration  3 RMS(Cart)=  0.00180650 RMS(Int)=  0.00000059
 Iteration  4 RMS(Cart)=  0.00000099 RMS(Int)=  0.00000000
 Update second derivatives using D2CorX and points    1    4    3    2
 DE=  3.39D-04 DEPred=-2.50D-03 R=-1.36D-01
 Trust test=-1.36D-01 RLast= 2.46D-01 DXMaxT set to 1.26D-01
 ITU= -1 -1  1  0
 Use linear search instead of GDIIS.
 Energy rises -- skip Quadratic/GDIIS search.
 Quartic linear search produced a step of -0.58741.
 Iteration  1 RMS(Cart)=  0.04654982 RMS(Int)=  0.00222959
 Iteration  2 RMS(Cart)=  0.00214472 RMS(Int)=  0.00035135
 Iteration  3 RMS(Cart)=  0.00000269 RMS(Int)=  0.00035134
 Iteration  4 RMS(Cart)=  0.00000000 RMS(Int)=  0.00035134
 Variable       Old X    -DE/DX   Delta X   Delta X   Delta X     New X
                                 (Linear)    (Quad)   (Total)
    R1        2.18237   0.00031  -0.00905   0.00000   0.02884   2.21121
    R2        2.76561   0.00170   0.01453   0.00000  -0.02880   2.73681
    R3        2.86065   0.00101  -0.00273   0.00000   0.00646   2.86710
    R4        2.06791  -0.00000   0.00034   0.00000  -0.00074   2.06717
    R5        2.06762   0.00023  -0.00024   0.00000   0.00090   2.06852
    R6        2.62356   0.00105  -0.00481   0.00000   0.01042   2.63399
    R7        2.51708  -0.00204   0.00555   0.00000  -0.01406   2.50303
    R8        2.51292  -0.00243   0.00550   0.00000  -0.01426   2.49866
    R9        2.05364  -0.00011  -0.00063   0.00000   0.00098   2.05462
   R10        2.50368   0.00191  -0.00629   0.00000   0.01458   2.51826
   R11        2.48650   0.00196  -0.01020   0.00000   0.02305   2.50955
   R12        2.50241   0.00127  -0.00410   0.00000   0.00943   2.51184
    A1        1.94319   0.00430  -0.00899   0.00000   0.02605   1.96925
    A2        1.89721  -0.00068  -0.00234   0.00000   0.00609   1.90330
    A3        1.89401  -0.00161  -0.00054   0.00000   0.00000   1.89402
    A4        1.91147  -0.00219   0.00812   0.00000  -0.02315   1.88832
    A5        1.92850  -0.00056   0.00440   0.00000  -0.01108   1.91742
    A6        1.88833   0.00066  -0.00070   0.00000   0.00170   1.89002
    A7        2.15944  -0.00004  -0.00217   0.00000   0.00354   2.16298
    A8        2.04403  -0.00017   0.00460   0.00000  -0.01084   2.03319
    A9        2.07915   0.00023  -0.00236   0.00000   0.00472   2.08386
   A10        2.09840   0.00072   0.00022   0.00000   0.00072   2.09912
   A11        2.15134  -0.00076   0.00256   0.00000  -0.00711   2.14424
   A12        2.03340   0.00005  -0.00276   0.00000   0.00631   2.03971
   A13        2.06699   0.00006  -0.00168   0.00000   0.00333   2.07032
   A14        2.12204  -0.00077   0.00238   0.00000  -0.00570   2.11634
   A15        2.12471  -0.00051   0.00305   0.00000  -0.00697   2.11774
   A16        2.07454   0.00027  -0.00141   0.00000   0.00356   2.07811
   A17        3.30018  -0.01342  -0.10239   0.00000  -0.42051   2.87967
   A18        3.15342  -0.00125  -0.02233   0.00000  -0.02000   3.13342
    D1        1.79091  -0.00057   0.00390   0.00000  -0.00387   1.78704
    D2       -1.38723   0.00010   0.04413   0.00000  -0.05330  -1.44053
    D3       -2.39359  -0.00011   0.00052   0.00000   0.00476  -2.38884
    D4        0.71145   0.00055   0.04075   0.00000  -0.04468   0.66677
    D5       -0.31512  -0.00102   0.00761   0.00000  -0.01369  -0.32881
    D6        2.78992  -0.00035   0.04784   0.00000  -0.06313   2.72680
    D7        3.13349   0.00049   0.02956   0.00000  -0.03897   3.09452
    D8        0.00217   0.00012   0.02340   0.00000  -0.03249  -0.03032
    D9        0.02913  -0.00018  -0.01131   0.00000   0.01213   0.04126
   D10       -3.10218  -0.00055  -0.01747   0.00000   0.01860  -3.08358
   D11       -3.13261  -0.00055  -0.03176   0.00000   0.04208  -3.09053
   D12       -0.02581   0.00007   0.00655   0.00000  -0.00501  -0.03082
   D13       -0.00610   0.00008   0.00742   0.00000  -0.01000  -0.01610
   D14        3.12589   0.00043   0.01318   0.00000  -0.01617   3.10971
   D15       -0.02017   0.00016   0.00095   0.00000   0.00148  -0.01869
   D16        0.02389  -0.00029  -0.00578   0.00000   0.00560   0.02949
   D17        0.00017   0.00016   0.00180   0.00000  -0.00367  -0.00350
         Item               Value     Threshold  Converged?
 Maximum Force            0.043970     0.000450     NO 
 RMS     Force            0.007656     0.000300     NO 
 Maximum Displacement     0.205068     0.001800     NO 
 RMS     Displacement     0.046740     0.001200     NO 
 Predicted change in Energy=-3.017155D-03
 GradGradGradGradGradGradGradGradGradGradGradGradGradGradGradGradGradGrad

                          Input orientation:                          
 ---------------------------------------------------------------------
 Center     Atomic      Atomic             Coordinates (Angstroms)
 Number     Number       Type             X           Y           Z
 ---------------------------------------------------------------------
      1          7           0        1.061001   -0.064163   -0.027913
      2          6           0        2.216991    0.028734    0.127786
      3          6           0        3.656740   -0.082515    0.017324
      4          6           0        4.108379   -0.534444   -1.358793
      5          6           0        4.634078    0.321498   -2.325132
      6          7           0        5.054733   -0.158717   -3.483040
      7          7           0        4.981443   -1.472524   -3.693717
      8          7           0        4.517604   -2.295284   -2.760180
      9          7           0        4.077596   -1.837882   -1.592288
     10          1           0        4.015954   -0.810282    0.750769
     11          1           0        4.099737    0.890253    0.253242
     12          1           0        4.735174    1.393125   -2.171756
 ---------------------------------------------------------------------
                    Distance matrix (angstroms):
                    1          2          3          4          5
     1  N    0.000000
     2  C    1.170122   0.000000
     3  C    2.596198   1.448260   0.000000
     4  C    3.358411   2.470716   1.517206   0.000000
     5  C    4.265305   3.456129   2.570120   1.393846   0.000000
     6  N    5.281736   4.596301   3.769978   2.355670   1.322236
     7  N    5.549006   4.949733   4.178371   2.663476   2.283024
     8  N    4.938753   4.362823   3.654033   2.287336   2.655256
     9  N    3.833170   3.147183   2.418529   1.324544   2.347265
    10  H    3.145598   2.080463   1.093901   2.129526   3.335292
    11  H    3.197480   2.074292   1.094615   2.151393   2.693885
    12  H    4.496588   3.672969   2.851772   2.183873   1.087257
                    6          7          8          9         10
     6  N    0.000000
     7  N    1.332608   0.000000
     8  N    2.318610   1.327996   0.000000
     9  N    2.710965   2.316555   1.329208   0.000000
    10  H    4.407804   4.596105   3.844950   2.559233   0.000000
    11  H    3.996518   4.683866   4.404880   3.293811   1.773802
    12  H    2.056647   3.254067   3.741382   3.347775   3.730071
                   11         12
    11  H    0.000000
    12  H    2.556809   0.000000
 Stoichiometry    C4H3N5
 Framework group  C1[X(C4H3N5)]
 Deg. of freedom    30
 Full point group                 C1      NOp   1
 Largest Abelian subgroup         C1      NOp   1
 Largest concise Abelian subgroup C1      NOp   1
                         Standard orientation:                         
 ---------------------------------------------------------------------
 Center     Atomic      Atomic             Coordinates (Angstroms)
 Number     Number       Type             X           Y           Z
 ---------------------------------------------------------------------
      1          7           0       -3.094447   -0.398875   -1.027283
      2          6           0       -2.516127    0.033324   -0.106448
      3          6           0       -1.512477    0.376737    0.879559
      4          6           0       -0.096510    0.179278    0.371658
      5          6           0        0.729983    1.218507   -0.052274
      6          7           0        1.971959    0.969928   -0.431763
      7          7           0        2.415666   -0.285628   -0.381296
      8          7           0        1.643497   -1.272164    0.059245
      9          7           0        0.387882   -1.051855    0.435660
     10          1           0       -1.649449   -0.253652    1.763000
     11          1           0       -1.659076    1.420190    1.176031
     12          1           0        0.407411    2.256541   -0.075937
 ---------------------------------------------------------------------
 Rotational constants (GHZ):           4.2329208           1.0905720           0.9956802
 Standard basis: 6-31G(2df,p) (6D, 7F)
 There are   294 symmetry adapted cartesian basis functions of A   symmetry.
 There are   267 symmetry adapted basis functions of A   symmetry.
   267 basis functions,   417 primitive gaussians,   294 cartesian basis functions
    31 alpha electrons       31 beta electrons
       nuclear repulsion energy       384.9453045323 Hartrees.
 NAtoms=   12 NActive=   12 NUniq=   12 SFac= 1.00D+00 NAtFMM=   60 NAOKFM=F Big=F
 Integral buffers will be    131072 words long.
 Raffenetti 2 integral format.
 Two-electron integral symmetry is turned on.
 One-electron integrals computed using PRISM.
 PrsmSu:  requested number of processors reduced to:  13 ShMem   1 Linda.
 NBasis=   267 RedAO= T EigKep=  1.20D-04  NBF=   267
 NBsUse=   267 1.00D-06 EigRej= -1.00D+00 NBFU=   267
 Lowest energy guess from the checkpoint file:  "NtCCc1cnnnn1.chk"
 B after Tr=     0.000000   -0.000000    0.000000
         Rot=    0.999794   -0.020145    0.001426   -0.001995 Ang=  -2.33 deg.
 B after Tr=     0.000000   -0.000000    0.000000
         Rot=    0.999612    0.027558    0.004098    0.000721 Ang=   3.19 deg.
 Requested convergence on RMS density matrix=1.00D-08 within 128 cycles.
 Requested convergence on MAX density matrix=1.00D-06.
 Requested convergence on             energy=1.00D-06.
 No special actions if energy rises.
 Integral accuracy reduced to 1.0D-05 until final iterations.
 Initial convergence to 1.0D-05 achieved.  Increase integral accuracy.
 SCF Done:  E(RB3LYP) =  -427.870070410     A.U. after   13 cycles
            NFock= 13  Conv=0.97D-08     -V/T= 2.0073
 PrsmSu:  requested number of processors reduced to:  13 ShMem   1 Linda.
 Calling FoFJK, ICntrl=      2127 FMM=F ISym2X=0 I1Cent= 0 IOpClX= 0 NMat=1 NMatS=1 NMatT=0.
 ***** Axes restored to original set *****
 -------------------------------------------------------------------
 Center     Atomic                   Forces (Hartrees/Bohr)
 Number     Number              X              Y              Z
 -------------------------------------------------------------------
      1        7           0.029954979    0.009011135    0.011836516
      2        6          -0.042637732   -0.015035797   -0.019797782
      3        6           0.009459095    0.007807944    0.005197281
      4        6           0.003060800    0.001782891    0.002134601
      5        6          -0.002715164   -0.000460556    0.003676926
      6        7           0.001005252   -0.004168018   -0.003049202
      7        7          -0.003340598   -0.002513706    0.007414879
      8        7           0.001719581    0.007724961   -0.005244319
      9        7           0.000636823   -0.003675904   -0.003250951
     10        1           0.000661119    0.000165766    0.000715424
     11        1           0.003023552   -0.000437943    0.000786014
     12        1          -0.000827707   -0.000200773   -0.000419388
 -------------------------------------------------------------------
 Cartesian Forces:  Max     0.042637732 RMS     0.010536782

 GradGradGradGradGradGradGradGradGradGradGradGradGradGradGradGradGradGrad
 Berny optimization.
 Using GEDIIS/GDIIS optimizer.
 FormGI is forming the generalized inverse of G from B-inverse, IUseBI=4.
 Internal  Forces:  Max     0.031883447 RMS     0.006272774
 Search for a local minimum.
 Step number   5 out of a maximum of   57
 All quantities printed in internal units (Hartrees-Bohrs-Radians)
 Mixed Optimization -- RFO/linear search
 Update second derivatives using D2CorX and points    1    4    3    5    2
 ITU=  0 -1 -1  1  0
 Use linear search instead of GDIIS.
 Energy rises -- skip Quadratic/GDIIS search.
 Quartic linear search produced a step of -0.76366.
 Iteration  1 RMS(Cart)=  0.04839733 RMS(Int)=  0.00280434
 Iteration  2 RMS(Cart)=  0.00364856 RMS(Int)=  0.00010945
 Iteration  3 RMS(Cart)=  0.00000395 RMS(Int)=  0.00010941
 Iteration  4 RMS(Cart)=  0.00000000 RMS(Int)=  0.00010941
 Variable       Old X    -DE/DX   Delta X   Delta X   Delta X     New X
                                 (Linear)    (Quad)   (Total)
    R1        2.21121  -0.03188  -0.03378   0.00000  -0.03378   2.17743
    R2        2.73681   0.01154   0.04088   0.00000   0.04088   2.77769
    R3        2.86710  -0.00081  -0.00848   0.00000  -0.00848   2.85862
[...]
    D3        2.13708   0.00001   0.00000   0.00078   0.00078   2.13786
    D4       -1.00413  -0.00000   0.00000   0.00040   0.00040  -1.00373
    D5       -2.13864   0.00001   0.00000   0.00078   0.00078  -2.13786
    D6        1.00333  -0.00000   0.00000   0.00040   0.00040   1.00373
    D7       -3.14132  -0.00001   0.00000  -0.00027  -0.00027  -3.14159
    D8        0.00024  -0.00000   0.00000  -0.00024  -0.00024   0.00000
    D9       -0.00012   0.00000   0.00000   0.00012   0.00012   0.00000
   D10        3.14144   0.00000   0.00000   0.00015   0.00015  -3.14159
   D11        3.14131   0.00001   0.00000   0.00028   0.00028   3.14159
   D12        0.00007  -0.00000   0.00000  -0.00007  -0.00007  -0.00000
   D13        0.00010  -0.00000   0.00000  -0.00010  -0.00010  -0.00000
   D14       -3.14147  -0.00000   0.00000  -0.00012  -0.00012   3.14159
   D15       -0.00002   0.00000   0.00000   0.00002   0.00002  -0.00000
   D16       -0.00004   0.00000   0.00000   0.00004   0.00004   0.00000
   D17        0.00001  -0.00000   0.00000  -0.00001  -0.00001  -0.00000
         Item               Value     Threshold  Converged?
 Maximum Force            0.000051     0.000450     YES
 RMS     Force            0.000014     0.000300     YES
 Maximum Displacement     0.000761     0.001800     YES
 RMS     Displacement     0.000251     0.001200     YES
 Predicted change in Energy=-2.570421D-08
 Optimization completed.
    -- Stationary point found.
                           ----------------------------
                           !   Optimized Parameters   !
                           ! (Angstroms and Degrees)  !
 --------------------------                            --------------------------
 ! Name  Definition              Value          Derivative Info.                !
 --------------------------------------------------------------------------------
 ! R1    R(1,2)                  1.1548         -DE/DX =   -0.0001              !
 ! R2    R(2,3)                  1.4597         -DE/DX =    0.0                 !
 ! R3    R(3,4)                  1.5151         -DE/DX =    0.0                 !
 ! R4    R(3,10)                 1.096          -DE/DX =    0.0                 !
 ! R5    R(3,11)                 1.096          -DE/DX =    0.0                 !
 ! R6    R(4,5)                  1.3918         -DE/DX =    0.0                 !
 ! R7    R(4,9)                  1.3283         -DE/DX =    0.0                 !
 ! R8    R(5,6)                  1.3261         -DE/DX =    0.0                 !
 ! R9    R(5,12)                 1.0858         -DE/DX =    0.0                 !
 ! R10   R(6,7)                  1.3291         -DE/DX =    0.0                 !
 ! R11   R(7,8)                  1.3156         -DE/DX =    0.0                 !
 ! R12   R(8,9)                  1.3272         -DE/DX =    0.0                 !
 ! A1    A(2,3,4)              113.8589         -DE/DX =    0.0                 !
 ! A2    A(2,3,10)             109.5808         -DE/DX =    0.0                 !
 ! A3    A(2,3,11)             109.595          -DE/DX =    0.0                 !
 ! A4    A(4,3,10)             108.7355         -DE/DX =    0.0                 !
 ! A5    A(4,3,11)             108.7462         -DE/DX =    0.0                 !
 ! A6    A(10,3,11)            106.024          -DE/DX =    0.0                 !
 ! A7    A(3,4,5)              125.2689         -DE/DX =    0.0                 !
 ! A8    A(3,4,9)              115.4452         -DE/DX =    0.0                 !
 ! A9    A(5,4,9)              119.2859         -DE/DX =    0.0                 !
 ! A10   A(4,5,6)              120.0793         -DE/DX =    0.0                 !
 ! A11   A(4,5,12)             122.8687         -DE/DX =    0.0                 !
 ! A12   A(6,5,12)             117.052          -DE/DX =    0.0                 !
 ! A13   A(5,6,7)              118.596          -DE/DX =    0.0                 !
 ! A14   A(6,7,8)              121.4775         -DE/DX =    0.0                 !
 ! A15   A(7,8,9)              121.6645         -DE/DX =    0.0                 !
 ! A16   A(4,9,8)              118.8969         -DE/DX =    0.0                 !
 ! A17   L(1,2,3,8,-1)         178.8371         -DE/DX =    0.0                 !
 ! A18   L(1,2,3,8,-2)         180.0506         -DE/DX =    0.0                 !
 ! D1    D(2,3,4,5)             -0.0315         -DE/DX =    0.0                 !
 ! D2    D(2,3,4,9)           -180.0098         -DE/DX =    0.0                 !
 ! D3    D(10,3,4,5)           122.4457         -DE/DX =    0.0                 !
 ! D4    D(10,3,4,9)           -57.5325         -DE/DX =    0.0                 !
 ! D5    D(11,3,4,5)          -122.535          -DE/DX =    0.0                 !
 ! D6    D(11,3,4,9)            57.4868         -DE/DX =    0.0                 !
 ! D7    D(3,4,5,6)           -179.9846         -DE/DX =    0.0                 !
 ! D8    D(3,4,5,12)             0.0139         -DE/DX =    0.0                 !
 ! D9    D(9,4,5,6)             -0.0071         -DE/DX =    0.0                 !
 ! D10   D(9,4,5,12)          -180.0086         -DE/DX =    0.0                 !
 ! D11   D(3,4,9,8)            179.9837         -DE/DX =    0.0                 !
 ! D12   D(5,4,9,8)              0.004          -DE/DX =    0.0                 !
 ! D13   D(4,5,6,7)              0.0055         -DE/DX =    0.0                 !
 ! D14   D(12,5,6,7)           180.0069         -DE/DX =    0.0                 !
 ! D15   D(5,6,7,8)             -0.001          -DE/DX =    0.0                 !
 ! D16   D(6,7,8,9)             -0.002          -DE/DX =    0.0                 !
 ! D17   D(7,8,9,4)              0.0004         -DE/DX =    0.0                 !
 --------------------------------------------------------------------------------
 GradGradGradGradGradGradGradGradGradGradGradGradGradGradGradGradGradGrad


 ----------------------------------------------------------------------

 Electric dipole moment (input orientation):
 (Debye = 10**-18 statcoulomb cm , SI units = C m)
                  (au)            (Debye)         (10**-30 SI)
   Tot        0.101440D+01      0.257835D+01      0.860045D+01
   x         -0.242368D+00     -0.616039D+00     -0.205489D+01
   y         -0.701406D-01     -0.178280D+00     -0.594677D+00
   z          0.982521D+00      0.249732D+01      0.833016D+01

 Dipole polarizability, Alpha (input orientation).
 (esu units = cm**3 , SI units = C**2 m**2 J**-1)
 Alpha(0;0):
               (au)            (10**-24 esu)      (10**-40 SI)
   iso        0.655594D+02      0.971490D+01      0.108093D+02
   aniso      0.462807D+02      0.685810D+01      0.763066D+01
   xx         0.610836D+02      0.905166D+01      0.100713D+02
   yx        -0.224318D+02     -0.332404D+01     -0.369850D+01
   yy         0.628619D+02      0.931517D+01      0.103645D+02
   zx        -0.128680D+02     -0.190684D+01     -0.212164D+01
   zy         0.241203D+01      0.357426D+00      0.397690D+00
   zz         0.727327D+02      0.107779D+02      0.119920D+02

 ----------------------------------------------------------------------

 Dipole orientation:
     7          3.34923219          2.89814427         -0.96193045
     6          4.74946197          1.23757882         -1.17149027
     6          6.51456475         -0.85779709         -1.49205234
     6          7.06006051         -1.50440518         -4.22742021
     6          6.02693491         -0.27897876         -6.31279692
     7          6.64156826         -1.00853048         -8.63013311
     7          8.25050975         -2.91778771         -8.90229946
     7          9.23027800         -4.08018700         -6.93524047
     7          8.66082202         -3.40406246         -4.58804578
     1          5.77044579         -2.54320257         -0.54567145
     1          8.30141486         -0.41197150         -0.54437419
     1          4.70889517          1.28473101         -6.14548244

 Electric dipole moment (dipole orientation):
 (Debye = 10**-18 statcoulomb cm , SI units = C m)
                  (au)            (Debye)         (10**-30 SI)
   Tot        0.101440D+01      0.257835D+01      0.860045D+01
   x          0.000000D+00      0.000000D+00      0.000000D+00
   y          0.000000D+00      0.000000D+00      0.000000D+00
   z          0.101440D+01      0.257835D+01      0.860045D+01

 Dipole polarizability, Alpha (dipole orientation).
 (esu units = cm**3 , SI units = C**2 m**2 J**-1)
 Alpha(0;0):
               (au)            (10**-24 esu)      (10**-40 SI)
   iso        0.655594D+02      0.971490D+01      0.108093D+02
   aniso      0.462807D+02      0.685810D+01      0.763066D+01
   xx         0.561340D+02      0.831819D+01      0.925524D+01
   yx        -0.218170D+02     -0.323295D+01     -0.359714D+01
   yy         0.636323D+02      0.942933D+01      0.104915D+02
   zx        -0.726907D+01     -0.107717D+01     -0.119851D+01
   zy         0.862723D+01      0.127842D+01      0.142244D+01
   zz         0.769120D+02      0.113972D+02      0.126811D+02

 ----------------------------------------------------------------------
 1\1\GINC-LEWIS4-Z10PH-HPC3-NODE403\Freq\RB3LYP\6-31G(2df,p)\C4H3N5\KS2
 9C\04-Aug-2022\0\\#N Geom=AllCheck Guess=TCheck SCRF=Check GenChk RB3L
 YP/6-31G(2df,p) Freq\\Title Card Required\\0,1\N,1.8296927546,1.550230
 3551,0.036469013\C,2.5830453408,0.6750805286,0.0453381356\C,3.53984677
 71,-0.42716109,0.0275365278\C,4.1688577136,-0.6708361181,-1.3291561228
 \C,3.8962277353,0.0569484142,-2.4837936878\N,4.5082782419,-0.246114650
 7,-3.6205191556\N,5.3778936018,-1.2511829953,-3.6264499157\N,5.6377864
 895,-1.9411298227,-2.5368957633\N,5.0454116527,-1.6675636853,-1.381109
 3139\H,3.045323973,-1.3481965418,0.3568492257\H,4.3361873055,-0.234424
 0476,0.7554988021\H,3.1908784142,0.8821496535,-2.5074677453\\Version=E
 S64L-G16RevA.03\State=1-A\HF=-427.8768229\RMSD=9.413e-09\RMSF=1.899e-0
 5\ZeroPoint=0.0769244\Thermal=0.0843795\Dipole=-0.2423685,-0.0701406,0
 .9825211\DipoleDeriv=-0.262866,-0.0449111,0.0252712,-0.0426613,-0.2348
 253,-0.0279819,0.0188454,-0.0205098,-0.2976781,0.1063786,-0.0193001,-0
 .0033196,-0.0252665,0.1088618,0.0265295,0.0130489,0.0075254,0.0254132,
 0.134321,-0.0202374,-0.0128464,-0.0496307,0.1454824,0.0695606,0.069404
 5,-0.025996,-0.0390908,0.2154642,0.10845,-0.2214061,0.1609781,0.019866
 6,0.0962684,-0.368313,0.2665793,0.6884758,0.1909551,-0.0507899,0.10687
 12,-0.0859368,0.2739769,0.015603,0.2052771,-0.098413,-0.2102209,-0.154
 7945,0.0441454,-0.1701704,-0.023747,-0.1975865,0.1567766,0.0201123,-0.
 0635185,-0.0563428,-0.0637523,-0.0409219,0.0752359,0.0030377,-0.041112
 3,-0.1073276,-0.0479388,0.0353018,-0.0192301,-0.0441261,-0.0265875,-0.
 0805007,-0.0648558,-0.0359287,0.0537756,0.0266843,-0.0703775,0.0186931
 ,-0.2041469,-0.0401393,0.2006983,0.021949,-0.1436437,-0.1640893,0.0269
 771,0.037152,-0.3683908,0.0285367,0.018044,0.0627701,0.0292383,0.01202
 41,-0.0286405,0.043799,-0.0209115,0.0746321,0.010632,0.0417542,0.01328
 91,0.0398192,0.0550963,-0.0631982,0.0064798,-0.0409526,0.0496397,0.043
 3982,0.0304935,0.0041075,0.0370757,0.0377883,-0.0272764,-0.0143765,-0.
 0058797,0.1340996\Polar=61.0836252,-22.4317646,62.8619129,-12.8679639,
 2.4120305,72.7326688\Quadrupole=-1.2707391,-0.8047792,2.0755183,7.8533
 089,4.7143957,-3.7153805\PG=C01 [X(C4H3N5)]\NImag=0\\0.54931862,-0.615
 72692,0.73394926,0.00564724,-0.00590406,0.01734953,-0.55937215,0.60489
 835,-0.00554160,0.74227865,0.60455550,-0.74008959,0.00518163,-0.735443
 31,0.95831472,-0.00447386,0.00394658,-0.03502844,-0.00097080,-0.000465
 34,0.11119248,0.00945259,0.01174512,-0.00044881,-0.15666552,0.09646672
 ,0.00073196,0.52182503,0.01177597,0.00551138,0.00075936,0.09630582,-0.
 18441199,-0.00084036,0.00134929,0.53473542,-0.00064135,0.00098066,0.01
 878599,0.00128000,-0.00147179,-0.07323269,0.02979719,-0.01191237,0.469
 25731,0.00304488,-0.00186935,-0.00108469,-0.01798859,0.01032406,0.0187
 8413,-0.08650634,0.00624863,0.03638692,0.39349298,-0.00089093,0.001128
 52,0.00278988,0.01467840,-0.01127359,-0.02517992,0.00604987,-0.0750777
 2,-0.00502616,-0.22524855,0.46694966,-0.00382834,0.00596707,-0.0031980
 6,0.00662697,-0.01109243,0.00627469,0.03696023,-0.00567261,-0.17380466
 ,-0.07290143,-0.08285297,0.64505332,-0.00040865,0.00070512,-0.00092490
 ,0.00169767,-0.00201974,0.00155063,0.00942323,-0.00540766,0.01464248,-
 0.11714935,0.05417047,-0.04868473,0.43408903,0.00039006,-0.00092641,0.
 00109261,-0.00099038,0.00191278,-0.00093623,0.00022415,0.01094696,-0.0
 0545039,0.03545075,-0.16719830,0.11423981,-0.30348842,0.52222669,-0.00
 004314,0.00007114,-0.00014505,-0.00133155,0.00240255,-0.00197641,-0.00
 114311,0.01281938,-0.02293727,0.00375120,0.05351899,-0.24751484,-0.087
 41191,-0.07205594,0.63056343,0.00031438,-0.00047065,0.00062405,-0.0008
 4569,0.00151984,-0.00002399,0.00439766,0.00424688,-0.00255417,0.058965
 54,-0.04336698,0.04170849,-0.13420951,0.06247090,0.07599283,0.28029857
 ,-0.00033542,0.00069794,-0.00058585,0.00148533,-0.00122734,-0.00009784
 ,0.00401032,0.00070231,0.00540940,-0.02905250,0.07195744,-0.01102861,0
 .05074259,-0.11534890,-0.00069786,-0.18839182,0.30208276,0.00024561,-0
 .00014740,-0.00028338,0.00006811,-0.00020604,0.00081377,-0.00189849,0.
 00463749,0.00041506,0.00161854,0.03541077,-0.07005623,0.10886539,-0.03
 876656,-0.30144970,-0.11629716,-0.00589518,0.47564348,-0.00002997,0.00
 007673,0.00005087,0.00006557,-0.00078113,-0.00001228,-0.00453085,-0.00
 320818,0.00019731,-0.03957027,0.02223116,-0.02877644,-0.03009380,0.036
 01572,0.07993806,-0.14734156,0.07735895,0.01022386,0.25839708,0.000043
 78,0.00006362,-0.00017552,-0.00087161,0.00036280,0.00009962,-0.0033356
 8,-0.00280348,-0.00158792,0.02752259,-0.07166528,0.02953762,0.05407449
 ,-0.00186275,-0.09840334,0.06877211,-0.16003844,0.00836232,-0.16232391
 ,0.29104345,0.00014247,-0.00028185,0.00037897,0.00024541,-0.00019761,-
 0.00085463,0.00056816,-0.00201150,-0.00343353,-0.04359875,0.04669926,-
 0.01861670,0.02934485,-0.03980075,0.04194559,0.03427261,-0.01949104,-0
 .13401091,-0.08132663,-0.02762434,0.43444783,0.00005410,-0.00030589,-0
 .00007787,-0.00006704,0.00053227,0.00107851,0.00668513,0.00960826,-0.0
 0304201,-0.02846041,0.04978862,0.03488257,-0.01332032,-0.01742103,0.00
 162508,0.01926613,0.05530862,-0.02452897,-0.11900444,0.04797667,-0.012
 00628,0.26862851,-0.00020169,-0.00008993,0.00025067,0.00098765,0.00007
 427,-0.00137828,0.00892455,0.00184056,0.00520125,0.03125227,0.00454054
 ,-0.04328076,-0.02316823,-0.01012233,0.02547121,0.08115534,-0.04589792
 ,0.03183028,0.03689814,-0.14302069,0.05322701,-0.18057685,0.31568492,-
 0.00036961,0.00058849,-0.00068423,-0.00019808,0.00009999,0.00109316,-0
 .00114935,0.00300017,0.00934863,0.08682063,-0.10342574,0.03331990,0.01
 772128,0.00682286,-0.10447624,-0.09694241,0.11569526,0.04987147,0.0190
 2983,0.01728010,-0.19143811,-0.06289459,-0.03694844,0.40095481,-0.0006
 6855,0.00107198,-0.00092740,-0.00030560,0.00053110,0.00423870,-0.02144
 803,0.01521935,0.01437187,-0.17433874,0.12428054,0.01860877,0.01732860
 ,0.04348533,-0.06386495,-0.06617400,0.02006722,0.01755388,0.07186941,-
 0.03793471,0.06680536,-0.12970725,0.04845766,0.04019065,0.29746232,0.0
 0044150,-0.00067079,0.00036339,0.00093950,0.00094579,-0.00159990,0.010
 45424,-0.01042850,-0.01554116,0.13525727,-0.22001191,0.00574816,0.0309
 4561,-0.02313219,0.06297007,0.01187589,-0.04678228,-0.02912214,-0.0122
 5626,0.07782647,-0.01100212,0.03976997,-0.12012662,-0.00401959,-0.2202
 2611,0.34047695,0.00083740,-0.00168117,0.00196185,0.00310351,-0.000280
 59,-0.00780871,0.02772046,-0.03100017,-0.00695060,-0.01212667,0.041347
 10,-0.13776845,-0.02874944,0.02229845,0.06599862,0.04053512,-0.0557362
 7,-0.01880120,-0.00513833,0.07232964,-0.12624535,0.06451872,-0.0322023
 4,-0.19464398,-0.09138103,-0.01749647,0.42465551,-0.00388929,-0.000299
 01,0.00115817,0.01209712,0.02315254,-0.00852491,-0.09875896,-0.1006421
 2,0.03692541,-0.00614749,-0.00996780,0.00382256,-0.00088043,0.00061578
 ,0.00056580,0.00054344,0.00011749,0.00003351,-0.00058690,-0.00007397,-
 0.00024442,0.00060973,0.00038503,0.00003870,0.00133085,0.00023447,0.00
 031731,0.10657310,0.00083427,0.00309860,-0.00053976,-0.00530407,-0.027
 60923,0.00622624,-0.10143494,-0.22899290,0.06417396,0.00182312,0.00651
 663,0.00079883,0.00027897,0.00001522,-0.00086696,-0.00030140,-0.000469
 97,-0.00004303,0.00013332,0.00027498,-0.00075838,-0.00044457,0.0005417
 5,0.00134946,0.00085989,-0.00089984,-0.00174438,0.10667268,0.25251985,
 0.00110920,-0.00047714,0.00064391,-0.00263788,0.00046992,-0.00084501,0
 .03762937,0.06495534,-0.06214498,0.01629003,0.02437037,-0.01499156,0.0
 0178297,-0.00225273,-0.00202742,-0.00121919,-0.00022931,-0.00118930,0.
 00110243,0.00047638,0.00087403,-0.00159013,-0.00128427,-0.00149090,-0.
 00193834,0.00177826,0.00241537,-0.04091848,-0.07009911,0.07247220,0.00
 255654,0.00019731,0.00123138,-0.02104994,0.00139957,-0.01279842,-0.182
 90051,-0.03465084,-0.12718738,0.01184841,0.00252575,0.00965882,-0.0010
 6380,0.00044975,0.00135979,-0.00067851,-0.00063511,0.00003156,0.000278
 21,0.00021065,0.00066043,0.00028350,-0.00063978,-0.00095741,-0.0004569
 6,0.00006422,0.00073801,-0.01094135,-0.00319099,-0.00977573,0.20203902
 ,-0.00078275,-0.00268179,-0.00269663,0.02327069,0.00298061,0.02020043,
 -0.03388350,-0.05115325,-0.03413426,-0.00374247,-0.00090018,-0.0006716
 9,-0.00006650,-0.00029286,-0.00024390,0.00004005,0.00008857,0.00038471
 ,0.00005081,-0.00019610,-0.00023129,-0.00030907,0.00001639,0.00061674,
 0.00134048,0.00070341,-0.00075333,-0.02025942,-0.00502672,-0.01789298,
 0.03418159,0.05636157,0.00085453,-0.00226494,-0.00002796,-0.00027757,0
 .00462388,0.00172576,-0.12781870,-0.03498943,-0.15591183,-0.01824893,-
 0.00635760,-0.02556199,0.00252661,-0.00162015,-0.00154019,0.00056010,0
 .00140293,-0.00052875,-0.00081239,-0.00131773,0.00048306,0.00206116,0.
 00163685,-0.00064139,-0.00231559,0.00187966,0.00260456,0.00670455,0.00
 159742,0.00620386,0.13692178,0.03550347,0.17321856,-0.00037249,-0.0000
 2279,0.00029356,0.00015552,-0.00023743,0.00042033,-0.00097343,-0.00084
 541,-0.00017628,0.00280939,0.00574944,0.00192255,-0.16541266,0.1427974
 1,-0.00943811,-0.01453646,0.00932434,0.00408417,0.01054751,0.00593960,
 0.00513677,-0.00496763,-0.00347409,-0.00128964,0.00510794,0.00249969,-
 0.00037507,0.00005016,0.00007372,0.00016575,0.00008538,0.00016010,-0.0
 0015557,0.16750676,-0.00010337,0.00000918,-0.00053573,0.00004363,0.000
 02077,0.00002502,-0.00057014,-0.00086878,-0.00064122,0.01203418,-0.004
 96581,-0.00169243,0.14323329,-0.21621790,0.01501467,0.00244984,-0.0057
 6417,-0.00644523,0.00580464,0.01001542,0.00147262,-0.00392699,-0.00344
 096,-0.00105929,0.00284728,0.00209952,0.00491954,0.00006433,0.00003163
 ,0.00018528,0.00008788,0.00010035,-0.00009435,-0.16196457,0.21898075,0
 .00051982,-0.00079738,0.00024688,-0.00036651,0.00093585,-0.00135397,-0
 .00094892,0.00025470,0.00060858,-0.01569099,0.01870600,0.00686458,-0.0
 1066323,0.01642903,-0.05644052,0.02334373,-0.02874562,-0.00042431,0.00
 552371,0.00102318,-0.00353026,-0.00002621,-0.00252319,-0.00121313,-0.0
 0134192,0.00604184,-0.00541762,0.00012179,-0.00009427,0.00007981,0.000
 11718,-0.00008127,-0.00002369,-0.00058846,-0.01114887,0.06060365\\-0.0
 0004736,0.00002587,-0.00000130,0.00005441,-0.00001838,-0.00000488,-0.0
 0000087,0.00000706,-0.00000191,0.00000159,0.00003880,-0.00001250,0.000
 01985,-0.00003740,0.00001263,-0.00000030,0.00000166,0.00001102,-0.0000
 1380,0.00000146,0.00002736,-0.00001744,0.00001387,0.00000586,0.0000120
 4,-0.00001437,-0.00002925,-0.00000473,-0.00001150,-0.00000686,0.000000
 02,-0.00000426,-0.00000410,-0.00000342,-0.00000279,0.00000392\\\@


 E PUR SI MUOVE    -- GALILEO GALILEI
 Job cpu time:       0 days  1 hours 11 minutes 55.1 seconds.
 Elapsed time:       0 days  0 hours 17 minutes 59.5 seconds.
 File lengths (MBytes):  RWF=     83 Int=      0 D2E=      0 Chk=      7 Scr=      1
 Normal termination of Gaussian 16 at Thu Aug  4 03:20:34 2022.
### All Done ###
