### Starting Gaussian ###
 Entering Gaussian System, Link 0=g16
 Initial command:
 /cluster/software/gaussian/gaussian-16-A.03/avx2/g16/l1.exe "/local/scratch/yxie/Gau-13805.inp" -scrdir="/local/scratch/yxie/"
 Entering Link 1 = /cluster/software/gaussian/gaussian-16-A.03/avx2/g16/l1.exe PID=     13808.
  
 Copyright (c) 1988,1990,1992,1993,1995,1998,2003,2009,2016,
            Gaussian, Inc.  All Rights Reserved.
  
 This is part of the Gaussian(R) 16 program.  It is based on
 the Gaussian(R) 09 system (copyright 2009, Gaussian, Inc.),
 the Gaussian(R) 03 system (copyright 2003, Gaussian, Inc.),
 the Gaussian(R) 98 system (copyright 1998, Gaussian, Inc.),
 the Gaussian(R) 94 system (copyright 1995, Gaussian, Inc.),
 the Gaussian 92(TM) system (copyright 1992, Gaussian, Inc.),
 the Gaussian 90(TM) system (copyright 1990, Gaussian, Inc.),
 the Gaussian 88(TM) system (copyright 1988, Gaussian, Inc.),
 the Gaussian 86(TM) system (copyright 1986, Carnegie Mellon
 University), and the Gaussian 82(TM) system (copyright 1983,
 Carnegie Mellon University). Gaussian is a federally registered
 trademark of Gaussian, Inc.
  
 This software contains proprietary and confidential information,
 including trade secrets, belonging to Gaussian, Inc.
  
 This software is provided under written license and may be
 used, copied, transmitted, or stored only in accord with that
 written license.
  
 The following legend is applicable only to US Government
 contracts under FAR:
  
                    RESTRICTED RIGHTS LEGEND
  
 Use, reproduction and disclosure by the US Government is
 subject to restrictions as set forth in subparagraphs (a)
 and (c) of the Commercial Computer Software - Restricted
 Rights clause in FAR 52.227-19.
  
 Gaussian, Inc.
 340 Quinnipiac St., Bldg. 40, Wallingford CT 06492
  
  
 ---------------------------------------------------------------
 Warning -- This program may not be used in any manner that
 competes with the business of Gaussian, Inc. or will provide
 assistance to any competitor of Gaussian, Inc.  The licensee
 of this program is prohibited from giving any competitor of
 Gaussian, Inc. access to this program.  By using this program,
 the user acknowledges that Gaussian, Inc. is engaged in the
 business of creating and licensing software in the field of
 computational chemistry and represents and warrants to the
 licensee that it is not a competitor of Gaussian, Inc. and that
 it will not use this program in any manner prohibited above.
 ---------------------------------------------------------------
  

 Cite this work as:
 Gaussian 16, Revision A.03,
 M. J. Frisch, G. W. Trucks, H. B. Schlegel, G. E. Scuseria, 
 M. A. Robb, J. R. Cheeseman, G. Scalmani, V. Barone, 
 G. A. Petersson, H. Nakatsuji, X. Li, M. Caricato, A. V. Marenich, 
 J. Bloino, B. G. Janesko, R. Gomperts, B. Mennucci, H. P. Hratchian, 
 J. V. Ortiz, A. F. Izmaylov, J. L. Sonnenberg, D. Williams-Young, 
 F. Ding, F. Lipparini, F. Egidi, J. Goings, B. Peng, A. Petrone, 
 T. Henderson, D. Ranasinghe, V. G. Zakrzewski, J. Gao, N. Rega, 
 G. Zheng, W. Liang, M. Hada, M. Ehara, K. Toyota, R. Fukuda, 
 J. Hasegawa, M. Ishida, T. Nakajima, Y. Honda, O. Kitao, H. Nakai, 
 T. Vreven, K. Throssell, J. A. Montgomery, Jr., J. E. Peralta, 
 F. Ogliaro, M. J. Bearpark, J. J. Heyd, E. N. Brothers, K. N. Kudin, 
 V. N. Staroverov, T. A. Keith, R. Kobayashi, J. Normand, 
 K. Raghavachari, A. P. Rendell, J. C. Burant, S. S. Iyengar, 
 J. Tomasi, M. Cossi, J. M. Millam, M. Klene, C. Adamo, R. Cammi, 
 J. W. Ochterski, R. L. Martin, K. Morokuma, O. Farkas, 
 J. B. Foresman, and D. J. Fox, Gaussian, Inc., Wallingford CT, 2016.
 
 ******************************************
 Gaussian 16:  ES64L-G16RevA.03 25-Dec-2016
                 3-Aug-2022 
 ******************************************
 %chk=NtCCCCC1CCO1.chk
 %NProcShared=20
 Will use up to   20 processors via shared memory.
 -----------------------------
 # opt freq b3lyp/6-31g(2df,p)
 -----------------------------
 1/18=20,19=15,26=3,38=1/1,3;
 2/9=110,12=2,17=6,18=5,40=1/2;
 3/5=1,6=6,7=104,11=2,25=1,30=1,71=1,74=-5/1,2,3;
 4//1;
 5/5=2,38=5/2;
 6/7=2,8=2,9=2,10=2,28=1/1;
 7//1,2,3,16;
 1/18=20,19=15,26=3/3(2);
 2/9=110/2;
 99//99;
 2/9=110/2;
 3/5=1,6=6,7=104,11=2,25=1,30=1,71=1,74=-5/1,2,3;
 4/5=5,16=3,69=1/1;
 5/5=2,38=5/2;
 7//1,2,3,16;
 1/18=20,19=15,26=3/3(-5);
 2/9=110/2;
 6/7=2,8=2,9=2,10=2,19=2,28=1/1;
 99/9=1/99;
 -------------------
 Title Card Required
 -------------------
 Symbolic Z-matrix:
 Charge =  0 Multiplicity = 1
 N                     1.08515  -0.05229   0.00386 
 C                     2.34612  -0.05229   0.00386 
 C                     3.86612  -0.05229   0.00386 
 C                     4.37147   1.37147   0.27333 
 C                     5.89478   1.40201   0.28048 
 C                     6.51246   2.78307   0.42707 
 C                     6.09353   3.96763  -0.46488 
 C                     6.28209   4.76331   0.83419 
 O                     6.06324   3.53108   1.60236 
 H                     4.22293  -0.41179  -0.9675 
 H                     4.22333  -0.74142   0.77685 
 H                     3.98073   1.73614   1.23204 
 H                     3.97475   2.04309  -0.49688 
 H                     6.25987   0.96567  -0.65689 
 H                     6.26069   0.75656   1.08874 
 H                     7.60597   2.66479   0.47956 
 H                     5.05763   3.96517  -0.81677 
 H                     6.76822   4.20192  -1.2869 
 H                     5.53832   5.53362   1.03772 
 H                     7.29259   5.15829   1.0013 
 

 GradGradGradGradGradGradGradGradGradGradGradGradGradGradGradGradGradGrad
 Berny optimization.
 Initialization pass.
                           ----------------------------
                           !    Initial Parameters    !
                           ! (Angstroms and Degrees)  !
 --------------------------                            --------------------------
 ! Name  Definition              Value          Derivative Info.                !
 --------------------------------------------------------------------------------
 ! R1    R(1,2)                  1.261          estimate D2E/DX2                !
 ! R2    R(2,3)                  1.52           estimate D2E/DX2                !
 ! R3    R(3,4)                  1.5346         estimate D2E/DX2                !
 ! R4    R(3,10)                 1.0955         estimate D2E/DX2                !
 ! R5    R(3,11)                 1.0955         estimate D2E/DX2                !
 ! R6    R(4,5)                  1.5236         estimate D2E/DX2                !
 ! R7    R(4,12)                 1.0976         estimate D2E/DX2                !
 ! R8    R(4,13)                 1.0962         estimate D2E/DX2                !
 ! R9    R(5,6)                  1.52           estimate D2E/DX2                !
 ! R10   R(5,14)                 1.0965         estimate D2E/DX2                !
 ! R11   R(5,15)                 1.0972         estimate D2E/DX2                !
 ! R12   R(6,7)                  1.5409         estimate D2E/DX2                !
 ! R13   R(6,9)                  1.4638         estimate D2E/DX2                !
 ! R14   R(6,16)                 1.1011         estimate D2E/DX2                !
 ! R15   R(7,8)                  1.535          estimate D2E/DX2                !
 ! R16   R(7,17)                 1.094          estimate D2E/DX2                !
 ! R17   R(7,18)                 1.089          estimate D2E/DX2                !
 ! R18   R(8,9)                  1.4685         estimate D2E/DX2                !
 ! R19   R(8,19)                 1.09           estimate D2E/DX2                !
 ! R20   R(8,20)                 1.0977         estimate D2E/DX2                !
 ! A1    A(2,3,4)              109.2262         estimate D2E/DX2                !
 ! A2    A(2,3,10)             109.0085         estimate D2E/DX2                !
 ! A3    A(2,3,11)             109.0313         estimate D2E/DX2                !
 ! A4    A(4,3,10)             110.6647         estimate D2E/DX2                !
 ! A5    A(4,3,11)             110.6312         estimate D2E/DX2                !
 ! A6    A(10,3,11)            108.242          estimate D2E/DX2                !
 ! A7    A(3,4,5)              110.4047         estimate D2E/DX2                !
 ! A8    A(3,4,12)             110.1438         estimate D2E/DX2                !
 ! A9    A(3,4,13)             109.0179         estimate D2E/DX2                !
 ! A10   A(5,4,12)             110.1911         estimate D2E/DX2                !
 ! A11   A(5,4,13)             110.6611         estimate D2E/DX2                !
 ! A12   A(12,4,13)            106.338          estimate D2E/DX2                !
 ! A13   A(4,5,6)              115.1476         estimate D2E/DX2                !
 ! A14   A(4,5,14)             108.7171         estimate D2E/DX2                !
 ! A15   A(4,5,15)             108.9715         estimate D2E/DX2                !
 ! A16   A(6,5,14)             107.9812         estimate D2E/DX2                !
 ! A17   A(6,5,15)             109.1441         estimate D2E/DX2                !
 ! A18   A(14,5,15)            106.536          estimate D2E/DX2                !
 ! A19   A(5,6,7)              122.1535         estimate D2E/DX2                !
 ! A20   A(5,6,9)              114.6474         estimate D2E/DX2                !
 ! A21   A(5,6,16)             108.0928         estimate D2E/DX2                !
 ! A22   A(7,6,9)               89.3407         estimate D2E/DX2                !
 ! A23   A(7,6,16)             112.3441         estimate D2E/DX2                !
 ! A24   A(9,6,16)             108.7466         estimate D2E/DX2                !
 ! A25   A(6,7,8)               82.8311         estimate D2E/DX2                !
 ! A26   A(6,7,17)             116.2246         estimate D2E/DX2                !
 ! A27   A(6,7,18)             115.7165         estimate D2E/DX2                !
 ! A28   A(8,7,17)             112.9348         estimate D2E/DX2                !
 ! A29   A(8,7,18)             116.8215         estimate D2E/DX2                !
 ! A30   A(17,7,18)            110.1413         estimate D2E/DX2                !
 ! A31   A(7,8,9)               89.3945         estimate D2E/DX2                !
 ! A32   A(7,8,19)             116.1389         estimate D2E/DX2                !
 ! A33   A(7,8,20)             115.3672         estimate D2E/DX2                !
 ! A34   A(9,8,19)             113.1827         estimate D2E/DX2                !
 ! A35   A(9,8,20)             111.0685         estimate D2E/DX2                !
 ! A36   A(19,8,20)            110.2084         estimate D2E/DX2                !
 ! A37   A(6,9,8)               87.8827         estimate D2E/DX2                !
 ! A38   L(1,2,3,19,-1)        180.0            estimate D2E/DX2                !
 ! A39   L(1,2,3,19,-2)        180.0            estimate D2E/DX2                !
 ! D1    D(2,3,4,5)            179.946          estimate D2E/DX2                !
 ! D2    D(2,3,4,12)            58.0281         estimate D2E/DX2                !
 ! D3    D(2,3,4,13)           -58.2906         estimate D2E/DX2                !
 ! D4    D(10,3,4,5)           -60.0406         estimate D2E/DX2                !
 ! D5    D(10,3,4,12)          178.0415         estimate D2E/DX2                !
 ! D6    D(10,3,4,13)           61.7228         estimate D2E/DX2                !
 ! D7    D(11,3,4,5)            59.9252         estimate D2E/DX2                !
 ! D8    D(11,3,4,12)          -61.9927         estimate D2E/DX2                !
 ! D9    D(11,3,4,13)         -178.3114         estimate D2E/DX2                !
 ! D10   D(3,4,5,6)            175.2927         estimate D2E/DX2                !
 ! D11   D(3,4,5,14)            54.019          estimate D2E/DX2                !
 ! D12   D(3,4,5,15)           -61.7184         estimate D2E/DX2                !
 ! D13   D(12,4,5,6)           -62.8174         estimate D2E/DX2                !
 ! D14   D(12,4,5,14)          175.9089         estimate D2E/DX2                !
 ! D15   D(12,4,5,15)           60.1716         estimate D2E/DX2                !
 ! D16   D(13,4,5,6)            54.5053         estimate D2E/DX2                !
 ! D17   D(13,4,5,14)          -66.7684         estimate D2E/DX2                !
 ! D18   D(13,4,5,15)          177.4942         estimate D2E/DX2                !
 ! D19   D(4,5,6,7)            -50.7121         estimate D2E/DX2                !
 ! D20   D(4,5,6,9)             55.1589         estimate D2E/DX2                !
 ! D21   D(4,5,6,16)           176.6186         estimate D2E/DX2                !
 ! D22   D(14,5,6,7)            70.9604         estimate D2E/DX2                !
 ! D23   D(14,5,6,9)           176.8313         estimate D2E/DX2                !
 ! D24   D(14,5,6,16)          -61.709          estimate D2E/DX2                !
 ! D25   D(15,5,6,7)          -173.609          estimate D2E/DX2                !
 ! D26   D(15,5,6,9)           -67.7381         estimate D2E/DX2                !
 ! D27   D(15,5,6,16)           53.7216         estimate D2E/DX2                !
 ! D28   D(5,6,7,8)            142.7821         estimate D2E/DX2                !
 ! D29   D(5,6,7,17)            30.7046         estimate D2E/DX2                !
 ! D30   D(5,6,7,18)          -100.8467         estimate D2E/DX2                !
 ! D31   D(9,6,7,8)             23.7446         estimate D2E/DX2                !
 ! D32   D(9,6,7,17)           -88.3329         estimate D2E/DX2                !
 ! D33   D(9,6,7,18)           140.1159         estimate D2E/DX2                !
 ! D34   D(16,6,7,8)           -86.3008         estimate D2E/DX2                !
 ! D35   D(16,6,7,17)          161.6217         estimate D2E/DX2                !
 ! D36   D(16,6,7,18)           30.0705         estimate D2E/DX2                !
 ! D37   D(5,6,9,8)           -150.1736         estimate D2E/DX2                !
 ! D38   D(7,6,9,8)            -24.7023         estimate D2E/DX2                !
 ! D39   D(16,6,9,8)            88.7251         estimate D2E/DX2                !
 ! D40   D(6,7,8,9)            -23.6639         estimate D2E/DX2                !
 ! D41   D(6,7,8,19)          -139.3443         estimate D2E/DX2                !
 ! D42   D(6,7,8,20)            89.4683         estimate D2E/DX2                !
 ! D43   D(17,7,8,9)            91.8278         estimate D2E/DX2                !
 ! D44   D(17,7,8,19)          -23.8525         estimate D2E/DX2                !
 ! D45   D(17,7,8,20)         -155.0399         estimate D2E/DX2                !
 ! D46   D(18,7,8,9)          -138.9074         estimate D2E/DX2                !
 ! D47   D(18,7,8,19)          105.4123         estimate D2E/DX2                !
 ! D48   D(18,7,8,20)          -25.7752         estimate D2E/DX2                !
 ! D49   D(7,8,9,6)             24.8026         estimate D2E/DX2                !
 ! D50   D(19,8,9,6)           143.1455         estimate D2E/DX2                !
 ! D51   D(20,8,9,6)           -92.2664         estimate D2E/DX2                !
 --------------------------------------------------------------------------------
 Trust Radius=3.00D-01 FncErr=1.00D-07 GrdErr=1.00D-06 EigMax=2.50D+02 EigMin=1.00D-04
 Number of steps in this run=    120 maximum allowed number of steps=    120.
 GradGradGradGradGradGradGradGradGradGradGradGradGradGradGradGradGradGrad

                          Input orientation:                          
 ---------------------------------------------------------------------
 Center     Atomic      Atomic             Coordinates (Angstroms)
 Number     Number       Type             X           Y           Z
 ---------------------------------------------------------------------
      1          7           0        1.085150   -0.052290    0.003860
      2          6           0        2.346120   -0.052290    0.003860
      3          6           0        3.866120   -0.052290    0.003860
      4          6           0        4.371470    1.371470    0.273330
      5          6           0        5.894780    1.402010    0.280480
      6          6           0        6.512460    2.783070    0.427070
      7          6           0        6.093530    3.967630   -0.464880
      8          6           0        6.282090    4.763310    0.834190
      9          8           0        6.063240    3.531080    1.602360
     10          1           0        4.222930   -0.411790   -0.967500
     11          1           0        4.223330   -0.741420    0.776850
     12          1           0        3.980730    1.736140    1.232040
     13          1           0        3.974750    2.043090   -0.496880
     14          1           0        6.259870    0.965670   -0.656890
     15          1           0        6.260690    0.756560    1.088740
     16          1           0        7.605970    2.664790    0.479560
     17          1           0        5.057630    3.965170   -0.816770
     18          1           0        6.768220    4.201920   -1.286900
     19          1           0        5.538320    5.533620    1.037720
     20          1           0        7.292590    5.158290    1.001300
 ---------------------------------------------------------------------
                    Distance matrix (angstroms):
                    1          2          3          4          5
     1  N    0.000000
     2  C    1.260970   0.000000
     3  C    2.780970   1.520000   0.000000
     4  C    3.591602   2.490331   1.534629   0.000000
     5  C    5.032300   3.845061   2.511368   1.523633   0.000000
     6  C    6.137920   5.057347   3.901473   2.569064   1.519982
     7  C    6.439204   5.515665   4.619614   3.201639   2.679080
     8  C    7.133557   6.274656   5.451272   3.933143   3.428548
     9  O    6.338543   5.404880   4.497008   3.048331   2.511709
    10  H    3.304307   2.143641   1.095488   2.177554   2.764490
    11  H    3.304631   2.143906   1.095451   2.177104   2.763046
    12  H    3.618189   2.716405   2.172566   1.097628   2.163492
    13  H    3.604323   2.700702   2.157118   1.096213   2.168361
    14  H    5.315126   4.097593   2.683817   2.143837   1.096515
    15  H    5.349525   4.141867   2.750485   2.147594   1.097169
    16  H    7.080248   5.939262   4.647074   3.489584   2.135982
    17  H    5.709117   4.915863   4.270025   2.895930   2.911111
    18  H    7.215376   6.270513   5.309101   4.023702   3.325519
    19  H    7.218170   6.516241   5.921783   4.389684   4.215528
    20  H    8.165620   7.253454   6.315515   4.837653   4.072234
                    6          7          8          9         10
     6  C    0.000000
     7  C    1.540863   0.000000
     8  C    2.034740   1.535006   0.000000
     9  O    1.463771   2.113049   1.468459   0.000000
    10  H    4.170600   4.788642   5.853878   5.053429   0.000000
    11  H    4.217166   5.216770   5.877400   4.724510   1.775222
    12  H    2.855468   3.510414   3.823389   2.774129   3.083868
    13  H    2.800219   2.862535   3.807251   3.314018   2.511874
    14  H    2.131130   3.012690   4.079937   3.424062   2.478507
    15  H    2.146611   3.571085   4.014885   2.828560   3.121799
    16  H    1.101140   2.208355   2.506433   2.095508   4.796278
    17  H    2.249673   1.094039   2.204994   2.655537   4.458388
    18  H    2.239697   1.088951   2.247333   3.048745   5.278905
    19  H    2.981169   2.240176   1.089952   2.145816   6.410855
    20  H    2.565154   2.237208   1.097746   2.126120   6.657686
                   11         12         13         14         15
    11  H    0.000000
    12  H    2.530683   0.000000
    13  H    3.072080   1.755967   0.000000
    14  H    3.019480   3.058784   2.531444   0.000000
    15  H    2.547951   2.485625   3.065106   1.758110   0.000000
    16  H    4.809667   3.817196   3.811260   2.447552   2.412928
    17  H    5.038618   3.213396   2.229204   3.235420   3.920905
    18  H    5.930610   4.493910   3.617755   3.335963   4.215656
    19  H    6.416649   4.109100   4.121110   4.925292   4.831638
    20  H    6.654120   4.767889   4.791354   4.625383   4.521912
                   16         17         18         19         20
    16  H    0.000000
    17  H    3.140939   0.000000
    18  H    2.486961   1.789746   0.000000
    19  H    3.580070   2.475930   2.947870   0.000000
    20  H    2.566703   3.118326   2.534850   1.794342   0.000000
 Stoichiometry    C7H11NO
 Framework group  C1[X(C7H11NO)]
 Deg. of freedom    54
 Full point group                 C1      NOp   1
 Largest Abelian subgroup         C1      NOp   1
 Largest concise Abelian subgroup C1      NOp   1
                         Standard orientation:                         
 ---------------------------------------------------------------------
 Center     Atomic      Atomic             Coordinates (Angstroms)
 Number     Number       Type             X           Y           Z
 ---------------------------------------------------------------------
      1          7           0       -4.152180   -1.178860   -0.027036
      2          6           0       -3.264577   -0.283740    0.004052
      3          6           0       -2.194643    0.795257    0.041527
      4          6           0       -0.810485    0.137401   -0.038578
      5          6           0        0.283984    1.196847   -0.004366
      6          6           0        1.704379    0.657150    0.034970
      7          6           0        2.148593   -0.408912    1.054992
      8          6           0        2.976005   -0.922538   -0.131524
      9          8           0        2.036437   -0.267249   -1.050317
     10          1           0       -2.297495    1.367646    0.969905
     11          1           0       -2.346646    1.478459   -0.801173
     12          1           0       -0.729205   -0.461823   -0.954608
     13          1           0       -0.698304   -0.561767    0.798240
     14          1           0        0.136523    1.826625    0.881061
     15          1           0        0.172476    1.853171   -0.876481
     16          1           0        2.396487    1.512677   -0.004667
     17          1           0        1.380943   -1.118226    1.378271
     18          1           0        2.702276   -0.037400    1.915939
     19          1           0        3.014917   -2.004519   -0.257224
     20          1           0        3.982255   -0.493621   -0.223917
 ---------------------------------------------------------------------
 Rotational constants (GHZ):           4.0552038           0.6378373           0.6061404
 Standard basis: 6-31G(2df,p) (6D, 7F)
 There are   334 symmetry adapted cartesian basis functions of A   symmetry.
 There are   307 symmetry adapted basis functions of A   symmetry.
   307 basis functions,   473 primitive gaussians,   334 cartesian basis functions
    34 alpha electrons       34 beta electrons
       nuclear repulsion energy       418.0283985774 Hartrees.
 NAtoms=   20 NActive=   20 NUniq=   20 SFac= 1.00D+00 NAtFMM=   60 NAOKFM=F Big=F
 Integral buffers will be    131072 words long.
 Raffenetti 2 integral format.
 Two-electron integral symmetry is turned on.
 One-electron integrals computed using PRISM.
 PrsmSu:  requested number of processors reduced to:  13 ShMem   1 Linda.
 NBasis=   307 RedAO= T EigKep=  2.22D-04  NBF=   307
 NBsUse=   307 1.00D-06 EigRej= -1.00D+00 NBFU=   307
 ExpMin= 1.61D-01 ExpMax= 5.48D+03 ExpMxC= 8.25D+02 IAcc=3 IRadAn=         5 AccDes= 0.00D+00
 Harris functional with IExCor=  402 and IRadAn=       5 diagonalized for initial guess.
 HarFok:  IExCor=  402 AccDes= 0.00D+00 IRadAn=         5 IDoV= 1 UseB2=F ITyADJ=14
 ICtDFT=  3500011 ScaDFX=  1.000000  1.000000  1.000000  1.000000
 FoFCou: FMM=F IPFlag=           0 FMFlag=      100000 FMFlg1=           0
         NFxFlg=           0 DoJE=T BraDBF=F KetDBF=T FulRan=T
         wScrn=  0.000000 ICntrl=       500 IOpCl=  0 I1Cent=   200000004 NGrid=           0
         NMat0=    1 NMatS0=      1 NMatT0=    0 NMatD0=    1 NMtDS0=    0 NMtDT0=    0
 Petite list used in FoFCou.
 Requested convergence on RMS density matrix=1.00D-08 within 128 cycles.
 Requested convergence on MAX density matrix=1.00D-06.
 Requested convergence on             energy=1.00D-06.
 No special actions if energy rises.
 Integral accuracy reduced to 1.0D-05 until final iterations.
 Initial convergence to 1.0D-05 achieved.  Increase integral accuracy.
 SCF Done:  E(RB3LYP) =  -403.292628443     A.U. after   14 cycles
            NFock= 14  Conv=0.31D-08     -V/T= 2.0091

 **********************************************************************

            Population analysis using the SCF density.

 **********************************************************************

 Orbital symmetries:
       Occupied  (A) (A) (A) (A) (A) (A) (A) (A) (A) (A) (A) (A)
                 (A) (A) (A) (A) (A) (A) (A) (A) (A) (A) (A) (A)
                 (A) (A) (A) (A) (A) (A) (A) (A) (A) (A)
       Virtual   (A) (A) (A) (A) (A) (A) (A) (A) (A) (A) (A) (A)
                 (A) (A) (A) (A) (A) (A) (A) (A) (A) (A) (A) (A)
                 (A) (A) (A) (A) (A) (A) (A) (A) (A) (A) (A) (A)
                 (A) (A) (A) (A) (A) (A) (A) (A) (A) (A) (A) (A)
                 (A) (A) (A) (A) (A) (A) (A) (A) (A) (A) (A) (A)
                 (A) (A) (A) (A) (A) (A) (A) (A) (A) (A) (A) (A)
                 (A) (A) (A) (A) (A) (A) (A) (A) (A) (A) (A) (A)
                 (A) (A) (A) (A) (A) (A) (A) (A) (A) (A) (A) (A)
                 (A) (A) (A) (A) (A) (A) (A) (A) (A) (A) (A) (A)
                 (A) (A) (A) (A) (A) (A) (A) (A) (A) (A) (A) (A)
                 (A) (A) (A) (A) (A) (A) (A) (A) (A) (A) (A) (A)
                 (A) (A) (A) (A) (A) (A) (A) (A) (A) (A) (A) (A)
                 (A) (A) (A) (A) (A) (A) (A) (A) (A) (A) (A) (A)
                 (A) (A) (A) (A) (A) (A) (A) (A) (A) (A) (A) (A)
                 (A) (A) (A) (A) (A) (A) (A) (A) (A) (A) (A) (A)
                 (A) (A) (A) (A) (A) (A) (A) (A) (A) (A) (A) (A)
                 (A) (A) (A) (A) (A) (A) (A) (A) (A) (A) (A) (A)
                 (A) (A) (A) (A) (A) (A) (A) (A) (A) (A) (A) (A)
                 (A) (A) (A) (A) (A) (A) (A) (A) (A) (A) (A) (A)
                 (A) (A) (A) (A) (A) (A) (A) (A) (A) (A) (A) (A)
                 (A) (A) (A) (A) (A) (A) (A) (A) (A) (A) (A) (A)
                 (A) (A) (A) (A) (A) (A) (A) (A) (A) (A) (A) (A)
                 (A) (A) (A) (A) (A) (A) (A) (A) (A)
 The electronic state is 1-A.
 Alpha  occ. eigenvalues --  -19.13850 -14.34667 -10.24607 -10.24394 -10.24338
 Alpha  occ. eigenvalues --  -10.23825 -10.20537 -10.19979 -10.19710  -1.03698
 Alpha  occ. eigenvalues --   -0.86194  -0.82260  -0.76248  -0.74167  -0.66926
 Alpha  occ. eigenvalues --   -0.62220  -0.56397  -0.52174  -0.50070  -0.49114
 Alpha  occ. eigenvalues --   -0.47785  -0.45226  -0.43820  -0.41046  -0.39304
 Alpha  occ. eigenvalues --   -0.38375  -0.37494  -0.35654  -0.35006  -0.32650
 Alpha  occ. eigenvalues --   -0.31486  -0.30258  -0.30045  -0.25544
 Alpha virt. eigenvalues --    0.01031   0.01227   0.07395   0.08085   0.09187
 Alpha virt. eigenvalues --    0.09422   0.10875   0.12080   0.12944   0.15140
 Alpha virt. eigenvalues --    0.16249   0.17116   0.17326   0.17801   0.18972
 Alpha virt. eigenvalues --    0.19943   0.21196   0.22625   0.24236   0.26610
 Alpha virt. eigenvalues --    0.30401   0.35170   0.40771   0.42747   0.44580
 Alpha virt. eigenvalues --    0.45865   0.48157   0.48440   0.49501   0.50808
 Alpha virt. eigenvalues --    0.52450   0.53572   0.55394   0.55892   0.57042
 Alpha virt. eigenvalues --    0.58514   0.60341   0.61800   0.63277   0.66031
 Alpha virt. eigenvalues --    0.67070   0.68372   0.70219   0.71175   0.72452
 Alpha virt. eigenvalues --    0.72759   0.73735   0.74711   0.74975   0.75503
 Alpha virt. eigenvalues --    0.76364   0.76992   0.78215   0.79850   0.80708
 Alpha virt. eigenvalues --    0.81443   0.82485   0.82849   0.83128   0.85539
 Alpha virt. eigenvalues --    0.87466   0.88600   0.89477   0.94521   0.96385
 Alpha virt. eigenvalues --    1.00215   1.04671   1.07094   1.08434   1.09555
 Alpha virt. eigenvalues --    1.11336   1.13202   1.16439   1.18642   1.20034
 Alpha virt. eigenvalues --    1.23169   1.24382   1.25386   1.25724   1.27922
 Alpha virt. eigenvalues --    1.32302   1.33797   1.34707   1.36409   1.39497
 Alpha virt. eigenvalues --    1.41806   1.44391   1.46170   1.46978   1.49756
 Alpha virt. eigenvalues --    1.52449   1.54880   1.56730   1.57852   1.58495
 Alpha virt. eigenvalues --    1.61070   1.63292   1.65229   1.67741   1.70079
 Alpha virt. eigenvalues --    1.71427   1.73485   1.77486   1.80383   1.82142
 Alpha virt. eigenvalues --    1.82775   1.83690   1.88009   1.89242   1.93571
 Alpha virt. eigenvalues --    1.95172   1.99235   2.07979   2.12140   2.15897
 Alpha virt. eigenvalues --    2.19938   2.21835   2.25495   2.27890   2.28201
 Alpha virt. eigenvalues --    2.30995   2.32063   2.37180   2.39686   2.42950
 Alpha virt. eigenvalues --    2.47250   2.49569   2.52861   2.58798   2.59236
 Alpha virt. eigenvalues --    2.64393   2.66072   2.67678   2.69213   2.73109
 Alpha virt. eigenvalues --    2.73982   2.75162   2.77520   2.78268   2.79231
 Alpha virt. eigenvalues --    2.79946   2.84549   2.84758   2.85194   2.87155
 Alpha virt. eigenvalues --    2.88088   2.89214   2.92291   2.95106   2.97520
 Alpha virt. eigenvalues --    2.99275   3.01733   3.02984   3.05182   3.07205
 Alpha virt. eigenvalues --    3.10319   3.13643   3.14651   3.18288   3.19544
 Alpha virt. eigenvalues --    3.24758   3.28585   3.29034   3.29986   3.32120
 Alpha virt. eigenvalues --    3.35290   3.36933   3.40573   3.43707   3.45239
 Alpha virt. eigenvalues --    3.46096   3.49509   3.52598   3.54005   3.57666
 Alpha virt. eigenvalues --    3.60297   3.61772   3.63395   3.64390   3.65338
 Alpha virt. eigenvalues --    3.65891   3.68298   3.73148   3.74997   3.77581
 Alpha virt. eigenvalues --    3.78937   3.82894   3.86902   3.88603   3.92866
 Alpha virt. eigenvalues --    3.95752   3.96645   4.02090   4.03469   4.07030
 Alpha virt. eigenvalues --    4.12748   4.13748   4.16436   4.19869   4.21929
 Alpha virt. eigenvalues --    4.24542   4.27653   4.30109   4.32204   4.33870
 Alpha virt. eigenvalues --    4.36146   4.40743   4.42330   4.44013   4.45485
 Alpha virt. eigenvalues --    4.45874   4.49190   4.51547   4.53261   4.54377
 Alpha virt. eigenvalues --    4.56641   4.57824   4.58571   4.60835   4.62417
 Alpha virt. eigenvalues --    4.63611   4.64612   4.65272   4.66844   4.68504
 Alpha virt. eigenvalues --    4.70144   4.71861   4.73661   4.74571   4.75643
 Alpha virt. eigenvalues --    4.78221   4.78796   4.82579   4.83849   4.86030
 Alpha virt. eigenvalues --    4.88409   4.89016   4.93033   4.94134   4.97052
 Alpha virt. eigenvalues --    5.01261   5.03139   5.05412   5.11068   5.11583
 Alpha virt. eigenvalues --    5.14396   5.21182   5.35586   5.38560   5.41228
 Alpha virt. eigenvalues --    5.48804   5.53915   5.56060   5.64242   5.71877
 Alpha virt. eigenvalues --    5.80810   5.86073   5.98610   6.02907   6.04264
 Alpha virt. eigenvalues --    6.13057   6.34261   7.06277  10.32985  10.95828
 Alpha virt. eigenvalues --   11.30698  11.48412  11.76361  12.10399  12.20916
 Alpha virt. eigenvalues --   12.37074  13.43926  13.63987
          Condensed to atoms (all electrons):
               1          2          3          4          5          6
     1  N    6.475061   0.943824  -0.044158  -0.001673   0.000009   0.000000
     2  C    0.943824   4.470952   0.377574  -0.037318   0.002485  -0.000051
     3  C   -0.044158   0.377574   4.982995   0.388690  -0.039490   0.001540
     4  C   -0.001673  -0.037318   0.388690   4.820555   0.395985  -0.021670
     5  C    0.000009   0.002485  -0.039490   0.395985   4.948887   0.412935
     6  C    0.000000  -0.000051   0.001540  -0.021670   0.412935   4.586694
     7  C   -0.000000  -0.000000   0.000296  -0.012707  -0.019693   0.386072
     8  C    0.000000  -0.000000  -0.000016   0.001389   0.006004  -0.128304
     9  O    0.000000   0.000002   0.000321   0.004661  -0.032617   0.319728
    10  H   -0.000233  -0.019708   0.360013  -0.027166  -0.002785   0.000029
    11  H   -0.000243  -0.019450   0.362635  -0.028879  -0.002528   0.000056
    12  H    0.000297   0.000321  -0.031970   0.375681  -0.031367  -0.002084
    13  H    0.000379   0.000711  -0.033790   0.370589  -0.034575  -0.002322
    14  H   -0.000000   0.000239  -0.004370  -0.034205   0.349842  -0.019271
    15  H    0.000000   0.000113  -0.002847  -0.035979   0.354440  -0.016752
    16  H    0.000000   0.000001  -0.000053   0.005792  -0.057311   0.354006
    17  H   -0.000000   0.000007  -0.000062   0.002650  -0.009758  -0.012088
    18  H   -0.000000   0.000000  -0.000004   0.000281   0.001175  -0.017346
    19  H    0.000000   0.000000  -0.000002  -0.000125  -0.000229   0.008176
    20  H    0.000000   0.000000   0.000001   0.000094  -0.000673  -0.002752
               7          8          9         10         11         12
     1  N   -0.000000   0.000000   0.000000  -0.000233  -0.000243   0.000297
     2  C   -0.000000  -0.000000   0.000002  -0.019708  -0.019450   0.000321
     3  C    0.000296  -0.000016   0.000321   0.360013   0.362635  -0.031970
     4  C   -0.012707   0.001389   0.004661  -0.027166  -0.028879   0.375681
     5  C   -0.019693   0.006004  -0.032617  -0.002785  -0.002528  -0.031367
     6  C    0.386072  -0.128304   0.319728   0.000029   0.000056  -0.002084
     7  C    5.043827   0.373394  -0.096705   0.000006   0.000001  -0.000056
     8  C    0.373394   4.790911   0.326666   0.000000  -0.000000  -0.000105
     9  O   -0.096705   0.326666   7.848302  -0.000002   0.000001   0.006970
    10  H    0.000006   0.000000  -0.000002   0.567612  -0.035894   0.004917
    11  H    0.000001  -0.000000   0.000001  -0.035894   0.562532  -0.004657
    12  H   -0.000056  -0.000105   0.006970   0.004917  -0.004657   0.576175
    13  H    0.002387  -0.000320  -0.000406  -0.005117   0.005285  -0.037297
    14  H   -0.002650  -0.000267   0.002138   0.005355  -0.000479   0.005774
    15  H    0.005174  -0.000435  -0.000752  -0.000423   0.004585  -0.005162
    16  H   -0.053938   0.003368  -0.034136  -0.000001   0.000001   0.000246
    17  H    0.352443  -0.016151   0.001986   0.000008   0.000001   0.000396
    18  H    0.344828  -0.022162   0.007195  -0.000000   0.000000  -0.000005
    19  H   -0.024559   0.370776  -0.018733   0.000000   0.000000  -0.000027
    20  H   -0.036284   0.363613  -0.029555  -0.000000  -0.000000   0.000023
              13         14         15         16         17         18
     1  N    0.000379  -0.000000   0.000000   0.000000  -0.000000  -0.000000
     2  C    0.000711   0.000239   0.000113   0.000001   0.000007   0.000000
     3  C   -0.033790  -0.004370  -0.002847  -0.000053  -0.000062  -0.000004
     4  C    0.370589  -0.034205  -0.035979   0.005792   0.002650   0.000281
     5  C   -0.034575   0.349842   0.354440  -0.057311  -0.009758   0.001175
     6  C   -0.002322  -0.019271  -0.016752   0.354006  -0.012088  -0.017346
     7  C    0.002387  -0.002650   0.005174  -0.053938   0.352443   0.344828
     8  C   -0.000320  -0.000267  -0.000435   0.003368  -0.016151  -0.022162
     9  O   -0.000406   0.002138  -0.000752  -0.034136   0.001986   0.007195
    10  H   -0.005117   0.005355  -0.000423  -0.000001   0.000008  -0.000000
    11  H    0.005285  -0.000479   0.004585   0.000001   0.000001   0.000000
    12  H   -0.037297   0.005774  -0.005162   0.000246   0.000396  -0.000005
    13  H    0.608911  -0.004175   0.005861  -0.000018   0.004725  -0.000092
    14  H   -0.004175   0.635139  -0.037815   0.001048   0.000342   0.000366
    15  H    0.005861  -0.037815   0.623295  -0.005610  -0.000019  -0.000127
    16  H   -0.000018   0.001048  -0.005610   0.700639   0.005299  -0.002622
    17  H    0.004725   0.000342  -0.000019   0.005299   0.590186  -0.038031
    18  H   -0.000092   0.000366  -0.000127  -0.002622  -0.038031   0.627319
    19  H    0.000033   0.000011   0.000023  -0.000769  -0.007206   0.002244
    20  H    0.000004   0.000026  -0.000008   0.009330   0.004625  -0.002398
              19         20
     1  N    0.000000   0.000000
     2  C    0.000000   0.000000
     3  C   -0.000002   0.000001
     4  C   -0.000125   0.000094
     5  C   -0.000229  -0.000673
     6  C    0.008176  -0.002752
     7  C   -0.024559  -0.036284
     8  C    0.370776   0.363613
     9  O   -0.018733  -0.029555
    10  H    0.000000  -0.000000
    11  H    0.000000  -0.000000
    12  H   -0.000027   0.000023
    13  H    0.000033   0.000004
    14  H    0.000011   0.000026
    15  H    0.000023  -0.000008
    16  H   -0.000769   0.009330
    17  H   -0.007206   0.004625
    18  H    0.002244  -0.002398
    19  H    0.610123  -0.052578
    20  H   -0.052578   0.641588
 Mulliken charges:
               1
     1  N   -0.373263
     2  C    0.280298
     3  C   -0.317303
     4  C   -0.166645
     5  C   -0.240735
     6  C    0.153403
     7  C   -0.261836
     8  C   -0.068361
     9  O   -0.305065
    10  H    0.153391
    11  H    0.157032
    12  H    0.141928
    13  H    0.119225
    14  H    0.102952
    15  H    0.112438
    16  H    0.074729
    17  H    0.120648
    18  H    0.099380
    19  H    0.112840
    20  H    0.104944
 Sum of Mulliken charges =  -0.00000
 Mulliken charges with hydrogens summed into heavy atoms:
               1
     1  N   -0.373263
     2  C    0.280298
     3  C   -0.006880
     4  C    0.094509
     5  C   -0.025345
     6  C    0.228132
     7  C   -0.041808
     8  C    0.149423
     9  O   -0.305065
 Electronic spatial extent (au):  <R**2>=           1841.7223
 Charge=             -0.0000 electrons
 Dipole moment (field-independent basis, Debye):
    X=              3.6982    Y=              2.8146    Z=              1.6775  Tot=              4.9409
 Quadrupole moment (field-independent basis, Debye-Ang):
   XX=            -70.2848   YY=            -53.9028   ZZ=            -55.6397
   XY=            -10.5637   XZ=              2.9855   YZ=             -0.6798
 Traceless Quadrupole moment (field-independent basis, Debye-Ang):
   XX=            -10.3424   YY=              6.0397   ZZ=              4.3027
   XY=            -10.5637   XZ=              2.9855   YZ=             -0.6798
 Octapole moment (field-independent basis, Debye-Ang**2):
  XXX=            122.1772  YYY=              3.2095  ZZZ=             -0.5798  XYY=             16.5070
  XXY=             36.2971  XXZ=              4.9825  XZZ=             -2.6832  YZZ=              1.9775
  YYZ=             -1.8408  XYZ=              0.1005
 Hexadecapole moment (field-independent basis, Debye-Ang**3):
 XXXX=          -2391.8101 YYYY=           -296.7976 ZZZZ=           -170.4233 XXXY=           -177.2524
 XXXZ=             -3.5445 YYYX=            -30.4219 YYYZ=              0.3992 ZZZX=             -0.2830
 ZZZY=              0.9022 XXYY=           -416.6558 XXZZ=           -369.6727 YYZZ=            -74.1178
 XXYZ=              0.9938 YYXZ=             -4.7532 ZZXY=             -3.5074
 N-N= 4.180283985774D+02 E-N=-1.773290554624D+03  KE= 3.996548574140D+02
 PrsmSu:  requested number of processors reduced to:  13 ShMem   1 Linda.
 Calling FoFJK, ICntrl=      2127 FMM=F ISym2X=0 I1Cent= 0 IOpClX= 0 NMat=1 NMatS=1 NMatT=0.
 ***** Axes restored to original set *****
 -------------------------------------------------------------------
 Center     Atomic                   Forces (Hartrees/Bohr)
 Number     Number              X              Y              Z
 -------------------------------------------------------------------
      1        7           0.179955665    0.001115550    0.000087861
      2        6          -0.150978036   -0.007223352   -0.001207719
      3        6          -0.031797638    0.005988991    0.002068447
      4        6          -0.000839734    0.004250257    0.002444581
      5        6          -0.000870487    0.001546278    0.000915324
      6        6          -0.014212245   -0.004632992    0.005396995
      7        6           0.021163474    0.003635790   -0.004414156
      8        6          -0.015926066   -0.006928639    0.003474344
      9        8           0.009776350    0.005425650   -0.004527533
     10        1          -0.001936127   -0.001264161    0.000240207
     11        1          -0.001988706   -0.001184027   -0.000705836
     12        1           0.001104248   -0.001264335   -0.002200983
     13        1           0.000159558   -0.001528749    0.000277230
     14        1           0.003125527    0.000127178   -0.000999384
     15        1           0.001599229    0.000456238    0.000391410
     16        1           0.000388293    0.002848893   -0.003587026
     17        1           0.002346117   -0.003041844    0.003733667
     18        1          -0.000342526    0.001252047   -0.004459756
     19        1          -0.000792286    0.001165200    0.005196133
     20        1           0.000065389   -0.000743973   -0.002123804
 -------------------------------------------------------------------
 Cartesian Forces:  Max     0.179955665 RMS     0.030996289

 GradGradGradGradGradGradGradGradGradGradGradGradGradGradGradGradGradGrad
 Berny optimization.
 FormGI is forming the generalized inverse of G from B-inverse, IUseBI=4.
 Internal  Forces:  Max     0.179955472 RMS     0.017591383
 Search for a local minimum.
 Step number   1 out of a maximum of  120
 All quantities printed in internal units (Hartrees-Bohrs-Radians)
 Mixed Optimization -- RFO/linear search
 Second derivative matrix not updated -- first step.
 ITU=  0
     Eigenvalues ---    0.00308   0.00453   0.00501   0.00501   0.00502
     Eigenvalues ---    0.00607   0.02500   0.03305   0.03404   0.03732
     Eigenvalues ---    0.04023   0.04592   0.04872   0.04881   0.05023
     Eigenvalues ---    0.05697   0.05842   0.05913   0.06742   0.06990
     Eigenvalues ---    0.07995   0.08663   0.08793   0.09834   0.10459
     Eigenvalues ---    0.11946   0.12522   0.12533   0.16000   0.16000
     Eigenvalues ---    0.20936   0.21842   0.21965   0.22342   0.26377
     Eigenvalues ---    0.27589   0.29000   0.30019   0.30367   0.30368
     Eigenvalues ---    0.32648   0.33556   0.33933   0.33946   0.33997
     Eigenvalues ---    0.34070   0.34104   0.34186   0.34190   0.34350
     Eigenvalues ---    0.34538   0.34818   0.34934   0.79312
 RFO step:  Lambda=-4.62191185D-02 EMin= 3.07876238D-03
 Linear search not attempted -- first point.
 Iteration  1 RMS(Cart)=  0.04264255 RMS(Int)=  0.00178817
 Iteration  2 RMS(Cart)=  0.00192465 RMS(Int)=  0.00024451
 Iteration  3 RMS(Cart)=  0.00000475 RMS(Int)=  0.00024450
 Iteration  4 RMS(Cart)=  0.00000000 RMS(Int)=  0.00024450
 Variable       Old X    -DE/DX   Delta X   Delta X   Delta X     New X
                                 (Linear)    (Quad)   (Total)
    R1        2.38289  -0.17996   0.00000  -0.21440  -0.21440   2.16849
    R2        2.87238  -0.02898   0.00000  -0.08282  -0.08282   2.78956
    R3        2.90003   0.00452   0.00000   0.01344   0.01344   2.91346
    R4        2.07017  -0.00043   0.00000  -0.00110  -0.00110   2.06907
    R5        2.07010  -0.00040   0.00000  -0.00104  -0.00104   2.06907
    R6        2.87925   0.00634   0.00000   0.01830   0.01830   2.89755
    R7        2.07422  -0.00274   0.00000  -0.00709  -0.00709   2.06712
    R8        2.07154  -0.00119   0.00000  -0.00307  -0.00307   2.06847
    R9        2.87235  -0.00005   0.00000  -0.00015  -0.00015   2.87220
   R10        2.07211   0.00184   0.00000   0.00477   0.00477   2.07688
   R11        2.07335   0.00055   0.00000   0.00143   0.00143   2.07478
   R12        2.91181  -0.00095   0.00000  -0.00177  -0.00176   2.91005
   R13        2.76613  -0.00315   0.00000  -0.00813  -0.00834   2.75778
   R14        2.08085  -0.00009   0.00000  -0.00024  -0.00024   2.08061
   R15        2.90074   0.00128   0.00000   0.00538   0.00564   2.90638
   R16        2.06743  -0.00342   0.00000  -0.00876  -0.00876   2.05867
   R17        2.05782   0.00342   0.00000   0.00866   0.00866   2.06648
   R18        2.77498  -0.00739   0.00000  -0.02007  -0.02015   2.75483
   R19        2.05971   0.00233   0.00000   0.00592   0.00592   2.06563
   R20        2.07444  -0.00053   0.00000  -0.00138  -0.00138   2.07306
    A1        1.90636   0.00979   0.00000   0.03624   0.03605   1.94241
    A2        1.90256  -0.00523   0.00000  -0.02110  -0.02126   1.88130
    A3        1.90296  -0.00524   0.00000  -0.02077  -0.02097   1.88199
    A4        1.93146   0.00083   0.00000   0.00567   0.00559   1.93705
    A5        1.93088   0.00104   0.00000   0.00690   0.00679   1.93767
    A6        1.88918  -0.00153   0.00000  -0.00831  -0.00831   1.88087
    A7        1.92692   0.00429   0.00000   0.01653   0.01654   1.94347
    A8        1.92237  -0.00177   0.00000  -0.00876  -0.00876   1.91362
    A9        1.90272  -0.00147   0.00000  -0.00499  -0.00504   1.89769
   A10        1.92320  -0.00130   0.00000  -0.00516  -0.00512   1.91808
   A11        1.93140  -0.00090   0.00000  -0.00090  -0.00091   1.93049
   A12        1.85595   0.00098   0.00000   0.00254   0.00251   1.85846
   A13        2.00971  -0.00034   0.00000  -0.00094  -0.00095   2.00876
   A14        1.89747   0.00217   0.00000   0.01754   0.01753   1.91500
   A15        1.90191   0.00078   0.00000   0.00371   0.00366   1.90558
   A16        1.88463  -0.00099   0.00000  -0.00517  -0.00521   1.87941
   A17        1.90492  -0.00131   0.00000  -0.01264  -0.01266   1.89227
   A18        1.85940  -0.00032   0.00000  -0.00257  -0.00269   1.85671
   A19        2.13198   0.00365   0.00000   0.01868   0.01919   2.15117
   A20        2.00097  -0.00177   0.00000  -0.01071  -0.01075   1.99022
   A21        1.88657   0.00253   0.00000   0.01568   0.01564   1.90222
   A22        1.55929   0.00106   0.00000   0.01325   0.01270   1.57199
   A23        1.96077  -0.00558   0.00000  -0.03722  -0.03735   1.92342
   A24        1.89799  -0.00084   0.00000  -0.00412  -0.00383   1.89415
   A25        1.44568  -0.00091   0.00000   0.00555   0.00427   1.44995
   A26        2.02850  -0.00474   0.00000  -0.04359  -0.04362   1.98488
   A27        2.01963   0.00431   0.00000   0.03248   0.03215   2.05178
   A28        1.97108  -0.00364   0.00000  -0.02731  -0.02733   1.94375
   A29        2.03892   0.00472   0.00000   0.03205   0.03157   2.07049
   A30        1.92233  -0.00001   0.00000   0.00058   0.00104   1.92337
   A31        1.56023   0.00172   0.00000   0.01479   0.01411   1.57434
   A32        2.02701   0.00610   0.00000   0.04114   0.04149   2.06850
   A33        2.01354  -0.00503   0.00000  -0.03271  -0.03270   1.98084
   A34        1.97541  -0.00161   0.00000  -0.00912  -0.00964   1.96577
   A35        1.93851  -0.00092   0.00000  -0.01107  -0.01090   1.92761
   A36        1.92350  -0.00028   0.00000  -0.00286  -0.00277   1.92073
   A37        1.53384   0.00278   0.00000   0.01708   0.01601   1.54985
   A38        3.14159  -0.00265   0.00000  -0.05178  -0.05178   3.08981
   A39        3.14159   0.00024   0.00000   0.00473   0.00473   3.14632
    D1        3.14065  -0.00014   0.00000  -0.00166  -0.00166   3.13900
    D2        1.01278  -0.00017   0.00000  -0.00031  -0.00028   1.01250
    D3       -1.01736   0.00050   0.00000   0.00448   0.00448  -1.01289
    D4       -1.04791   0.00015   0.00000  -0.00112  -0.00109  -1.04899
    D5        3.10741   0.00012   0.00000   0.00022   0.00028   3.10770
    D6        1.07727   0.00079   0.00000   0.00501   0.00504   1.08231
    D7        1.04589  -0.00055   0.00000  -0.00333  -0.00338   1.04251
    D8       -1.08198  -0.00058   0.00000  -0.00198  -0.00201  -1.08399
    D9       -3.11212   0.00010   0.00000   0.00281   0.00275  -3.10937
   D10        3.05943   0.00110   0.00000   0.01698   0.01701   3.07644
   D11        0.94281   0.00097   0.00000   0.01109   0.01110   0.95391
   D12       -1.07719  -0.00025   0.00000   0.00258   0.00256  -1.07463
   D13       -1.09637   0.00085   0.00000   0.01351   0.01353  -1.08284
   D14        3.07019   0.00073   0.00000   0.00762   0.00763   3.07782
   D15        1.05019  -0.00050   0.00000  -0.00089  -0.00091   1.04928
   D16        0.95130   0.00070   0.00000   0.01292   0.01293   0.96422
   D17       -1.16533   0.00057   0.00000   0.00703   0.00702  -1.15831
   D18        3.09786  -0.00065   0.00000  -0.00148  -0.00152   3.09634
   D19       -0.88509  -0.00230   0.00000  -0.02434  -0.02411  -0.90920
   D20        0.96270   0.00014   0.00000  -0.00258  -0.00277   0.95993
   D21        3.08258  -0.00025   0.00000  -0.00342  -0.00340   3.07918
   D22        1.23849  -0.00047   0.00000  -0.00619  -0.00601   1.23249
   D23        3.08629   0.00197   0.00000   0.01557   0.01533   3.10162
   D24       -1.07702   0.00159   0.00000   0.01473   0.01471  -1.06232
   D25       -3.03005  -0.00206   0.00000  -0.01864  -0.01842  -3.04847
   D26       -1.18225   0.00038   0.00000   0.00312   0.00292  -1.17934
   D27        0.93762  -0.00000   0.00000   0.00228   0.00229   0.93991
   D28        2.49202  -0.00598   0.00000  -0.05480  -0.05457   2.43745
   D29        0.53590  -0.00118   0.00000  -0.02418  -0.02421   0.51168
   D30       -1.76011  -0.00072   0.00000  -0.01325  -0.01296  -1.77306
   D31        0.41442  -0.00578   0.00000  -0.05736  -0.05729   0.35713
   D32       -1.54170  -0.00099   0.00000  -0.02674  -0.02693  -1.56863
   D33        2.44548  -0.00053   0.00000  -0.01581  -0.01568   2.42981
   D34       -1.50623  -0.00456   0.00000  -0.05348  -0.05331  -1.55954
   D35        2.82083   0.00024   0.00000  -0.02287  -0.02295   2.79788
   D36        0.52483   0.00069   0.00000  -0.01193  -0.01170   0.51313
   D37       -2.62102   0.00051   0.00000   0.03039   0.03066  -2.59037
   D38       -0.43114   0.00472   0.00000   0.05577   0.05620  -0.37493
   D39        1.54854  -0.00094   0.00000   0.02043   0.02057   1.56911
   D40       -0.41301   0.00510   0.00000   0.05526   0.05548  -0.35753
   D41       -2.43202   0.00463   0.00000   0.04842   0.04826  -2.38376
   D42        1.56152   0.00398   0.00000   0.04414   0.04414   1.60566
   D43        1.60270  -0.00065   0.00000   0.00841   0.00872   1.61142
   D44       -0.41630  -0.00112   0.00000   0.00157   0.00150  -0.41481
   D45       -2.70596  -0.00177   0.00000  -0.00271  -0.00262  -2.70858
   D46       -2.42439   0.00023   0.00000   0.01276   0.01279  -2.41160
   D47        1.83979  -0.00024   0.00000   0.00592   0.00557   1.84536
   D48       -0.44986  -0.00089   0.00000   0.00164   0.00145  -0.44841
   D49        0.43289  -0.00510   0.00000  -0.05717  -0.05746   0.37543
   D50        2.49836   0.00214   0.00000  -0.00640  -0.00679   2.49157
   D51       -1.61035  -0.00019   0.00000  -0.02586  -0.02593  -1.63629
         Item               Value     Threshold  Converged?
 Maximum Force            0.179955     0.000450     NO 
 RMS     Force            0.017591     0.000300     NO 
 Maximum Displacement     0.216940     0.001800     NO 
 RMS     Displacement     0.043283     0.001200     NO 
 Predicted change in Energy=-2.544092D-02
 GradGradGradGradGradGradGradGradGradGradGradGradGradGradGradGradGradGrad

                          Input orientation:                          
 ---------------------------------------------------------------------
 Center     Atomic      Atomic             Coordinates (Angstroms)
 Number     Number       Type             X           Y           Z
 ---------------------------------------------------------------------
      1          7           0        1.199950   -0.021813    0.036137
      2          6           0        2.346586   -0.065144    0.024555
      3          6           0        3.822604   -0.044677    0.018021
      4          6           0        4.363863    1.377601    0.265247
      5          6           0        5.897015    1.399824    0.262396
      6          6           0        6.521973    2.777367    0.410416
      7          6           0        6.144507    3.975930   -0.479729
      8          6           0        6.240339    4.751629    0.844855
      9          8           0        6.073199    3.509927    1.590111
     10          1           0        4.158215   -0.429050   -0.950708
     11          1           0        4.170919   -0.737346    0.791131
     12          1           0        3.987865    1.753074    1.221388
     13          1           0        3.967444    2.043781   -0.507527
     14          1           0        6.272532    0.961643   -0.672948
     15          1           0        6.268556    0.761240    1.074562
     16          1           0        7.616665    2.670648    0.460339
     17          1           0        5.119527    3.943276   -0.847349
     18          1           0        6.828603    4.238574   -1.291420
     19          1           0        5.466207    5.488074    1.075511
     20          1           0        7.233422    5.179181    1.030412
 ---------------------------------------------------------------------
                    Distance matrix (angstroms):
                    1          2          3          4          5
     1  N    0.000000
     2  C    1.147513   0.000000
     3  C    2.622816   1.476174   0.000000
     4  C    3.467160   2.491757   1.541739   0.000000
     5  C    4.912704   3.848148   2.539583   1.533315   0.000000
     6  C    6.024901   5.065829   3.924857   2.576404   1.519904
     7  C    6.379398   5.568553   4.669504   3.236818   2.692272
     8  C    6.988941   6.247841   5.434487   3.903994   3.419318
     9  O    6.215832   5.396271   4.491308   3.037088   2.499280
    10  H    3.145002   2.089393   1.094903   2.187424   2.799968
    11  H    3.147803   2.089900   1.094903   2.187872   2.797581
    12  H    3.511056   2.726192   2.169634   1.093874   2.165481
    13  H    3.495894   2.712537   2.158434   1.094588   2.175019
    14  H    5.215465   4.117506   2.737200   2.167082   1.099038
    15  H    5.232807   4.143341   2.783606   2.159339   1.097927
    16  H    6.971623   5.953839   4.686527   3.505817   2.147411
    17  H    5.644959   4.951450   4.281898   2.896824   2.881870
    18  H    7.182969   6.351556   5.394155   4.084522   3.367596
    19  H    7.045573   6.455600   5.867797   4.332167   4.190530
    20  H    8.027560   7.238499   6.320389   4.824091   4.081590
                    6          7          8          9         10
     6  C    0.000000
     7  C    1.539933   0.000000
     8  C    2.041021   1.537991   0.000000
     9  O    1.459357   2.122848   1.457796   0.000000
    10  H    4.209646   4.855000   5.865042   5.063443   0.000000
    11  H    4.245657   5.265463   5.866364   4.721902   1.768957
    12  H    2.851063   3.533553   3.769185   2.751564   3.083615
    13  H    2.811831   2.910941   3.785160   3.314193   2.519463
    14  H    2.129026   3.023186   4.082739   3.413930   2.545881
    15  H    2.137774   3.572876   3.997095   2.803432   3.157854
    16  H    1.101013   2.180537   2.524402   2.088794   4.853870
    17  H    2.215440   1.089401   2.184768   2.653016   4.477950
    18  H    2.263933   1.093532   2.274413   3.066722   5.388299
    19  H    2.984112   2.272761   1.093084   2.132209   6.389738
    20  H    2.580555   2.216772   1.097017   2.108505   6.695819
                   11         12         13         14         15
    11  H    0.000000
    12  H    2.533934   0.000000
    13  H    3.076131   1.753305   0.000000
    14  H    3.073576   3.071576   2.551826   0.000000
    15  H    2.593487   2.491354   3.072952   1.758968   0.000000
    16  H    4.857676   3.819598   3.827080   2.451884   2.416714
    17  H    5.049029   3.218279   2.247411   3.201558   3.890934
    18  H    6.013325   4.534502   3.690235   3.380828   4.243038
    19  H    6.365099   4.019577   4.076206   4.918927   4.794446
    20  H    6.666444   4.723169   4.781486   4.648911   4.522291
                   16         17         18         19         20
    16  H    0.000000
    17  H    3.092787   0.000000
    18  H    2.479535   1.790347   0.000000
    19  H    3.597331   2.490779   3.003288   0.000000
    20  H    2.600883   3.085774   2.537622   1.794575   0.000000
 Stoichiometry    C7H11NO
 Framework group  C1[X(C7H11NO)]
 Deg. of freedom    54
 Full point group                 C1      NOp   1
 Largest Abelian subgroup         C1      NOp   1
 Largest concise Abelian subgroup C1      NOp   1
                         Standard orientation:                         
 ---------------------------------------------------------------------
 Center     Atomic      Atomic             Coordinates (Angstroms)
 Number     Number       Type             X           Y           Z
 ---------------------------------------------------------------------
      1          7           0       -4.048064   -1.145523    0.002288
      2          6           0       -3.276113   -0.296504    0.008975
      3          6           0       -2.227728    0.742660    0.019814
      4          6           0       -0.819263    0.117455   -0.028163
      5          6           0        0.270773    1.195797   -0.020671
      6          6           0        1.696471    0.670874    0.023521
      7          6           0        2.190170   -0.345068    1.070190
      8          6           0        2.936587   -0.942474   -0.134545
      9          8           0        2.016320   -0.271101   -1.044234
     10          1           0       -2.360047    1.341915    0.926565
     11          1           0       -2.396151    1.397796   -0.841141
     12          1           0       -0.722787   -0.503218   -0.923718
     13          1           0       -0.703234   -0.553631    0.828753
     14          1           0        0.131731    1.857669    0.845630
     15          1           0        0.160704    1.826196   -0.912818
     16          1           0        2.393341    1.520950   -0.039511
     17          1           0        1.412216   -1.018152    1.428713
     18          1           0        2.774679    0.038426    1.911078
     19          1           0        2.937010   -2.028084   -0.262151
     20          1           0        3.953048   -0.548845   -0.258274
 ---------------------------------------------------------------------
 Rotational constants (GHZ):           4.1193366           0.6467168           0.6160325
 Standard basis: 6-31G(2df,p) (6D, 7F)
 There are   334 symmetry adapted cartesian basis functions of A   symmetry.
 There are   307 symmetry adapted basis functions of A   symmetry.
   307 basis functions,   473 primitive gaussians,   334 cartesian basis functions
    34 alpha electrons       34 beta electrons
       nuclear repulsion energy       421.1646914731 Hartrees.
 NAtoms=   20 NActive=   20 NUniq=   20 SFac= 1.00D+00 NAtFMM=   60 NAOKFM=F Big=F
 Integral buffers will be    131072 words long.
 Raffenetti 2 integral format.
 Two-electron integral symmetry is turned on.
 One-electron integrals computed using PRISM.
 PrsmSu:  requested number of processors reduced to:  13 ShMem   1 Linda.
 NBasis=   307 RedAO= T EigKep=  1.58D-04  NBF=   307
 NBsUse=   307 1.00D-06 EigRej= -1.00D+00 NBFU=   307
 Initial guess from the checkpoint file:  "NtCCCCC1CCO1.chk"
 B after Tr=    -0.000000   -0.000000    0.000000
         Rot=    0.999929    0.011646   -0.001505   -0.002218 Ang=   1.37 deg.
 ExpMin= 1.61D-01 ExpMax= 5.48D+03 ExpMxC= 8.25D+02 IAcc=2 IRadAn=         4 AccDes= 0.00D+00
 Harris functional with IExCor=  402 and IRadAn=       4 diagonalized for initial guess.
 HarFok:  IExCor=  402 AccDes= 0.00D+00 IRadAn=         4 IDoV= 1 UseB2=F ITyADJ=14
 ICtDFT=  3500011 ScaDFX=  1.000000  1.000000  1.000000  1.000000
 FoFCou: FMM=F IPFlag=           0 FMFlag=      100000 FMFlg1=           0
         NFxFlg=           0 DoJE=T BraDBF=F KetDBF=T FulRan=T
         wScrn=  0.000000 ICntrl=       500 IOpCl=  0 I1Cent=   200000004 NGrid=           0
         NMat0=    1 NMatS0=      1 NMatT0=    0 NMatD0=    1 NMtDS0=    0 NMtDT0=    0
 Petite list used in FoFCou.
 Requested convergence on RMS density matrix=1.00D-08 within 128 cycles.
 Requested convergence on MAX density matrix=1.00D-06.
 Requested convergence on             energy=1.00D-06.
 No special actions if energy rises.
 Integral accuracy reduced to 1.0D-05 until final iterations.
 Initial convergence to 1.0D-05 achieved.  Increase integral accuracy.
 SCF Done:  E(RB3LYP) =  -403.317417811     A.U. after   12 cycles
            NFock= 12  Conv=0.40D-08     -V/T= 2.0079
 PrsmSu:  requested number of processors reduced to:  13 ShMem   1 Linda.
 Calling FoFJK, ICntrl=      2127 FMM=F ISym2X=0 I1Cent= 0 IOpClX= 0 NMat=1 NMatS=1 NMatT=0.
 ***** Axes restored to original set *****
 -------------------------------------------------------------------
 Center     Atomic                   Forces (Hartrees/Bohr)
 Number     Number              X              Y              Z
 -------------------------------------------------------------------
      1        7          -0.019819964   -0.000647449   -0.000032377
      2        6           0.026760488    0.001194364   -0.000008710
      3        6          -0.011956096    0.001561898    0.000941689
      4        6           0.001717501    0.000050750    0.000503369
      5        6          -0.002281428    0.000346083   -0.001174165
      6        6          -0.005181913   -0.001512940    0.005363065
      7        6           0.008042524    0.003123636   -0.001506925
      8        6          -0.006277552   -0.004801931    0.002677175
      9        8           0.004796312    0.002717014   -0.004513423
     10        1           0.001669353   -0.000577507    0.000203178
     11        1           0.001706332   -0.000367005   -0.000389330
     12        1           0.000540367   -0.000017551   -0.000246498
     13        1          -0.000099790   -0.000570942   -0.000457069
     14        1           0.000666679    0.000074488    0.000108601
     15        1           0.000511978    0.000375630   -0.000035008
     16        1           0.000626012   -0.000937047   -0.001652547
     17        1          -0.000829513   -0.001486315   -0.000670729
     18        1          -0.001022392    0.000174272    0.000480174
     19        1          -0.000098833   -0.000300660    0.000956660
     20        1           0.000529935    0.001601213   -0.000547130
 -------------------------------------------------------------------
 Cartesian Forces:  Max     0.026760488 RMS     0.005071041

 GradGradGradGradGradGradGradGradGradGradGradGradGradGradGradGradGradGrad
 Berny optimization.
 Using GEDIIS/GDIIS optimizer.
 FormGI is forming the generalized inverse of G from B-inverse, IUseBI=4.
 Internal  Forces:  Max     0.019780057 RMS     0.002235719
 Search for a local minimum.
 Step number   2 out of a maximum of  120
 All quantities printed in internal units (Hartrees-Bohrs-Radians)
 Mixed Optimization -- RFO/linear search
 Update second derivatives using D2CorX and points    1    2
 DE= -2.48D-02 DEPred=-2.54D-02 R= 9.74D-01
 TightC=F SS=  1.41D+00  RLast= 3.17D-01 DXNew= 5.0454D-01 9.5163D-01
 Trust test= 9.74D-01 RLast= 3.17D-01 DXMaxT set to 5.05D-01
 ITU=  1  0
 Use linear search instead of GDIIS.
     Eigenvalues ---    0.00308   0.00453   0.00501   0.00502   0.00506
     Eigenvalues ---    0.00568   0.02492   0.03267   0.03404   0.03654
     Eigenvalues ---    0.04068   0.04480   0.04861   0.04866   0.04912
     Eigenvalues ---    0.05448   0.05727   0.05753   0.06896   0.06966
     Eigenvalues ---    0.08141   0.08755   0.08793   0.09914   0.10545
     Eigenvalues ---    0.12056   0.12518   0.12803   0.16000   0.16022
     Eigenvalues ---    0.21000   0.21858   0.21951   0.22240   0.26500
     Eigenvalues ---    0.27667   0.29013   0.29809   0.30039   0.30373
     Eigenvalues ---    0.33002   0.33556   0.33932   0.33945   0.33997
     Eigenvalues ---    0.34070   0.34104   0.34187   0.34191   0.34363
     Eigenvalues ---    0.34496   0.34819   0.34947   0.92242
 RFO step:  Lambda=-4.69873195D-03 EMin= 3.07876111D-03
 Quartic linear search produced a step of -0.03436.
 Iteration  1 RMS(Cart)=  0.08519813 RMS(Int)=  0.00800878
 Iteration  2 RMS(Cart)=  0.01365759 RMS(Int)=  0.00092517
 Iteration  3 RMS(Cart)=  0.00046836 RMS(Int)=  0.00080852
 Iteration  4 RMS(Cart)=  0.00000035 RMS(Int)=  0.00080852
 Variable       Old X    -DE/DX   Delta X   Delta X   Delta X     New X
                                 (Linear)    (Quad)   (Total)
    R1        2.16849   0.01978   0.00737   0.00975   0.01712   2.18560
    R2        2.78956  -0.00695   0.00285  -0.02826  -0.02542   2.76415
    R3        2.91346  -0.00061  -0.00046  -0.00090  -0.00136   2.91210
    R4        2.06907   0.00053   0.00004   0.00139   0.00143   2.07050
    R5        2.06907   0.00050   0.00004   0.00130   0.00134   2.07041
    R6        2.89755  -0.00053  -0.00063  -0.00018  -0.00081   2.89674
    R7        2.06712  -0.00041   0.00024  -0.00169  -0.00144   2.06568
    R8        2.06847   0.00001   0.00011  -0.00021  -0.00010   2.06837
    R9        2.87220  -0.00099   0.00001  -0.00310  -0.00309   2.86911
   R10        2.07688   0.00011  -0.00016   0.00066   0.00050   2.07738
   R11        2.07478  -0.00007  -0.00005  -0.00009  -0.00014   2.07465
   R12        2.91005   0.00064   0.00006   0.00347   0.00307   2.91312
   R13        2.75778  -0.00287   0.00029  -0.00741  -0.00718   2.75060
   R14        2.08061   0.00064   0.00001   0.00178   0.00179   2.08240
   R15        2.90638   0.00041  -0.00019   0.00176   0.00171   2.90809
   R16        2.05867   0.00105   0.00030   0.00222   0.00252   2.06119
   R17        2.06648  -0.00095  -0.00030  -0.00192  -0.00221   2.06426
   R18        2.75483  -0.00377   0.00069  -0.01338  -0.01229   2.74255
   R19        2.06563   0.00007  -0.00020   0.00065   0.00044   2.06607
   R20        2.07306   0.00101   0.00005   0.00271   0.00276   2.07582
    A1        1.94241   0.00199  -0.00124   0.01545   0.01421   1.95662
    A2        1.88130   0.00009   0.00073   0.00530   0.00603   1.88733
    A3        1.88199   0.00020   0.00072   0.00636   0.00708   1.88907
    A4        1.93705  -0.00083  -0.00019  -0.00617  -0.00644   1.93061
    A5        1.93767  -0.00098  -0.00023  -0.00679  -0.00710   1.93058
    A6        1.88087  -0.00049   0.00029  -0.01439  -0.01425   1.86662
    A7        1.94347   0.00080  -0.00057   0.00454   0.00397   1.94744
    A8        1.91362  -0.00026   0.00030  -0.00386  -0.00355   1.91006
    A9        1.89769  -0.00035   0.00017  -0.00070  -0.00054   1.89715
   A10        1.91808  -0.00051   0.00018  -0.00520  -0.00502   1.91306
   A11        1.93049  -0.00003   0.00003   0.00230   0.00233   1.93282
   A12        1.85846   0.00032  -0.00009   0.00281   0.00273   1.86118
   A13        2.00876  -0.00148   0.00003  -0.00672  -0.00674   2.00202
   A14        1.91500   0.00092  -0.00060   0.01433   0.01372   1.92872
   A15        1.90558   0.00075  -0.00013   0.00020  -0.00005   1.90553
   A16        1.87941   0.00057   0.00018   0.00631   0.00650   1.88591
   A17        1.89227  -0.00039   0.00043  -0.01302  -0.01263   1.87964
   A18        1.85671  -0.00032   0.00009  -0.00094  -0.00083   1.85588
   A19        2.15117   0.00056  -0.00066  -0.00047   0.00031   2.15148
   A20        1.99022  -0.00012   0.00037  -0.01105  -0.00947   1.98075
   A21        1.90222   0.00031  -0.00054   0.00164   0.00039   1.90261
   A22        1.57199  -0.00023  -0.00044   0.01795   0.01493   1.58692
   A23        1.92342  -0.00079   0.00128  -0.01442  -0.01326   1.91016
   A24        1.89415   0.00016   0.00013   0.00969   0.01043   1.90458
   A25        1.44995  -0.00060  -0.00015   0.01911   0.01505   1.46500
   A26        1.98488  -0.00174   0.00150  -0.03362  -0.03133   1.95355
   A27        2.05178   0.00167  -0.00110   0.01882   0.01878   2.07056
   A28        1.94375  -0.00084   0.00094  -0.00755  -0.00528   1.93847
   A29        2.07049   0.00154  -0.00108   0.01250   0.01205   2.08254
   A30        1.92337  -0.00021  -0.00004  -0.00606  -0.00685   1.91651
   A31        1.57434   0.00017  -0.00048   0.02068   0.01727   1.59161
   A32        2.06850   0.00130  -0.00143   0.01404   0.01362   2.08212
   A33        1.98084  -0.00099   0.00112  -0.01667  -0.01555   1.96530
   A34        1.96577  -0.00022   0.00033  -0.00365  -0.00239   1.96338
   A35        1.92761   0.00020   0.00037  -0.00254  -0.00130   1.92631
   A36        1.92073  -0.00038   0.00010  -0.00794  -0.00815   1.91259
   A37        1.54985   0.00205  -0.00055   0.03027   0.02536   1.57521
   A38        3.08981   0.00307   0.00178   0.26004   0.26182   3.35163
   A39        3.14632  -0.00006  -0.00016  -0.00243  -0.00259   3.14373
    D1        3.13900  -0.00014   0.00006  -0.00018  -0.00012   3.13887
    D2        1.01250   0.00015   0.00001   0.00600   0.00600   1.01850
    D3       -1.01289   0.00010  -0.00015   0.00516   0.00500  -1.00788
    D4       -1.04899   0.00075   0.00004   0.01270   0.01270  -1.03629
    D5        3.10770   0.00103  -0.00001   0.01888   0.01883   3.12653
    D6        1.08231   0.00099  -0.00017   0.01804   0.01783   1.10014
    D7        1.04251  -0.00106   0.00012  -0.01401  -0.01386   1.02865
    D8       -1.08399  -0.00078   0.00007  -0.00784  -0.00773  -1.09171
    D9       -3.10937  -0.00083  -0.00009  -0.00867  -0.00873  -3.11810
   D10        3.07644   0.00087  -0.00058   0.05709   0.05651   3.13295
   D11        0.95391   0.00046  -0.00038   0.04253   0.04215   0.99607
   D12       -1.07463  -0.00010  -0.00009   0.03545   0.03536  -1.03927
   D13       -1.08284   0.00073  -0.00046   0.05169   0.05123  -1.03161
   D14        3.07782   0.00032  -0.00026   0.03713   0.03688   3.11469
   D15        1.04928  -0.00024   0.00003   0.03005   0.03008   1.07936
   D16        0.96422   0.00080  -0.00044   0.05335   0.05290   1.01713
   D17       -1.15831   0.00039  -0.00024   0.03879   0.03855  -1.11976
   D18        3.09634  -0.00018   0.00005   0.03171   0.03175   3.12809
   D19       -0.90920  -0.00046   0.00083  -0.02930  -0.02771  -0.93691
   D20        0.95993  -0.00050   0.00010  -0.01411  -0.01488   0.94506
   D21        3.07918  -0.00015   0.00012  -0.00791  -0.00760   3.07158
   D22        1.23249   0.00017   0.00021  -0.01047  -0.00953   1.22296
   D23        3.10162   0.00013  -0.00053   0.00471   0.00330   3.10492
   D24       -1.06232   0.00048  -0.00051   0.01091   0.01058  -1.05174
   D25       -3.04847  -0.00011   0.00063  -0.01489  -0.01357  -3.06204
   D26       -1.17934  -0.00015  -0.00010   0.00029  -0.00074  -1.18007
   D27        0.93991   0.00020  -0.00008   0.00649   0.00654   0.94645
   D28        2.43745  -0.00218   0.00188  -0.11394  -0.11207   2.32538
   D29        0.51168  -0.00095   0.00083  -0.11267  -0.11138   0.40031
   D30       -1.77306  -0.00051   0.00045  -0.08684  -0.08678  -1.85984
   D31        0.35713  -0.00206   0.00197  -0.11344  -0.11160   0.24553
   D32       -1.56863  -0.00084   0.00093  -0.11217  -0.11091  -1.67954
   D33        2.42981  -0.00039   0.00054  -0.08634  -0.08631   2.34350
   D34       -1.55954  -0.00204   0.00183  -0.12895  -0.12668  -1.68623
   D35        2.79788  -0.00081   0.00079  -0.12768  -0.12599   2.67189
   D36        0.51313  -0.00036   0.00040  -0.10184  -0.10139   0.41174
   D37       -2.59037   0.00116  -0.00105   0.11106   0.11030  -2.48007
   D38       -0.37493   0.00163  -0.00193   0.11683   0.11574  -0.25920
   D39        1.56911   0.00073  -0.00071   0.10927   0.10859   1.67770
   D40       -0.35753   0.00194  -0.00191   0.11275   0.11125  -0.24629
   D41       -2.38376   0.00175  -0.00166   0.10068   0.09939  -2.28437
   D42        1.60566   0.00206  -0.00152   0.11663   0.11490   1.72056
   D43        1.61142  -0.00018  -0.00030   0.08352   0.08305   1.69446
   D44       -0.41481  -0.00037  -0.00005   0.07145   0.07119  -0.34362
   D45       -2.70858  -0.00006   0.00009   0.08741   0.08670  -2.62187
   D46       -2.41160   0.00012  -0.00044   0.07869   0.07890  -2.33271
   D47        1.84536  -0.00007  -0.00019   0.06662   0.06704   1.91240
   D48       -0.44841   0.00024  -0.00005   0.08258   0.08256  -0.36586
   D49        0.37543  -0.00160   0.00197  -0.11675  -0.11575   0.25968
   D50        2.49157  -0.00012   0.00023  -0.09193  -0.09262   2.39896
   D51       -1.63629  -0.00063   0.00089  -0.10681  -0.10586  -1.74214
         Item               Value     Threshold  Converged?
 Maximum Force            0.019780     0.000450     NO 
 RMS     Force            0.002236     0.000300     NO 
 Maximum Displacement     0.336880     0.001800     NO 
 RMS     Displacement     0.089073     0.001200     NO 
 Predicted change in Energy=-2.869198D-03
 GradGradGradGradGradGradGradGradGradGradGradGradGradGradGradGradGradGrad

                          Input orientation:                          
 ---------------------------------------------------------------------
 Center     Atomic      Atomic             Coordinates (Angstroms)
 Number     Number       Type             X           Y           Z
 ---------------------------------------------------------------------
      1          7           0        1.182470   -0.200082    0.066820
      2          6           0        2.316283    0.027108    0.089437
      3          6           0        3.778561    0.015611    0.055190
      4          6           0        4.374278    1.423443    0.249777
      5          6           0        5.906556    1.396908    0.215674
      6          6           0        6.568744    2.752098    0.389188
      7          6           0        6.230374    3.976685   -0.483905
      8          6           0        6.168637    4.716226    0.864229
      9          8           0        6.139643    3.458298    1.587435
     10          1           0        4.093898   -0.407375   -0.905081
     11          1           0        4.134451   -0.665177    0.836366
     12          1           0        4.035611    1.832911    1.205042
     13          1           0        3.980509    2.082040   -0.530738
     14          1           0        6.263276    0.961819   -0.728738
     15          1           0        6.273819    0.741136    1.015903
     16          1           0        7.661759    2.615942    0.422301
     17          1           0        5.239444    3.895861   -0.932485
     18          1           0        6.952835    4.297893   -1.237646
     19          1           0        5.304976    5.347865    1.088875
     20          1           0        7.093866    5.264531    1.087756
 ---------------------------------------------------------------------
                    Distance matrix (angstroms):
                    1          2          3          4          5
     1  N    0.000000
     2  C    1.156572   0.000000
     3  C    2.605063   1.462724   0.000000
     4  C    3.585659   2.492149   1.541018   0.000000
     5  C    4.988941   3.844782   2.542066   1.532887   0.000000
     6  C    6.150711   5.059530   3.922376   2.569132   1.518268
     7  C    6.574954   5.589990   4.689575   3.240744   2.692492
     8  C    7.047539   6.117905   5.335053   3.799959   3.392223
     9  O    6.345831   5.351181   4.446861   3.007735   2.487043
    10  H    3.076358   2.082728   1.095661   2.182705   2.792357
    11  H    3.085889   2.083962   1.095612   2.182644   2.788872
    12  H    3.683615   2.731590   2.165829   1.093111   2.160876
    13  H    3.659806   2.716066   2.157365   1.094535   2.176279
    14  H    5.272335   4.137856   2.771942   2.176901   1.099302
    15  H    5.263886   4.126775   2.770500   2.158877   1.097856
    16  H    7.073722   5.948695   4.687827   3.501335   2.146969
    17  H    5.851017   4.955446   4.262162   2.873866   2.829854
    18  H    7.431725   6.441924   5.485015   4.138097   3.409186
    19  H    6.987086   6.183981   5.641931   4.119633   4.090775
    20  H    8.114735   7.159088   6.293537   4.780411   4.138688
                    6          7          8          9         10
     6  C    0.000000
     7  C    1.541557   0.000000
     8  C    2.059988   1.538895   0.000000
     9  O    1.455556   2.137149   1.451292   0.000000
    10  H    4.216901   4.895089   5.803988   5.033997   0.000000
    11  H    4.219421   5.261452   5.753101   4.646282   1.760892
    12  H    2.815544   3.502184   3.602702   2.686086   3.078131
    13  H    2.827402   2.941728   3.697671   3.323040   2.519955
    14  H    2.132643   3.024970   4.079470   3.407690   2.571379
    15  H    2.126903   3.566523   3.979372   2.779859   3.124310
    16  H    1.101960   2.172946   2.614557   2.093785   4.861277
    17  H    2.195918   1.090733   2.182791   2.711423   4.453186
    18  H    2.276752   1.092360   2.282071   3.057333   5.515766
    19  H    2.970637   2.282572   1.093318   2.125017   6.210101
    20  H    2.660089   2.207779   1.098477   2.103022   6.718759
                   11         12         13         14         15
    11  H    0.000000
    12  H    2.527080   0.000000
    13  H    3.072437   1.754432   0.000000
    14  H    3.102992   3.075841   2.550514   0.000000
    15  H    2.566485   2.497463   3.073986   1.758575   0.000000
    16  H    4.835192   3.791408   3.839913   2.452910   2.406997
    17  H    5.015267   3.205308   2.244163   3.114217   3.849473
    18  H    6.072633   4.533549   3.774182   3.444397   4.264982
    19  H    6.131114   3.738942   3.878527   4.843496   4.708071
    20  H    6.631950   4.598119   4.737169   4.743719   4.597689
                   16         17         18         19         20
    16  H    0.000000
    17  H    3.056346   0.000000
    18  H    2.467176   1.786187   0.000000
    19  H    3.669080   2.489680   3.038187   0.000000
    20  H    2.789329   3.064884   2.522256   1.790830   0.000000
 Stoichiometry    C7H11NO
 Framework group  C1[X(C7H11NO)]
 Deg. of freedom    54
 Full point group                 C1      NOp   1
 Largest Abelian subgroup         C1      NOp   1
 Largest concise Abelian subgroup C1      NOp   1
                         Standard orientation:                         
 ---------------------------------------------------------------------
 Center     Atomic      Atomic             Coordinates (Angstroms)
 Number     Number       Type             X           Y           Z
 ---------------------------------------------------------------------
      1          7           0       -4.191393   -1.001801    0.041086
      2          6           0       -3.226859   -0.364297    0.010739
      3          6           0       -2.201669    0.678678   -0.016696
      4          6           0       -0.776844    0.091950    0.002209
      5          6           0        0.287442    1.194653   -0.030713
      6          6           0        1.720650    0.694395   -0.002520
      7          6           0        2.259913   -0.266548    1.075526
      8          6           0        2.854119   -1.021226   -0.126796
      9          8           0        2.017792   -0.273920   -1.047851
     10          1           0       -2.359974    1.335283    0.846022
     11          1           0       -2.356145    1.287732   -0.914224
     12          1           0       -0.644980   -0.570966   -0.856887
     13          1           0       -0.664683   -0.528469    0.896920
     14          1           0        0.151409    1.886489    0.812687
     15          1           0        0.160235    1.791550   -0.943302
     16          1           0        2.402921    1.553987   -0.102139
     17          1           0        1.461033   -0.842654    1.544132
     18          1           0        2.929399    0.129673    1.842369
     19          1           0        2.704171   -2.101179   -0.207789
     20          1           0        3.913508   -0.783112   -0.293076
[...]
 50,-0.00000526,-0.00011481,0.00003826,0.00004249,0.00005276,-0.0005103
 4,-0.00041658,-0.00121501,0.00001544,-0.00162027,0.00047212,0.03352886
 ,0.00750588,-0.08518422,-0.00078484,0.01550483,0.60364501,0.00036924,-
 0.00011507,0.00000497,-0.00029090,0.00025684,0.00000025,0.00017787,-0.
 00023852,0.00037781,0.00005126,0.00046784,-0.00102270,0.00144034,-0.00
 348307,0.00166958,0.02807909,-0.08458636,-0.02075784,-0.00355857,-0.06
 653032,-0.04696501,-0.00282062,0.53230576,-0.00007093,0.00001760,-0.00
 003849,0.00003856,-0.00003338,0.00003752,-0.00005668,0.00007185,-0.000
 33058,0.00035267,-0.00013739,0.00105608,0.00076971,-0.00048393,-0.0062
 6732,0.00949626,-0.02769988,-0.00422206,0.01954608,-0.06862445,-0.1483
 8603,-0.01274730,0.08927106,0.40496466,0.00004346,-0.00014310,-0.00003
 640,0.00028708,0.00039570,0.00005671,0.00127583,-0.00041165,-0.0012712
 4,-0.00163553,0.00071091,0.00092880,0.00707663,-0.00247268,-0.00825428
 ,-0.07706356,0.00906542,0.04052514,0.01341192,0.00972252,0.00316563,-0
 .06890445,0.01783289,-0.01637199,0.11230952,-0.00050031,0.00010993,-0.
 00001685,0.00032067,-0.00017622,0.00009966,0.00021566,0.00024901,-0.00
 049451,0.00145826,0.00092995,0.00107089,0.00977882,-0.01502377,-0.0359
 4195,0.01390786,-0.07679567,-0.06351959,0.00702499,-0.02371594,0.02145
 540,0.01216384,-0.15322860,0.08271956,-0.05898281,0.32526505,-0.000168
 00,0.00006327,0.00008081,-0.00010939,-0.00018089,0.00000526,-0.0001981
 9,0.00023651,0.00049884,0.00179802,0.00002353,-0.00049898,0.00197006,-
 0.01169954,-0.01050882,0.02198994,-0.01165143,-0.15218522,0.01190662,0
 .02507943,-0.09424283,-0.00166814,0.03223357,-0.09389539,-0.04485083,-
 0.02687802,0.35403029,-0.00071696,-0.00195870,-0.00412777,-0.01839234,
 0.01679559,0.03228907,-0.06580574,0.03416419,0.06125973,0.00386833,-0.
 00629393,-0.01194820,0.00139278,-0.00011663,-0.00116668,0.00013544,-0.
 00008894,-0.00008632,0.00004657,0.00001044,0.00002069,-0.00001108,0.00
 006978,-0.00003244,-0.00032159,-0.00006421,0.00009095,0.07702438,-0.00
 135110,0.00072037,-0.00045035,0.00355918,-0.00159586,0.00009233,0.0332
 6606,-0.09640493,-0.09833437,0.00697072,-0.01647233,-0.02682134,0.0018
 0411,0.00149794,-0.00020610,0.00029650,-0.00041662,-0.00009005,0.00000
 008,-0.00001410,0.00002121,0.00005603,0.00015724,-0.00006988,-0.000536
 85,-0.00004337,0.00027119,-0.03520911,0.10809403,-0.00245098,-0.000463
 42,-0.00004575,0.00433706,0.00155980,0.00102558,0.06040270,-0.09838818
 ,-0.22972785,-0.00022823,-0.00089962,-0.00069554,0.00018181,0.00056020
 ,0.00039155,-0.00023416,-0.00017103,0.00005111,0.00003192,0.00001422,0
 .00001177,0.00003652,0.00001117,0.00002982,-0.00002759,0.00016233,0.00
 014263,-0.06834496,0.10912019,0.24776913,-0.00048750,-0.00241574,0.003
 85350,-0.01964978,0.02039420,-0.02904091,-0.07134505,0.04645821,-0.063
 04645,0.00420381,-0.00731565,0.01054282,0.00145394,-0.00061502,0.00121
 705,0.00012578,-0.00001653,-0.00013944,0.00001192,-0.00004707,0.000111
 51,-0.00000665,-0.00003152,0.00002522,-0.00005772,0.00005810,0.0000407
 5,0.00353784,-0.00567770,0.00716361,0.08320490,-0.00163066,0.00057578,
 0.00063180,0.00389314,-0.00128113,-0.00074884,0.04549136,-0.12199360,0
 .10998441,0.00812279,-0.01978795,0.02382459,0.00189012,0.00118631,0.00
 033453,0.00012056,-0.00014916,-0.00034269,0.00014761,0.00002052,0.0002
 3262,0.00001816,-0.00004695,0.00008145,-0.00008259,0.00009906,-0.00009
 054,-0.00528111,0.00789044,-0.01113138,-0.04901732,0.13652392,0.002331
 31,0.00066458,-0.00019886,-0.00300259,-0.00281524,0.00229625,-0.062297
 68,0.11029211,-0.19937566,0.00085448,-0.00121827,0.00192029,-0.0000592
 6,-0.00036323,0.00002442,0.00023557,-0.00000395,0.00031086,-0.00009442
 ,-0.00010010,-0.00001904,-0.00001166,-0.00001923,0.00000939,0.00007496
 ,-0.00000093,-0.00009047,-0.00884966,0.01488225,-0.02111381,0.07018799
 ,-0.12088724,0.21399888,-0.00017527,0.00020725,0.00031384,0.00148870,-
 0.00005864,-0.00107360,0.00228113,-0.00752023,-0.01255305,-0.06570757,
 0.03274864,0.06086468,-0.01167984,0.01387584,0.03005890,0.00066634,0.0
 0160412,0.00207571,-0.00018478,-0.00016655,-0.00001530,0.00046518,-0.0
 0107636,0.00053153,0.00099957,0.00001779,-0.00179649,-0.00082118,-0.00
 287827,0.00002334,0.00026977,0.00071756,0.00038223,0.07477613,-0.00065
 854,0.00017374,0.00027738,0.00189243,0.00061070,-0.00041655,0.00610885
 ,-0.01665470,-0.02646396,0.03259567,-0.09742153,-0.09561948,0.00149061
 ,-0.00014784,-0.00119202,-0.00023422,0.00023511,0.00040259,0.00016619,
 -0.00010874,0.00004749,-0.00041525,-0.00053127,0.00027576,-0.00058299,
 -0.00071234,-0.00023198,-0.00286785,-0.00498126,-0.00000783,0.00076012
 ,0.00132165,0.00003396,-0.03292810,0.10913631,-0.00026941,0.00024962,0
 .00007051,0.00013539,-0.00031046,0.00008772,-0.00061244,0.00039566,0.0
 0037543,0.06119851,-0.09716612,-0.24484407,0.00203675,0.00069844,-0.00
 074430,0.00043534,-0.00146855,-0.00081705,-0.00000267,0.00012182,-0.00
 005829,0.00040124,0.00039448,-0.00007047,-0.00218986,-0.00053005,0.000
 08230,0.00007116,0.00069664,0.00149052,-0.00023344,-0.00024443,0.00080
 079,-0.06780150,0.10738891,0.26198413,-0.00016013,0.00022545,-0.000240
 40,0.00155811,-0.00030133,0.00100017,0.00337079,-0.00944258,0.01115821
 ,-0.07999851,0.05138390,-0.06967246,-0.01290160,0.01892877,-0.02604091
 ,0.00093898,0.00134624,-0.00023669,-0.00040733,-0.00046677,-0.00036665
 ,0.00017107,0.00021242,-0.00028334,0.00004842,-0.00052567,-0.00001193,
 0.00017483,0.00074910,-0.00027924,-0.00086542,-0.00306612,-0.00023589,
 0.00284353,-0.00525268,0.00653159,0.08979275,-0.00076617,0.00027750,-0
 .00026038,0.00203843,0.00051625,0.00045109,0.00824756,-0.02047684,0.02
 382142,0.05004942,-0.12247383,0.10435822,0.00153688,-0.00077006,0.0007
 5383,0.00007113,0.00012307,-0.00036023,-0.00054702,-0.00057233,0.00017
 159,-0.00007038,0.00008468,0.00000422,0.00001396,-0.00019258,0.0000703
 8,0.00070498,0.00123340,-0.00010635,-0.00284422,-0.00504156,-0.0007038
 9,-0.00523654,0.00859958,-0.01050826,-0.05234832,0.13889558,0.00032681
 ,-0.00029523,0.00001194,-0.00024001,0.00038315,0.00018998,0.00099133,-
 0.00176882,0.00148639,-0.06906138,0.10609265,-0.19906562,0.00056464,-0
 .00219320,0.00180452,-0.00022584,0.00100110,-0.00005637,0.00004386,0.0
 0047359,-0.00069285,-0.00035638,0.00017083,-0.00043986,-0.00006677,-0.
 00086083,0.00030514,0.00038367,0.00030332,0.00080966,-0.00006726,-0.00
 087633,0.00135018,-0.00977363,0.01621263,-0.02052466,0.07633327,-0.117
 88747,0.21143918,0.00004613,-0.00008655,0.00001755,0.00028585,0.000175
 66,-0.00042568,0.00131220,0.00122161,0.00065951,-0.01186084,0.01277026
 ,0.03083300,-0.06824872,0.02500970,0.06370225,0.00421802,-0.00229848,-
 0.01340107,0.00040077,0.00012874,0.00030885,-0.00022447,0.00014283,-0.
 00082842,-0.00009929,-0.00396291,-0.00023581,-0.00005254,-0.00087565,-
 0.00052123,-0.00004868,-0.00006937,-0.00005103,-0.00676145,-0.00021818
 ,-0.00017537,0.00160262,0.00007013,-0.00052356,0.07693841,0.00004031,-
 0.00002377,0.00001682,0.00006072,0.00001770,-0.00002606,-0.00017291,0.
 00066929,0.00085158,0.00077689,-0.00160671,-0.00147635,0.02550222,-0.0
 8097700,-0.08057362,0.01084773,-0.00899498,-0.02737933,0.00036394,0.00
 110618,0.00110155,-0.00044580,0.00138846,-0.00187001,-0.00248753,-0.00
 701154,-0.00116168,0.00004520,0.00023662,-0.00021407,0.00000475,0.0000
 3513,0.00007678,0.00014099,0.00040888,-0.00028599,-0.00002481,0.000074
 34,-0.00036943,-0.02844645,0.08668975,0.00001244,-0.00003845,-0.000040
 70,-0.00001645,0.00028308,0.00027328,-0.00007493,0.00007686,0.00012800
 ,-0.00026900,-0.00015639,-0.00021288,0.06376918,-0.08122683,-0.2424901
 0,0.00236161,-0.00002650,-0.00597352,-0.00005266,-0.00060305,0.0003118
 7,-0.00033922,0.00011664,-0.00023678,-0.00058163,-0.00044365,0.0019973
 3,0.00050650,0.00046065,0.00011898,-0.00001595,-0.00010478,-0.00008349
 ,-0.00015596,-0.00003703,0.00148909,0.00046377,0.00012412,0.00091254,-
 0.07127593,0.09130682,0.26366347,0.00009504,-0.00011852,-0.00003192,0.
 00043582,0.00017633,0.00040726,0.00130419,0.00144999,-0.00080969,-0.01
 468334,0.02072737,-0.02533350,-0.07339503,0.05084885,-0.05724084,0.003
 93878,-0.01093954,0.01254527,-0.00084641,-0.00218593,-0.00176494,0.000
 09549,-0.00037744,0.00058954,0.00018834,0.00097099,-0.00057458,-0.0000
 1591,-0.00015954,-0.00003401,-0.00019078,-0.00102194,0.00051001,0.0012
 2748,-0.00005822,0.00039032,-0.00671301,0.00005311,0.00083081,0.002303
 30,-0.00599227,0.00623051,0.08532958,0.00002902,-0.00004422,0.00002411
 ,-0.00002812,0.00013162,-0.00019451,-0.00066145,0.00089972,-0.00073293
 ,0.00076777,-0.00200315,0.00165857,0.05148879,-0.14393843,0.11082059,0
 .00872966,-0.02417765,0.02437801,-0.00385284,-0.00225332,-0.00211172,0
 .00042465,-0.00044840,0.00127449,0.00005496,0.00290116,-0.00145401,0.0
 0005113,0.00002736,-0.00006667,0.00020717,0.00046296,0.00016348,0.0001
 4269,-0.00003883,0.00016225,-0.00004385,0.00051965,-0.00013828,-0.0041
 0371,0.00794310,-0.00884276,-0.05347779,0.15909889,0.00002579,0.000048
 65,-0.00003774,0.00011483,-0.00033814,0.00018530,0.00014213,-0.0000224
 9,0.00025026,0.00017736,-0.00092815,0.00091190,-0.05696817,0.11120408,
 -0.17412539,0.00122878,-0.00356260,0.00229810,-0.00005499,-0.00198585,
 0.00066757,0.00010013,-0.00005274,0.00074851,-0.00008347,0.00171011,0.
 00086474,-0.00008112,0.00010128,-0.00019013,-0.00044963,-0.00035548,0.
 00018151,-0.00040047,-0.00028299,0.00064347,0.00052265,-0.00017343,0.0
 0156562,-0.00874250,0.01823762,-0.02037891,0.06362242,-0.12390705,0.18
 604536,-0.00013595,0.00005481,-0.00000333,-0.00008658,-0.00038100,0.00
 001504,-0.00092910,0.00042317,0.00008311,0.00119636,-0.00340930,-0.000
 61170,-0.01714788,0.00164891,-0.00199158,-0.28754641,0.03094896,-0.012
 54572,-0.00483460,0.00007533,-0.00173454,-0.00097814,-0.00197874,0.001
 16057,-0.00353792,0.00806413,0.01197659,-0.00001868,0.00001287,-0.0000
 1971,-0.00002282,-0.00001616,0.00002764,0.00041026,0.00017933,0.000084
 48,0.00023289,0.00006810,-0.00008818,0.00014914,-0.00044662,-0.0006759
 7,0.00079738,-0.00004319,0.00074594,0.31093922,-0.00027411,0.00017183,
 0.00000908,-0.00005867,-0.00073532,-0.00000693,-0.00173204,0.00049625,
 0.00006810,-0.00062299,-0.00550172,-0.00107906,-0.03189425,0.00169094,
 -0.00081868,0.03238050,-0.05502564,0.00343846,0.02154967,-0.00307590,0
 .00450349,-0.00004479,0.00108841,-0.00089992,0.01629816,-0.00386535,-0
 .00829955,0.00001168,0.00005833,-0.00002562,0.00001880,0.00003395,0.00
 003877,0.00002753,-0.00005249,0.00019525,-0.00011359,0.00001860,-0.000
 21964,0.00088346,0.00103039,-0.00016859,0.00037451,0.00136893,0.000367
 38,-0.03771068,0.06551078,-0.00005629,0.00003451,0.00001610,-0.0000040
 2,-0.00015958,-0.00004926,-0.00039627,0.00010204,0.00017116,-0.0000474
 9,-0.00133360,0.00077091,-0.00481692,0.00195962,0.00315238,-0.01454248
 ,0.00474178,-0.04865249,-0.01982263,0.00303218,-0.00090839,0.00177443,
 0.00337111,-0.00350718,0.03385045,-0.01497284,-0.00854544,0.00001684,0
 .00001867,-0.00002449,-0.00000431,-0.00002103,0.00000468,-0.00032677,-
 0.00019499,-0.00004040,0.00029548,0.00009235,-0.00003101,0.00021116,0.
 00071727,0.00020269,0.00072478,-0.00038309,0.00033506,0.00432360,0.002
 33316,0.05545109,0.00000579,-0.00001470,0.00001375,0.00004453,0.000085
 41,-0.00000989,0.00029784,-0.00011481,0.00012134,-0.00016228,-0.000295
 29,0.00006259,0.00026694,-0.00126968,0.00016550,-0.00779100,-0.0001000
 9,-0.00196022,-0.23494903,-0.02567730,-0.12225293,0.00741131,0.0012366
 5,0.00471580,-0.00047482,-0.00090011,0.00027934,-0.00000628,0.00001129
 ,-0.00000637,-0.00007704,-0.00010128,-0.00001496,-0.00003790,-0.000005
 42,0.00005503,0.00002549,-0.00098384,0.00051525,-0.00006116,0.00025396
 ,0.00004947,-0.00001567,0.00002031,0.00007184,0.00064520,0.00134298,-0
 .00144557,0.25115657,0.00005562,-0.00000702,-0.00000446,-0.00009811,-0
 .00000135,0.00001052,-0.00010503,0.00006815,-0.00029669,-0.00029857,-0
 .00078204,0.00046989,-0.00030155,0.00215152,-0.00112169,0.02701639,0.0
 0592877,0.01125870,-0.02543224,-0.05027528,-0.01521762,-0.01780413,-0.
 00541179,-0.00750588,-0.00177165,0.00151991,0.00179680,0.00001040,-0.0
 0002164,0.00001600,0.00007753,0.00009878,0.00000861,0.00003593,0.00015
 802,-0.00012322,-0.00126167,-0.00084245,0.00025627,0.00006177,-0.00021
 550,-0.00021524,0.00003166,0.00051419,-0.00013401,0.00107255,-0.003653
 34,0.00345886,0.02808580,0.05094931,-0.00003643,-0.00002942,0.00000697
 ,0.00010630,0.00005160,-0.00001633,0.00029343,-0.00009778,0.00032538,-
 0.00054285,0.00014034,-0.00055840,-0.00070119,-0.00030731,0.00088236,-
 0.00779732,-0.00351034,-0.00544795,-0.12080452,-0.01492959,-0.12699873
 ,-0.02209353,-0.00289258,-0.01013098,0.00250127,0.00276808,-0.00367736
 ,-0.00001928,-0.00004155,-0.00003092,-0.00009472,-0.00018780,-0.000004
 39,-0.00006492,-0.00005112,-0.00007531,0.00064702,0.00018814,0.0006872
 2,0.00015848,0.00035228,0.00006968,0.00013592,-0.00010639,0.00002458,-
 0.00006045,0.00056694,-0.00090467,0.13224580,0.01673133,0.13642104,-0.
 00003066,-0.00001822,-0.00000449,0.00006491,0.00002505,0.00000167,0.00
 017647,-0.00004041,0.00017281,-0.00037886,0.00008538,-0.00036985,-0.00
 037436,0.00061816,-0.00077771,0.00803193,0.00502701,-0.00490535,-0.195
 86423,-0.07904993,0.11141676,-0.00413494,-0.00137485,-0.00104851,0.000
 71426,-0.00036784,-0.00262789,-0.00001720,-0.00002909,-0.00001691,-0.0
 0005067,-0.00010182,0.00000165,0.00003610,0.00001113,-0.00004255,0.000
 27657,-0.00006498,0.00031869,0.00000541,-0.00004181,0.00001481,0.00009
 373,0.00030669,0.00005146,0.00120186,-0.00029331,0.00035761,-0.0182785
 1,-0.01040601,0.01527941,0.20670695,-0.00006153,0.00001038,0.00000278,
 0.00002626,-0.00003451,-0.00002098,-0.00004137,0.00001076,0.00007937,0
 .00051663,0.00001980,-0.00003962,0.00134945,-0.00127967,0.00293040,-0.
 02330732,-0.00745970,0.00738454,-0.07843243,-0.09106873,0.05811790,0.0
 1690135,0.00594548,-0.00535845,-0.00033928,0.00277303,0.00284410,0.000
 00524,-0.00000196,0.00000391,-0.00002173,0.00000523,-0.00003563,0.0000
 0257,-0.00001141,0.00003426,0.00007131,0.00006475,-0.00000703,0.000010
 77,-0.00015760,-0.00017608,-0.00026342,-0.00115590,-0.00011762,0.00015
 859,0.00185149,-0.00118487,-0.00218432,-0.00075323,0.00186962,0.085469
 23,0.09116190,0.00000608,-0.00000562,0.00000788,0.00001661,0.00002791,
 0.00000100,0.00012098,-0.00004234,0.00015187,-0.00035367,-0.00006474,-
 0.00034328,-0.00053765,-0.00030854,-0.00080883,0.00806983,0.00053575,-
 0.00626981,0.10962029,0.05756682,-0.12901559,0.01732557,0.01152555,-0.
 00739152,-0.00197118,0.00316209,-0.00766126,0.00000024,0.00000649,-0.0
 0000570,-0.00003795,-0.00008237,-0.00000050,-0.00007854,-0.00003314,0.
 00003322,0.00023339,-0.00005345,0.00023903,0.00004697,0.00005753,0.000
 09512,0.00016768,0.00015632,-0.00000848,-0.00036908,0.00030820,0.00100
 683,-0.01337530,-0.00729600,0.01096053,-0.11846946,-0.06482297,0.13991
 253,0.00005632,-0.00002515,-0.00000890,-0.00004485,0.00003346,0.000004
 93,-0.00000712,-0.00003026,0.00004256,0.00008250,0.00020293,-0.0000630
 0,-0.00016684,-0.00022793,-0.00001088,-0.00009633,-0.00124441,-0.00142
 762,0.00026485,-0.00128563,-0.00042290,-0.27200219,0.07615941,0.043322
 28,0.00376897,0.00788401,-0.00246793,0.00000590,0.00001284,-0.00000204
 ,-0.00000299,-0.00000207,0.00000325,-0.00009449,-0.00001109,0.00006007
 ,0.00001833,0.00000483,0.00002291,0.00005379,0.00006027,0.00003599,0.0
 0003036,0.00001316,-0.00001859,-0.00021669,-0.00000852,0.00016376,0.00
 127955,0.00014373,0.00028092,0.00055304,0.00053289,-0.00003040,0.28735
 306,-0.00004327,0.00004446,0.00001130,0.00001264,-0.00006195,-0.000008
 45,-0.00015846,0.00005753,0.00004271,0.00027731,-0.00002204,-0.0000786
 4,0.00066777,-0.00006610,-0.00038773,0.00154834,-0.00168458,0.00366778
 ,0.00663308,-0.00156857,-0.00364464,0.07227784,-0.07517126,-0.01445985
 ,0.02643523,-0.02075532,-0.00134563,0.00002617,0.00005504,0.00001731,0
 .00001968,0.00003719,-0.00001261,0.00003813,-0.00008355,0.00023407,-0.
 00005311,-0.00003483,-0.00017985,-0.00020646,-0.00018253,-0.00004999,-
 0.00005127,0.00003699,0.00006440,0.00068175,-0.00090580,-0.00128754,-0
 .00010213,0.00140560,-0.00005635,0.00021992,-0.00109640,-0.00038632,-0
 .08879458,0.09072785,-0.00000887,0.00001541,-0.00000526,0.00000316,-0.
 00001617,0.00000013,-0.00004322,0.00000938,0.00002500,0.00003587,-0.00
 001978,-0.00006675,0.00031773,-0.00018005,0.00061279,-0.00112560,-0.00
 109887,-0.00525454,0.02544542,-0.00727520,-0.00241942,0.04562346,-0.01
 783120,-0.06154198,-0.01625843,0.01164658,0.00603757,0.00000887,0.0000
 1965,0.00000273,0.00000438,0.00001732,-0.00000470,-0.00003347,-0.00002
 038,0.00010598,0.00001437,-0.00003976,-0.00005217,0.00010066,0.0001683
 5,0.00002480,-0.00022472,-0.00030983,-0.00002597,-0.00021306,-0.000130
 87,0.00147081,-0.00042823,0.00165065,0.00201253,0.00099712,-0.00302119
 ,-0.00272178,-0.04493911,0.01542696,0.05723883,-0.00002858,-0.00001908
 ,-0.00000280,0.00001654,-0.00001029,-0.00000002,0.00000960,0.00001998,
 -0.00001290,-0.00003220,0.00006532,0.00005349,-0.00011701,0.00024708,0
 .00005182,-0.00089583,0.00039521,0.00025194,0.00397450,0.00444452,0.00
 211192,-0.17949475,-0.11426278,-0.04910861,0.01197088,0.00343872,0.004
 65691,-0.00000659,-0.00002148,-0.00001154,-0.00000285,-0.00001086,0.00
 000806,-0.00000171,0.00002819,-0.00007263,-0.00000839,0.00000292,0.000
 07176,0.00004150,-0.00003878,0.00001343,0.00002065,-0.00002505,-0.0000
 0437,-0.00011755,-0.00013432,-0.00025536,0.00072046,0.00088757,0.00056
 666,0.00126822,-0.00039289,-0.00038442,-0.02083517,-0.01942858,-0.0092
 7633,0.18351829,-0.00008576,0.00001308,0.00000148,0.00006001,-0.000038
 67,0.00000231,-0.00000752,0.00004732,-0.00006644,0.00020638,0.00003737
 ,0.00009245,0.00048581,-0.00054520,-0.00136866,-0.00257774,-0.00001168
 ,0.00423093,-0.00564933,-0.00301135,-0.00366871,-0.11252982,-0.1519031
 4,-0.04657297,-0.01271862,-0.03232642,0.00037449,-0.00001433,-0.000018
 72,0.00000904,0.00000394,0.00000942,-0.00000022,0.00030564,0.00009996,
 0.00006569,-0.00001671,-0.00000292,-0.00009745,-0.00020716,-0.00043021
 ,-0.00027882,0.00001307,0.00015534,0.00012704,0.00059722,-0.00050434,-
 0.00032400,0.00071257,-0.00083060,-0.00045811,0.00002570,0.00117633,-0
 .00025117,0.00658210,0.00926827,0.00098900,0.12481458,0.17881615,-0.00
 001023,-0.00000166,0.00001106,0.00001188,0.00000103,-0.00001256,0.0000
 3044,-0.00001699,0.00010690,-0.00003325,0.00006284,-0.00018605,0.00001
 808,-0.00021069,0.00160224,0.00191803,0.00024797,-0.00362151,-0.021240
 88,-0.01659920,-0.00755070,-0.04908210,-0.04960570,-0.07038734,0.01086
 070,0.01886448,0.00726083,0.00000872,0.00001976,-0.00000930,-0.0000167
 8,-0.00003382,-0.00000631,-0.00017655,-0.00008724,0.00001140,0.0001675
 8,0.00005785,0.00006117,0.00014219,0.00046994,0.00012953,-0.00014033,-
 0.00039055,0.00004464,-0.00010367,-0.00017995,0.00008161,0.00119774,-0
 .00374281,-0.00354526,-0.00034929,0.00151755,0.00181875,0.00545471,0.0
 0243308,0.00456140,0.05134299,0.04719412,0.06962950\\0.00000030,0.0000
 0107,0.00000011,0.00000109,-0.00000278,0.00000005,-0.00000611,-0.00000
 338,-0.00000069,0.00000540,0.00000571,-0.00000173,-0.00000060,0.000005
 74,-0.00000257,0.00000472,-0.00000255,-0.00001474,-0.00000891,0.000002
 02,0.00000309,0.00000821,0.00001365,-0.00000564,-0.00000518,-0.0000091
 7,0.00001829,0.00000193,0.00000084,0.00000011,0.00000220,-0.00000007,0
 .00000083,-0.00000007,-0.00000283,-0.00000057,-0.00000078,0.00000095,-
 0.00000129,-0.00000203,-0.00000674,0.00000258,0.00000311,0.00000459,0.
 00000584,0.00000004,0.00000004,-0.00000252,-0.00000147,0.00000068,-0.0
 0000239,0.00000132,-0.00000214,0.00000317,-0.00000074,-0.00000371,-0.0
 0000302,-0.00000240,-0.00000192,0.00000110\\\@


 TIME IS NATURE'S WAY OF MAKING SURE EVERYTHING
 DOESN'T HAPPEN AT ONCE.
                     - WOODY ALLEN
 Job cpu time:       0 days  1 hours 51 minutes 13.5 seconds.
 Elapsed time:       0 days  0 hours 27 minutes 49.5 seconds.
 File lengths (MBytes):  RWF=    145 Int=      0 D2E=      0 Chk=      9 Scr=      1
 Normal termination of Gaussian 16 at Thu Aug  4 00:31:31 2022.
### All Done ###
