### Starting Gaussian ###
 Entering Gaussian System, Link 0=g16
 Initial command:
 /cluster/software/gaussian/gaussian-16-A.03/avx2/g16/l1.exe "/local/scratch/ks29c/Gau-8878.inp" -scrdir="/local/scratch/ks29c/"
 Entering Link 1 = /cluster/software/gaussian/gaussian-16-A.03/avx2/g16/l1.exe PID=      8879.
  
 Copyright (c) 1988,1990,1992,1993,1995,1998,2003,2009,2016,
            Gaussian, Inc.  All Rights Reserved.
  
 This is part of the Gaussian(R) 16 program.  It is based on
 the Gaussian(R) 09 system (copyright 2009, Gaussian, Inc.),
 the Gaussian(R) 03 system (copyright 2003, Gaussian, Inc.),
 the Gaussian(R) 98 system (copyright 1998, Gaussian, Inc.),
 the Gaussian(R) 94 system (copyright 1995, Gaussian, Inc.),
 the Gaussian 92(TM) system (copyright 1992, Gaussian, Inc.),
 the Gaussian 90(TM) system (copyright 1990, Gaussian, Inc.),
 the Gaussian 88(TM) system (copyright 1988, Gaussian, Inc.),
 the Gaussian 86(TM) system (copyright 1986, Carnegie Mellon
 University), and the Gaussian 82(TM) system (copyright 1983,
 Carnegie Mellon University). Gaussian is a federally registered
 trademark of Gaussian, Inc.
  
 This software contains proprietary and confidential information,
 including trade secrets, belonging to Gaussian, Inc.
  
 This software is provided under written license and may be
 used, copied, transmitted, or stored only in accord with that
 written license.
  
 The following legend is applicable only to US Government
 contracts under FAR:
  
                    RESTRICTED RIGHTS LEGEND
  
 Use, reproduction and disclosure by the US Government is
 subject to restrictions as set forth in subparagraphs (a)
 and (c) of the Commercial Computer Software - Restricted
 Rights clause in FAR 52.227-19.
  
 Gaussian, Inc.
 340 Quinnipiac St., Bldg. 40, Wallingford CT 06492
  
  
 ---------------------------------------------------------------
 Warning -- This program may not be used in any manner that
 competes with the business of Gaussian, Inc. or will provide
 assistance to any competitor of Gaussian, Inc.  The licensee
 of this program is prohibited from giving any competitor of
 Gaussian, Inc. access to this program.  By using this program,
 the user acknowledges that Gaussian, Inc. is engaged in the
 business of creating and licensing software in the field of
 computational chemistry and represents and warrants to the
 licensee that it is not a competitor of Gaussian, Inc. and that
 it will not use this program in any manner prohibited above.
 ---------------------------------------------------------------
  

 Cite this work as:
 Gaussian 16, Revision A.03,
 M. J. Frisch, G. W. Trucks, H. B. Schlegel, G. E. Scuseria, 
 M. A. Robb, J. R. Cheeseman, G. Scalmani, V. Barone, 
 G. A. Petersson, H. Nakatsuji, X. Li, M. Caricato, A. V. Marenich, 
 J. Bloino, B. G. Janesko, R. Gomperts, B. Mennucci, H. P. Hratchian, 
 J. V. Ortiz, A. F. Izmaylov, J. L. Sonnenberg, D. Williams-Young, 
 F. Ding, F. Lipparini, F. Egidi, J. Goings, B. Peng, A. Petrone, 
 T. Henderson, D. Ranasinghe, V. G. Zakrzewski, J. Gao, N. Rega, 
 G. Zheng, W. Liang, M. Hada, M. Ehara, K. Toyota, R. Fukuda, 
 J. Hasegawa, M. Ishida, T. Nakajima, Y. Honda, O. Kitao, H. Nakai, 
 T. Vreven, K. Throssell, J. A. Montgomery, Jr., J. E. Peralta, 
 F. Ogliaro, M. J. Bearpark, J. J. Heyd, E. N. Brothers, K. N. Kudin, 
 V. N. Staroverov, T. A. Keith, R. Kobayashi, J. Normand, 
 K. Raghavachari, A. P. Rendell, J. C. Burant, S. S. Iyengar, 
 J. Tomasi, M. Cossi, J. M. Millam, M. Klene, C. Adamo, R. Cammi, 
 J. W. Ochterski, R. L. Martin, K. Morokuma, O. Farkas, 
 J. B. Foresman, and D. J. Fox, Gaussian, Inc., Wallingford CT, 2016.
 
 ******************************************
 Gaussian 16:  ES64L-G16RevA.03 25-Dec-2016
                 3-Jul-2022 
 ******************************************
 %chk=NtCCtCC1CdCOC1.chk
 %NProcShared=20
 Will use up to   20 processors via shared memory.
 -----------------------------
 # opt freq b3lyp/6-31g(2df,p)
 -----------------------------
 1/18=20,19=15,26=3,38=1/1,3;
 2/9=110,12=2,17=6,18=5,40=1/2;
 3/5=1,6=6,7=104,11=2,25=1,30=1,71=1,74=-5/1,2,3;
 4//1;
 5/5=2,38=5/2;
 6/7=2,8=2,9=2,10=2,28=1/1;
 7//1,2,3,16;
 1/18=20,19=15,26=3/3(2);
 2/9=110/2;
 99//99;
 2/9=110/2;
 3/5=1,6=6,7=104,11=2,25=1,30=1,71=1,74=-5/1,2,3;
 4/5=5,16=3,69=1/1;
 5/5=2,38=5/2;
 7//1,2,3,16;
 1/18=20,19=15,26=3/3(-5);
 2/9=110/2;
 6/7=2,8=2,9=2,10=2,19=2,28=1/1;
 99/9=1/99;
 -------------------
 Title Card Required
 -------------------
 Symbolic Z-matrix:
 Charge =  0 Multiplicity = 1
 N                     1.16436  -0.0332    0.05037 
 C                     2.32622  -0.0345    0.04923 
 C                     3.8609   -0.03341   0.04994 
 C                     5.16476  -0.03341   0.04994 
 C                     6.68476  -0.03341   0.04994 
 C                     7.19742  -1.24785  -0.62109 
 C                     8.16787  -0.87157  -1.44464 
 O                     8.4225    0.48528  -1.50195 
 C                     7.2787    1.06055  -0.82709 
 H                     7.05326   0.02078   1.08037 
 H                     6.87     -2.26095  -0.44335 
 H                     8.80401  -1.4938   -2.0508 
 H                     6.57729   1.41273  -1.59517 
 H                     7.58768   1.93044  -0.23622 
 

 GradGradGradGradGradGradGradGradGradGradGradGradGradGradGradGradGradGrad
 Berny optimization.
 Initialization pass.
                           ----------------------------
                           !    Initial Parameters    !
                           ! (Angstroms and Degrees)  !
 --------------------------                            --------------------------
 ! Name  Definition              Value          Derivative Info.                !
 --------------------------------------------------------------------------------
 ! R1    R(1,2)                  1.1619         estimate D2E/DX2                !
 ! R2    R(2,3)                  1.5347         estimate D2E/DX2                !
 ! R3    R(3,4)                  1.3039         estimate D2E/DX2                !
 ! R4    R(4,5)                  1.52           estimate D2E/DX2                !
 ! R5    R(5,6)                  1.4792         estimate D2E/DX2                !
 ! R6    R(5,9)                  1.5227         estimate D2E/DX2                !
 ! R7    R(5,10)                 1.0957         estimate D2E/DX2                !
 ! R8    R(6,7)                  1.3273         estimate D2E/DX2                !
 ! R9    R(6,11)                 1.0794         estimate D2E/DX2                !
 ! R10   R(7,8)                  1.3817         estimate D2E/DX2                !
 ! R11   R(7,12)                 1.0767         estimate D2E/DX2                !
 ! R12   R(8,9)                  1.4473         estimate D2E/DX2                !
 ! R13   R(9,13)                 1.0982         estimate D2E/DX2                !
 ! R14   R(9,14)                 1.096          estimate D2E/DX2                !
 ! A1    A(4,5,6)              110.2785         estimate D2E/DX2                !
 ! A2    A(4,5,9)              112.9576         estimate D2E/DX2                !
 ! A3    A(4,5,10)             109.6529         estimate D2E/DX2                !
 ! A4    A(6,5,9)              101.1496         estimate D2E/DX2                !
 ! A5    A(6,5,10)             110.5288         estimate D2E/DX2                !
 ! A6    A(9,5,10)             112.021          estimate D2E/DX2                !
 ! A7    A(5,6,7)              107.586          estimate D2E/DX2                !
 ! A8    A(5,6,11)             126.21           estimate D2E/DX2                !
 ! A9    A(7,6,11)             126.1597         estimate D2E/DX2                !
 ! A10   A(6,7,8)              116.0324         estimate D2E/DX2                !
 ! A11   A(6,7,12)             128.1326         estimate D2E/DX2                !
 ! A12   A(8,7,12)             115.8026         estimate D2E/DX2                !
 ! A13   A(7,8,9)              103.0231         estimate D2E/DX2                !
 ! A14   A(5,9,8)              106.9337         estimate D2E/DX2                !
 ! A15   A(5,9,13)             112.5884         estimate D2E/DX2                !
 ! A16   A(5,9,14)             111.6939         estimate D2E/DX2                !
 ! A17   A(8,9,13)             107.8252         estimate D2E/DX2                !
 ! A18   A(8,9,14)             110.1239         estimate D2E/DX2                !
 ! A19   A(13,9,14)            107.6129         estimate D2E/DX2                !
 ! A20   L(1,2,3,13,-1)        179.9928         estimate D2E/DX2                !
 ! A21   L(2,3,4,13,-1)        180.0069         estimate D2E/DX2                !
 ! A22   L(3,4,5,13,-1)        180.0            estimate D2E/DX2                !
 ! A23   L(1,2,3,13,-2)        179.7089         estimate D2E/DX2                !
 ! A24   L(2,3,4,13,-2)        180.0766         estimate D2E/DX2                !
 ! A25   L(3,4,5,13,-2)        180.0            estimate D2E/DX2                !
 ! D1    D(4,5,6,7)            134.4747         estimate D2E/DX2                !
 ! D2    D(4,5,6,11)           -47.8326         estimate D2E/DX2                !
 ! D3    D(9,5,6,7)             14.6964         estimate D2E/DX2                !
 ! D4    D(9,5,6,11)          -167.6109         estimate D2E/DX2                !
 ! D5    D(10,5,6,7)          -104.1117         estimate D2E/DX2                !
 ! D6    D(10,5,6,11)           73.581          estimate D2E/DX2                !
 ! D7    D(4,5,9,8)           -140.1937         estimate D2E/DX2                !
 ! D8    D(4,5,9,13)           -21.9489         estimate D2E/DX2                !
 ! D9    D(4,5,9,14)            99.2634         estimate D2E/DX2                !
 ! D10   D(6,5,9,8)            -22.3458         estimate D2E/DX2                !
 ! D11   D(6,5,9,13)            95.899          estimate D2E/DX2                !
 ! D12   D(6,5,9,14)          -142.8887         estimate D2E/DX2                !
 ! D13   D(10,5,9,8)            95.3816         estimate D2E/DX2                !
 ! D14   D(10,5,9,13)         -146.3736         estimate D2E/DX2                !
 ! D15   D(10,5,9,14)          -25.1613         estimate D2E/DX2                !
 ! D16   D(5,6,7,8)             -1.7351         estimate D2E/DX2                !
 ! D17   D(5,6,7,12)           176.0919         estimate D2E/DX2                !
 ! D18   D(11,6,7,8)          -179.4293         estimate D2E/DX2                !
 ! D19   D(11,6,7,12)           -1.6023         estimate D2E/DX2                !
 ! D20   D(6,7,8,9)            -12.8847         estimate D2E/DX2                !
 ! D21   D(12,7,8,9)           169.0137         estimate D2E/DX2                !
 ! D22   D(7,8,9,5)             21.5487         estimate D2E/DX2                !
 ! D23   D(7,8,9,13)           -99.7612         estimate D2E/DX2                !
 ! D24   D(7,8,9,14)           143.0882         estimate D2E/DX2                !
 --------------------------------------------------------------------------------
 Trust Radius=3.00D-01 FncErr=1.00D-07 GrdErr=1.00D-06 EigMax=2.50D+02 EigMin=1.00D-04
 Number of steps in this run=     73 maximum allowed number of steps=    100.
 GradGradGradGradGradGradGradGradGradGradGradGradGradGradGradGradGradGrad

                          Input orientation:                          
 ---------------------------------------------------------------------
 Center     Atomic      Atomic             Coordinates (Angstroms)
 Number     Number       Type             X           Y           Z
 ---------------------------------------------------------------------
      1          7           0        1.164360   -0.033200    0.050370
      2          6           0        2.326220   -0.034500    0.049230
      3          6           0        3.860900   -0.033410    0.049940
      4          6           0        5.164760   -0.033410    0.049940
      5          6           0        6.684760   -0.033410    0.049940
      6          6           0        7.197420   -1.247850   -0.621090
      7          6           0        8.167870   -0.871570   -1.444640
      8          8           0        8.422500    0.485280   -1.501950
      9          6           0        7.278700    1.060550   -0.827090
     10          1           0        7.053260    0.020780    1.080370
     11          1           0        6.870000   -2.260950   -0.443350
     12          1           0        8.804010   -1.493800   -2.050800
     13          1           0        6.577290    1.412730   -1.595170
     14          1           0        7.587680    1.930440   -0.236220
 ---------------------------------------------------------------------
                    Distance matrix (angstroms):
                    1          2          3          4          5
     1  N    0.000000
     2  C    1.161861   0.000000
     3  C    2.696540   1.534681   0.000000
     4  C    4.000400   2.838540   1.303860   0.000000
     5  C    5.520400   4.358540   2.823860   1.520000   0.000000
     6  C    6.190642   5.064596   3.613518   2.461067   1.479177
     7  C    7.210206   6.087463   4.635329   3.457593   2.266252
     8  O    7.440371   6.311970   4.846194   3.645583   2.386869
     9  C    6.273068   5.147245   3.694223   2.536666   1.522726
    10  H    5.978541   4.838513   3.354979   2.152012   1.095680
    11  H    6.144994   5.083862   3.776235   2.848353   2.289014
    12  H    8.056831   6.964298   5.565985   4.448594   3.322208
    13  H    5.839377   4.782272   3.489482   2.606329   2.193002
    14  H    6.722876   5.623649   4.222260   3.131954   2.180335
                    6          7          8          9         10
     6  C    0.000000
     7  C    1.327251   0.000000
     8  O    2.297928   1.381725   0.000000
     9  C    2.318998   2.214741   1.447291   0.000000
    10  H    2.127245   2.900745   2.959553   2.184113   0.000000
    11  H    1.079429   2.148819   3.327562   3.368480   2.749836
    12  H    2.164646   1.076696   2.088910   3.216946   3.894009
    13  H    2.900358   2.787585   2.067282   1.098159   3.053291
    14  H    3.225206   3.106149   2.094632   1.096040   2.380297
                   11         12         13         14
    11  H    0.000000
    12  H    2.629222   0.000000
    13  H    3.861126   3.689688   0.000000
    14  H    4.257431   4.061721   1.770779   0.000000
 Stoichiometry    C7H5NO
 Framework group  C1[X(C7H5NO)]
 Deg. of freedom    36
 Full point group                 C1      NOp   1
 Largest Abelian subgroup         C1      NOp   1
 Largest concise Abelian subgroup C1      NOp   1
                         Standard orientation:                         
 ---------------------------------------------------------------------
 Center     Atomic      Atomic             Coordinates (Angstroms)
 Number     Number       Type             X           Y           Z
 ---------------------------------------------------------------------
      1          7           0        4.602244    0.012012   -0.391556
      2          6           0        3.464415    0.004713   -0.156582
      3          6           0        1.961955   -0.007703    0.155995
      4          6           0        0.685337   -0.017334    0.420958
      5          6           0       -0.802905   -0.028562    0.729843
      6          6           0       -1.453445    1.172348    0.161883
      7          6           0       -2.567065    0.777183   -0.442509
      8          8           0       -2.814262   -0.582191   -0.429932
      9          6           0       -1.551469   -1.139297    0.005540
     10          1           0       -0.953880   -0.070747    1.814252
     11          1           0       -1.107036    2.190274    0.256714
     12          1           0       -3.319328    1.385974   -0.914470
     13          1           0       -1.017138   -1.497223   -0.884591
     14          1           0       -1.725173   -2.002916    0.657685
 ---------------------------------------------------------------------
 Rotational constants (GHZ):           6.3059232           0.6323331           0.6054049
 Standard basis: 6-31G(2df,p) (6D, 7F)
 There are   304 symmetry adapted cartesian basis functions of A   symmetry.
 There are   277 symmetry adapted basis functions of A   symmetry.
   277 basis functions,   431 primitive gaussians,   304 cartesian basis functions
    31 alpha electrons       31 beta electrons
       nuclear repulsion energy       352.1794170455 Hartrees.
 NAtoms=   14 NActive=   14 NUniq=   14 SFac= 1.00D+00 NAtFMM=   60 NAOKFM=F Big=F
 Integral buffers will be    131072 words long.
 Raffenetti 2 integral format.
 Two-electron integral symmetry is turned on.
 One-electron integrals computed using PRISM.
 PrsmSu:  requested number of processors reduced to:  13 ShMem   1 Linda.
 NBasis=   277 RedAO= T EigKep=  5.48D-05  NBF=   277
 NBsUse=   277 1.00D-06 EigRej= -1.00D+00 NBFU=   277
 ExpMin= 1.61D-01 ExpMax= 5.48D+03 ExpMxC= 8.25D+02 IAcc=3 IRadAn=         5 AccDes= 0.00D+00
 Harris functional with IExCor=  402 and IRadAn=       5 diagonalized for initial guess.
 HarFok:  IExCor=  402 AccDes= 0.00D+00 IRadAn=         5 IDoV= 1 UseB2=F ITyADJ=14
 ICtDFT=  3500011 ScaDFX=  1.000000  1.000000  1.000000  1.000000
 FoFCou: FMM=F IPFlag=           0 FMFlag=      100000 FMFlg1=           0
         NFxFlg=           0 DoJE=T BraDBF=F KetDBF=T FulRan=T
         wScrn=  0.000000 ICntrl=       500 IOpCl=  0 I1Cent=   200000004 NGrid=           0
         NMat0=    1 NMatS0=      1 NMatT0=    0 NMatD0=    1 NMtDS0=    0 NMtDT0=    0
 Petite list used in FoFCou.
 Requested convergence on RMS density matrix=1.00D-08 within 128 cycles.
 Requested convergence on MAX density matrix=1.00D-06.
 Requested convergence on             energy=1.00D-06.
 No special actions if energy rises.
 Integral accuracy reduced to 1.0D-05 until final iterations.
 Initial convergence to 1.0D-05 achieved.  Increase integral accuracy.
 SCF Done:  E(RB3LYP) =  -399.595590362     A.U. after   15 cycles
            NFock= 15  Conv=0.66D-08     -V/T= 2.0091

 **********************************************************************

            Population analysis using the SCF density.

 **********************************************************************

 Orbital symmetries:
       Occupied  (A) (A) (A) (A) (A) (A) (A) (A) (A) (A) (A) (A)
                 (A) (A) (A) (A) (A) (A) (A) (A) (A) (A) (A) (A)
                 (A) (A) (A) (A) (A) (A) (A)
       Virtual   (A) (A) (A) (A) (A) (A) (A) (A) (A) (A) (A) (A)
                 (A) (A) (A) (A) (A) (A) (A) (A) (A) (A) (A) (A)
                 (A) (A) (A) (A) (A) (A) (A) (A) (A) (A) (A) (A)
                 (A) (A) (A) (A) (A) (A) (A) (A) (A) (A) (A) (A)
                 (A) (A) (A) (A) (A) (A) (A) (A) (A) (A) (A) (A)
                 (A) (A) (A) (A) (A) (A) (A) (A) (A) (A) (A) (A)
                 (A) (A) (A) (A) (A) (A) (A) (A) (A) (A) (A) (A)
                 (A) (A) (A) (A) (A) (A) (A) (A) (A) (A) (A) (A)
                 (A) (A) (A) (A) (A) (A) (A) (A) (A) (A) (A) (A)
                 (A) (A) (A) (A) (A) (A) (A) (A) (A) (A) (A) (A)
                 (A) (A) (A) (A) (A) (A) (A) (A) (A) (A) (A) (A)
                 (A) (A) (A) (A) (A) (A) (A) (A) (A) (A) (A) (A)
                 (A) (A) (A) (A) (A) (A) (A) (A) (A) (A) (A) (A)
                 (A) (A) (A) (A) (A) (A) (A) (A) (A) (A) (A) (A)
                 (A) (A) (A) (A) (A) (A) (A) (A) (A) (A) (A) (A)
                 (A) (A) (A) (A) (A) (A) (A) (A) (A) (A) (A) (A)
                 (A) (A) (A) (A) (A) (A) (A) (A) (A) (A) (A) (A)
                 (A) (A) (A) (A) (A) (A) (A) (A) (A) (A) (A) (A)
                 (A) (A) (A) (A) (A) (A) (A) (A) (A) (A) (A) (A)
                 (A) (A) (A) (A) (A) (A) (A) (A) (A) (A) (A) (A)
                 (A) (A) (A) (A) (A) (A)
 The electronic state is 1-A.
 Alpha  occ. eigenvalues --  -19.18793 -14.35202 -10.26453 -10.26393 -10.26367
 Alpha  occ. eigenvalues --  -10.25929 -10.25596 -10.25434 -10.19781  -1.08314
 Alpha  occ. eigenvalues --   -0.91709  -0.84888  -0.77270  -0.75438  -0.65851
 Alpha  occ. eigenvalues --   -0.60926  -0.59434  -0.54680  -0.52800  -0.46315
 Alpha  occ. eigenvalues --   -0.44372  -0.42057  -0.41006  -0.38637  -0.37838
 Alpha  occ. eigenvalues --   -0.37258  -0.37051  -0.36351  -0.28735  -0.28604
 Alpha  occ. eigenvalues --   -0.24108
 Alpha virt. eigenvalues --   -0.04766  -0.04632   0.00951   0.05624   0.08827
 Alpha virt. eigenvalues --    0.09721   0.10434   0.11333   0.12361   0.12826
 Alpha virt. eigenvalues --    0.14809   0.15640   0.17803   0.21433   0.23322
 Alpha virt. eigenvalues --    0.27383   0.30843   0.33439   0.37079   0.40407
 Alpha virt. eigenvalues --    0.44240   0.45123   0.46714   0.47258   0.48385
 Alpha virt. eigenvalues --    0.49074   0.50163   0.51443   0.53610   0.55502
 Alpha virt. eigenvalues --    0.57889   0.59918   0.60332   0.61524   0.63916
 Alpha virt. eigenvalues --    0.64814   0.66741   0.68150   0.69116   0.69868
 Alpha virt. eigenvalues --    0.71615   0.73651   0.74171   0.75155   0.75605
 Alpha virt. eigenvalues --    0.77196   0.78312   0.79413   0.81897   0.82590
 Alpha virt. eigenvalues --    0.83113   0.83779   0.84303   0.85382   0.88431
 Alpha virt. eigenvalues --    0.89266   0.90823   0.94886   0.96722   0.97531
 Alpha virt. eigenvalues --    0.99222   1.01277   1.06387   1.06734   1.08397
 Alpha virt. eigenvalues --    1.12157   1.14921   1.19226   1.20376   1.21954
 Alpha virt. eigenvalues --    1.23300   1.25066   1.27225   1.31158   1.34462
 Alpha virt. eigenvalues --    1.35916   1.37518   1.39096   1.39612   1.43032
 Alpha virt. eigenvalues --    1.46106   1.48054   1.49652   1.50955   1.55410
 Alpha virt. eigenvalues --    1.56873   1.57265   1.60343   1.61582   1.66122
 Alpha virt. eigenvalues --    1.68761   1.71338   1.76596   1.79463   1.83002
 Alpha virt. eigenvalues --    1.87666   1.93036   1.95394   2.00056   2.06651
 Alpha virt. eigenvalues --    2.10506   2.13835   2.20247   2.21487   2.23688
 Alpha virt. eigenvalues --    2.26146   2.28602   2.30677   2.35996   2.38549
 Alpha virt. eigenvalues --    2.43982   2.46568   2.53195   2.55459   2.56854
 Alpha virt. eigenvalues --    2.58529   2.60756   2.63241   2.63748   2.69838
 Alpha virt. eigenvalues --    2.73120   2.76885   2.77087   2.83377   2.84444
 Alpha virt. eigenvalues --    2.85704   2.87835   2.88340   2.93123   2.93477
 Alpha virt. eigenvalues --    2.96538   2.98885   2.99614   3.00544   3.02137
 Alpha virt. eigenvalues --    3.03789   3.05126   3.07452   3.09677   3.13148
 Alpha virt. eigenvalues --    3.15222   3.15694   3.18921   3.24291   3.24865
 Alpha virt. eigenvalues --    3.26771   3.34076   3.36526   3.37464   3.41707
 Alpha virt. eigenvalues --    3.43632   3.46277   3.52667   3.54739   3.57675
 Alpha virt. eigenvalues --    3.58032   3.58797   3.60520   3.61172   3.65781
 Alpha virt. eigenvalues --    3.66105   3.66111   3.76479   3.77213   3.78502
 Alpha virt. eigenvalues --    3.79352   3.82470   3.84804   3.93818   3.97174
 Alpha virt. eigenvalues --    4.01044   4.07779   4.11015   4.11543   4.12507
 Alpha virt. eigenvalues --    4.14538   4.16331   4.17978   4.21205   4.22175
 Alpha virt. eigenvalues --    4.23874   4.25363   4.26986   4.28725   4.31922
 Alpha virt. eigenvalues --    4.33805   4.34883   4.37279   4.39017   4.42422
 Alpha virt. eigenvalues --    4.45809   4.46615   4.47251   4.48607   4.52265
 Alpha virt. eigenvalues --    4.52844   4.54883   4.56575   4.61033   4.61409
 Alpha virt. eigenvalues --    4.64872   4.66618   4.71853   4.76380   4.76477
 Alpha virt. eigenvalues --    4.78345   4.82453   4.82950   4.87196   4.91763
 Alpha virt. eigenvalues --    4.92653   5.00562   5.04628   5.13367   5.16608
 Alpha virt. eigenvalues --    5.18602   5.20615   5.24411   5.32962   5.38255
 Alpha virt. eigenvalues --    5.39138   5.42070   5.45695   5.52245   5.67304
 Alpha virt. eigenvalues --    5.67443   5.73808   5.78908   5.79841   5.94797
 Alpha virt. eigenvalues --    6.07571   6.20140   6.35053   6.39277   6.98686
 Alpha virt. eigenvalues --    7.13295   9.64307  10.20245  10.36102  11.21775
 Alpha virt. eigenvalues --   11.41638  11.50225  11.87797  12.62680  13.29469
 Alpha virt. eigenvalues --   23.57008
          Condensed to atoms (all electrons):
               1          2          3          4          5          6
     1  N    6.391067   1.040651  -0.098650  -0.015582  -0.000011  -0.000000
     2  C    1.040651   4.422588   0.420352  -0.088340  -0.001705  -0.000015
     3  C   -0.098650   0.420352   5.306744   0.483239  -0.069764  -0.004558
     4  C   -0.015582  -0.088340   0.483239   5.195030   0.407978  -0.035395
     5  C   -0.000011  -0.001705  -0.069764   0.407978   4.945473   0.388496
     6  C   -0.000000  -0.000015  -0.004558  -0.035395   0.388496   4.932581
     7  C    0.000000   0.000001   0.000357   0.000384  -0.019614   0.648100
     8  O    0.000000  -0.000000  -0.000061   0.001206  -0.050004  -0.031697
     9  C   -0.000000   0.000012  -0.001353  -0.027685   0.346503  -0.022626
    10  H    0.000000   0.000020   0.001062  -0.035159   0.361514  -0.040611
    11  H   -0.000000  -0.000002   0.000180  -0.000480  -0.042518   0.374409
    12  H    0.000000   0.000000   0.000004   0.000044   0.004335  -0.045102
    13  H   -0.000000   0.000065   0.004803  -0.001996  -0.036955  -0.002361
    14  H   -0.000000  -0.000005  -0.000643  -0.000767  -0.016503   0.004181
               7          8          9         10         11         12
     1  N    0.000000   0.000000  -0.000000   0.000000  -0.000000   0.000000
     2  C    0.000001  -0.000000   0.000012   0.000020  -0.000002   0.000000
     3  C    0.000357  -0.000061  -0.001353   0.001062   0.000180   0.000004
     4  C    0.000384   0.001206  -0.027685  -0.035159  -0.000480   0.000044
     5  C   -0.019614  -0.050004   0.346503   0.361514  -0.042518   0.004335
     6  C    0.648100  -0.031697  -0.022626  -0.040611   0.374409  -0.045102
     7  C    4.681403   0.384421  -0.127063  -0.000327  -0.027321   0.370420
     8  O    0.384421   7.642674   0.353893   0.003339   0.002598  -0.025765
     9  C   -0.127063   0.353893   4.869060  -0.032037   0.005856   0.006006
    10  H   -0.000327   0.003339  -0.032037   0.609384   0.000436  -0.000230
    11  H   -0.027321   0.002598   0.005856   0.000436   0.559449  -0.000501
    12  H    0.370420  -0.025765   0.006006  -0.000230  -0.000501   0.548731
    13  H    0.010018  -0.029495   0.361841   0.006214  -0.000198  -0.000053
    14  H    0.004689  -0.015069   0.358266  -0.007084  -0.000130  -0.000190
              13         14
     1  N   -0.000000  -0.000000
     2  C    0.000065  -0.000005
     3  C    0.004803  -0.000643
     4  C   -0.001996  -0.000767
     5  C   -0.036955  -0.016503
     6  C   -0.002361   0.004181
     7  C    0.010018   0.004689
     8  O   -0.029495  -0.015069
     9  C    0.361841   0.358266
    10  H    0.006214  -0.007084
    11  H   -0.000198  -0.000130
    12  H   -0.000053  -0.000190
    13  H    0.597887  -0.042777
    14  H   -0.042777   0.582944
 Mulliken charges:
               1
     1  N   -0.317474
     2  C    0.206378
     3  C   -0.041714
     4  C    0.117524
     5  C   -0.217224
     6  C   -0.165402
     7  C    0.074531
     8  O   -0.236041
     9  C   -0.090674
    10  H    0.133481
    11  H    0.128220
    12  H    0.142299
    13  H    0.133008
    14  H    0.133089
 Sum of Mulliken charges =  -0.00000
 Mulliken charges with hydrogens summed into heavy atoms:
               1
     1  N   -0.317474
     2  C    0.206378
     3  C   -0.041714
     4  C    0.117524
     5  C   -0.083743
     6  C   -0.037182
     7  C    0.216830
     8  O   -0.236041
     9  C    0.175423
 Electronic spatial extent (au):  <R**2>=           1720.7014
 Charge=             -0.0000 electrons
 Dipole moment (field-independent basis, Debye):
    X=             -4.3372    Y=              0.3151    Z=              1.0714  Tot=              4.4787
 Quadrupole moment (field-independent basis, Debye-Ang):
   XX=            -72.9517   YY=            -47.2481   ZZ=            -49.8581
   XY=             -2.5625   XZ=              1.7239   YZ=             -1.0375
 Traceless Quadrupole moment (field-independent basis, Debye-Ang):
   XX=            -16.2658   YY=              9.4379   ZZ=              6.8279
   XY=             -2.5625   XZ=              1.7239   YZ=             -1.0375
 Octapole moment (field-independent basis, Debye-Ang**2):
  XXX=           -123.8977  YYY=             -1.3598  ZZZ=             -0.2470  XYY=            -10.9616
  XXY=             10.4903  XXZ=              8.8766  XZZ=             -8.3663  YZZ=             -1.8704
  YYZ=             -0.9074  XYZ=              5.0181
 Hexadecapole moment (field-independent basis, Debye-Ang**3):
 XXXX=          -2575.1649 YYYY=           -195.6558 ZZZZ=           -108.0373 XXXY=            -40.0010
 XXXZ=             78.4230 YYYX=              6.1977 YYYZ=             -1.3693 ZZZX=              1.4683
 ZZZY=              0.2441 XXYY=           -349.3578 XXZZ=           -346.5009 YYZZ=            -53.7305
 XXYZ=            -16.0881 YYXZ=              3.0131 ZZXY=              1.9304
 N-N= 3.521794170455D+02 E-N=-1.633410854830D+03  KE= 3.959881030445D+02
 PrsmSu:  requested number of processors reduced to:  13 ShMem   1 Linda.
 Calling FoFJK, ICntrl=      2127 FMM=F ISym2X=0 I1Cent= 0 IOpClX= 0 NMat=1 NMatS=1 NMatT=0.
 ***** Axes restored to original set *****
 -------------------------------------------------------------------
 Center     Atomic                   Forces (Hartrees/Bohr)
 Number     Number              X              Y              Z
 -------------------------------------------------------------------
      1        7           0.006432475    0.000028313    0.000022947
      2        6           0.096772584   -0.000295233   -0.000290388
      3        6           0.051024423    0.000004542    0.000122429
      4        6          -0.124173886    0.006224375    0.005408129
      5        6          -0.047265330   -0.001965569    0.009235801
      6        6           0.011497687   -0.017139706   -0.011327985
      7        6           0.008375978    0.004051382   -0.004204338
      8        8          -0.010515981   -0.014921522    0.005897793
      9        6           0.005289936    0.025123897   -0.004909673
     10        1          -0.004252866    0.002399359    0.003477312
     11        1           0.000257259    0.001309451    0.001284900
     12        1           0.003728147    0.000765186   -0.003184212
     13        1          -0.000840425   -0.003376719    0.001856607
     14        1           0.003669999   -0.002207757   -0.003389324
 -------------------------------------------------------------------
 Cartesian Forces:  Max     0.124173886 RMS     0.027446720

 GradGradGradGradGradGradGradGradGradGradGradGradGradGradGradGradGradGrad
 Berny optimization.
 FormGI is forming the generalized inverse of G from B-inverse, IUseBI=4.
 Internal  Forces:  Max     0.154229685 RMS     0.024245425
 Search for a local minimum.
 Step number   1 out of a maximum of   73
 All quantities printed in internal units (Hartrees-Bohrs-Radians)
 Mixed Optimization -- RFO/linear search
 Second derivative matrix not updated -- first step.
 ITU=  0
     Eigenvalues ---    0.00307   0.00307   0.00501   0.00501   0.00789
     Eigenvalues ---    0.01720   0.01948   0.02755   0.03361   0.03361
     Eigenvalues ---    0.04675   0.05619   0.05903   0.06568   0.08515
     Eigenvalues ---    0.11063   0.11249   0.13559   0.15981   0.15993
     Eigenvalues ---    0.22034   0.22668   0.28995   0.29076   0.30367
     Eigenvalues ---    0.33346   0.33887   0.34124   0.34164   0.36063
     Eigenvalues ---    0.36396   0.37127   0.46390   0.57039   0.66132
     Eigenvalues ---    1.26583
 RFO step:  Lambda=-6.96803934D-02 EMin= 3.07190319D-03
 Linear search not attempted -- first point.
 Maximum step size (   0.300) exceeded in Quadratic search.
    -- Step size scaled by   0.781
 Iteration  1 RMS(Cart)=  0.06852283 RMS(Int)=  0.00307855
 Iteration  2 RMS(Cart)=  0.00400056 RMS(Int)=  0.00005620
 Iteration  3 RMS(Cart)=  0.00000100 RMS(Int)=  0.00005620
 Iteration  4 RMS(Cart)=  0.00000000 RMS(Int)=  0.00005620
 Variable       Old X    -DE/DX   Delta X   Delta X   Delta X     New X
                                 (Linear)    (Quad)   (Total)
    R1        2.19560  -0.00643   0.00000  -0.00376  -0.00376   2.19184
    R2        2.90013  -0.10320   0.00000  -0.22422  -0.22422   2.67591
    R3        2.46394  -0.15423   0.00000  -0.16484  -0.16484   2.29909
    R4        2.87238  -0.03006   0.00000  -0.06290  -0.06290   2.80948
    R5        2.79524   0.02691   0.00000   0.05192   0.05187   2.84711
    R6        2.87754   0.01382   0.00000   0.02991   0.02995   2.90749
    R7        2.07054   0.00196   0.00000   0.00372   0.00372   2.07426
    R8        2.50814   0.00428   0.00000   0.00481   0.00475   2.51289
    R9        2.03983  -0.00110   0.00000  -0.00199  -0.00199   2.03784
   R10        2.61108  -0.00919   0.00000  -0.01400  -0.01399   2.59709
   R11        2.03466   0.00355   0.00000   0.00640   0.00640   2.04106
   R12        2.73498  -0.00014   0.00000  -0.00070  -0.00063   2.73435
   R13        2.07522  -0.00184   0.00000  -0.00353  -0.00353   2.07169
   R14        2.07122  -0.00254   0.00000  -0.00484  -0.00484   2.06638
    A1        1.92472   0.00902   0.00000   0.03079   0.03077   1.95550
    A2        1.97148  -0.00074   0.00000  -0.00409  -0.00410   1.96738
    A3        1.91380  -0.00427   0.00000  -0.01956  -0.01973   1.89407
    A4        1.76539  -0.00605   0.00000  -0.00885  -0.00887   1.75652
    A5        1.92909   0.00106   0.00000   0.00596   0.00595   1.93504
    A6        1.95514   0.00141   0.00000  -0.00145  -0.00146   1.95367
    A7        1.87773   0.00109   0.00000   0.00525   0.00512   1.88286
    A8        2.20278  -0.00175   0.00000  -0.00663  -0.00657   2.19621
    A9        2.20190   0.00063   0.00000   0.00126   0.00132   2.20322
   A10        2.02515  -0.00438   0.00000  -0.01322  -0.01328   2.01187
   A11        2.23634   0.00573   0.00000   0.01869   0.01872   2.25505
   A12        2.02114  -0.00131   0.00000  -0.00534  -0.00531   2.01583
   A13        1.79809   0.01501   0.00000   0.03591   0.03602   1.83411
   A14        1.86635  -0.00484   0.00000  -0.01392  -0.01388   1.85246
   A15        1.96504  -0.00210   0.00000  -0.01290  -0.01296   1.95208
   A16        1.94943   0.00451   0.00000   0.02033   0.02033   1.96976
   A17        1.88191   0.00220   0.00000   0.00588   0.00572   1.88762
   A18        1.92202  -0.00061   0.00000  -0.00809  -0.00804   1.91399
   A19        1.87820   0.00078   0.00000   0.00797   0.00801   1.88621
   A20        3.14147  -0.00000   0.00000  -0.00004  -0.00004   3.14143
   A21        3.14171  -0.00004   0.00000  -0.00030  -0.00030   3.14142
   A22        3.14159   0.00012   0.00000   0.00126   0.00126   3.14285
   A23        3.13651  -0.00005   0.00000  -0.00050  -0.00050   3.13601
   A24        3.14293   0.00078   0.00000   0.00590   0.00590   3.14883
   A25        3.14159   0.00165   0.00000   0.01726   0.01726   3.15885
    D1        2.34703  -0.00050   0.00000  -0.00008  -0.00015   2.34688
    D2       -0.83484  -0.00129   0.00000  -0.00323  -0.00326  -0.83810
    D3        0.25650  -0.00034   0.00000  -0.00410  -0.00412   0.25238
    D4       -2.92536  -0.00113   0.00000  -0.00725  -0.00724  -2.93261
    D5       -1.81709   0.00083   0.00000  -0.00025  -0.00022  -1.81731
    D6        1.28423   0.00003   0.00000  -0.00340  -0.00334   1.28089
    D7       -2.44684  -0.00279   0.00000  -0.01354  -0.01360  -2.46044
    D8       -0.38308  -0.00437   0.00000  -0.02254  -0.02244  -0.40552
    D9        1.73247  -0.00159   0.00000  -0.00664  -0.00659   1.72588
   D10       -0.39001   0.00394   0.00000   0.01563   0.01551  -0.37450
   D11        1.67375   0.00236   0.00000   0.00663   0.00666   1.68042
   D12       -2.49388   0.00515   0.00000   0.02252   0.02252  -2.47136
   D13        1.66472   0.00239   0.00000   0.01697   0.01685   1.68157
   D14       -2.55470   0.00081   0.00000   0.00797   0.00800  -2.54670
   D15       -0.43915   0.00360   0.00000   0.02386   0.02385  -0.41529
   D16       -0.03028  -0.00198   0.00000  -0.00483  -0.00480  -0.03509
   D17        3.07338  -0.00054   0.00000  -0.00057  -0.00052   3.07286
   D18       -3.13163  -0.00111   0.00000  -0.00145  -0.00143  -3.13307
   D19       -0.02797   0.00033   0.00000   0.00282   0.00284  -0.02512
   D20       -0.22488   0.00119   0.00000   0.00710   0.00714  -0.21774
   D21        2.94985  -0.00024   0.00000   0.00281   0.00289   2.95274
   D22        0.37610  -0.00028   0.00000  -0.00827  -0.00832   0.36778
   D23       -1.74116   0.00371   0.00000   0.01161   0.01161  -1.72955
   D24        2.49736   0.00185   0.00000   0.00311   0.00316   2.50052
         Item               Value     Threshold  Converged?
 Maximum Force            0.154230     0.000450     NO 
 RMS     Force            0.024245     0.000300     NO 
 Maximum Displacement     0.339107     0.001800     NO 
 RMS     Displacement     0.072066     0.001200     NO 
 Predicted change in Energy=-3.640738D-02
 GradGradGradGradGradGradGradGradGradGradGradGradGradGradGradGradGradGrad

                          Input orientation:                          
 ---------------------------------------------------------------------
 Center     Atomic      Atomic             Coordinates (Angstroms)
 Number     Number       Type             X           Y           Z
 ---------------------------------------------------------------------
      1          7           0        1.343808   -0.024037    0.029292
      2          6           0        2.503644   -0.023824    0.038159
      3          6           0        3.919610   -0.020538    0.051277
      4          6           0        5.136215   -0.021889    0.058688
      5          6           0        6.622801   -0.041157    0.054886
      6          6           0        7.170615   -1.267573   -0.627548
      7          6           0        8.148565   -0.879726   -1.440848
      8          8           0        8.371339    0.475673   -1.485892
      9          6           0        7.229283    1.067289   -0.823032
     10          1           0        6.974959    0.018993    1.092769
     11          1           0        6.852765   -2.282934   -0.451740
     12          1           0        8.809615   -1.480022   -2.048498
     13          1           0        6.526794    1.408557   -1.592384
     14          1           0        7.549718    1.938869   -0.245651
 ---------------------------------------------------------------------
                    Distance matrix (angstroms):
                    1          2          3          4          5
     1  N    0.000000
     2  C    1.159870   0.000000
     3  C    2.575899   1.416031   0.000000
     4  C    3.792522   2.632652   1.216628   0.000000
     5  C    5.279083   4.119227   2.703271   1.486715   0.000000
     6  C    5.994122   4.875520   3.547525   2.482223   1.506623
     7  C    7.014145   5.897895   4.566037   3.472570   2.295294
     8  O    7.206364   6.082932   4.735715   3.619298   2.387152
     9  C    6.046178   4.925834   3.591896   2.518863   1.538575
    10  H    5.730855   4.594202   3.228223   2.109970   1.097649
    11  H    5.973493   4.925285   3.738296   2.884338   2.309787
    12  H    7.885136   6.799994   5.518269   4.478867   3.358082
    13  H    5.616538   4.571227   3.397255   2.589580   2.196449
    14  H    6.514746   5.421769   4.135834   3.124450   2.206808
                    6          7          8          9         10
     6  C    0.000000
     7  C    1.329762   0.000000
     8  O    2.284162   1.374323   0.000000
     9  C    2.343766   2.240010   1.446957   0.000000
    10  H    2.157087   2.933302   2.967814   2.198612   0.000000
    11  H    1.078376   2.150913   3.314430   3.391699   2.774763
    12  H    2.179576   1.080084   2.081671   3.238519   3.934535
    13  H    2.916691   2.808797   2.069773   1.096293   3.056433
    14  H    3.251282   3.119549   2.086672   1.093480   2.409904
                   11         12         13         14
    11  H    0.000000
    12  H    2.650201   0.000000
    13  H    3.877426   3.709878   0.000000
    14  H    4.283904   4.065268   1.772370   0.000000
 Stoichiometry    C7H5NO
 Framework group  C1[X(C7H5NO)]
 Deg. of freedom    36
 Full point group                 C1      NOp   1
 Largest Abelian subgroup         C1      NOp   1
 Largest concise Abelian subgroup C1      NOp   1
                         Standard orientation:                         
 ---------------------------------------------------------------------
 Center     Atomic      Atomic             Coordinates (Angstroms)
 Number     Number       Type             X           Y           Z
 ---------------------------------------------------------------------
      1          7           0        4.435193    0.024830   -0.405620
      2          6           0        3.302941    0.010079   -0.154450
      3          6           0        1.921175   -0.010921    0.154462
      4          6           0        0.733086   -0.024847    0.416059
      5          6           0       -0.721613   -0.024431    0.722938
      6          6           0       -1.418635    1.185153    0.156388
      7          6           0       -2.538843    0.773471   -0.430059
      8          8           0       -2.745307   -0.585139   -0.412299
      9          6           0       -1.481045   -1.152803    0.003736
     10          1           0       -0.848225   -0.074294    1.812120
     11          1           0       -1.086675    2.206844    0.250436
     12          1           0       -3.321368    1.356677   -0.892773
     13          1           0       -0.949625   -1.496045   -0.891604
     14          1           0       -1.660398   -2.020083    0.645107
 ---------------------------------------------------------------------
 Rotational constants (GHZ):           6.2810651           0.6740474           0.6425116
 Standard basis: 6-31G(2df,p) (6D, 7F)
 There are   304 symmetry adapted cartesian basis functions of A   symmetry.
 There are   277 symmetry adapted basis functions of A   symmetry.
   277 basis functions,   431 primitive gaussians,   304 cartesian basis functions
    31 alpha electrons       31 beta electrons
       nuclear repulsion energy       357.6901264759 Hartrees.
 NAtoms=   14 NActive=   14 NUniq=   14 SFac= 1.00D+00 NAtFMM=   60 NAOKFM=F Big=F
 Integral buffers will be    131072 words long.
 Raffenetti 2 integral format.
 Two-electron integral symmetry is turned on.
 One-electron integrals computed using PRISM.
 PrsmSu:  requested number of processors reduced to:  13 ShMem   1 Linda.
 NBasis=   277 RedAO= T EigKep=  3.04D-05  NBF=   277
 NBsUse=   277 1.00D-06 EigRej= -1.00D+00 NBFU=   277
 Initial guess from the checkpoint file:  "NtCCtCC1CdCOC1.chk"
 B after Tr=     0.000000   -0.000000   -0.000000
         Rot=    0.999996   -0.000023   -0.002417   -0.001597 Ang=  -0.33 deg.
 ExpMin= 1.61D-01 ExpMax= 5.48D+03 ExpMxC= 8.25D+02 IAcc=2 IRadAn=         4 AccDes= 0.00D+00
 Harris functional with IExCor=  402 and IRadAn=       4 diagonalized for initial guess.
 HarFok:  IExCor=  402 AccDes= 0.00D+00 IRadAn=         4 IDoV= 1 UseB2=F ITyADJ=14
 ICtDFT=  3500011 ScaDFX=  1.000000  1.000000  1.000000  1.000000
 FoFCou: FMM=F IPFlag=           0 FMFlag=      100000 FMFlg1=           0
         NFxFlg=           0 DoJE=T BraDBF=F KetDBF=T FulRan=T
         wScrn=  0.000000 ICntrl=       500 IOpCl=  0 I1Cent=   200000004 NGrid=           0
         NMat0=    1 NMatS0=      1 NMatT0=    0 NMatD0=    1 NMtDS0=    0 NMtDT0=    0
 Petite list used in FoFCou.
 Requested convergence on RMS density matrix=1.00D-08 within 128 cycles.
 Requested convergence on MAX density matrix=1.00D-06.
 Requested convergence on             energy=1.00D-06.
 No special actions if energy rises.
 Integral accuracy reduced to 1.0D-05 until final iterations.
 Initial convergence to 1.0D-05 achieved.  Increase integral accuracy.
 SCF Done:  E(RB3LYP) =  -399.632156234     A.U. after   14 cycles
            NFock= 14  Conv=0.27D-08     -V/T= 2.0078
 PrsmSu:  requested number of processors reduced to:  13 ShMem   1 Linda.
 Calling FoFJK, ICntrl=      2127 FMM=F ISym2X=0 I1Cent= 0 IOpClX= 0 NMat=1 NMatS=1 NMatT=0.
 ***** Axes restored to original set *****
 -------------------------------------------------------------------
 Center     Atomic                   Forces (Hartrees/Bohr)
 Number     Number              X              Y              Z
 -------------------------------------------------------------------
      1        7          -0.001069427   -0.000062743   -0.000061779
      2        6           0.042123673    0.000273096    0.000500213
      3        6          -0.021942929   -0.000256994   -0.000286852
      4        6          -0.002716355    0.002637130    0.002416447
      5        6          -0.028022762   -0.003493543    0.002655782
      6        6           0.007056283   -0.007472481   -0.005437734
      7        6           0.001466333    0.005531403    0.000720891
      8        8          -0.004416979   -0.006325114    0.001520814
      9        6           0.005396267    0.010462095   -0.002740415
     10        1          -0.000882742    0.001112055    0.001225701
     11        1          -0.000429801    0.000637864    0.001567926
     12        1           0.001427644    0.001260003   -0.001185146
     13        1          -0.000916970   -0.002373716    0.000542453
     14        1           0.002927766   -0.001929058   -0.001438301
 -------------------------------------------------------------------
 Cartesian Forces:  Max     0.042123673 RMS     0.009117402

 GradGradGradGradGradGradGradGradGradGradGradGradGradGradGradGradGradGrad
 Berny optimization.
 Using GEDIIS/GDIIS optimizer.
 FormGI is forming the generalized inverse of G from B-inverse, IUseBI=4.
 Internal  Forces:  Max     0.041056905 RMS     0.006481686
 Search for a local minimum.
 Step number   2 out of a maximum of   73
 All quantities printed in internal units (Hartrees-Bohrs-Radians)
 Mixed Optimization -- RFO/linear search
 Update second derivatives using D2CorX and points    1    2
 DE= -3.66D-02 DEPred=-3.64D-02 R= 1.00D+00
 TightC=F SS=  1.41D+00  RLast= 3.05D-01 DXNew= 5.0454D-01 9.1398D-01
 Trust test= 1.00D+00 RLast= 3.05D-01 DXMaxT set to 5.05D-01
 ITU=  1  0
 Use linear search instead of GDIIS.
     Eigenvalues ---    0.00307   0.00307   0.00501   0.00502   0.00793
     Eigenvalues ---    0.01726   0.01936   0.02763   0.03361   0.03361
     Eigenvalues ---    0.04682   0.05678   0.05860   0.06583   0.08408
     Eigenvalues ---    0.10963   0.11213   0.13504   0.15958   0.15987
     Eigenvalues ---    0.22093   0.22737   0.26353   0.29141   0.30281
     Eigenvalues ---    0.33229   0.33887   0.34122   0.34164   0.36064
     Eigenvalues ---    0.36399   0.37211   0.46375   0.57067   0.79700
     Eigenvalues ---    1.26692
 RFO step:  Lambda=-2.78477987D-03 EMin= 3.07190318D-03
 Quartic linear search produced a step of  0.27626.
 Iteration  1 RMS(Cart)=  0.10555164 RMS(Int)=  0.00378063
 Iteration  2 RMS(Cart)=  0.00776275 RMS(Int)=  0.00005693
 Iteration  3 RMS(Cart)=  0.00002264 RMS(Int)=  0.00005484
 Iteration  4 RMS(Cart)=  0.00000000 RMS(Int)=  0.00005484
 Variable       Old X    -DE/DX   Delta X   Delta X   Delta X     New X
                                 (Linear)    (Quad)   (Total)
    R1        2.19184   0.00107  -0.00104   0.00242   0.00138   2.19322
    R2        2.67591  -0.04106  -0.06194  -0.05843  -0.12038   2.55553
    R3        2.29909  -0.01911  -0.04554   0.03032  -0.01523   2.28387
    R4        2.80948  -0.01635  -0.01738  -0.03493  -0.05231   2.75718
    R5        2.84711   0.00963   0.01433   0.01074   0.02509   2.87220
    R6        2.90749   0.00732   0.00827   0.01648   0.02478   2.93227
    R7        2.07426   0.00094   0.00103   0.00160   0.00263   2.07688
    R8        2.51289   0.00130   0.00131   0.00038   0.00168   2.51457
    R9        2.03784  -0.00022  -0.00055   0.00021  -0.00034   2.03750
   R10        2.59709  -0.00617  -0.00386  -0.01118  -0.01507   2.58202
   R11        2.04106   0.00084   0.00177  -0.00022   0.00155   2.04262
   R12        2.73435  -0.00261  -0.00017  -0.00882  -0.00901   2.72535
   R13        2.07169  -0.00053  -0.00097  -0.00021  -0.00119   2.07051
   R14        2.06638  -0.00144  -0.00134  -0.00290  -0.00424   2.06214
    A1        1.95550   0.00501   0.00850   0.02088   0.02935   1.98485
    A2        1.96738   0.00036  -0.00113   0.00564   0.00444   1.97183
    A3        1.89407  -0.00191  -0.00545   0.00208  -0.00339   1.89069
    A4        1.75652  -0.00373  -0.00245  -0.00672  -0.00931   1.74722
    A5        1.93504   0.00031   0.00164  -0.01145  -0.00994   1.92510
    A6        1.95367   0.00008  -0.00040  -0.01109  -0.01160   1.94207
    A7        1.88286  -0.00046   0.00142  -0.00281  -0.00142   1.88143
    A8        2.19621  -0.00136  -0.00182  -0.00810  -0.00990   2.18631
    A9        2.20322   0.00181   0.00036   0.01080   0.01117   2.21439
   A10        2.01187   0.00073  -0.00367   0.01073   0.00698   2.01885
   A11        2.25505   0.00177   0.00517   0.00264   0.00785   2.26290
   A12        2.01583  -0.00248  -0.00147  -0.01333  -0.01477   2.00106
   A13        1.83411   0.00444   0.00995   0.00026   0.01015   1.84427
   A14        1.85246  -0.00030  -0.00384   0.00746   0.00359   1.85605
   A15        1.95208  -0.00229  -0.00358  -0.01233  -0.01593   1.93615
   A16        1.96976   0.00208   0.00562   0.00576   0.01144   1.98120
   A17        1.88762   0.00074   0.00158   0.00040   0.00197   1.88959
   A18        1.91399  -0.00170  -0.00222  -0.01416  -0.01637   1.89762
   A19        1.88621   0.00136   0.00221   0.01205   0.01431   1.90052
   A20        3.14143   0.00000  -0.00001   0.00058   0.00057   3.14200
   A21        3.14142  -0.00008  -0.00008  -0.00218  -0.00227   3.13915
   A22        3.14285   0.00002   0.00035  -0.00837  -0.00802   3.13483
   A23        3.13601   0.00009  -0.00014   0.02481   0.02467   3.16069
   A24        3.14883  -0.00010   0.00163  -0.01639  -0.01476   3.13407
   A25        3.15885  -0.00014   0.00477  -0.17931  -0.17454   2.98431
    D1        2.34688  -0.00049  -0.00004  -0.00259  -0.00264   2.34424
    D2       -0.83810  -0.00071  -0.00090  -0.00478  -0.00562  -0.84373
    D3        0.25238  -0.00102  -0.00114  -0.01472  -0.01582   0.23656
    D4       -2.93261  -0.00124  -0.00200  -0.01691  -0.01880  -2.95141
    D5       -1.81731   0.00076  -0.00006   0.00646   0.00634  -1.81097
    D6        1.28089   0.00054  -0.00092   0.00428   0.00336   1.28425
    D7       -2.46044  -0.00175  -0.00376  -0.00398  -0.00777  -2.46821
    D8       -0.40552  -0.00227  -0.00620  -0.00561  -0.01178  -0.41730
    D9        1.72588  -0.00067  -0.00182   0.00522   0.00341   1.72929
   D10       -0.37450   0.00211   0.00428   0.01916   0.02332  -0.35118
   D11        1.68042   0.00159   0.00184   0.01753   0.01931   1.69973
   D12       -2.47136   0.00320   0.00622   0.02836   0.03449  -2.43687
   D13        1.68157   0.00044   0.00465  -0.00254   0.00211   1.68368
   D14       -2.54670  -0.00009   0.00221  -0.00417  -0.00190  -2.54860
   D15       -0.41529   0.00152   0.00659   0.00665   0.01328  -0.40202
   D16       -0.03509  -0.00068  -0.00133   0.00197   0.00075  -0.03433
   D17        3.07286  -0.00002  -0.00014   0.00329   0.00321   3.07607
   D18       -3.13307  -0.00036  -0.00040   0.00477   0.00447  -3.12859
   D19       -0.02512   0.00030   0.00079   0.00609   0.00693  -0.01819
   D20       -0.21774   0.00084   0.00197   0.01001   0.01203  -0.20571
   D21        2.95274   0.00020   0.00080   0.00863   0.00957   2.96231
   D22        0.36778  -0.00089  -0.00230  -0.01788  -0.02025   0.34753
   D23       -1.72955   0.00158   0.00321  -0.00767  -0.00451  -1.73406
   D24        2.50052   0.00047   0.00087  -0.01447  -0.01363   2.48689
         Item               Value     Threshold  Converged?
 Maximum Force            0.041057     0.000450     NO 
 RMS     Force            0.006482     0.000300     NO 
 Maximum Displacement     0.342340     0.001800     NO 
 RMS     Displacement     0.104712     0.001200     NO 
 Predicted change in Energy=-4.589487D-03
 GradGradGradGradGradGradGradGradGradGradGradGradGradGradGradGradGradGrad

                          Input orientation:                          
 ---------------------------------------------------------------------
 Center     Atomic      Atomic             Coordinates (Angstroms)
 Number     Number       Type             X           Y           Z
 ---------------------------------------------------------------------
      1          7           0        1.396016    0.157121    0.148351
      2          6           0        2.551992    0.069314    0.093548
      3          6           0        3.897761   -0.042185    0.020940
      4          6           0        5.101087   -0.135616   -0.041692
      5          6           0        6.558756   -0.100721    0.010906
      6          6           0        7.223150   -1.301156   -0.643033
      7          6           0        8.214819   -0.850831   -1.407515
      8          8           0        8.358753    0.507213   -1.451129
      9          6           0        7.168325    1.044894   -0.839821
     10          1           0        6.864817   -0.021974    1.063529
     11          1           0        6.956071   -2.331347   -0.470159
     12          1           0        8.945757   -1.400419   -1.983744
     13          1           0        6.480634    1.349332   -1.636615
     14          1           0        7.441792    1.924055   -0.254086
 ---------------------------------------------------------------------
                    Distance matrix (angstroms):
                    1          2          3          4          5
     1  N    0.000000
     2  C    1.160601   0.000000
     3  C    2.512904   1.352331   0.000000
     4  C    3.721473   2.560892   1.208571   0.000000
     5  C    5.171002   4.011222   2.661658   1.459036   0.000000
     6  C    6.058742   4.923460   3.617192   2.494644   1.519901
     7  C    7.066312   5.930217   4.618591   3.474527   2.305890
     8  O    7.152664   6.024637   4.729616   3.607233   2.397315
     9  C    5.923190   4.809726   3.552357   2.510794   1.551691
    10  H    5.547740   4.421499   3.144968   2.084508   1.099040
    11  H    6.122846   5.047460   3.851584   2.906163   2.316241
    12  H    7.998147   6.881532   5.598733   4.489185   3.371293
    13  H    5.519131   4.479524   3.369724   2.579147   2.196152
    14  H    6.311531   5.241284   4.062252   3.125101   2.224790
                    6          7          8          9         10
     6  C    0.000000
     7  C    1.330652   0.000000
     8  O    2.283158   1.366346   0.000000
     9  C    2.354927   2.238570   1.442191   0.000000
    10  H    2.162651   2.935229   2.972438   2.202967   0.000000
    11  H    1.078198   2.157548   3.314701   3.403043   2.773756
    12  H    2.185116   1.080906   2.065748   3.232241   3.939073
    13  H    2.926367   2.810801   2.066615   1.095665   3.052680
    14  H    3.255928   3.102896   2.069099   1.091236   2.419925
                   11         12         13         14
    11  H    0.000000
    12  H    2.667661   0.000000
    13  H    3.890252   3.709240   0.000000
    14  H    4.288480   4.038039   1.779190   0.000000
 Stoichiometry    C7H5NO
 Framework group  C1[X(C7H5NO)]
 Deg. of freedom    36
 Full point group                 C1      NOp   1
 Largest Abelian subgroup         C1      NOp   1
 Largest concise Abelian subgroup C1      NOp   1
                         Standard orientation:                         
 ---------------------------------------------------------------------
 Center     Atomic      Atomic             Coordinates (Angstroms)
 Number     Number       Type             X           Y           Z
 ---------------------------------------------------------------------
      1          7           0        4.411573   -0.064608   -0.327453
      2          6           0        3.269187   -0.004691   -0.131599
      3          6           0        1.936946    0.073503    0.087076
      4          6           0        0.746464    0.137388    0.285357
      5          6           0       -0.661696    0.078976    0.662794
      6          6           0       -1.499664    1.202050    0.074055
      7          6           0       -2.616471    0.665069   -0.410742
      8          8           0       -2.713326   -0.693891   -0.307056
      9          6           0       -1.397763   -1.150663    0.067867
     10          1           0       -0.726184    0.089951    1.759885
     11          1           0       -1.241611    2.248678    0.096167
     12          1           0       -3.476859    1.145838   -0.854534
     13          1           0       -0.890173   -1.512556   -0.833170
     14          1           0       -1.501598   -1.978317    0.771431
 ---------------------------------------------------------------------
 Rotational constants (GHZ):           6.6331991           0.6813225           0.6443965
 Standard basis: 6-31G(2df,p) (6D, 7F)
 There are   304 symmetry adapted cartesian basis functions of A   symmetry.
 There are   277 symmetry adapted basis functions of A   symmetry.
   277 basis functions,   431 primitive gaussians,   304 cartesian basis functions
    31 alpha electrons       31 beta electrons
       nuclear repulsion energy       359.4808184014 Hartrees.
 NAtoms=   14 NActive=   14 NUniq=   14 SFac= 1.00D+00 NAtFMM=   60 NAOKFM=F Big=F
 Integral buffers will be    131072 words long.
 Raffenetti 2 integral format.
 Two-electron integral symmetry is turned on.
 One-electron integrals computed using PRISM.
 PrsmSu:  requested number of processors reduced to:  13 ShMem   1 Linda.
 NBasis=   277 RedAO= T EigKep=  2.62D-05  NBF=   277
 NBsUse=   277 1.00D-06 EigRej= -1.00D+00 NBFU=   277
 Initial guess from the checkpoint file:  "NtCCtCC1CdCOC1.chk"
 B after Tr=    -0.000000    0.000000   -0.000000
         Rot=    0.998916    0.046055   -0.002177   -0.006331 Ang=   5.33 deg.
 ExpMin= 1.61D-01 ExpMax= 5.48D+03 ExpMxC= 8.25D+02 IAcc=2 IRadAn=         4 AccDes= 0.00D+00
 Harris functional with IExCor=  402 and IRadAn=       4 diagonalized for initial guess.
 HarFok:  IExCor=  402 AccDes= 0.00D+00 IRadAn=         4 IDoV= 1 UseB2=F ITyADJ=14
 ICtDFT=  3500011 ScaDFX=  1.000000  1.000000  1.000000  1.000000
 FoFCou: FMM=F IPFlag=           0 FMFlag=      100000 FMFlg1=           0
         NFxFlg=           0 DoJE=T BraDBF=F KetDBF=T FulRan=T
         wScrn=  0.000000 ICntrl=       500 IOpCl=  0 I1Cent=   200000004 NGrid=           0
         NMat0=    1 NMatS0=      1 NMatT0=    0 NMatD0=    1 NMtDS0=    0 NMtDT0=    0
 Petite list used in FoFCou.
 Requested convergence on RMS density matrix=1.00D-08 within 128 cycles.
 Requested convergence on MAX density matrix=1.00D-06.
 Requested convergence on             energy=1.00D-06.
 No special actions if energy rises.
 Integral accuracy reduced to 1.0D-05 until final iterations.
 Initial convergence to 1.0D-05 achieved.  Increase integral accuracy.
 SCF Done:  E(RB3LYP) =  -399.634813774     A.U. after   16 cycles
            NFock= 16  Conv=0.34D-08     -V/T= 2.0072
 PrsmSu:  requested number of processors reduced to:  13 ShMem   1 Linda.
 Calling FoFJK, ICntrl=      2127 FMM=F ISym2X=0 I1Cent= 0 IOpClX= 0 NMat=1 NMatS=1 NMatT=0.
 ***** Axes restored to original set *****
 -------------------------------------------------------------------
 Center     Atomic                   Forces (Hartrees/Bohr)
 Number     Number              X              Y              Z
 -------------------------------------------------------------------
      1        7          -0.003755036    0.000883858    0.000691374
      2        6          -0.008576049   -0.001497844   -0.001410762
      3        6           0.010367865   -0.001928502   -0.001462743
      4        6           0.004266959    0.008366550    0.007131610
      5        6          -0.007090990   -0.006941320   -0.003523599
      6        6           0.004953976   -0.001715307   -0.002896340
      7        6           0.001104257    0.000842106    0.000241681
      8        8          -0.002692955   -0.003281144    0.000779287
      9        6           0.001995802    0.005908650   -0.001412252
     10        1          -0.001293170    0.000559823    0.000897548
     11        1          -0.000081746    0.000353608    0.000875780
     12        1           0.000509381    0.000089087   -0.000374420
     13        1          -0.000578370   -0.000885940    0.000270276
     14        1           0.000870077   -0.000753623    0.000192561
 -------------------------------------------------------------------
 Cartesian Forces:  Max     0.010367865 RMS     0.003653003

 GradGradGradGradGradGradGradGradGradGradGradGradGradGradGradGradGradGrad
 Berny optimization.
 Using GEDIIS/GDIIS optimizer.
 FormGI is forming the generalized inverse of G from B-inverse, IUseBI=4.
 Internal  Forces:  Max     0.012183652 RMS     0.002400982
 Search for a local minimum.
 Step number   3 out of a maximum of   73
 All quantities printed in internal units (Hartrees-Bohrs-Radians)
 Mixed Optimization -- RFO/linear search
 Update second derivatives using D2CorX and points    1    2    3
 DE= -2.66D-03 DEPred=-4.59D-03 R= 5.79D-01
 TightC=F SS=  1.41D+00  RLast= 2.39D-01 DXNew= 8.4853D-01 7.1796D-01
 Trust test= 5.79D-01 RLast= 2.39D-01 DXMaxT set to 7.18D-01
 ITU=  1  1  0
 Use linear search instead of GDIIS.
     Eigenvalues ---    0.00307   0.00308   0.00501   0.00645   0.00790
     Eigenvalues ---    0.01740   0.01933   0.02769   0.03361   0.03376
     Eigenvalues ---    0.04656   0.05736   0.05795   0.06484   0.08279
     Eigenvalues ---    0.10909   0.11243   0.13245   0.15867   0.15992
     Eigenvalues ---    0.22004   0.22864   0.26722   0.29667   0.32488
     Eigenvalues ---    0.33886   0.34120   0.34159   0.36063   0.36393
     Eigenvalues ---    0.37249   0.38913   0.46294   0.57102   0.80048
     Eigenvalues ---    1.27032
 RFO step:  Lambda=-6.22444624D-03 EMin= 3.07184101D-03
 Quartic linear search produced a step of -0.23179.
 Iteration  1 RMS(Cart)=  0.10155064 RMS(Int)=  0.05692684
 Iteration  2 RMS(Cart)=  0.09841684 RMS(Int)=  0.03161236
 Iteration  3 RMS(Cart)=  0.10114012 RMS(Int)=  0.00704868
 Iteration  4 RMS(Cart)=  0.02835398 RMS(Int)=  0.00023625
 Iteration  5 RMS(Cart)=  0.00046976 RMS(Int)=  0.00009012
 Iteration  6 RMS(Cart)=  0.00000018 RMS(Int)=  0.00009012
 Variable       Old X    -DE/DX   Delta X   Delta X   Delta X     New X
                                 (Linear)    (Quad)   (Total)
    R1        2.19322   0.00384  -0.00032   0.00338   0.00306   2.19628
    R2        2.55553   0.01218   0.02790  -0.08988  -0.06198   2.49356
    R3        2.28387   0.00165   0.00353  -0.02505  -0.02152   2.26235
    R4        2.75718  -0.00245   0.01212  -0.05699  -0.04487   2.71231
    R5        2.87220   0.00469  -0.00582   0.03698   0.03118   2.90338
    R6        2.93227   0.00296  -0.00574   0.03226   0.02653   2.95880
    R7        2.07688   0.00054  -0.00061   0.00387   0.00326   2.08015
    R8        2.51457  -0.00059  -0.00039   0.00079   0.00039   2.51496
    R9        2.03750  -0.00018   0.00008  -0.00088  -0.00080   2.03670
   R10        2.58202  -0.00211   0.00349  -0.01757  -0.01410   2.56792
   R11        2.04262   0.00050  -0.00036   0.00305   0.00269   2.04530
   R12        2.72535  -0.00043   0.00209  -0.00822  -0.00616   2.71919
   R13        2.07051  -0.00027   0.00027  -0.00200  -0.00172   2.06878
   R14        2.06214  -0.00029   0.00098  -0.00474  -0.00375   2.05838
    A1        1.98485   0.00331  -0.00680   0.05086   0.04398   2.02883
    A2        1.97183  -0.00027  -0.00103   0.00285   0.00154   1.97337
    A3        1.89069  -0.00155   0.00078  -0.02131  -0.02065   1.87004
    A4        1.74722  -0.00157   0.00216  -0.00819  -0.00627   1.74094
    A5        1.92510   0.00001   0.00230  -0.00722  -0.00488   1.92022
    A6        1.94207   0.00016   0.00269  -0.01597  -0.01330   1.92878
    A7        1.88143   0.00078   0.00033   0.00178   0.00204   1.88347
    A8        2.18631  -0.00112   0.00229  -0.01404  -0.01171   2.17460
    A9        2.21439   0.00034  -0.00259   0.01190   0.00932   2.22371
   A10        2.01885  -0.00086  -0.00162   0.00136  -0.00036   2.01849
   A11        2.26290   0.00084  -0.00182   0.01241   0.01065   2.27355
   A12        2.00106   0.00002   0.00342  -0.01368  -0.01021   1.99085
   A13        1.84427   0.00296  -0.00235   0.02412   0.02166   1.86592
   A14        1.85605  -0.00094  -0.00083  -0.00167  -0.00265   1.85340
   A15        1.93615  -0.00086   0.00369  -0.02188  -0.01823   1.91792
   A16        1.98120   0.00044  -0.00265   0.01501   0.01245   1.99365
   A17        1.88959   0.00067  -0.00046   0.00374   0.00330   1.89288
   A18        1.89762   0.00002   0.00380  -0.01743  -0.01362   1.88399
   A19        1.90052   0.00067  -0.00332   0.02105   0.01776   1.91828
   A20        3.14200  -0.00015  -0.00013  -0.01288  -0.01302   3.12899
   A21        3.13915   0.00044   0.00053   0.00719   0.00771   3.14687
   A22        3.13483   0.00125   0.00186   0.08731   0.08917   3.22400
   A23        3.16069  -0.00085  -0.00572  -0.05683  -0.06255   3.09814
   A24        3.13407   0.00243   0.00342   0.04008   0.04350   3.17757
   A25        2.98431   0.00999   0.04046   0.61459   0.65505   3.63936
    D1        2.34424  -0.00019   0.00061  -0.00313  -0.00249   2.34175
    D2       -0.84373  -0.00033   0.00130  -0.01076  -0.00931  -0.85303
    D3        0.23656  -0.00045   0.00367  -0.02532  -0.02174   0.21481
    D4       -2.95141  -0.00059   0.00436  -0.03295  -0.02856  -2.97997
    D5       -1.81097   0.00016  -0.00147  -0.00020  -0.00171  -1.81268
    D6        1.28425   0.00002  -0.00078  -0.00783  -0.00853   1.27572
    D7       -2.46821  -0.00154   0.00180  -0.01463  -0.01285  -2.48105
    D8       -0.41730  -0.00174   0.00273  -0.02273  -0.01993  -0.43723
    D9        1.72929  -0.00119  -0.00079  -0.00072  -0.00144   1.72784
   D10       -0.35118   0.00130  -0.00541   0.04187   0.03629  -0.31489
   D11        1.69973   0.00110  -0.00448   0.03377   0.02920   1.72893
   D12       -2.43687   0.00164  -0.00799   0.05578   0.04769  -2.38918
   D13        1.68368   0.00056  -0.00049   0.02303   0.02244   1.70612
   D14       -2.54860   0.00036   0.00044   0.01492   0.01536  -2.53324
   D15       -0.40202   0.00090  -0.00308   0.03694   0.03385  -0.36817
   D16       -0.03433  -0.00028  -0.00017  -0.00041  -0.00039  -0.03472
   D17        3.07607  -0.00002  -0.00074   0.00319   0.00254   3.07861
   D18       -3.12859  -0.00009  -0.00104   0.00827   0.00740  -3.12119
   D19       -0.01819   0.00017  -0.00161   0.01187   0.01034  -0.00786
   D20       -0.20571   0.00043  -0.00279   0.02348   0.02079  -0.18492
   D21        2.96231   0.00020  -0.00222   0.01999   0.01798   2.98029
   D22        0.34753  -0.00055   0.00469  -0.03760  -0.03305   0.31447
   D23       -1.73406   0.00062   0.00105  -0.01293  -0.01195  -1.74602
   D24        2.48689  -0.00056   0.00316  -0.03045  -0.02737   2.45952
         Item               Value     Threshold  Converged?
 Maximum Force            0.012184     0.000450     NO 
 RMS     Force            0.002401     0.000300     NO 
 Maximum Displacement     1.215194     0.001800     NO 
 RMS     Displacement     0.321113     0.001200     NO 
 Predicted change in Energy=-5.121444D-03
 GradGradGradGradGradGradGradGradGradGradGradGradGradGradGradGradGradGrad

                          Input orientation:                          
 ---------------------------------------------------------------------
 Center     Atomic      Atomic             Coordinates (Angstroms)
 Number     Number       Type             X           Y           Z
 ---------------------------------------------------------------------
      1          7           0        1.590255   -0.485932   -0.165056
      2          6           0        2.720227   -0.241217   -0.046601
      3          6           0        3.996633    0.066857    0.083954
      4          6           0        5.161073    0.320798    0.197278
      5          6           0        6.571566    0.074554    0.097590
      6          6           0        6.986129   -1.223123   -0.612836
      7          6           0        7.966953   -0.929071   -1.462958
      8          8           0        8.316316    0.382568   -1.527082
      9          6           0        7.314422    1.118462   -0.802376
     10          1           0        6.976788    0.089950    1.120940
     11          1           0        6.574136   -2.195961   -0.399656
     12          1           0        8.554910   -1.574241   -2.102876
     13          1           0        6.614746    1.553447   -1.523296
     14          1           0        7.815578    1.910591   -0.247543
 ---------------------------------------------------------------------
                    Distance matrix (angstroms):
                    1          2          3          4          5
     1  N    0.000000
     2  C    1.162220   0.000000
     3  C    2.481580   1.319533   0.000000
     4  C    3.678701   2.516558   1.197183   0.000000
     5  C    5.019621   3.866952   2.574981   1.435293   0.000000
     6  C    5.464377   4.413919   3.329662   2.524046   1.536403
     7  C    6.522515   5.477896   4.375871   3.491636   2.321568
     8  O    6.917319   5.822125   4.621122   3.596219   2.403868
     9  C    5.978825   4.850417   3.591542   2.504494   1.565732
    10  H    5.567779   4.426187   3.155502   2.050186   1.100766
    11  H    5.274306   4.335699   3.463776   2.947398   2.324328
    12  H    7.310677   6.328408   5.315385   4.516638   3.390314
    13  H    5.590116   4.535275   3.412875   2.567677   2.194597
    14  H    6.671190   5.534732   4.253656   3.125973   2.244485
                    6          7          8          9         10
     6  C    0.000000
     7  C    1.330860   0.000000
     8  O    2.276727   1.358884   0.000000
     9  C    2.372071   2.248234   1.438934   0.000000
    10  H    2.174909   2.948789   2.981942   2.207029   0.000000
    11  H    1.077775   2.162305   3.309848   3.419884   2.774839
    12  H    2.191935   1.082328   2.053672   3.237401   3.956386
    13  H    2.945539   2.827543   2.065505   1.094753   3.043826
    14  H    3.262145   3.092544   2.054948   1.089250   2.427148
                   11         12         13         14
    11  H    0.000000
    12  H    2.685324   0.000000
    13  H    3.914368   3.725934   0.000000
    14  H    4.292795   4.016582   1.788042   0.000000
 Stoichiometry    C7H5NO
 Framework group  C1[X(C7H5NO)]
 Deg. of freedom    36
 Full point group                 C1      NOp   1
 Largest Abelian subgroup         C1      NOp   1
 Largest concise Abelian subgroup C1      NOp   1
                         Standard orientation:                         
 ---------------------------------------------------------------------
 Center     Atomic      Atomic             Coordinates (Angstroms)
 Number     Number       Type             X           Y           Z
 ---------------------------------------------------------------------
      1          7           0        4.187620    0.329528   -0.455904
      2          6           0        3.096402    0.059468   -0.160835
      3          6           0        1.861771   -0.275713    0.162441
      4          6           0        0.735406   -0.553777    0.457790
      5          6           0       -0.653994   -0.297855    0.711043
      6          6           0       -1.149792    1.123727    0.404737
      7          6           0       -2.295197    1.022326   -0.265304
      8          8           0       -2.705399   -0.243512   -0.540902
      9          6           0       -1.608546   -1.118014   -0.220453
     10          1           0       -0.841781   -0.542987    1.767609
     11          1           0       -0.662190    2.026334    0.735105
     12          1           0       -2.973734    1.791341   -0.611190
     13          1           0       -1.090008   -1.378051   -1.148884
     14          1           0       -2.018738   -2.016207    0.239393
 ---------------------------------------------------------------------
 Rotational constants (GHZ):           5.6038477           0.7415064           0.7014559
 Standard basis: 6-31G(2df,p) (6D, 7F)
 There are   304 symmetry adapted cartesian basis functions of A   symmetry.
 There are   277 symmetry adapted basis functions of A   symmetry.
   277 basis functions,   431 primitive gaussians,   304 cartesian basis functions
    31 alpha electrons       31 beta electrons
       nuclear repulsion energy       363.2859348258 Hartrees.
 NAtoms=   14 NActive=   14 NUniq=   14 SFac= 1.00D+00 NAtFMM=   60 NAOKFM=F Big=F
 Integral buffers will be    131072 words long.
 Raffenetti 2 integral format.
 Two-electron integral symmetry is turned on.
 One-electron integrals computed using PRISM.
 PrsmSu:  requested number of processors reduced to:  13 ShMem   1 Linda.
 NBasis=   277 RedAO= T EigKep=  4.90D-05  NBF=   277
 NBsUse=   277 1.00D-06 EigRej= -1.00D+00 NBFU=   277
 Initial guess from the checkpoint file:  "NtCCtCC1CdCOC1.chk"
 B after Tr=    -0.000000   -0.000000    0.000000
         Rot=    0.982665   -0.184026   -0.000516    0.022445 Ang= -21.37 deg.
 ExpMin= 1.61D-01 ExpMax= 5.48D+03 ExpMxC= 8.25D+02 IAcc=2 IRadAn=         4 AccDes= 0.00D+00
 Harris functional with IExCor=  402 and IRadAn=       4 diagonalized for initial guess.
 HarFok:  IExCor=  402 AccDes= 0.00D+00 IRadAn=         4 IDoV= 1 UseB2=F ITyADJ=14
 ICtDFT=  3500011 ScaDFX=  1.000000  1.000000  1.000000  1.000000
 FoFCou: FMM=F IPFlag=           0 FMFlag=      100000 FMFlg1=           0
         NFxFlg=           0 DoJE=T BraDBF=F KetDBF=T FulRan=T
         wScrn=  0.000000 ICntrl=       500 IOpCl=  0 I1Cent=   200000004 NGrid=           0
         NMat0=    1 NMatS0=      1 NMatT0=    0 NMatD0=    1 NMtDS0=    0 NMtDT0=    0
 Petite list used in FoFCou.
 Requested convergence on RMS density matrix=1.00D-08 within 128 cycles.
 Requested convergence on MAX density matrix=1.00D-06.
 Requested convergence on             energy=1.00D-06.
 No special actions if energy rises.
 Integral accuracy reduced to 1.0D-05 until final iterations.
 Initial convergence to 1.0D-05 achieved.  Increase integral accuracy.
 SCF Done:  E(RB3LYP) =  -399.625282541     A.U. after   16 cycles
            NFock= 16  Conv=0.56D-08     -V/T= 2.0067
 PrsmSu:  requested number of processors reduced to:  13 ShMem   1 Linda.
 Calling FoFJK, ICntrl=      2127 FMM=F ISym2X=0 I1Cent= 0 IOpClX= 0 NMat=1 NMatS=1 NMatT=0.
 ***** Axes restored to original set *****
 -------------------------------------------------------------------
 Center     Atomic                   Forces (Hartrees/Bohr)
 Number     Number              X              Y              Z
 -------------------------------------------------------------------
      1        7          -0.002697106   -0.002508284   -0.000487811
      2        6          -0.044541356   -0.003173419   -0.002507536
      3        6           0.009163811    0.008878805    0.004495863
      4        6           0.017052768   -0.016584763   -0.008531989
      5        6           0.022316853    0.009416952    0.003912161
      6        6          -0.003921705    0.003042856    0.001036270
      7        6          -0.001242913    0.000312409    0.001555786
      8        8           0.000957416    0.002295615   -0.002062969
      9        6           0.001334588   -0.002402654    0.001021085
     10        1           0.002922557   -0.000034288   -0.000456702
     11        1          -0.000260398    0.000106850    0.000419477
     12        1          -0.000637594   -0.000729300    0.000948528
     13        1           0.000080678    0.000710024   -0.000360665
     14        1          -0.000527599    0.000669196    0.001018502
 -------------------------------------------------------------------
 Cartesian Forces:  Max     0.044541356 RMS     0.009128515

 GradGradGradGradGradGradGradGradGradGradGradGradGradGradGradGradGradGrad
 Berny optimization.
 Using GEDIIS/GDIIS optimizer.
 FormGI is forming the generalized inverse of G from B-inverse, IUseBI=4.
 Internal  Forces:  Max     0.047325295 RMS     0.009014153
 Search for a local minimum.
 Step number   4 out of a maximum of   73
 All quantities printed in internal units (Hartrees-Bohrs-Radians)
 Mixed Optimization -- RFO/linear search
 Update second derivatives using D2CorX and points    1    2    4    3
 DE=  9.53D-03 DEPred=-5.12D-03 R=-1.86D+00
 Trust test=-1.86D+00 RLast= 6.83D-01 DXMaxT set to 3.59D-01
 ITU= -1  1  1  0
 Use linear search instead of GDIIS.
     Eigenvalues ---    0.00307   0.00308   0.00499   0.00776   0.01752
     Eigenvalues ---    0.01919   0.02775   0.03119   0.03360   0.04646
     Eigenvalues ---    0.05583   0.05804   0.05857   0.06491   0.08144
     Eigenvalues ---    0.10839   0.11258   0.13773   0.15834   0.15993
     Eigenvalues ---    0.21914   0.22688   0.27344   0.30164   0.32463
     Eigenvalues ---    0.33891   0.34113   0.34152   0.35346   0.36065
     Eigenvalues ---    0.36402   0.37543   0.46212   0.57130   0.85621
     Eigenvalues ---    1.26787
 RFO step:  Lambda=-1.43577250D-03 EMin= 3.07030422D-03
 Quartic linear search produced a step of -0.78754.
 Iteration  1 RMS(Cart)=  0.10455564 RMS(Int)=  0.03833499
 Iteration  2 RMS(Cart)=  0.09575940 RMS(Int)=  0.01325672
 Iteration  3 RMS(Cart)=  0.04752101 RMS(Int)=  0.00083039
 Iteration  4 RMS(Cart)=  0.00219755 RMS(Int)=  0.00008049
 Iteration  5 RMS(Cart)=  0.00000204 RMS(Int)=  0.00008049
 Iteration  6 RMS(Cart)=  0.00000000 RMS(Int)=  0.00008049
 Variable       Old X    -DE/DX   Delta X   Delta X   Delta X     New X
                                 (Linear)    (Quad)   (Total)
    R1        2.19628   0.00320  -0.00241   0.00249   0.00009   2.19636
    R2        2.49356   0.04733   0.04881   0.05033   0.09914   2.59270
    R3        2.26235   0.03625   0.01695   0.00201   0.01896   2.28131
    R4        2.71231   0.01978   0.03533   0.00471   0.04004   2.75235
    R5        2.90338  -0.00627  -0.02456   0.00922  -0.01536   2.88802
    R6        2.95880  -0.00063  -0.02090   0.00876  -0.01215   2.94666
    R7        2.08015   0.00065  -0.00257   0.00177  -0.00080   2.07935
    R8        2.51496  -0.00096  -0.00031  -0.00122  -0.00154   2.51342
    R9        2.03670   0.00009   0.00063  -0.00049   0.00014   2.03684
   R10        2.56792   0.00198   0.01111  -0.00255   0.00857   2.57649
   R11        2.04530  -0.00047  -0.00212   0.00126  -0.00085   2.04445
   R12        2.71919  -0.00034   0.00485   0.00025   0.00512   2.72431
   R13        2.06878  -0.00160   0.00136  -0.00186  -0.00050   2.06828
   R14        2.05838   0.00076   0.00295  -0.00034   0.00261   2.06100
    A1        2.02883  -0.00521  -0.03464   0.01655  -0.01805   2.01078
    A2        1.97337   0.00429  -0.00121   0.00637   0.00543   1.97880
    A3        1.87004   0.00129   0.01626  -0.01614   0.00019   1.87023
    A4        1.74094   0.00161   0.00494   0.00252   0.00768   1.74863
    A5        1.92022  -0.00007   0.00384   0.00090   0.00471   1.92494
    A6        1.92878  -0.00205   0.01047  -0.00967   0.00080   1.92957
    A7        1.88347  -0.00029  -0.00161   0.00258   0.00103   1.88451
    A8        2.17460  -0.00030   0.00922  -0.00535   0.00384   2.17844
[...]
 ! A24   L(2,3,4,13,-2)        180.1333         -DE/DX =    0.0                 !
 ! A25   L(3,4,5,13,-2)        179.9939         -DE/DX =    0.0                 !
 ! D1    D(4,5,6,7)            128.9634         -DE/DX =    0.0                 !
 ! D2    D(4,5,6,11)           -53.2205         -DE/DX =    0.0                 !
 ! D3    D(9,5,6,7)              7.6607         -DE/DX =    0.0                 !
 ! D4    D(9,5,6,11)          -174.5232         -DE/DX =    0.0                 !
 ! D5    D(10,5,6,7)          -109.3157         -DE/DX =    0.0                 !
 ! D6    D(10,5,6,11)           68.5004         -DE/DX =    0.0                 !
 ! D7    D(4,5,9,8)           -133.505          -DE/DX =    0.0                 !
 ! D8    D(4,5,9,13)           -15.5033         -DE/DX =    0.0                 !
 ! D9    D(4,5,9,14)           107.6955         -DE/DX =    0.0                 !
 ! D10   D(6,5,9,8)            -11.1674         -DE/DX =    0.0                 !
 ! D11   D(6,5,9,13)           106.8342         -DE/DX =    0.0                 !
 ! D12   D(6,5,9,14)          -129.967          -DE/DX =    0.0                 !
 ! D13   D(10,5,9,8)           105.8179         -DE/DX =    0.0                 !
 ! D14   D(10,5,9,13)         -136.1804         -DE/DX =    0.0                 !
 ! D15   D(10,5,9,14)          -12.9816         -DE/DX =    0.0                 !
 ! D16   D(5,6,7,8)             -1.2965         -DE/DX =    0.0                 !
 ! D17   D(5,6,7,12)           177.4567         -DE/DX =    0.0                 !
 ! D18   D(11,6,7,8)          -179.0334         -DE/DX =    0.0                 !
 ! D19   D(11,6,7,12)           -0.2802         -DE/DX =    0.0                 !
 ! D20   D(6,7,8,9)             -6.4825         -DE/DX =    0.0                 !
 ! D21   D(12,7,8,9)           174.5712         -DE/DX =    0.0                 !
 ! D22   D(7,8,9,5)             11.0442         -DE/DX =    0.0                 !
 ! D23   D(7,8,9,13)          -108.6804         -DE/DX =    0.0                 !
 ! D24   D(7,8,9,14)           132.6751         -DE/DX =    0.0                 !
 --------------------------------------------------------------------------------
 GradGradGradGradGradGradGradGradGradGradGradGradGradGradGradGradGradGrad


 ----------------------------------------------------------------------

 Electric dipole moment (input orientation):
 (Debye = 10**-18 statcoulomb cm , SI units = C m)
                  (au)            (Debye)         (10**-30 SI)
   Tot        0.181783D+01      0.462047D+01      0.154122D+02
   x          0.181093D+01      0.460292D+01      0.153537D+02
   y         -0.864523D-01     -0.219740D+00     -0.732973D+00
   z          0.132574D+00      0.336970D+00      0.112401D+01

 Dipole polarizability, Alpha (input orientation).
 (esu units = cm**3 , SI units = C**2 m**2 J**-1)
 Alpha(0;0):
               (au)            (10**-24 esu)      (10**-40 SI)
   iso        0.815183D+02      0.120798D+02      0.134406D+02
   aniso      0.793171D+02      0.117536D+02      0.130776D+02
   xx         0.131528D+03      0.194904D+02      0.216860D+02
   yx        -0.135995D+01     -0.201523D+00     -0.224225D+00
   yy         0.597273D+02      0.885067D+01      0.984770D+01
   zx        -0.144598D+02     -0.214272D+01     -0.238410D+01
   zy        -0.272509D+00     -0.403817D-01     -0.449307D-01
   zz         0.532996D+02      0.789819D+01      0.878792D+01

 ----------------------------------------------------------------------

 Dipole orientation:
     7          0.21894164          0.09773072          2.62060343
     6          0.35295962          0.17376797          4.81075968
     6          0.50918557          0.26580006          7.38386115
     6          0.65222149          0.34687822          9.66209431
     6          0.82103730          0.44171460         12.40415058
     6          2.03217066         -1.88231338         13.60218098
     6          3.84600888         -1.10924517         15.15919655
     8          4.22185031          1.42987859         15.27943005
     6          2.64178085          2.56580346         13.37408456
     1         -1.09983988          0.73003207         13.14292017
     1          1.43073422         -3.79874658         13.26390151
     1          5.06314838         -2.19987519         16.38697118
     1          3.85245039          3.26123546         11.84954868
     1          1.63523263          4.15088363         14.22606189

 Electric dipole moment (dipole orientation):
 (Debye = 10**-18 statcoulomb cm , SI units = C m)
                  (au)            (Debye)         (10**-30 SI)
   Tot        0.181783D+01      0.462047D+01      0.154122D+02
   x          0.000000D+00      0.000000D+00      0.000000D+00
   y          0.000000D+00      0.000000D+00      0.000000D+00
   z          0.181783D+01      0.462047D+01      0.154122D+02

 Dipole polarizability, Alpha (dipole orientation).
 (esu units = cm**3 , SI units = C**2 m**2 J**-1)
 Alpha(0;0):
               (au)            (10**-24 esu)      (10**-40 SI)
   iso        0.815183D+02      0.120798D+02      0.134406D+02
   aniso      0.793171D+02      0.117536D+02      0.130776D+02
   xx         0.559294D+02      0.828789D+01      0.922152D+01
   yx         0.129275D+01      0.191566D+00      0.213146D+00
   yy         0.596463D+02      0.883867D+01      0.983435D+01
   zx         0.200366D+02      0.296912D+01      0.330359D+01
   zy         0.103625D+01      0.153556D+00      0.170854D+00
   zz         0.128979D+03      0.191127D+02      0.212658D+02

 ----------------------------------------------------------------------
 1\1\GINC-LEWIS4-R630-HPC4-NODE303\Freq\RB3LYP\6-31G(2df,p)\C7H5N1O1\KS
 29C\04-Jul-2022\0\\#N Geom=AllCheck Guess=TCheck SCRF=Check GenChk RB3
 LYP/6-31G(2df,p) Freq\\Title Card Required\\0,1\N,1.3924748905,-0.0092
 277645,-0.0118228924\C,2.5541528524,-0.0210625433,0.0039650988\C,3.918
 9627443,-0.0335695439,0.0232272406\C,5.1275478832,-0.0447482849,0.0377
 872628\C,6.5819907388,-0.0597322778,0.0570034552\C,7.2073405186,-1.288
 8123666,-0.593719323\C,8.118237494,-0.8773856953,-1.4703710811\O,8.255
 876091,0.4691846704,-1.5999613514\C,7.2152405845,1.0800528305,-0.81194
 51591\H,6.9019083973,0.0290399807,1.1053949863\H,6.9603474502,-2.30634
 76764,-0.3379466835\H,8.788326597,-1.4557637828,-2.0920717901\H,6.4758
 782989,1.5139407089,-1.4915055327\H,7.6614454592,1.8721117448,-0.20855
 42305\\Version=ES64L-G16RevA.03\State=1-A\HF=-399.6361864\RMSD=7.862e-
 09\RMSF=1.349e-05\ZeroPoint=0.1016613\Thermal=0.109706\Dipole=1.810928
 8,-0.0864523,0.1325743\DipoleDeriv=-0.4588493,0.0023687,0.0300869,0.00
 37083,-0.3201481,-0.0020198,-0.0009854,-0.0004957,-0.3211303,0.6944915
 ,-0.0067909,-0.0449905,-0.011355,0.1992843,0.0063211,0.003317,0.001969
 7,0.2014628,-0.8194781,0.0136119,0.0893406,0.0065838,-0.0132742,0.0005
 951,-0.0092909,-0.0001016,-0.014844,0.6767021,-0.0098651,-0.0559505,-0
 .0028639,-0.0572852,-0.0218175,-0.0049288,0.0041093,-0.0562748,0.19226
 61,-0.0162141,0.0255388,-0.0684588,-0.0170274,0.0823338,0.1520389,0.05
 49045,0.15853,-0.4235501,-0.1594913,0.021202,-0.1569008,-0.0413912,0.0
 059509,-0.0733208,0.1478505,-0.2454241,0.2756926,0.1785703,-0.2431487,
 0.4133109,0.855072,-0.2989812,-0.2914029,-0.1532328,0.2398639,-0.58168
 57,0.1025469,0.1763929,-0.3109983,-1.0604165,0.2673417,0.2796259,-0.10
 382,-0.3580096,0.3863233,-0.2066647,-0.0098664,0.0885428,0.4494386,0.0
 465076,-0.1731904,0.1676791,0.3301591,-0.0967801,-0.0059324,-0.0026323
 ,0.0391027,0.0510151,-0.0457659,0.0321066,-0.015893,-0.1021659,0.10814
 66,0.0085772,0.0412055,0.012028,-0.0186327,0.0039146,0.0578597,-0.0051
 968,0.1063976,0.0717722,0.0502698,0.061038,0.0147382,0.034721,-0.02250
 08,0.1040581,-0.043261,0.0762148,-0.0120459,0.1004667,-0.0623508,0.029
 8472,-0.001224,0.0170136,-0.0651725,0.0303105,-0.0192151,-0.0130052,-0
 .0514532,-0.0258657,-0.0572851,-0.0601318,-0.038893,-0.0107144,-0.0848
 227,0.0044356\Polar=131.5280328,-1.3599478,59.727313,-14.4597876,-0.27
 25093,53.2996347\Quadrupole=-11.5325169,6.8675081,4.6650088,-1.2622772
 ,2.070665,1.0678205\PG=C01 [X(C7H5N1O1)]\NImag=0\\1.20090171,-0.011962
 52,0.02146246,0.01604971,-0.00010907,0.02161654,-1.15972890,0.01139366
 ,-0.01521879,1.60677131,0.01138117,-0.04071325,0.00008518,-0.01510183,
 0.08769051,-0.01519944,0.00008807,-0.04090139,0.02086922,-0.00024839,0
 .08797226,-0.06860499,0.00084543,-0.00116695,-0.38619461,0.00306001,-0
 .00497484,1.48186475,0.00072938,0.01962093,-0.00000593,0.00336685,-0.0
 5550521,0.00037059,-0.01341515,0.06440002,-0.00116393,-0.00001361,0.01
 967274,-0.00487355,0.00037955,-0.05547392,0.01823216,-0.00071935,0.063
 86509,0.03088098,-0.00029030,0.00038014,-0.06709819,0.00057506,-0.0008
 2275,-1.01841684,0.00853292,-0.01217699,1.37691956,-0.00036380,0.00060
 410,0.00004922,0.00068377,0.00229892,-0.00024348,0.00902248,-0.0353774
 8,0.00013600,-0.00943416,0.09597610,0.00018678,0.00005583,0.00063226,-
 0.00056287,-0.00028104,0.00183469,-0.01173155,0.00021123,-0.03482156,0
 .01643887,-0.00212485,0.09819430,-0.00284763,-0.00005438,-0.00012632,0
 .00656712,0.00027013,0.00045376,-0.00755940,0.00107936,-0.00051775,-0.
 25977837,-0.00045857,-0.00709521,0.51146918,-0.00000355,-0.00093233,-0
 .00003192,-0.00004828,0.00608276,0.00005011,-0.00073562,0.00582715,-0.
 00019255,-0.00159118,-0.05986824,0.00220883,-0.00922185,0.36163699,0.0
 0058761,-0.00003763,-0.00106869,-0.00109193,0.00009561,0.00663675,0.00
 137374,0.00001415,0.00603184,-0.01195000,0.00214961,-0.06165978,0.0090
 5876,0.01951620,0.52508645,-0.00030677,0.00032316,0.00014810,0.0000935
 3,-0.00158856,-0.00073355,0.00043512,-0.00068271,-0.00029484,-0.023426
 47,0.03006568,0.01343511,-0.07443367,0.02900663,0.02691450,0.43395289,
 -0.00113806,0.00004640,0.00001809,0.00216750,-0.00027654,-0.00008434,-
 0.00568813,-0.00011723,-0.00061922,0.01424142,0.00147598,0.00033205,0.
 02191998,-0.13585071,-0.03151367,0.14195281,0.68502545,-0.00026286,-0.
 00004006,0.00005054,0.00058733,0.00008973,-0.00010094,-0.00144801,-0.0
 0019109,0.00044139,0.00824971,-0.00124004,0.00008477,0.02103061,-0.033
 16488,-0.08897335,-0.32018503,-0.13603483,0.41950193,0.00013986,-0.000
 05499,0.00002040,-0.00020510,0.00005359,-0.00007959,-0.00001526,-0.000
 32990,-0.00018665,0.00039243,0.00166226,0.00145503,-0.01668648,0.01304
 051,0.02303132,-0.28631723,-0.07957119,0.22655145,0.56085901,0.0008927
 2,-0.00027492,0.00005390,-0.00139553,0.00090958,-0.00006576,0.00338208
 ,0.00037356,-0.00010443,-0.00196130,-0.00776251,0.00080585,0.01302477,
 0.00346087,-0.01861456,-0.08828133,-0.13061886,0.09038005,-0.02119103,
 0.59401119,-0.00040053,0.00008841,-0.00000783,0.00068692,-0.00015346,0
 .00000974,-0.00096733,0.00002484,0.00015966,0.00137672,-0.00033671,-0.
 00117940,0.02501922,-0.01355911,-0.01514524,0.22309426,0.07858131,-0.2
 6718638,-0.40579784,0.01094126,0.51185160,-0.00053565,-0.00006467,0.00
 004601,0.00081172,0.00023875,-0.00027003,-0.00129617,0.00020673,-0.000
 36211,-0.00055542,-0.00352911,0.00456904,-0.02644271,-0.00304271,0.016
 24461,0.00072130,-0.03010610,0.01486871,-0.08177350,-0.01263300,0.0330
 3436,0.24578063,-0.00059383,0.00024945,-0.00004622,0.00093454,-0.00048
 116,0.00005411,-0.00195880,0.00015924,0.00011246,0.00087908,0.00103417
 ,-0.00073431,-0.00252660,0.00070218,0.00161005,-0.02809294,-0.06410543
 ,0.02353346,-0.04278072,-0.27733472,0.04278467,-0.00404165,0.47685450,
 0.00048089,0.00004749,0.00001091,-0.00077678,-0.00026889,0.00011968,0.
 00131566,-0.00029445,0.00043367,-0.00299507,0.00313240,-0.00331864,0.0
 2269045,-0.00002113,-0.01944092,0.01544542,0.02912708,0.00354958,0.035
 16770,0.01838330,-0.07161246,-0.13466984,-0.01917061,0.17463804,0.0003
 8777,-0.00006039,0.00007684,-0.00105994,0.00078122,-0.00064471,0.00209
 963,0.00040560,0.00002495,-0.02357146,-0.02239712,0.01529548,-0.072447
 31,-0.01956688,0.00451736,0.00158295,-0.01147365,-0.00350849,-0.003244
 44,0.03579462,0.00283865,-0.12628303,0.03375888,0.04026073,0.48019631,
 0.00114004,-0.00008677,-0.00000767,-0.00205628,0.00003135,0.00014801,0
 .00619822,-0.00029544,0.00125826,-0.01156661,0.00041816,-0.00242719,-0
 .01018673,-0.10670977,0.02983415,-0.00241686,-0.03629894,0.00662834,0.
 03397300,-0.04657919,-0.02694531,0.01269871,-0.09824637,-0.00655021,-0
 .00206653,0.56841621,-0.00104753,-0.00006373,-0.00005598,0.00184052,0.
 00027589,0.00003412,-0.00585891,0.00125880,-0.00038673,0.01168652,-0.0
 0250502,0.00066246,-0.00202297,0.02962506,-0.09171037,-0.00144411,0.00
 809678,0.00364562,0.00108492,-0.03489751,-0.00284398,0.03962143,-0.018
 08596,-0.09425456,0.12837971,0.03795203,0.48856204,-0.00022572,-0.0000
 0899,-0.00021559,-0.00005416,0.00011636,0.00144723,-0.00137540,0.00009
 431,0.00145033,-0.02122490,-0.00243753,-0.03367354,-0.06697024,-0.0071
 8011,-0.07239754,0.00389711,0.00208552,0.01445821,0.00044133,0.0028002
 2,0.00088297,-0.00131888,-0.00069287,0.00026552,0.00526324,0.00003476,
 0.01091955,0.08117040,0.00004720,-0.00001832,0.00000581,-0.00009850,0.
 00002824,-0.00001804,0.00026256,0.00055754,0.00002118,-0.00089022,0.00
 088149,0.00039923,-0.00817278,-0.04379030,-0.01978212,-0.00226206,-0.0
 0286247,-0.02876923,-0.00141555,-0.00637547,-0.00040410,-0.00203823,0.
 00340818,0.00181680,0.00869666,-0.00214215,0.02167033,0.00641736,0.051
 06192,0.00043905,0.00000622,0.00006220,-0.00097266,-0.00003095,-0.0001
 5592,0.00255175,-0.00018851,-0.00011706,-0.00756980,0.00039408,-0.0004
 3127,-0.07041056,-0.01385875,-0.26569119,0.00320981,-0.00673665,-0.012
 04813,-0.00091451,-0.00287227,0.00118240,0.00050732,0.00083274,-0.0019
 1235,-0.00536890,0.00034127,-0.01365273,0.07637840,0.02056838,0.291019
 60,-0.00005302,-0.00002988,-0.00001148,0.00008107,0.00004255,0.0000306
 3,-0.00065459,-0.00029810,-0.00001649,0.00244267,-0.00004959,-0.000452
 10,0.00172857,0.01392401,-0.00474132,-0.05359963,-0.06693119,0.0322164
 2,-0.00055011,-0.01911237,-0.00191267,0.00311992,-0.00286632,0.0070225
 2,-0.00245925,0.00262488,0.00351384,0.00018844,-0.00036132,0.00004567,
 0.05054266,0.00008235,0.00001445,0.00000358,-0.00015796,-0.00001302,-0
 .00000211,0.00081920,0.00015453,0.00002684,-0.00147763,0.00030780,0.00
 012092,-0.00536524,-0.01050488,0.00647146,-0.06934216,-0.32554082,0.07
 162377,0.00245290,-0.00310463,-0.00245676,0.00063349,0.00274715,-0.000
 31481,0.00105304,-0.00184162,-0.00170326,-0.00007529,0.00002054,-0.000
 21733,0.07225969,0.33839621,0.00007815,-0.00000204,-0.00002197,-0.0001
 3587,0.00000058,0.00002564,0.00046683,0.00009240,-0.00007525,-0.000979
 14,0.00043834,0.00034650,-0.00448123,-0.01242888,0.00430133,0.03298486
 ,0.06862320,-0.05547968,-0.00205134,0.01837386,-0.00156249,0.00715334,
 0.00261068,0.00321963,0.00270864,-0.00279595,-0.00152049,-0.00036800,0
 .00050748,-0.00007001,-0.03306096,-0.07457722,0.05175650,-0.00000324,-
 0.00002092,-0.00001466,0.00000779,0.00007543,0.00002916,-0.00002013,0.
 00007907,-0.00009786,0.00072966,-0.00098400,-0.00000976,0.00244843,-0.
 00047331,0.00585585,-0.00210851,0.01244062,0.00685594,-0.16662303,0.09
 582866,0.11686820,0.00428000,-0.00270178,-0.00335160,0.00241133,-0.001
 68628,0.00192036,-0.00083083,0.00157444,0.00059844,-0.00136141,-0.0003
 3277,-0.00162301,0.16104292,-0.00007394,0.00001412,0.00000066,0.000125
 95,-0.00006305,-0.00001051,-0.00034314,-0.00001674,-0.00002111,0.00047
 427,0.00057920,0.00017551,-0.00244022,-0.00076524,0.00233210,-0.006666
 23,0.01111369,0.00645032,0.09132445,-0.12900829,-0.08530828,0.02248861
 ,-0.02349584,-0.01916792,-0.00308361,-0.00428922,0.00139416,-0.0001148
 0,0.00038603,0.00005105,0.00039541,0.00003415,-0.00045400,-0.10376935,
 0.14654480,0.00014455,-0.00002238,-0.00001233,-0.00020817,0.00013080,0
 .00005561,0.00039461,0.00009019,-0.00001310,0.00062197,-0.00179466,-0.
 00072684,0.00621291,0.00099767,0.00361118,0.00792266,-0.01205328,-0.00
 229649,0.11644163,-0.08970129,-0.14875746,-0.00391881,0.00307453,0.003
 94676,0.00184015,0.00213501,0.00248206,-0.00063612,0.00124178,0.000380
 21,-0.00172997,0.00026144,-0.00146156,-0.12667680,0.09568220,0.1426897
 5,0.00013245,-0.00001810,0.00001235,-0.00023881,0.00004366,-0.00005036
 ,0.00016969,0.00012410,-0.00013654,0.00203847,-0.00085462,0.00164058,0
 .00767527,-0.00683246,0.00890560,0.00030529,0.00025541,-0.00004014,-0.
 00393616,-0.00606533,0.00039129,-0.02361257,0.02248165,-0.00076781,-0.
 16059062,0.06294358,-0.11608523,0.00017047,-0.00228816,0.00139933,0.00
 037045,-0.00027252,-0.00023352,0.00022267,0.00051369,0.00014391,0.1839
 9066,0.00000577,0.00001708,-0.00002449,-0.00002428,-0.00009922,0.00004
 235,-0.00072605,0.00010842,-0.00028331,0.00232980,0.00144931,0.0002512
 4,0.01192582,-0.00700516,0.01703808,-0.00140304,-0.00015930,-0.0002294
 5,0.00157573,0.00173974,-0.00109124,0.01808648,-0.00856669,0.00430979,
 0.06010625,-0.08856449,0.06055614,-0.00140635,-0.00290321,0.00195379,0
 .00040996,-0.00026999,0.00011592,-0.00013292,-0.00041273,-0.00022103,-
 0.07503266,0.09435922,-0.00000526,-0.00002785,0.00001962,0.00005389,0.
 00004833,-0.00006985,0.00086251,-0.00026451,0.00017334,-0.00138502,0.0
 0002506,0.00053574,-0.00837432,0.00520818,-0.01060189,-0.00089756,0.00
 015803,-0.00030888,0.00376444,0.00277200,-0.00079867,0.02048004,-0.015
 73410,0.01456162,-0.11858649,0.06499664,-0.16093652,0.00126065,0.00309
 540,-0.00054291,-0.00055238,0.00022149,-0.00013359,-0.00048696,-0.0004
 6224,-0.00033523,0.11544416,-0.06748244,0.16802758,-0.00013684,0.00000
 290,0.00002024,0.00024716,0.00005247,-0.00005474,-0.00043180,0.0001075
 4,0.00011927,0.00066787,-0.00092569,0.00050415,-0.00272276,-0.00727521
 ,-0.00630855,-0.00079591,-0.00015494,0.00062615,-0.00248135,-0.0010832
 0,0.00488577,0.00710436,0.02820135,0.01991221,-0.10228517,-0.08963391,
 -0.07250811,0.00086914,0.00052860,0.00010665,0.00020424,-0.00027711,-0
 .00045875,-0.00019563,0.00116892,-0.00055253,-0.00669725,-0.01571452,-
 0.01157770,0.10665394,-0.00014292,-0.00000342,0.00000885,0.00021039,0.
 00011010,-0.00008062,-0.00072310,0.00011071,0.00001931,0.00017882,-0.0
 0201699,0.00100670,-0.00979369,-0.01228330,-0.00911343,-0.00061240,-0.
 00183121,0.00096390,0.00126095,0.00056365,-0.00216553,0.00110270,-0.01
 292466,-0.01102884,-0.08194810,-0.18381176,-0.10357372,0.00036740,0.00
 174799,-0.00024308,-0.00000774,-0.00039986,-0.00050436,0.00010311,-0.0
 0062087,0.00017902,0.00500177,0.01030701,0.00744603,0.08500280,0.20105
 261,0.00011281,0.00003035,0.00000339,-0.00019727,-0.00012294,0.0000135
 4,0.00095033,-0.00039837,0.00010989,-0.00087517,0.00192005,-0.00015324
 ,0.00856266,0.01565118,0.00862389,0.00040037,0.00210546,-0.00087997,0.
 00151302,0.00454559,-0.00410950,0.00269594,-0.02084152,-0.00994094,-0.
 06783391,-0.10456739,-0.13002494,0.00022793,-0.00035290,0.00197714,-0.
 00035172,0.00054199,0.00067544,0.00013270,-0.00066194,0.00043744,-0.01
 062363,-0.01493534,-0.00959036,0.06528594,0.11708577,0.14285821\\-0.00
 000573,-0.00000064,-0.00000032,-0.00000708,0.00000152,-0.00000477,-0.0
 0001713,-0.00000118,0.00000569,0.00004456,-0.00000573,0.00000171,0.000
 01114,-0.00001209,-0.00001741,-0.00004500,0.00002261,0.00000022,0.0000
 1907,-0.00000858,0.00001813,-0.00000917,0.00000411,0.00000420,0.000015
 15,0.00001109,-0.00001158,-0.00001155,0.00000269,0.00001180,0.00001483
 ,-0.00000610,0.00000111,-0.00000424,0.00000334,-0.00000542,-0.00000561
 ,-0.00000379,-0.00000094,0.00000077,-0.00000725,-0.00000241\\\@


 WE SHOULD BE CAREFUL TO GET OUT OF AN EXPERIENCE ONLY THE WISDOM
 THAT IS IN IT -- AND STOP THERE;
 LEST WE BE LIKE THE CAT THAT SITS DOWN ON A HOT STOVE-LID.
 SHE WILL NEVER SIT DOWN ON A HOT STOVE LID AGAIN;
 BUT ALSO SHE WILL NEVER SIT DOWN ON A COLD ONE ANY MORE.

                                                     -- MARK TWAIN
 Job cpu time:       0 days  1 hours  4 minutes 16.7 seconds.
 Elapsed time:       0 days  0 hours 16 minutes  4.4 seconds.
 File lengths (MBytes):  RWF=     94 Int=      0 D2E=      0 Chk=      7 Scr=      1
 Normal termination of Gaussian 16 at Mon Jul  4 00:03:44 2022.
### All Done ###
