### Starting Gaussian ###
 Entering Gaussian System, Link 0=g16
 Initial command:
 /cluster/software/gaussian/gaussian-16-A.03/avx2/g16/l1.exe "/local/scratch/yxie/Gau-20028.inp" -scrdir="/local/scratch/yxie/"
 Entering Link 1 = /cluster/software/gaussian/gaussian-16-A.03/avx2/g16/l1.exe PID=     20029.
  
 Copyright (c) 1988,1990,1992,1993,1995,1998,2003,2009,2016,
            Gaussian, Inc.  All Rights Reserved.
  
 This is part of the Gaussian(R) 16 program.  It is based on
 the Gaussian(R) 09 system (copyright 2009, Gaussian, Inc.),
 the Gaussian(R) 03 system (copyright 2003, Gaussian, Inc.),
 the Gaussian(R) 98 system (copyright 1998, Gaussian, Inc.),
 the Gaussian(R) 94 system (copyright 1995, Gaussian, Inc.),
 the Gaussian 92(TM) system (copyright 1992, Gaussian, Inc.),
 the Gaussian 90(TM) system (copyright 1990, Gaussian, Inc.),
 the Gaussian 88(TM) system (copyright 1988, Gaussian, Inc.),
 the Gaussian 86(TM) system (copyright 1986, Carnegie Mellon
 University), and the Gaussian 82(TM) system (copyright 1983,
 Carnegie Mellon University). Gaussian is a federally registered
 trademark of Gaussian, Inc.
  
 This software contains proprietary and confidential information,
 including trade secrets, belonging to Gaussian, Inc.
  
 This software is provided under written license and may be
 used, copied, transmitted, or stored only in accord with that
 written license.
  
 The following legend is applicable only to US Government
 contracts under FAR:
  
                    RESTRICTED RIGHTS LEGEND
  
 Use, reproduction and disclosure by the US Government is
 subject to restrictions as set forth in subparagraphs (a)
 and (c) of the Commercial Computer Software - Restricted
 Rights clause in FAR 52.227-19.
  
 Gaussian, Inc.
 340 Quinnipiac St., Bldg. 40, Wallingford CT 06492
  
  
 ---------------------------------------------------------------
 Warning -- This program may not be used in any manner that
 competes with the business of Gaussian, Inc. or will provide
 assistance to any competitor of Gaussian, Inc.  The licensee
 of this program is prohibited from giving any competitor of
 Gaussian, Inc. access to this program.  By using this program,
 the user acknowledges that Gaussian, Inc. is engaged in the
 business of creating and licensing software in the field of
 computational chemistry and represents and warrants to the
 licensee that it is not a competitor of Gaussian, Inc. and that
 it will not use this program in any manner prohibited above.
 ---------------------------------------------------------------
  

 Cite this work as:
 Gaussian 16, Revision A.03,
 M. J. Frisch, G. W. Trucks, H. B. Schlegel, G. E. Scuseria, 
 M. A. Robb, J. R. Cheeseman, G. Scalmani, V. Barone, 
 G. A. Petersson, H. Nakatsuji, X. Li, M. Caricato, A. V. Marenich, 
 J. Bloino, B. G. Janesko, R. Gomperts, B. Mennucci, H. P. Hratchian, 
 J. V. Ortiz, A. F. Izmaylov, J. L. Sonnenberg, D. Williams-Young, 
 F. Ding, F. Lipparini, F. Egidi, J. Goings, B. Peng, A. Petrone, 
 T. Henderson, D. Ranasinghe, V. G. Zakrzewski, J. Gao, N. Rega, 
 G. Zheng, W. Liang, M. Hada, M. Ehara, K. Toyota, R. Fukuda, 
 J. Hasegawa, M. Ishida, T. Nakajima, Y. Honda, O. Kitao, H. Nakai, 
 T. Vreven, K. Throssell, J. A. Montgomery, Jr., J. E. Peralta, 
 F. Ogliaro, M. J. Bearpark, J. J. Heyd, E. N. Brothers, K. N. Kudin, 
 V. N. Staroverov, T. A. Keith, R. Kobayashi, J. Normand, 
 K. Raghavachari, A. P. Rendell, J. C. Burant, S. S. Iyengar, 
 J. Tomasi, M. Cossi, J. M. Millam, M. Klene, C. Adamo, R. Cammi, 
 J. W. Ochterski, R. L. Martin, K. Morokuma, O. Farkas, 
 J. B. Foresman, and D. J. Fox, Gaussian, Inc., Wallingford CT, 2016.
 
 ******************************************
 Gaussian 16:  ES64L-G16RevA.03 25-Dec-2016
                 4-Aug-2022 
 ******************************************
 %chk=NtCC1NC2dNCC21.chk
 %NProcShared=20
 Will use up to   20 processors via shared memory.
 -----------------------------
 # opt freq b3lyp/6-31g(2df,p)
 -----------------------------
 1/18=20,19=15,26=3,38=1/1,3;
 2/9=110,12=2,17=6,18=5,40=1/2;
 3/5=1,6=6,7=104,11=2,25=1,30=1,71=1,74=-5/1,2,3;
 4//1;
 5/5=2,38=5/2;
 6/7=2,8=2,9=2,10=2,28=1/1;
 7//1,2,3,16;
 1/18=20,19=15,26=3/3(2);
 2/9=110/2;
 99//99;
 2/9=110/2;
 3/5=1,6=6,7=104,11=2,25=1,30=1,71=1,74=-5/1,2,3;
 4/5=5,16=3,69=1/1;
 5/5=2,38=5/2;
 7//1,2,3,16;
 1/18=20,19=15,26=3/3(-5);
 2/9=110/2;
 6/7=2,8=2,9=2,10=2,19=2,28=1/1;
 99/9=1/99;
 -------------------
 Title Card Required
 -------------------
 Symbolic Z-matrix:
 Charge =  0 Multiplicity = 1
 N                     0.94415  -0.11207   0.12513 
 C                     2.09191  -0.17299   0.23962 
 C                     3.54699  -0.17244   0.2092 
 N                     4.04967  -1.30063  -0.41609 
 C                     4.74322  -0.76927  -1.40085 
 N                     5.34443  -0.09609  -2.25294 
 C                     5.04321   1.21191  -1.78616 
 C                     3.94888   0.79153  -0.87827 
 H                     4.04091  -0.03544   1.18087 
 H                     3.89083  -2.27037  -0.18788 
 H                     4.60555   1.85018  -2.56305 
 H                     5.90241   1.72823  -1.34755 
 H                     4.10198   1.63316  -0.18718 
 

 GradGradGradGradGradGradGradGradGradGradGradGradGradGradGradGradGradGrad
 Berny optimization.
 Initialization pass.
                           ----------------------------
                           !    Initial Parameters    !
                           ! (Angstroms and Degrees)  !
 --------------------------                            --------------------------
 ! Name  Definition              Value          Derivative Info.                !
 --------------------------------------------------------------------------------
 ! R1    R(1,2)                  1.1551         estimate D2E/DX2                !
 ! R2    R(2,3)                  1.4554         estimate D2E/DX2                !
 ! R3    R(3,4)                  1.3844         estimate D2E/DX2                !
 ! R4    R(3,8)                  1.5078         estimate D2E/DX2                !
 ! R5    R(3,9)                  1.0986         estimate D2E/DX2                !
 ! R6    R(4,5)                  1.3165         estimate D2E/DX2                !
 ! R7    R(4,10)                 1.0088         estimate D2E/DX2                !
 ! R8    R(5,6)                  1.2412         estimate D2E/DX2                !
 ! R9    R(5,8)                  1.8276         estimate D2E/DX2                !
 ! R10   R(6,7)                  1.4211         estimate D2E/DX2                !
 ! R11   R(7,8)                  1.4827         estimate D2E/DX2                !
 ! R12   R(7,11)                 1.0966         estimate D2E/DX2                !
 ! R13   R(7,12)                 1.0942         estimate D2E/DX2                !
 ! R14   R(8,13)                 1.0997         estimate D2E/DX2                !
 ! A1    A(2,3,4)              111.8491         estimate D2E/DX2                !
 ! A2    A(2,3,8)              106.368          estimate D2E/DX2                !
 ! A3    A(2,3,9)              115.535          estimate D2E/DX2                !
 ! A4    A(4,3,8)               95.651          estimate D2E/DX2                !
 ! A5    A(4,3,9)              109.7475         estimate D2E/DX2                !
 ! A6    A(8,3,9)              115.9993         estimate D2E/DX2                !
 ! A7    A(3,4,5)              101.5505         estimate D2E/DX2                !
 ! A8    A(3,4,10)             128.6112         estimate D2E/DX2                !
 ! A9    A(5,4,10)             129.8034         estimate D2E/DX2                !
 ! A10   A(4,5,8)               84.3665         estimate D2E/DX2                !
 ! A11   A(6,5,8)               86.7692         estimate D2E/DX2                !
 ! A12   A(5,6,7)               99.8478         estimate D2E/DX2                !
 ! A13   A(6,7,8)               95.5438         estimate D2E/DX2                !
 ! A14   A(6,7,11)             112.8069         estimate D2E/DX2                !
 ! A15   A(6,7,12)             113.5506         estimate D2E/DX2                !
 ! A16   A(8,7,11)             107.7132         estimate D2E/DX2                !
 ! A17   A(8,7,12)             117.8974         estimate D2E/DX2                !
 ! A18   A(11,7,12)            108.8288         estimate D2E/DX2                !
 ! A19   A(3,8,5)               77.0606         estimate D2E/DX2                !
 ! A20   A(3,8,7)              145.0454         estimate D2E/DX2                !
 ! A21   A(3,8,13)              94.1951         estimate D2E/DX2                !
 ! A22   A(5,8,7)               75.3015         estimate D2E/DX2                !
 ! A23   A(5,8,13)             140.6029         estimate D2E/DX2                !
 ! A24   A(7,8,13)              93.7303         estimate D2E/DX2                !
 ! A25   L(1,2,3,11,-1)        172.6281         estimate D2E/DX2                !
 ! A26   L(4,5,6,8,-1)         171.1357         estimate D2E/DX2                !
 ! A27   L(1,2,3,11,-2)        181.8612         estimate D2E/DX2                !
 ! A28   L(4,5,6,8,-2)         178.2314         estimate D2E/DX2                !
 ! D1    D(2,3,4,5)            120.9718         estimate D2E/DX2                !
 ! D2    D(2,3,4,10)           -57.0243         estimate D2E/DX2                !
 ! D3    D(8,3,4,5)             10.8038         estimate D2E/DX2                !
 ! D4    D(8,3,4,10)          -167.1923         estimate D2E/DX2                !
 ! D5    D(9,3,4,5)           -109.4312         estimate D2E/DX2                !
 ! D6    D(9,3,4,10)            72.5727         estimate D2E/DX2                !
 ! D7    D(2,3,8,5)           -122.5626         estimate D2E/DX2                !
 ! D8    D(2,3,8,7)           -161.0184         estimate D2E/DX2                !
 ! D9    D(2,3,8,13)            96.3434         estimate D2E/DX2                !
 ! D10   D(4,3,8,5)             -7.8011         estimate D2E/DX2                !
 ! D11   D(4,3,8,7)            -46.257          estimate D2E/DX2                !
 ! D12   D(4,3,8,13)          -148.8951         estimate D2E/DX2                !
 ! D13   D(9,3,8,5)            107.4138         estimate D2E/DX2                !
 ! D14   D(9,3,8,7)             68.9579         estimate D2E/DX2                !
 ! D15   D(9,3,8,13)           -33.6802         estimate D2E/DX2                !
 ! D16   D(3,4,5,8)             -8.8958         estimate D2E/DX2                !
 ! D17   D(10,4,5,8)           169.066          estimate D2E/DX2                !
 ! D18   D(3,4,6,7)              3.0319         estimate D2E/DX2                !
 ! D19   D(10,4,6,7)          -178.9491         estimate D2E/DX2                !
 ! D20   D(8,5,6,7)             11.9277         estimate D2E/DX2                !
 ! D21   D(4,5,8,3)              8.2059         estimate D2E/DX2                !
 ! D22   D(4,5,8,7)            166.5911         estimate D2E/DX2                !
 ! D23   D(4,5,8,13)            88.9133         estimate D2E/DX2                !
 ! D24   D(6,5,8,3)           -170.0255         estimate D2E/DX2                !
 ! D25   D(6,5,8,7)            -11.6403         estimate D2E/DX2                !
 ! D26   D(6,5,8,13)           -89.3181         estimate D2E/DX2                !
 ! D27   D(5,6,7,8)            -14.8054         estimate D2E/DX2                !
 ! D28   D(5,6,7,11)          -126.6706         estimate D2E/DX2                !
 ! D29   D(5,6,7,12)           108.9126         estimate D2E/DX2                !
 ! D30   D(6,7,8,3)             48.9838         estimate D2E/DX2                !
 ! D31   D(6,7,8,5)             10.1822         estimate D2E/DX2                !
 ! D32   D(6,7,8,13)           151.7647         estimate D2E/DX2                !
 ! D33   D(11,7,8,3)           165.077          estimate D2E/DX2                !
 ! D34   D(11,7,8,5)           126.2753         estimate D2E/DX2                !
 ! D35   D(11,7,8,13)          -92.1421         estimate D2E/DX2                !
 ! D36   D(12,7,8,3)           -71.388          estimate D2E/DX2                !
 ! D37   D(12,7,8,5)          -110.1896         estimate D2E/DX2                !
 ! D38   D(12,7,8,13)           31.3929         estimate D2E/DX2                !
 --------------------------------------------------------------------------------
 Trust Radius=3.00D-01 FncErr=1.00D-07 GrdErr=1.00D-06 EigMax=2.50D+02 EigMin=1.00D-04
 Number of steps in this run=     90 maximum allowed number of steps=    100.
 GradGradGradGradGradGradGradGradGradGradGradGradGradGradGradGradGradGrad

                          Input orientation:                          
 ---------------------------------------------------------------------
 Center     Atomic      Atomic             Coordinates (Angstroms)
 Number     Number       Type             X           Y           Z
 ---------------------------------------------------------------------
      1          7           0        0.944150   -0.112070    0.125130
      2          6           0        2.091910   -0.172990    0.239620
      3          6           0        3.546990   -0.172440    0.209200
      4          7           0        4.049670   -1.300630   -0.416090
      5          6           0        4.743220   -0.769270   -1.400850
      6          7           0        5.344430   -0.096090   -2.252940
      7          6           0        5.043210    1.211910   -1.786160
      8          6           0        3.948880    0.791530   -0.878270
      9          1           0        4.040910   -0.035440    1.180870
     10          1           0        3.890830   -2.270370   -0.187880
     11          1           0        4.605550    1.850180   -2.563050
     12          1           0        5.902410    1.728230   -1.347550
     13          1           0        4.101980    1.633160   -0.187180
 ---------------------------------------------------------------------
                    Distance matrix (angstroms):
                    1          2          3          4          5
     1  N    0.000000
     2  C    1.155064   0.000000
     3  C    2.604897   1.455398   0.000000
     4  N    3.368954   2.352520   1.384373   0.000000
     5  C    4.146500   3.174293   2.092710   1.316475   0.000000
     6  N    5.001793   4.098494   3.049386   2.549772   1.241242
     7  C    4.712563   3.838216   2.852466   3.029368   2.040473
     8  C    3.294193   2.372407   1.507761   2.144971   1.827611
     9  H    3.272672   2.168749   1.098576   2.037416   2.774351
    10  H    3.665946   2.796046   2.162686   1.008814   2.109779
    11  H    4.947988   4.273940   3.591227   3.853056   2.869003
    12  H    5.489976   4.544629   3.403531   3.670730   2.753919
    13  H    3.621499   2.735821   1.930109   2.943172   2.766921
                    6          7          8          9         10
     6  N    0.000000
     7  C    1.421084   0.000000
     8  C    2.150615   1.482748   0.000000
     9  H    3.673404   3.371017   2.220902   0.000000
    10  H    3.332404   4.001094   3.139306   2.625055   0.000000
    11  H    2.104775   1.096582   2.095337   4.229813   4.809490
    12  H    2.111686   1.094162   2.216734   3.601197   4.623861
    13  H    2.966707   1.902657   1.099721   2.158591   3.909237
                   11         12         13
    11  H    0.000000
    12  H    1.781617   0.000000
    13  H    2.438327   2.144072   0.000000
 Stoichiometry    C5H5N3
 Framework group  C1[X(C5H5N3)]
 Deg. of freedom    33
 Full point group                 C1      NOp   1
 Largest Abelian subgroup         C1      NOp   1
 Largest concise Abelian subgroup C1      NOp   1
                         Standard orientation:                         
 ---------------------------------------------------------------------
 Center     Atomic      Atomic             Coordinates (Angstroms)
 Number     Number       Type             X           Y           Z
 ---------------------------------------------------------------------
      1          7           0        2.845848   -0.559565   -0.605813
      2          6           0        1.949559   -0.187635    0.020689
      3          6           0        0.710049    0.187599    0.684767
      4          7           0        0.147451    1.321079    0.123347
      5          6           0       -1.030282    0.870903   -0.255329
      6          7           0       -2.084868    0.277357   -0.531430
      7          6           0       -1.802669   -0.995416    0.034162
      8          6           0       -0.345553   -0.765578    0.184264
      9          1           0        0.774004    0.306033    1.775066
     10          1           0        0.556055    2.236390    0.009525
     11          1           0       -1.939092   -1.817172   -0.678998
     12          1           0       -2.382565   -1.211093    0.936600
     13          1           0       -0.254040   -1.445490    1.043758
 ---------------------------------------------------------------------
 Rotational constants (GHZ):           5.4843304           1.6209925           1.4014991
 Standard basis: 6-31G(2df,p) (6D, 7F)
 There are   273 symmetry adapted cartesian basis functions of A   symmetry.
 There are   249 symmetry adapted basis functions of A   symmetry.
   249 basis functions,   387 primitive gaussians,   273 cartesian basis functions
    28 alpha electrons       28 beta electrons
       nuclear repulsion energy       336.0156011407 Hartrees.
 NAtoms=   13 NActive=   13 NUniq=   13 SFac= 1.00D+00 NAtFMM=   60 NAOKFM=F Big=F
 Integral buffers will be    131072 words long.
 Raffenetti 2 integral format.
 Two-electron integral symmetry is turned on.
 One-electron integrals computed using PRISM.
 PrsmSu:  requested number of processors reduced to:  13 ShMem   1 Linda.
 NBasis=   249 RedAO= T EigKep=  1.53D-04  NBF=   249
 NBsUse=   249 1.00D-06 EigRej= -1.00D+00 NBFU=   249
 ExpMin= 1.61D-01 ExpMax= 4.17D+03 ExpMxC= 6.27D+02 IAcc=3 IRadAn=         5 AccDes= 0.00D+00
 Harris functional with IExCor=  402 and IRadAn=       5 diagonalized for initial guess.
 HarFok:  IExCor=  402 AccDes= 0.00D+00 IRadAn=         5 IDoV= 1 UseB2=F ITyADJ=14
 ICtDFT=  3500011 ScaDFX=  1.000000  1.000000  1.000000  1.000000
 FoFCou: FMM=F IPFlag=           0 FMFlag=      100000 FMFlg1=           0
         NFxFlg=           0 DoJE=T BraDBF=F KetDBF=T FulRan=T
         wScrn=  0.000000 ICntrl=       500 IOpCl=  0 I1Cent=   200000004 NGrid=           0
         NMat0=    1 NMatS0=      1 NMatT0=    0 NMatD0=    1 NMtDS0=    0 NMtDT0=    0
 Petite list used in FoFCou.
 Requested convergence on RMS density matrix=1.00D-08 within 128 cycles.
 Requested convergence on MAX density matrix=1.00D-06.
 Requested convergence on             energy=1.00D-06.
 No special actions if energy rises.
 Integral accuracy reduced to 1.0D-05 until final iterations.
 Initial convergence to 1.0D-05 achieved.  Increase integral accuracy.
 SCF Done:  E(RB3LYP) =  -357.455134662     A.U. after   19 cycles
            NFock= 19  Conv=0.84D-08     -V/T= 2.0051

 **********************************************************************

            Population analysis using the SCF density.

 **********************************************************************

 Orbital symmetries:
       Occupied  (A) (A) (A) (A) (A) (A) (A) (A) (A) (A) (A) (A)
                 (A) (A) (A) (A) (A) (A) (A) (A) (A) (A) (A) (A)
                 (A) (A) (A) (A)
       Virtual   (A) (A) (A) (A) (A) (A) (A) (A) (A) (A) (A) (A)
                 (A) (A) (A) (A) (A) (A) (A) (A) (A) (A) (A) (A)
                 (A) (A) (A) (A) (A) (A) (A) (A) (A) (A) (A) (A)
                 (A) (A) (A) (A) (A) (A) (A) (A) (A) (A) (A) (A)
                 (A) (A) (A) (A) (A) (A) (A) (A) (A) (A) (A) (A)
                 (A) (A) (A) (A) (A) (A) (A) (A) (A) (A) (A) (A)
                 (A) (A) (A) (A) (A) (A) (A) (A) (A) (A) (A) (A)
                 (A) (A) (A) (A) (A) (A) (A) (A) (A) (A) (A) (A)
                 (A) (A) (A) (A) (A) (A) (A) (A) (A) (A) (A) (A)
                 (A) (A) (A) (A) (A) (A) (A) (A) (A) (A) (A) (A)
                 (A) (A) (A) (A) (A) (A) (A) (A) (A) (A) (A) (A)
                 (A) (A) (A) (A) (A) (A) (A) (A) (A) (A) (A) (A)
                 (A) (A) (A) (A) (A) (A) (A) (A) (A) (A) (A) (A)
                 (A) (A) (A) (A) (A) (A) (A) (A) (A) (A) (A) (A)
                 (A) (A) (A) (A) (A) (A) (A) (A) (A) (A) (A) (A)
                 (A) (A) (A) (A) (A) (A) (A) (A) (A) (A) (A) (A)
                 (A) (A) (A) (A) (A) (A) (A) (A) (A) (A) (A) (A)
                 (A) (A) (A) (A) (A) (A) (A) (A) (A) (A) (A) (A)
                 (A) (A) (A) (A) (A)
 The electronic state is 1-A.
 Alpha  occ. eigenvalues --  -14.41928 -14.34382 -14.32816 -10.33190 -10.30467
 Alpha  occ. eigenvalues --  -10.24498 -10.21709 -10.14869  -1.06263  -0.97785
 Alpha  occ. eigenvalues --   -0.90053  -0.79932  -0.72158  -0.69780  -0.59916
 Alpha  occ. eigenvalues --   -0.57575  -0.55131  -0.49157  -0.47785  -0.46284
 Alpha  occ. eigenvalues --   -0.39962  -0.38276  -0.35835  -0.33593  -0.32722
 Alpha  occ. eigenvalues --   -0.27695  -0.25781  -0.16859
 Alpha virt. eigenvalues --   -0.09244  -0.00865   0.01136   0.04508   0.06974
 Alpha virt. eigenvalues --    0.08355   0.11535   0.12885   0.15210   0.16878
 Alpha virt. eigenvalues --    0.19579   0.21953   0.23219   0.26485   0.29562
 Alpha virt. eigenvalues --    0.37039   0.38447   0.40670   0.43169   0.45734
 Alpha virt. eigenvalues --    0.47055   0.49334   0.50273   0.52896   0.53245
 Alpha virt. eigenvalues --    0.56026   0.56670   0.58609   0.60916   0.63768
 Alpha virt. eigenvalues --    0.64263   0.65966   0.66351   0.67381   0.68825
 Alpha virt. eigenvalues --    0.69080   0.72459   0.72667   0.74886   0.75193
 Alpha virt. eigenvalues --    0.77750   0.78022   0.78536   0.81165   0.81899
 Alpha virt. eigenvalues --    0.82306   0.84091   0.85027   0.89460   0.91349
 Alpha virt. eigenvalues --    0.91409   0.96414   1.00826   1.04078   1.04639
 Alpha virt. eigenvalues --    1.10260   1.13163   1.15543   1.16893   1.20569
 Alpha virt. eigenvalues --    1.24049   1.29471   1.32053   1.32836   1.35666
 Alpha virt. eigenvalues --    1.38347   1.41194   1.42211   1.44538   1.45473
 Alpha virt. eigenvalues --    1.46956   1.49271   1.52907   1.54927   1.59044
 Alpha virt. eigenvalues --    1.61677   1.63157   1.65332   1.67324   1.70247
 Alpha virt. eigenvalues --    1.71212   1.75019   1.78041   1.81691   1.84016
 Alpha virt. eigenvalues --    1.85485   1.88576   1.98085   2.00279   2.09586
 Alpha virt. eigenvalues --    2.14444   2.21759   2.25171   2.33367   2.35492
 Alpha virt. eigenvalues --    2.37558   2.41979   2.44308   2.46547   2.49749
 Alpha virt. eigenvalues --    2.54080   2.56840   2.64121   2.66935   2.70153
 Alpha virt. eigenvalues --    2.70783   2.77240   2.78454   2.79142   2.85566
 Alpha virt. eigenvalues --    2.86879   2.89418   2.92614   2.95572   2.97223
 Alpha virt. eigenvalues --    2.99326   3.01602   3.05246   3.07148   3.09230
 Alpha virt. eigenvalues --    3.12971   3.15742   3.18512   3.19441   3.21412
 Alpha virt. eigenvalues --    3.23747   3.27098   3.34309   3.39260   3.44557
 Alpha virt. eigenvalues --    3.48001   3.48643   3.53000   3.53936   3.56792
 Alpha virt. eigenvalues --    3.58701   3.61237   3.63038   3.65348   3.67786
 Alpha virt. eigenvalues --    3.68246   3.69089   3.71138   3.73728   3.75586
 Alpha virt. eigenvalues --    3.78009   3.78815   3.84788   3.88600   3.90770
 Alpha virt. eigenvalues --    3.95465   4.04286   4.09087   4.14226   4.15107
 Alpha virt. eigenvalues --    4.16924   4.19456   4.22120   4.24790   4.26387
 Alpha virt. eigenvalues --    4.27281   4.28866   4.33053   4.35891   4.36467
 Alpha virt. eigenvalues --    4.40587   4.42661   4.44708   4.46447   4.47376
 Alpha virt. eigenvalues --    4.49259   4.51025   4.56256   4.58309   4.59199
 Alpha virt. eigenvalues --    4.60277   4.63189   4.65608   4.68861   4.73542
 Alpha virt. eigenvalues --    4.74851   4.78485   4.81164   4.81539   4.87917
 Alpha virt. eigenvalues --    4.89108   4.91135   4.94203   4.96668   4.98459
 Alpha virt. eigenvalues --    5.02226   5.05609   5.10160   5.13048   5.14401
 Alpha virt. eigenvalues --    5.19248   5.26215   5.30503   5.35572   5.36577
 Alpha virt. eigenvalues --    5.44853   5.47994   5.54138   5.57921   5.65069
 Alpha virt. eigenvalues --    5.72579   5.88438   6.23562   6.47744   6.61127
 Alpha virt. eigenvalues --   10.22023  10.64034  11.24652  11.26851  11.36695
 Alpha virt. eigenvalues --   11.42725  11.79636  12.29651  15.55807  18.04613
 Alpha virt. eigenvalues --   22.86135
          Condensed to atoms (all electrons):
               1          2          3          4          5          6
     1  N    6.329026   1.025501  -0.013976  -0.005741   0.000104  -0.000019
     2  C    1.025501   4.534344   0.274204  -0.016911   0.000260   0.000344
     3  C   -0.013976   0.274204   5.022499   0.273064  -0.048044  -0.036328
     4  N   -0.005741  -0.016911   0.273064   6.357808   0.430475   0.031179
     5  C    0.000104   0.000260  -0.048044   0.430475   4.582862   0.638090
     6  N   -0.000019   0.000344  -0.036328   0.031179   0.638090   6.459308
     7  C    0.000062  -0.001880  -0.016493  -0.021954  -0.106026   0.335755
     8  C   -0.018573  -0.070806   0.465200  -0.073585   0.139220  -0.187126
     9  H    0.001433  -0.063406   0.412235  -0.049417  -0.004507   0.000283
    10  H    0.000130   0.012159  -0.059732   0.357277  -0.058665  -0.001197
    11  H    0.000014   0.000362   0.000380   0.001330   0.003059  -0.005665
    12  H   -0.000003  -0.000147   0.000590   0.000071  -0.011264  -0.025166
    13  H    0.000345   0.004233  -0.056402   0.012568  -0.004948   0.020597
               7          8          9         10         11         12
     1  N    0.000062  -0.018573   0.001433   0.000130   0.000014  -0.000003
     2  C   -0.001880  -0.070806  -0.063406   0.012159   0.000362  -0.000147
     3  C   -0.016493   0.465200   0.412235  -0.059732   0.000380   0.000590
     4  N   -0.021954  -0.073585  -0.049417   0.357277   0.001330   0.000071
     5  C   -0.106026   0.139220  -0.004507  -0.058665   0.003059  -0.011264
     6  N    0.335755  -0.187126   0.000283  -0.001197  -0.005665  -0.025166
     7  C    4.935092   0.428630   0.004565  -0.000867   0.342125   0.384011
     8  C    0.428630   5.343278  -0.034072   0.013488  -0.041788  -0.027318
     9  H    0.004565  -0.034072   0.613034  -0.002683  -0.000196   0.000239
    10  H   -0.000867   0.013488  -0.002683   0.465940   0.000049  -0.000023
    11  H    0.342125  -0.041788  -0.000196   0.000049   0.619004  -0.058940
    12  H    0.384011  -0.027318   0.000239  -0.000023  -0.058940   0.618313
    13  H   -0.061513   0.280133  -0.020655  -0.000714   0.002482  -0.014641
              13
     1  N    0.000345
     2  C    0.004233
     3  C   -0.056402
     4  N    0.012568
     5  C   -0.004948
     6  N    0.020597
     7  C   -0.061513
     8  C    0.280133
     9  H   -0.020655
    10  H   -0.000714
    11  H    0.002482
    12  H   -0.014641
    13  H    0.769782
 Mulliken charges:
               1
     1  N   -0.318304
     2  C    0.301742
     3  C   -0.217197
     4  N   -0.296163
     5  C    0.439385
     6  N   -0.230055
     7  C   -0.221507
     8  C   -0.216680
     9  H    0.143146
    10  H    0.274837
    11  H    0.137784
    12  H    0.134279
    13  H    0.068733
 Sum of Mulliken charges =  -0.00000
 Mulliken charges with hydrogens summed into heavy atoms:
               1
     1  N   -0.318304
     2  C    0.301742
     3  C   -0.074051
     4  N   -0.021326
     5  C    0.439385
     6  N   -0.230055
     7  C    0.050556
     8  C   -0.147947
 Electronic spatial extent (au):  <R**2>=            839.9299
 Charge=             -0.0000 electrons
 Dipole moment (field-independent basis, Debye):
    X=             -1.8420    Y=              3.0363    Z=              3.0217  Tot=              4.6629
 Quadrupole moment (field-independent basis, Debye-Ang):
   XX=            -59.4355   YY=            -39.8595   ZZ=            -45.4102
   XY=              6.9692   XZ=              1.9845   YZ=             -1.1118
 Traceless Quadrupole moment (field-independent basis, Debye-Ang):
   XX=            -11.2004   YY=              8.3756   ZZ=              2.8249
   XY=              6.9692   XZ=              1.9845   YZ=             -1.1118
 Octapole moment (field-independent basis, Debye-Ang**2):
  XXX=            -28.6040  YYY=             19.1025  ZZZ=              4.9948  XYY=             -2.5027
  XXY=              2.9835  XXZ=             18.2353  XZZ=             -0.4323  YZZ=              1.4499
  YYZ=             -0.4048  XYZ=             -2.2527
 Hexadecapole moment (field-independent basis, Debye-Ang**3):
 XXXX=           -936.0227 YYYY=           -197.3976 ZZZZ=           -103.2261 XXXY=             48.7369
 XXXZ=             14.6839 YYYX=             14.5871 YYYZ=             -1.7247 ZZZX=              2.3520
 ZZZY=              0.8744 XXYY=           -164.4941 XXZZ=           -156.8693 YYZZ=            -56.3800
 XXYZ=             -4.5885 YYXZ=              3.1886 ZZXY=              5.6785
 N-N= 3.360156011407D+02 E-N=-1.503323591413D+03  KE= 3.556480758993D+02
 PrsmSu:  requested number of processors reduced to:  13 ShMem   1 Linda.
 Calling FoFJK, ICntrl=      2127 FMM=F ISym2X=0 I1Cent= 0 IOpClX= 0 NMat=1 NMatS=1 NMatT=0.
 ***** Axes restored to original set *****
 -------------------------------------------------------------------
 Center     Atomic                   Forces (Hartrees/Bohr)
 Number     Number              X              Y              Z
 -------------------------------------------------------------------
      1        7          -0.006621583   -0.002852790    0.003742350
      2        6          -0.012153498    0.005086656    0.008293082
      3        6          -0.013266045    0.007677427   -0.017618327
      4        7           0.028354949   -0.087538526   -0.007541252
      5        6           0.023127194    0.031960435    0.006095544
      6        7           0.048876760   -0.078368733   -0.053129651
      7        6          -0.025717976   -0.005129018   -0.020178674
      8        6          -0.036056158    0.120364670    0.077250485
      9        1          -0.004381988    0.002944767   -0.000743547
     10        1          -0.000707716   -0.005472987   -0.005992845
     11        1           0.007444454    0.003726695   -0.004360159
     12        1           0.003195020   -0.008024924    0.001524564
     13        1          -0.012093414    0.015626328    0.012658429
 -------------------------------------------------------------------
 Cartesian Forces:  Max     0.120364670 RMS     0.034338193

 GradGradGradGradGradGradGradGradGradGradGradGradGradGradGradGradGradGrad
 Berny optimization.
 FormGI is forming the generalized inverse of G from B-inverse, IUseBI=4.
 Internal  Forces:  Max     0.065959330 RMS     0.016785782
 Search for a local minimum.
 Step number   1 out of a maximum of   90
 All quantities printed in internal units (Hartrees-Bohrs-Radians)
 Mixed Optimization -- RFO/linear search
 Second derivative matrix not updated -- first step.
 ITU=  0
     Eigenvalues ---    0.01034   0.01273   0.01356   0.01356   0.01664
     Eigenvalues ---    0.01795   0.03702   0.03925   0.05436   0.06057
     Eigenvalues ---    0.06338   0.07460   0.08572   0.09593   0.10411
     Eigenvalues ---    0.10952   0.13792   0.15979   0.17807   0.22643
     Eigenvalues ---    0.29593   0.32005   0.33713   0.33840   0.34063
     Eigenvalues ---    0.34336   0.37387   0.37546   0.42771   0.46172
     Eigenvalues ---    0.56949   0.77841   1.31079
 RFO step:  Lambda=-7.91284586D-02 EMin= 1.03414722D-02
 Linear search not attempted -- first point.
 Maximum step size (   0.300) exceeded in Quadratic search.
    -- Step size scaled by   0.633
 Iteration  1 RMS(Cart)=  0.05899835 RMS(Int)=  0.00382463
 Iteration  2 RMS(Cart)=  0.00292145 RMS(Int)=  0.00143217
 Iteration  3 RMS(Cart)=  0.00001945 RMS(Int)=  0.00143211
 Iteration  4 RMS(Cart)=  0.00000004 RMS(Int)=  0.00143211
 Variable       Old X    -DE/DX   Delta X   Delta X   Delta X     New X
                                 (Linear)    (Quad)   (Total)
    R1        2.18275   0.00606   0.00000   0.00276   0.00276   2.18551
    R2        2.75030   0.01902   0.00000   0.02648   0.02648   2.77678
    R3        2.61609   0.06596   0.00000   0.08375   0.08266   2.69874
    R4        2.84926   0.01963   0.00000   0.03823   0.03895   2.88821
    R5        2.07601  -0.00226   0.00000  -0.00343  -0.00343   2.07258
    R6        2.48778   0.01262   0.00000   0.00987   0.00894   2.49672
    R7        1.90638   0.00402   0.00000   0.00470   0.00470   1.91108
    R8        2.34561   0.00207   0.00000  -0.00109  -0.00202   2.34359
    R9        3.45368   0.05354   0.00000   0.11222   0.11413   3.56781
   R10        2.68546   0.05431   0.00000   0.07645   0.07497   2.76043
   R11        2.80199   0.03231   0.00000   0.05808   0.05900   2.86099
   R12        2.07224   0.00228   0.00000   0.00344   0.00344   2.07568
   R13        2.06767  -0.00067   0.00000  -0.00100  -0.00100   2.06667
   R14        2.07817   0.01823   0.00000   0.02771   0.02771   2.10588
    A1        1.95214   0.00546   0.00000   0.02166   0.02023   1.97237
    A2        1.85647   0.00438   0.00000   0.02160   0.02141   1.87788
    A3        2.01647  -0.00690   0.00000  -0.02839  -0.02801   1.98845
    A4        1.66943   0.00650   0.00000   0.03498   0.03612   1.70554
    A5        1.91546  -0.00514   0.00000  -0.02133  -0.02151   1.89395
    A6        2.02457  -0.00140   0.00000  -0.01533  -0.01650   2.00807
    A7        1.77239  -0.01465   0.00000  -0.03191  -0.03187   1.74052
    A8        2.24469   0.01250   0.00000   0.03009   0.03009   2.27478
    A9        2.26550   0.00219   0.00000   0.00200   0.00193   2.26742
   A10        1.47247   0.01185   0.00000   0.02801   0.02845   1.50093
   A11        1.51441   0.03321   0.00000   0.06961   0.07026   1.58467
   A12        1.74267  -0.03350   0.00000  -0.07377  -0.07401   1.66866
   A13        1.66755   0.02556   0.00000   0.07071   0.07171   1.73926
   A14        1.96885  -0.00443   0.00000  -0.00333  -0.00576   1.96309
   A15        1.98183  -0.01630   0.00000  -0.05431  -0.05456   1.92727
   A16        1.87995   0.00187   0.00000   0.01969   0.01955   1.89950
   A17        2.05770  -0.00580   0.00000  -0.02000  -0.02020   2.03749
   A18        1.89942   0.00124   0.00000  -0.00405  -0.00425   1.89517
   A19        1.34496  -0.00433   0.00000  -0.03214  -0.03315   1.31181
   A20        2.53152  -0.02931   0.00000  -0.07930  -0.08020   2.45132
   A21        1.64401   0.00041   0.00000   0.02164   0.02495   1.66897
   A22        1.31426  -0.02602   0.00000  -0.06886  -0.06946   1.24480
   A23        2.45398  -0.00132   0.00000   0.00188   0.00378   2.45777
   A24        1.63590   0.01692   0.00000   0.05789   0.06063   1.69653
   A25        3.01293   0.01181   0.00000   0.08064   0.08064   3.09356
   A26        2.98688   0.04505   0.00000   0.09761   0.09871   3.08559
   A27        3.17408   0.00014   0.00000   0.00098   0.00098   3.17505
   A28        3.11072  -0.00119   0.00000   0.01392   0.01637   3.12709
    D1        2.11136   0.01198   0.00000   0.05143   0.05105   2.16241
    D2       -0.99526   0.01084   0.00000   0.04650   0.04690  -0.94836
    D3        0.18856   0.00274   0.00000   0.00583   0.00353   0.19209
    D4       -2.91806   0.00160   0.00000   0.00090  -0.00062  -2.91868
    D5       -1.90993   0.00288   0.00000   0.01321   0.01216  -1.89778
    D6        1.26663   0.00174   0.00000   0.00828   0.00801   1.27464
    D7       -2.13912  -0.01040   0.00000  -0.04356  -0.04270  -2.18182
    D8       -2.81030   0.00965   0.00000   0.05933   0.05704  -2.75326
    D9        1.68151  -0.00964   0.00000  -0.04497  -0.04512   1.63639
   D10       -0.13616  -0.00108   0.00000  -0.00219  -0.00049  -0.13665
   D11       -0.80734   0.01897   0.00000   0.10071   0.09925  -0.70809
   D12       -2.59871  -0.00032   0.00000  -0.00359  -0.00291  -2.60162
   D13        1.87472  -0.00372   0.00000  -0.01170  -0.01030   1.86442
   D14        1.20354   0.01633   0.00000   0.09119   0.08944   1.29298
   D15       -0.58783  -0.00296   0.00000  -0.01310  -0.01272  -0.60055
   D16       -0.15526  -0.00061   0.00000  -0.00083   0.00113  -0.15413
   D17        2.95076   0.00083   0.00000   0.00498   0.00607   2.95683
   D18        0.05292  -0.00022   0.00000   0.00125   0.00112   0.05404
   D19       -3.12325   0.00630   0.00000   0.00961   0.00717  -3.11608
   D20        0.20818  -0.00006   0.00000   0.00132  -0.00030   0.20788
   D21        0.14322   0.00378   0.00000   0.00545   0.00357   0.14679
   D22        2.90756  -0.00553   0.00000   0.00468   0.00877   2.91633
   D23        1.55183  -0.00047   0.00000  -0.00087   0.00043   1.55226
   D24       -2.96750   0.00498   0.00000  -0.00847  -0.01279  -2.98030
   D25       -0.20316  -0.00434   0.00000  -0.00924  -0.00759  -0.21076
   D26       -1.55890   0.00072   0.00000  -0.01479  -0.01593  -1.57483
   D27       -0.25840  -0.00213   0.00000  -0.00761  -0.00570  -0.26411
   D28       -2.21082  -0.01558   0.00000  -0.06352  -0.06276  -2.27358
   D29        1.90088  -0.00048   0.00000  -0.01140  -0.01141   1.88947
   D30        0.85493  -0.01453   0.00000  -0.09079  -0.08919   0.76574
   D31        0.17771   0.00109   0.00000   0.00480   0.00342   0.18113
   D32        2.64879  -0.00019   0.00000   0.00266   0.00106   2.64986
   D33        2.88114  -0.00852   0.00000  -0.06068  -0.05786   2.82327
   D34        2.20392   0.00710   0.00000   0.03491   0.03475   2.23867
   D35       -1.60818   0.00582   0.00000   0.03277   0.03239  -1.57579
   D36       -1.24595  -0.00953   0.00000  -0.06415  -0.06211  -1.30806
   D37       -1.92317   0.00609   0.00000   0.03144   0.03050  -1.89267
   D38        0.54791   0.00481   0.00000   0.02930   0.02814   0.57605
         Item               Value     Threshold  Converged?
 Maximum Force            0.065959     0.000450     NO 
 RMS     Force            0.016786     0.000300     NO 
 Maximum Displacement     0.256079     0.001800     NO 
 RMS     Displacement     0.058162     0.001200     NO 
 Predicted change in Energy=-3.982989D-02
 GradGradGradGradGradGradGradGradGradGradGradGradGradGradGradGradGradGrad

                          Input orientation:                          
 ---------------------------------------------------------------------
 Center     Atomic      Atomic             Coordinates (Angstroms)
 Number     Number       Type             X           Y           Z
 ---------------------------------------------------------------------
      1          7           0        0.891697   -0.179769    0.260641
      2          6           0        2.048193   -0.173076    0.264844
      3          6           0        3.515602   -0.154855    0.190419
      4          7           0        4.056960   -1.315879   -0.440819
      5          6           0        4.757800   -0.740997   -1.402025
      6          7           0        5.399262   -0.137813   -2.275368
      7          6           0        5.065549    1.201785   -1.797950
      8          6           0        3.911371    0.863372   -0.878461
      9          1           0        4.008702   -0.024420    1.161361
     10          1           0        3.921568   -2.296532   -0.234138
     11          1           0        4.699015    1.854779   -2.601533
     12          1           0        5.939469    1.671805   -1.338193
     13          1           0        4.038951    1.717310   -0.173928
 ---------------------------------------------------------------------
                    Distance matrix (angstroms):
                    1          2          3          4          5
     1  N    0.000000
     2  C    1.156523   0.000000
     3  C    2.624963   1.469409   0.000000
     4  N    3.435358   2.416424   1.428112   0.000000
     5  C    4.245726   3.231557   2.102973   1.321205   0.000000
     6  N    5.172161   4.205186   3.102993   2.560309   1.240174
     7  C    4.854640   3.905099   2.862938   3.032768   2.006456
     8  C    3.391774   2.419257   1.528372   2.227523   1.888004
     9  H    3.248254   2.160888   1.096763   2.058440   2.765063
    10  H    3.729023   2.875340   2.220774   1.011301   2.117294
    11  H    5.179488   4.399451   3.637868   3.890242   2.860126
    12  H    5.609332   4.595144   3.398304   3.643539   2.687383
    13  H    3.700401   2.780144   1.977788   3.044961   2.840465
                    6          7          8          9         10
     6  N    0.000000
     7  C    1.460758   0.000000
     8  C    2.273222   1.513972   0.000000
     9  H    3.709127   3.373132   2.226773   0.000000
    10  H    3.318173   3.999052   3.224941   2.667864   0.000000
    11  H    2.137089   1.098405   2.138282   4.262310   4.841731
    12  H    2.108278   1.093633   2.231166   3.585082   4.586782
    13  H    3.115763   1.989251   1.114386   2.194888   4.016010
                   11         12         13
    11  H    0.000000
    12  H    1.779953   0.000000
    13  H    2.519494   2.229250   0.000000
 Stoichiometry    C5H5N3
 Framework group  C1[X(C5H5N3)]
 Deg. of freedom    33
 Full point group                 C1      NOp   1
 Largest Abelian subgroup         C1      NOp   1
 Largest concise Abelian subgroup C1      NOp   1
                         Standard orientation:                         
 ---------------------------------------------------------------------
 Center     Atomic      Atomic             Coordinates (Angstroms)
 Number     Number       Type             X           Y           Z
 ---------------------------------------------------------------------
      1          7           0        2.958068   -0.461001   -0.579841
      2          6           0        1.990074   -0.192427   -0.006777
      3          6           0        0.718636    0.131752    0.654672
      4          7           0        0.117474    1.326366    0.153667
      5          6           0       -1.062434    0.850154   -0.202173
      6          7           0       -2.151113    0.340386   -0.507042
      7          6           0       -1.832390   -0.991493    0.001216
      8          6           0       -0.331530   -0.855421    0.146181
      9          1           0        0.792328    0.210222    1.746139
     10          1           0        0.492976    2.261324    0.066595
     11          1           0       -2.047742   -1.782549   -0.729775
     12          1           0       -2.398299   -1.197099    0.914181
     13          1           0       -0.204398   -1.587545    0.976656
 ---------------------------------------------------------------------
 Rotational constants (GHZ):           5.5496221           1.5437718           1.3344005
 Standard basis: 6-31G(2df,p) (6D, 7F)
 There are   273 symmetry adapted cartesian basis functions of A   symmetry.
 There are   249 symmetry adapted basis functions of A   symmetry.
   249 basis functions,   387 primitive gaussians,   273 cartesian basis functions
    28 alpha electrons       28 beta electrons
       nuclear repulsion energy       330.9263725963 Hartrees.
 NAtoms=   13 NActive=   13 NUniq=   13 SFac= 1.00D+00 NAtFMM=   60 NAOKFM=F Big=F
 Integral buffers will be    131072 words long.
 Raffenetti 2 integral format.
 Two-electron integral symmetry is turned on.
 One-electron integrals computed using PRISM.
 PrsmSu:  requested number of processors reduced to:  13 ShMem   1 Linda.
 NBasis=   249 RedAO= T EigKep=  1.47D-04  NBF=   249
 NBsUse=   249 1.00D-06 EigRej= -1.00D+00 NBFU=   249
 Initial guess from the checkpoint file:  "NtCC1NC2dNCC21.chk"
 B after Tr=     0.000000    0.000000    0.000000
         Rot=    0.999731   -0.022698    0.000127   -0.004667 Ang=  -2.66 deg.
 ExpMin= 1.61D-01 ExpMax= 4.17D+03 ExpMxC= 6.27D+02 IAcc=2 IRadAn=         4 AccDes= 0.00D+00
 Harris functional with IExCor=  402 and IRadAn=       4 diagonalized for initial guess.
 HarFok:  IExCor=  402 AccDes= 0.00D+00 IRadAn=         4 IDoV= 1 UseB2=F ITyADJ=14
 ICtDFT=  3500011 ScaDFX=  1.000000  1.000000  1.000000  1.000000
 FoFCou: FMM=F IPFlag=           0 FMFlag=      100000 FMFlg1=           0
         NFxFlg=           0 DoJE=T BraDBF=F KetDBF=T FulRan=T
         wScrn=  0.000000 ICntrl=       500 IOpCl=  0 I1Cent=   200000004 NGrid=           0
         NMat0=    1 NMatS0=      1 NMatT0=    0 NMatD0=    1 NMtDS0=    0 NMtDT0=    0
 Petite list used in FoFCou.
 Requested convergence on RMS density matrix=1.00D-08 within 128 cycles.
 Requested convergence on MAX density matrix=1.00D-06.
 Requested convergence on             energy=1.00D-06.
 No special actions if energy rises.
 Integral accuracy reduced to 1.0D-05 until final iterations.
 Initial convergence to 1.0D-05 achieved.  Increase integral accuracy.
 SCF Done:  E(RB3LYP) =  -357.496724369     A.U. after   15 cycles
            NFock= 15  Conv=0.70D-08     -V/T= 2.0063
 PrsmSu:  requested number of processors reduced to:  13 ShMem   1 Linda.
 Calling FoFJK, ICntrl=      2127 FMM=F ISym2X=0 I1Cent= 0 IOpClX= 0 NMat=1 NMatS=1 NMatT=0.
 ***** Axes restored to original set *****
 -------------------------------------------------------------------
 Center     Atomic                   Forces (Hartrees/Bohr)
 Number     Number              X              Y              Z
 -------------------------------------------------------------------
      1        7          -0.000743047   -0.000690701    0.001897361
      2        6          -0.003545260   -0.000974479    0.006066317
      3        6          -0.004055933   -0.000687093   -0.026449458
      4        7           0.020197274   -0.046442684   -0.007129724
      5        6           0.021583905    0.018725983    0.003202177
      6        7           0.021984749   -0.054965579   -0.022146456
      7        6          -0.023067687   -0.011193350   -0.009691762
      8        6          -0.022425660    0.097542854    0.060526293
      9        1          -0.004014738    0.001013860    0.000198738
     10        1          -0.001510768   -0.001298716   -0.005422090
     11        1           0.004398484   -0.000320278   -0.002242042
     12        1           0.002146493   -0.006887366    0.002131764
     13        1          -0.010947812    0.006177549   -0.000941118
 -------------------------------------------------------------------
 Cartesian Forces:  Max     0.097542854 RMS     0.024248569

 GradGradGradGradGradGradGradGradGradGradGradGradGradGradGradGradGradGrad
 Berny optimization.
 Using GEDIIS/GDIIS optimizer.
 FormGI is forming the generalized inverse of G from B-inverse, IUseBI=4.
 Internal  Forces:  Max     0.039935442 RMS     0.010955820
 Search for a local minimum.
 Step number   2 out of a maximum of   90
 All quantities printed in internal units (Hartrees-Bohrs-Radians)
 Mixed Optimization -- RFO/linear search
 Update second derivatives using D2CorX and points    1    2
 DE= -4.16D-02 DEPred=-3.98D-02 R= 1.04D+00
 TightC=F SS=  1.41D+00  RLast= 3.81D-01 DXNew= 5.0454D-01 1.1433D+00
 Trust test= 1.04D+00 RLast= 3.81D-01 DXMaxT set to 5.05D-01
 ITU=  1  0
 Use linear search instead of GDIIS.
 Linear search step of   0.605 exceeds DXMaxT=   0.505 but not scaled.
 Quartic linear search produced a step of  2.00000.
 Iteration  1 RMS(Cart)=  0.11402233 RMS(Int)=  0.01448051
 Iteration  2 RMS(Cart)=  0.01174357 RMS(Int)=  0.00792506
 Iteration  3 RMS(Cart)=  0.00024978 RMS(Int)=  0.00792315
 Iteration  4 RMS(Cart)=  0.00000258 RMS(Int)=  0.00792315
 Iteration  5 RMS(Cart)=  0.00000008 RMS(Int)=  0.00792315
 Variable       Old X    -DE/DX   Delta X   Delta X   Delta X     New X
                                 (Linear)    (Quad)   (Total)
    R1        2.18551   0.00074   0.00552   0.00000   0.00552   2.19103
    R2        2.77678   0.00471   0.05295   0.00000   0.05295   2.82973
    R3        2.69874   0.03230   0.16531   0.00000   0.16198   2.86072
    R4        2.88821   0.00858   0.07790   0.00000   0.08011   2.96831
    R5        2.07258  -0.00151  -0.00685   0.00000  -0.00685   2.06573
    R6        2.49672  -0.00417   0.01788   0.00000   0.01487   2.51159
    R7        1.91108   0.00035   0.00940   0.00000   0.00940   1.92048
    R8        2.34359  -0.01340  -0.00404   0.00000  -0.00671   2.33688
    R9        3.56781   0.03994   0.22825   0.00000   0.23450   3.80231
   R10        2.76043   0.03140   0.14994   0.00000   0.14448   2.90492
   R11        2.86099   0.01225   0.11801   0.00000   0.12098   2.98198
   R12        2.07568  -0.00002   0.00689   0.00000   0.00689   2.08257
   R13        2.06667  -0.00035  -0.00200   0.00000  -0.00200   2.06467
   R14        2.10588   0.00289   0.05542   0.00000   0.05542   2.16131
    A1        1.97237   0.00041   0.04046   0.00000   0.03118   2.00354
    A2        1.87788   0.00111   0.04281   0.00000   0.04194   1.91982
    A3        1.98845  -0.00383  -0.05603   0.00000  -0.05422   1.93423
    A4        1.70554   0.00929   0.07223   0.00000   0.07555   1.78109
    A5        1.89395  -0.00501  -0.04301   0.00000  -0.04207   1.85188
    A6        2.00807  -0.00007  -0.03299   0.00000  -0.03903   1.96904
    A7        1.74052  -0.00846  -0.06374   0.00000  -0.06305   1.67747
    A8        2.27478   0.00748   0.06017   0.00000   0.05996   2.33473
    A9        2.26742   0.00103   0.00386   0.00000   0.00318   2.27061
   A10        1.50093   0.00824   0.05691   0.00000   0.05805   1.55897
   A11        1.58467   0.02149   0.14052   0.00000   0.14269   1.72736
   A12        1.66866  -0.02069  -0.14802   0.00000  -0.14909   1.51957
   A13        1.73926   0.01913   0.14341   0.00000   0.14600   1.88526
   A14        1.96309  -0.00471  -0.01152   0.00000  -0.02578   1.93731
   A15        1.92727  -0.01202  -0.10912   0.00000  -0.10857   1.81870
   A16        1.89950  -0.00099   0.03909   0.00000   0.03783   1.93733
   A17        2.03749  -0.00343  -0.04041   0.00000  -0.04048   1.99702
   A18        1.89517   0.00249  -0.00851   0.00000  -0.00990   1.88527
   A19        1.31181  -0.00980  -0.06630   0.00000  -0.06784   1.24397
   A20        2.45132  -0.02977  -0.16040   0.00000  -0.16179   2.28953
   A21        1.66897   0.00604   0.04990   0.00000   0.06631   1.73528
   A22        1.24480  -0.02082  -0.13892   0.00000  -0.13785   1.10695
   A23        2.45777   0.00034   0.00757   0.00000   0.01939   2.47715
   A24        1.69653   0.01335   0.12126   0.00000   0.13379   1.83033
   A25        3.09356   0.00426   0.16127   0.00000   0.16127   3.25484
   A26        3.08559   0.02973   0.19742   0.00000   0.20074   3.28633
   A27        3.17505  -0.00092   0.00196   0.00000   0.00196   3.17701
   A28        3.12709  -0.00050   0.03273   0.00000   0.04597   3.17306
    D1        2.16241   0.00992   0.10210   0.00000   0.09832   2.26072
    D2       -0.94836   0.00853   0.09380   0.00000   0.09568  -0.85268
    D3        0.19209   0.00371   0.00706   0.00000  -0.00715   0.18494
    D4       -2.91868   0.00232  -0.00124   0.00000  -0.00978  -2.92846
    D5       -1.89778   0.00123   0.02431   0.00000   0.01768  -1.88009
    D6        1.27464  -0.00016   0.01601   0.00000   0.01505   1.28969
    D7       -2.18182  -0.00617  -0.08540   0.00000  -0.08018  -2.26200
    D8       -2.75326   0.00841   0.11408   0.00000   0.09939  -2.65387
    D9        1.63639  -0.00641  -0.09024   0.00000  -0.09092   1.54547
   D10       -0.13665  -0.00141  -0.00098   0.00000   0.00877  -0.12787
   D11       -0.70809   0.01317   0.19850   0.00000   0.18834  -0.51974
   D12       -2.60162  -0.00164  -0.00582   0.00000  -0.00197  -2.60359
   D13        1.86442  -0.00190  -0.02060   0.00000  -0.01268   1.85175
   D14        1.29298   0.01268   0.17888   0.00000   0.16690   1.45988
   D15       -0.60055  -0.00214  -0.02544   0.00000  -0.02342  -0.62397
   D16       -0.15413  -0.00140   0.00226   0.00000   0.01326  -0.14087
   D17        2.95683   0.00015   0.01214   0.00000   0.01729   2.97412
   D18        0.05404  -0.00066   0.00224   0.00000   0.00164   0.05567
   D19       -3.11608   0.00374   0.01435   0.00000   0.00038  -3.11570
   D20        0.20788   0.00073  -0.00059   0.00000  -0.00944   0.19844
   D21        0.14679   0.00326   0.00715   0.00000  -0.00425   0.14255
   D22        2.91633  -0.00470   0.01754   0.00000   0.04059   2.95693
   D23        1.55226   0.00046   0.00086   0.00000   0.00808   1.56034
   D24       -2.98030   0.00376  -0.02559   0.00000  -0.05022  -3.03052
   D25       -0.21076  -0.00420  -0.01519   0.00000  -0.00538  -0.21614
   D26       -1.57483   0.00096  -0.03187   0.00000  -0.03789  -1.61272
   D27       -0.26411  -0.00361  -0.01141   0.00000  -0.00006  -0.26417
   D28       -2.27358  -0.01094  -0.12551   0.00000  -0.11825  -2.39183
   D29        1.88947  -0.00231  -0.02282   0.00000  -0.02332   1.86616
   D30        0.76574  -0.01106  -0.17838   0.00000  -0.16921   0.59653
   D31        0.18113   0.00101   0.00684   0.00000  -0.00096   0.18017
   D32        2.64986   0.00086   0.00212   0.00000  -0.00749   2.64237
   D33        2.82327  -0.00761  -0.11572   0.00000  -0.09910   2.72418
   D34        2.23867   0.00446   0.06949   0.00000   0.06915   2.30782
   D35       -1.57579   0.00431   0.06478   0.00000   0.06262  -1.51317
   D36       -1.30806  -0.00763  -0.12422   0.00000  -0.11188  -1.41994
   D37       -1.89267   0.00444   0.06100   0.00000   0.05637  -1.83630
   D38        0.57605   0.00429   0.05629   0.00000   0.04984   0.62590
         Item               Value     Threshold  Converged?
 Maximum Force            0.039935     0.000450     NO 
 RMS     Force            0.010956     0.000300     NO 
 Maximum Displacement     0.461723     0.001800     NO 
 RMS     Displacement     0.110261     0.001200     NO 
 Predicted change in Energy=-3.334172D-02
 GradGradGradGradGradGradGradGradGradGradGradGradGradGradGradGradGradGrad

                          Input orientation:                          
 ---------------------------------------------------------------------
 Center     Atomic      Atomic             Coordinates (Angstroms)
 Number     Number       Type             X           Y           Z
 ---------------------------------------------------------------------
      1          7           0        0.832234   -0.313337    0.504975
      2          6           0        1.964433   -0.173004    0.298248
      3          6           0        3.453265   -0.116518    0.148288
      4          7           0        4.073613   -1.339598   -0.492742
      5          6           0        4.784807   -0.678418   -1.400201
      6          7           0        5.493891   -0.228238   -2.307819
      7          6           0        5.095678    1.172929   -1.816710
      8          6           0        3.848679    1.019385   -0.861995
      9          1           0        3.937952   -0.005598    1.121799
     10          1           0        3.983251   -2.339196   -0.333203
     11          1           0        4.864373    1.837694   -2.664707
     12          1           0        5.995948    1.551122   -1.326602
     13          1           0        3.926016    1.898488   -0.134479
 ---------------------------------------------------------------------
                    Distance matrix (angstroms):
                    1          2          3          4          5
     1  N    0.000000
     2  C    1.159442   0.000000
     3  C    2.652502   1.497430   0.000000
     4  N    3.543330   2.536778   1.513828   0.000000
     5  C    4.402933   3.330868   2.118149   1.329074   0.000000
     6  N    5.445190   4.387677   3.195168   2.558674   1.236621
     7  C    5.077023   4.011144   2.867301   3.018327   1.922916
     8  C    3.569831   2.513630   1.570764   2.398279   2.012097
     9  H    3.181299   2.145003   1.093138   2.098739   2.744146
    10  H    3.838692   3.027663   2.335169   1.016274   2.130530
    11  H    5.561651   4.607782   3.704472   3.929111   2.817113
    12  H    5.787472   4.676094   3.379580   3.570288   2.538331
    13  H    3.856496   2.885505   2.088948   3.261187   2.996668
                    6          7          8          9         10
     6  N    0.000000
     7  C    1.537215   0.000000
     8  C    2.520653   1.577994   0.000000
     9  H    3.772638   3.371067   2.234726   0.000000
    10  H    3.261485   3.971562   3.402616   2.750411   0.000000
    11  H    2.189003   1.102049   2.225092   4.312031   4.864020
    12  H    2.093077   1.092576   2.260391   3.557161   4.491365
    13  H    3.421200   2.173580   1.143715   2.281211   4.242727
                   11         12         13
    11  H    0.000000
    12  H    1.775700   0.000000
    13  H    2.699308   2.413802   0.000000
 Stoichiometry    C5H5N3
 Framework group  C1[X(C5H5N3)]
 Deg. of freedom    33
 Full point group                 C1      NOp   1
 Largest Abelian subgroup         C1      NOp   1
 Largest concise Abelian subgroup C1      NOp   1
                         Standard orientation:                         
 ---------------------------------------------------------------------
 Center     Atomic      Atomic             Coordinates (Angstroms)
 Number     Number       Type             X           Y           Z
 ---------------------------------------------------------------------
      1          7           0        3.135263   -0.277855   -0.504556
      2          6           0        2.062032   -0.198849   -0.073002
      3          6           0        0.734952    0.034761    0.580130
      4          7           0        0.057973    1.333070    0.195726
      5          6           0       -1.117155    0.794070   -0.112475
      6          7           0       -2.259246    0.461353   -0.450353
      7          6           0       -1.873692   -0.972781   -0.053316
      8          6           0       -0.303046   -1.035309    0.085348
      9          1           0        0.835812    0.056000    1.668398
     10          1           0        0.367050    2.300067    0.148796
     11          1           0       -2.233531   -1.699453   -0.799623
     12          1           0       -2.416749   -1.148199    0.878370
     13          1           0       -0.109063   -1.855743    0.858228
 ---------------------------------------------------------------------
 Rotational constants (GHZ):           5.6013000           1.4317319           1.2303491
 Standard basis: 6-31G(2df,p) (6D, 7F)
 There are   273 symmetry adapted cartesian basis functions of A   symmetry.
 There are   249 symmetry adapted basis functions of A   symmetry.
   249 basis functions,   387 primitive gaussians,   273 cartesian basis functions
    28 alpha electrons       28 beta electrons
       nuclear repulsion energy       322.4206257209 Hartrees.
 NAtoms=   13 NActive=   13 NUniq=   13 SFac= 1.00D+00 NAtFMM=   60 NAOKFM=F Big=F
 Integral buffers will be    131072 words long.
 Raffenetti 2 integral format.
 Two-electron integral symmetry is turned on.
 One-electron integrals computed using PRISM.
 PrsmSu:  requested number of processors reduced to:  13 ShMem   1 Linda.
 NBasis=   249 RedAO= T EigKep=  1.38D-04  NBF=   249
 NBsUse=   249 1.00D-06 EigRej= -1.00D+00 NBFU=   249
 Initial guess from the checkpoint file:  "NtCC1NC2dNCC21.chk"
 B after Tr=    -0.000000   -0.000000   -0.000000
         Rot=    0.999246   -0.037982   -0.000055   -0.008046 Ang=  -4.45 deg.
 ExpMin= 1.61D-01 ExpMax= 4.17D+03 ExpMxC= 6.27D+02 IAcc=2 IRadAn=         4 AccDes= 0.00D+00
 Harris functional with IExCor=  402 and IRadAn=       4 diagonalized for initial guess.
 HarFok:  IExCor=  402 AccDes= 0.00D+00 IRadAn=         4 IDoV= 1 UseB2=F ITyADJ=14
 ICtDFT=  3500011 ScaDFX=  1.000000  1.000000  1.000000  1.000000
 FoFCou: FMM=F IPFlag=           0 FMFlag=      100000 FMFlg1=           0
         NFxFlg=           0 DoJE=T BraDBF=F KetDBF=T FulRan=T
         wScrn=  0.000000 ICntrl=       500 IOpCl=  0 I1Cent=   200000004 NGrid=           0
         NMat0=    1 NMatS0=      1 NMatT0=    0 NMatD0=    1 NMtDS0=    0 NMtDT0=    0
 Petite list used in FoFCou.
 Requested convergence on RMS density matrix=1.00D-08 within 128 cycles.
 Requested convergence on MAX density matrix=1.00D-06.
 Requested convergence on             energy=1.00D-06.
 No special actions if energy rises.
 Integral accuracy reduced to 1.0D-05 until final iterations.
 Initial convergence to 1.0D-05 achieved.  Increase integral accuracy.
 SCF Done:  E(RB3LYP) =  -357.532199410     A.U. after   17 cycles
            NFock= 17  Conv=0.51D-08     -V/T= 2.0081
 PrsmSu:  requested number of processors reduced to:  13 ShMem   1 Linda.
 Calling FoFJK, ICntrl=      2127 FMM=F ISym2X=0 I1Cent= 0 IOpClX= 0 NMat=1 NMatS=1 NMatT=0.
 ***** Axes restored to original set *****
 -------------------------------------------------------------------
 Center     Atomic                   Forces (Hartrees/Bohr)
 Number     Number              X              Y              Z
 -------------------------------------------------------------------
      1        7           0.006199928    0.004451421   -0.004015628
      2        6           0.010823806   -0.012201966    0.006535700
      3        6          -0.001404405   -0.003469474   -0.029170664
      4        7           0.005354491    0.022184184   -0.008057975
      5        6           0.022083722   -0.016869628    0.001359939
      6        7          -0.012801090   -0.016353752    0.009414523
      7        6          -0.015896871   -0.003010562    0.005570037
      8        6          -0.003658793    0.043768395    0.035469395
      9        1          -0.003800555   -0.001640025    0.002041008
     10        1          -0.003480234    0.005662820   -0.004107152
     11        1          -0.002349249   -0.005877677    0.000393431
     12        1          -0.000502702   -0.002945351    0.002893282
     13        1          -0.000568047   -0.013698386   -0.018325896
 -------------------------------------------------------------------
 Cartesian Forces:  Max     0.043768395 RMS     0.013654619

 GradGradGradGradGradGradGradGradGradGradGradGradGradGradGradGradGradGrad
 Berny optimization.
 Using GEDIIS/GDIIS optimizer.
 FormGI is forming the generalized inverse of G from B-inverse, IUseBI=4.
 Internal  Forces:  Max     0.025466136 RMS     0.007069159
 Search for a local minimum.
 Step number   3 out of a maximum of   90
 All quantities printed in internal units (Hartrees-Bohrs-Radians)
 Mixed Optimization -- RFO/linear search
 Update second derivatives using D2CorX and points    2    3
 ITU=  0  1  0
 Use linear search instead of GDIIS.
     Eigenvalues ---    0.01027   0.01183   0.01356   0.01409   0.01701
     Eigenvalues ---    0.01821   0.03269   0.04180   0.04880   0.05894
     Eigenvalues ---    0.06126   0.06776   0.08629   0.10739   0.11211
     Eigenvalues ---    0.11760   0.13754   0.14633   0.16006   0.22563
     Eigenvalues ---    0.29861   0.31454   0.33837   0.34049   0.34331
     Eigenvalues ---    0.34348   0.36473   0.37933   0.43135   0.46227
     Eigenvalues ---    0.58838   0.79384   1.31129
 RFO step:  Lambda=-1.92686055D-02 EMin= 1.02678059D-02
 Quartic linear search produced a step of  0.13169.
 Iteration  1 RMS(Cart)=  0.05278168 RMS(Int)=  0.01096457
 Iteration  2 RMS(Cart)=  0.02042265 RMS(Int)=  0.00220004
 Iteration  3 RMS(Cart)=  0.00084029 RMS(Int)=  0.00201353
 Iteration  4 RMS(Cart)=  0.00000054 RMS(Int)=  0.00201353
 Variable       Old X    -DE/DX   Delta X   Delta X   Delta X     New X
                                 (Linear)    (Quad)   (Total)
    R1        2.19103  -0.00731   0.00073  -0.00537  -0.00465   2.18638
    R2        2.82973  -0.01637   0.00697  -0.03998  -0.03301   2.79672
    R3        2.86072  -0.01348   0.02133  -0.01904   0.00270   2.86342
    R4        2.96831  -0.01114   0.01055  -0.02518  -0.01426   2.95405
    R5        2.06573  -0.00003  -0.00090  -0.00049  -0.00139   2.06434
    R6        2.51159  -0.02547   0.00196  -0.04332  -0.04132   2.47027
    R7        1.92048  -0.00591   0.00124  -0.01230  -0.01106   1.90942
    R8        2.33688  -0.02449  -0.00088  -0.03222  -0.03305   2.30382
    R9        3.80231   0.01541   0.03088   0.11897   0.14891   3.95122
   R10        2.90492   0.00690   0.01903   0.02885   0.04780   2.95272
   R11        2.98198  -0.01496   0.01593  -0.02714  -0.01072   2.97125
   R12        2.08257  -0.00336   0.00091  -0.00933  -0.00842   2.07415
   R13        2.06467  -0.00014  -0.00026  -0.00055  -0.00081   2.06386
   R14        2.16131  -0.02222   0.00730  -0.06199  -0.05469   2.10662
    A1        2.00354  -0.00462   0.00411  -0.03442  -0.03252   1.97102
    A2        1.91982   0.00142   0.00552   0.01980   0.02633   1.94615
    A3        1.93423  -0.00178  -0.00714  -0.02849  -0.03646   1.89777
    A4        1.78109   0.00487   0.00995   0.03283   0.04272   1.82381
    A5        1.85188  -0.00258  -0.00554  -0.01224  -0.01853   1.83335
    A6        1.96904   0.00308  -0.00514   0.02667   0.02042   1.98946
    A7        1.67747   0.00712  -0.00830   0.01717   0.00930   1.68677
    A8        2.33473  -0.00374   0.00790  -0.00832  -0.00058   2.33415
    A9        2.27061  -0.00335   0.00042  -0.00914  -0.00911   2.26150
   A10        1.55897  -0.00435   0.00764  -0.02360  -0.01656   1.54242
   A11        1.72736   0.00335   0.01879   0.00618   0.02451   1.75187
   A12        1.51957  -0.00319  -0.01963  -0.02810  -0.04768   1.47190
   A13        1.88526   0.00650   0.01923   0.05468   0.07433   1.95959
   A14        1.93731  -0.00246  -0.00340  -0.02834  -0.03314   1.90417
   A15        1.81870  -0.00322  -0.01430  -0.02442  -0.03822   1.78048
   A16        1.93733  -0.00378   0.00498  -0.01881  -0.01313   1.92419
   A17        1.99702  -0.00121  -0.00533  -0.01662  -0.02201   1.97501
   A18        1.88527   0.00409  -0.00130   0.03167   0.02975   1.91502
   A19        1.24397  -0.00818  -0.00893  -0.03310  -0.04128   1.20270
   A20        2.28953  -0.01505  -0.02131  -0.04390  -0.06972   2.21981
   A21        1.73528   0.00753   0.00873   0.06979   0.08183   1.81711
   A22        1.10695  -0.00738  -0.01815  -0.04334  -0.06062   1.04633
   A23        2.47715   0.00057   0.00255  -0.00674  -0.00104   2.47611
   A24        1.83033   0.00396   0.01762   0.02778   0.04818   1.87850
   A25        3.25484  -0.00953   0.02124  -0.30933  -0.28809   2.96675
   A26        3.28633  -0.00100   0.02643  -0.01743   0.00796   3.29428
   A27        3.17701  -0.00195   0.00026  -0.06144  -0.06119   3.11583
   A28        3.17306   0.00287   0.00605   0.12257   0.13214   3.30520
    D1        2.26072   0.00630   0.01295   0.06247   0.07313   2.33386
    D2       -0.85268   0.00508   0.01260   0.07341   0.08568  -0.76700
    D3        0.18494   0.00374  -0.00094   0.03451   0.03064   0.21558
    D4       -2.92846   0.00252  -0.00129   0.04545   0.04319  -2.88528
    D5       -1.88009  -0.00082   0.00233  -0.00487  -0.00369  -1.88379
    D6        1.28969  -0.00204   0.00198   0.00607   0.00886   1.29854
    D7       -2.26200   0.00095  -0.01056  -0.00658  -0.01550  -2.27750
    D8       -2.65387   0.00544   0.01309   0.10689   0.11589  -2.53797
    D9        1.54547   0.00155  -0.01197   0.01878   0.00685   1.55233
   D10       -0.12787  -0.00101   0.00116  -0.01869  -0.01499  -0.14286
   D11       -0.51974   0.00348   0.02480   0.09478   0.11641  -0.40333
   D12       -2.60359  -0.00041  -0.00026   0.00667   0.00737  -2.59622
   D13        1.85175  -0.00004  -0.00167  -0.00376  -0.00303   1.84871
   D14        1.45988   0.00445   0.02198   0.10971   0.12836   1.58824
   D15       -0.62397   0.00056  -0.00308   0.02160   0.01932  -0.60465
   D16       -0.14087  -0.00159   0.00175  -0.01957  -0.01466  -0.15552
   D17        2.97412  -0.00045   0.00228  -0.02990  -0.02623   2.94788
   D18        0.05567  -0.00101   0.00022  -0.00305  -0.00272   0.05295
   D19       -3.11570  -0.00115   0.00005  -0.06513  -0.06713   3.10036
   D20        0.19844   0.00069  -0.00124   0.01807   0.01322   0.21167
   D21        0.14255   0.00176  -0.00056   0.02141   0.01799   0.16053
   D22        2.95693  -0.00028   0.00535   0.09421   0.10589   3.06281
   D23        1.56034   0.00332   0.00106   0.09984   0.10283   1.66317
   D24       -3.03052  -0.00112  -0.00661  -0.10116  -0.11415   3.13852
   D25       -0.21614  -0.00315  -0.00071  -0.02836  -0.02625  -0.24239
   D26       -1.61272   0.00044  -0.00499  -0.02273  -0.02931  -1.64203
   D27       -0.26417  -0.00381  -0.00001  -0.03978  -0.03736  -0.30153
   D28       -2.39183  -0.00185  -0.01557  -0.03465  -0.04815  -2.43997
   D29        1.86616  -0.00371  -0.00307  -0.04493  -0.04803   1.81813
   D30        0.59653  -0.00383  -0.02228  -0.09453  -0.11483   0.48170
   D31        0.18017   0.00056  -0.00013   0.02227   0.02024   0.20041
   D32        2.64237   0.00081  -0.00099   0.01016   0.00722   2.64958
   D33        2.72418  -0.00498  -0.01305  -0.10555  -0.11540   2.60878
   D34        2.30782  -0.00059   0.00911   0.01125   0.01967   2.32749
   D35       -1.51317  -0.00033   0.00825  -0.00085   0.00665  -1.50653
   D36       -1.41994  -0.00342  -0.01473  -0.09064  -0.10248  -1.52242
   D37       -1.83630   0.00098   0.00742   0.02615   0.03258  -1.80371
   D38        0.62590   0.00123   0.00656   0.01405   0.01956   0.64546
         Item               Value     Threshold  Converged?
 Maximum Force            0.025466     0.000450     NO 
 RMS     Force            0.007069     0.000300     NO 
 Maximum Displacement     0.343341     0.001800     NO 
 RMS     Displacement     0.067984     0.001200     NO 
 Predicted change in Energy=-1.247669D-02
 GradGradGradGradGradGradGradGradGradGradGradGradGradGradGradGradGradGrad

                          Input orientation:                          
 ---------------------------------------------------------------------
 Center     Atomic      Atomic             Coordinates (Angstroms)
 Number     Number       Type             X           Y           Z
 ---------------------------------------------------------------------
      1          7           0        0.861556   -0.207268    0.323286
      2          6           0        2.017975   -0.239071    0.340460
      3          6           0        3.481926   -0.111265    0.164963
      4          7           0        4.105817   -1.325077   -0.493386
      5          6           0        4.840610   -0.669805   -1.353324
      6          7           0        5.460482   -0.263213   -2.321166
      7          6           0        5.037298    1.149357   -1.804444
      8          6           0        3.843800    1.077585   -0.783366
      9          1           0        3.949530   -0.051473    1.150413
     10          1           0        3.993331   -2.321653   -0.370365
     11          1           0        4.766489    1.779091   -2.661652
     12          1           0        5.964100    1.514758   -1.356888
     13          1           0        3.931225    1.953744   -0.099681
 ---------------------------------------------------------------------
                    Distance matrix (angstroms):
                    1          2          3          4          5
     1  N    0.000000
     2  C    1.156984   0.000000
     3  C    2.626904   1.479962   0.000000
     4  N    3.527277   2.496756   1.515257   0.000000
     5  C    4.342560   3.319895   2.112624   1.307208   0.000000
     6  N    5.305317   4.351516   3.180977   2.510668   1.219130
     7  C    4.878984   3.955332   2.808364   2.951161   1.884555
     8  C    3.430642   2.515990   1.563216   2.434240   2.090897
     9  H    3.200625   2.102885   1.092402   2.085323   2.728563
    10  H    3.841848   2.957102   2.331079   1.010422   2.100641
    11  H    5.301319   4.543125   3.635010   3.843660   2.777465
    12  H    5.641304   4.639915   3.334841   3.501930   2.456534
    13  H    3.777796   2.943245   2.129828   3.306985   3.046574
                    6          7          8          9         10
     6  N    0.000000
     7  C    1.562512   0.000000
     8  C    2.603120   1.572319   0.000000
     9  H    3.792054   3.369927   2.241752   0.000000
    10  H    3.193014   3.897995   3.427499   2.732838   0.000000
    11  H    2.183705   1.097593   2.207131   4.306998   4.760660
    12  H    2.084381   1.092148   2.239580   3.577447   4.424388
    13  H    3.491207   2.185555   1.114775   2.363042   4.284408
                   11         12         13
    11  H    0.000000
    12  H    1.790686   0.000000
    13  H    2.700346   2.430198   0.000000
 Stoichiometry    C5H5N3
 Framework group  C1[X(C5H5N3)]
 Deg. of freedom    33
 Full point group                 C1      NOp   1
 Largest Abelian subgroup         C1      NOp   1
 Largest concise Abelian subgroup C1      NOp   1
                         Standard orientation:                         
 ---------------------------------------------------------------------
 Center     Atomic      Atomic             Coordinates (Angstroms)
 Number     Number       Type             X           Y           Z
 ---------------------------------------------------------------------
      1          7           0        3.021082   -0.320188   -0.604352
      2          6           0        2.063087   -0.070355   -0.005652
      3          6           0        0.724785    0.068892    0.610664
      4          7           0        0.008378    1.334983    0.186664
      5          6           0       -1.146139    0.777378   -0.068210
      6          7           0       -2.229351    0.435172   -0.510731
      7          6           0       -1.781603   -0.996796   -0.074346
      8          6           0       -0.231328   -1.087380    0.171888
      9          1           0        0.844533    0.159683    1.692680
     10          1           0        0.294978    2.298289    0.082475
     11          1           0       -2.086953   -1.718412   -0.842942
     12          1           0       -2.370350   -1.152669    0.832223
     13          1           0       -0.055784   -1.887100    0.928431
 ---------------------------------------------------------------------
 Rotational constants (GHZ):           5.3295449           1.4883609           1.2769277
 Standard basis: 6-31G(2df,p) (6D, 7F)
 There are   273 symmetry adapted cartesian basis functions of A   symmetry.
 There are   249 symmetry adapted basis functions of A   symmetry.
   249 basis functions,   387 primitive gaussians,   273 cartesian basis functions
    28 alpha electrons       28 beta electrons
       nuclear repulsion energy       324.3357761062 Hartrees.
 NAtoms=   13 NActive=   13 NUniq=   13 SFac= 1.00D+00 NAtFMM=   60 NAOKFM=F Big=F
 Integral buffers will be    131072 words long.
 Raffenetti 2 integral format.
 Two-electron integral symmetry is turned on.
 One-electron integrals computed using PRISM.
 PrsmSu:  requested number of processors reduced to:  13 ShMem   1 Linda.
 NBasis=   249 RedAO= T EigKep=  1.40D-04  NBF=   249
 NBsUse=   249 1.00D-06 EigRej= -1.00D+00 NBFU=   249
 Initial guess from the checkpoint file:  "NtCC1NC2dNCC21.chk"
 B after Tr=     0.000000   -0.000000   -0.000000
         Rot=    0.999924    0.008737   -0.001372   -0.008618 Ang=   1.42 deg.
 ExpMin= 1.61D-01 ExpMax= 4.17D+03 ExpMxC= 6.27D+02 IAcc=2 IRadAn=         4 AccDes= 0.00D+00
 Harris functional with IExCor=  402 and IRadAn=       4 diagonalized for initial guess.
 HarFok:  IExCor=  402 AccDes= 0.00D+00 IRadAn=         4 IDoV= 1 UseB2=F ITyADJ=14
 ICtDFT=  3500011 ScaDFX=  1.000000  1.000000  1.000000  1.000000
 FoFCou: FMM=F IPFlag=           0 FMFlag=      100000 FMFlg1=           0
         NFxFlg=           0 DoJE=T BraDBF=F KetDBF=T FulRan=T
         wScrn=  0.000000 ICntrl=       500 IOpCl=  0 I1Cent=   200000004 NGrid=           0
         NMat0=    1 NMatS0=      1 NMatT0=    0 NMatD0=    1 NMtDS0=    0 NMtDT0=    0
 Petite list used in FoFCou.
 Requested convergence on RMS density matrix=1.00D-08 within 128 cycles.
 Requested convergence on MAX density matrix=1.00D-06.
 Requested convergence on             energy=1.00D-06.
 No special actions if energy rises.
 Integral accuracy reduced to 1.0D-05 until final iterations.
 Initial convergence to 1.0D-05 achieved.  Increase integral accuracy.
 SCF Done:  E(RB3LYP) =  -357.543457268     A.U. after   17 cycles
            NFock= 17  Conv=0.39D-08     -V/T= 2.0075
 PrsmSu:  requested number of processors reduced to:  13 ShMem   1 Linda.
 Calling FoFJK, ICntrl=      2127 FMM=F ISym2X=0 I1Cent= 0 IOpClX= 0 NMat=1 NMatS=1 NMatT=0.
 ***** Axes restored to original set *****
 -------------------------------------------------------------------
 Center     Atomic                   Forces (Hartrees/Bohr)
 Number     Number              X              Y              Z
 -------------------------------------------------------------------
      1        7           0.000137352   -0.003834538    0.006144872
      2        6          -0.000768486    0.004086782   -0.012241684
      3        6           0.002167434   -0.005269659   -0.010697816
      4        7           0.002934718    0.023281977    0.001817049
      5        6           0.012603484   -0.026778793   -0.003563993
      6        7          -0.000070793   -0.001633638    0.000735908
      7        6          -0.013414780    0.006405503    0.003325657
      8        6           0.001335512    0.011430815    0.025007095
      9        1           0.000348136    0.001427471    0.002390876
     10        1          -0.005639025    0.000876465   -0.001954338
     11        1           0.000519352   -0.002893268   -0.002431709
     12        1          -0.001498347    0.000344078    0.000503298
     13        1           0.001345443   -0.007443195   -0.009035214
 -------------------------------------------------------------------
 Cartesian Forces:  Max     0.026778793 RMS     0.008774240

 GradGradGradGradGradGradGradGradGradGradGradGradGradGradGradGradGradGrad
 Berny optimization.
 Using GEDIIS/GDIIS optimizer.
 FormGI is forming the generalized inverse of G from B-inverse, IUseBI=4.
 Internal  Forces:  Max     0.015807232 RMS     0.004098651
 Search for a local minimum.
 Step number   4 out of a maximum of   90
 All quantities printed in internal units (Hartrees-Bohrs-Radians)
 Mixed Optimization -- RFO/linear search
 Update second derivatives using D2CorX and points    3    4
 DE= -1.13D-02 DEPred=-1.25D-02 R= 9.02D-01
 TightC=F SS=  1.41D+00  RLast= 5.67D-01 DXNew= 8.4853D-01 1.7014D+00
 Trust test= 9.02D-01 RLast= 5.67D-01 DXMaxT set to 8.49D-01
 ITU=  1  0  1  0
 Use linear search instead of GDIIS.
     Eigenvalues ---    0.00885   0.01061   0.01344   0.01469   0.01821
     Eigenvalues ---    0.03020   0.03686   0.04098   0.04872   0.05628
     Eigenvalues ---    0.06147   0.06357   0.08122   0.09413   0.11606
     Eigenvalues ---    0.12156   0.14235   0.15765   0.15996   0.22791
     Eigenvalues ---    0.27716   0.31658   0.32348   0.33874   0.34093
     Eigenvalues ---    0.34343   0.36872   0.38173   0.41306   0.46220
     Eigenvalues ---    0.56380   0.78565   1.31061
 RFO step:  Lambda=-1.78579983D-02 EMin= 8.84939027D-03
 Quartic linear search produced a step of  0.11179.
 Iteration  1 RMS(Cart)=  0.06494240 RMS(Int)=  0.01885525
 Iteration  2 RMS(Cart)=  0.03183442 RMS(Int)=  0.00306324
 Iteration  3 RMS(Cart)=  0.00262643 RMS(Int)=  0.00154417
 Iteration  4 RMS(Cart)=  0.00000323 RMS(Int)=  0.00154417
 Iteration  5 RMS(Cart)=  0.00000000 RMS(Int)=  0.00154417
 Variable       Old X    -DE/DX   Delta X   Delta X   Delta X     New X
                                 (Linear)    (Quad)   (Total)
    R1        2.18638  -0.00033  -0.00052  -0.00550  -0.00602   2.18037
    R2        2.79672  -0.00012  -0.00369  -0.03791  -0.04160   2.75512
[...]
 ! A18   A(11,7,12)            116.9516         -DE/DX =    0.0                 !
 ! A19   A(3,8,5)               56.7281         -DE/DX =    0.0                 !
 ! A20   A(3,8,7)              125.3147         -DE/DX =    0.0                 !
 ! A21   A(3,8,13)             113.1356         -DE/DX =    0.0                 !
 ! A22   A(5,8,7)              117.4902         -DE/DX =    0.0                 !
 ! A23   A(5,8,13)              92.9774         -DE/DX =    0.0                 !
 ! A24   A(7,8,13)             121.5497         -DE/DX =    0.0                 !
 ! A25   L(1,2,3,11,-1)        181.6765         -DE/DX =    0.0                 !
 ! A26   L(4,5,6,8,-1)         179.8597         -DE/DX =    0.0                 !
 ! A27   L(1,2,3,11,-2)        180.0645         -DE/DX =    0.0                 !
 ! A28   L(4,5,6,8,-2)         176.7614         -DE/DX =    0.0                 !
 ! D1    D(2,3,4,5)             74.1101         -DE/DX =    0.0                 !
 ! D2    D(2,3,4,10)           -66.6021         -DE/DX =    0.0                 !
 ! D3    D(8,3,4,5)            -53.0593         -DE/DX =    0.0                 !
 ! D4    D(8,3,4,10)           166.2285         -DE/DX =    0.0                 !
 ! D5    D(9,3,4,5)           -170.0223         -DE/DX =    0.0                 !
 ! D6    D(9,3,4,10)            49.2655         -DE/DX =    0.0                 !
 ! D7    D(2,3,8,5)           -104.0282         -DE/DX =    0.0                 !
 ! D8    D(2,3,8,7)             -1.8033         -DE/DX =    0.0                 !
 ! D9    D(2,3,8,13)           178.2585         -DE/DX =    0.0                 !
 ! D10   D(4,3,8,5)             22.606          -DE/DX =    0.0                 !
 ! D11   D(4,3,8,7)            124.831          -DE/DX =    0.0                 !
 ! D12   D(4,3,8,13)           -55.1072         -DE/DX =    0.0                 !
 ! D13   D(9,3,8,5)            137.2983         -DE/DX =    0.0                 !
 ! D14   D(9,3,8,7)           -120.4768         -DE/DX =    0.0                 !
 ! D15   D(9,3,8,13)            59.585          -DE/DX =    0.0                 !
 ! D16   D(3,4,5,8)             27.6078         -DE/DX =    0.0                 !
 ! D17   D(10,4,5,8)           168.4209         -DE/DX =    0.0                 !
 ! D18   D(3,4,6,7)             15.6648         -DE/DX =    0.0                 !
 ! D19   D(10,4,6,7)           157.6836         -DE/DX =    0.0                 !
 ! D20   D(8,5,6,7)            -12.1163         -DE/DX =    0.0                 !
 ! D21   D(4,5,8,3)            -28.1743         -DE/DX =    0.0                 !
 ! D22   D(4,5,8,7)           -144.1485         -DE/DX =    0.0                 !
 ! D23   D(4,5,8,13)            87.7032         -DE/DX =    0.0                 !
 ! D24   D(6,5,8,3)            155.0643         -DE/DX =    0.0                 !
 ! D25   D(6,5,8,7)             39.0901         -DE/DX =    0.0                 !
 ! D26   D(6,5,8,13)           -89.0582         -DE/DX =    0.0                 !
 ! D27   D(5,6,7,8)             27.4434         -DE/DX =    0.0                 !
 ! D28   D(5,6,7,11)           -96.467          -DE/DX =    0.0                 !
 ! D29   D(5,6,7,12)           138.5824         -DE/DX =    0.0                 !
 ! D30   D(6,7,8,3)            -77.0792         -DE/DX =    0.0                 !
 ! D31   D(6,7,8,5)             -9.9886         -DE/DX =    0.0                 !
 ! D32   D(6,7,8,13)           102.8541         -DE/DX =    0.0                 !
 ! D33   D(11,7,8,3)            -0.4486         -DE/DX =    0.0                 !
 ! D34   D(11,7,8,5)            66.642          -DE/DX =    0.0                 !
 ! D35   D(11,7,8,13)          179.4847         -DE/DX =    0.0                 !
 ! D36   D(12,7,8,3)           179.4958         -DE/DX =    0.0                 !
 ! D37   D(12,7,8,5)          -113.4136         -DE/DX =    0.0                 !
 ! D38   D(12,7,8,13)           -0.5709         -DE/DX =    0.0                 !
 --------------------------------------------------------------------------------
 GradGradGradGradGradGradGradGradGradGradGradGradGradGradGradGradGradGrad


 ----------------------------------------------------------------------

 Electric dipole moment (input orientation):
 (Debye = 10**-18 statcoulomb cm , SI units = C m)
                  (au)            (Debye)         (10**-30 SI)
   Tot        0.187308D+01      0.476088D+01      0.158806D+02
   x          0.171957D+00      0.437072D+00      0.145791D+01
   y          0.628915D+00      0.159854D+01      0.533216D+01
   z          0.175594D+01      0.446314D+01      0.148874D+02

 Dipole polarizability, Alpha (input orientation).
 (esu units = cm**3 , SI units = C**2 m**2 J**-1)
 Alpha(0;0):
               (au)            (10**-24 esu)      (10**-40 SI)
   iso        0.638275D+02      0.945826D+01      0.105237D+02
   aniso      0.101641D+02      0.150617D+01      0.167584D+01
   xx         0.672098D+02      0.995947D+01      0.110814D+02
   yx        -0.230440D+01     -0.341477D+00     -0.379945D+00
   yy         0.638631D+02      0.946353D+01      0.105296D+02
   zx        -0.114473D+01     -0.169632D+00     -0.188741D+00
   zy        -0.403169D+01     -0.597434D+00     -0.664735D+00
   zz         0.604097D+02      0.895179D+01      0.996021D+01

 ----------------------------------------------------------------------

 Dipole orientation:
     7          2.77957292          0.36695519         -2.05342085
     6          4.60705096          0.17001329         -0.87616894
     6          6.92277042         -0.15951666          0.64318744
     7          8.45093326         -2.32807648         -0.22371320
     6          9.78129927         -2.13218431         -2.37654796
     7         11.01765026         -1.97263315         -4.17998137
     6          8.01387111          4.36317686         -0.38686673
     6          8.52473243          2.20049403          0.77185653
     1          6.32174336         -0.65903437          2.56450730
     1          7.62641080         -4.03427738          0.03702603
     1          6.35459324          4.60440421         -1.56678684
     1          9.25439921          5.98090305         -0.18744149
     1         10.20008463          1.97554610          1.93637255

 Electric dipole moment (dipole orientation):
 (Debye = 10**-18 statcoulomb cm , SI units = C m)
                  (au)            (Debye)         (10**-30 SI)
   Tot        0.187308D+01      0.476088D+01      0.158806D+02
   x          0.000000D+00      0.000000D+00      0.000000D+00
   y          0.000000D+00      0.000000D+00      0.000000D+00
   z          0.187308D+01      0.476088D+01      0.158806D+02

 Dipole polarizability, Alpha (dipole orientation).
 (esu units = cm**3 , SI units = C**2 m**2 J**-1)
 Alpha(0;0):
               (au)            (10**-24 esu)      (10**-40 SI)
   iso        0.638275D+02      0.945826D+01      0.105237D+02
   aniso      0.101641D+02      0.150617D+01      0.167584D+01
   xx         0.674222D+02      0.999094D+01      0.111164D+02
   yx        -0.161285D+01     -0.239000D+00     -0.265923D+00
   yy         0.660813D+02      0.979223D+01      0.108953D+02
   zx        -0.103830D+01     -0.153861D+00     -0.171193D+00
   zy        -0.215755D+01     -0.319716D+00     -0.355732D+00
   zz         0.579791D+02      0.859162D+01      0.955947D+01

 ----------------------------------------------------------------------
 1\1\GINC-LEWIS4-Z10PH-HPC3-NODE391\Freq\RB3LYP\6-31G(2df,p)\C5H5N3\YXI
 E\04-Aug-2022\0\\#N Geom=AllCheck Guess=TCheck SCRF=Check GenChk RB3LY
 P/6-31G(2df,p) Freq\\Title Card Required\\0,1\N,1.3616414907,-0.205367
 7249,-1.218902084\C,2.3833445827,-0.1097328466,-0.6886755255\C,3.68002
 60542,-0.0235034794,0.0111021961\N,4.4613198307,-1.2711775781,-0.10788
 33531\C,5.0560206593,-1.5672632325,-1.2753046829\N,5.6184675233,-1.818
 5876852,-2.2583695316\C,4.1667815791,2.0383333404,-1.3564872458\C,4.51
 04416991,1.1620651045,-0.4222178619\H,3.460904923,0.0739838566,1.08218
 89658\H,4.0539311372,-2.0682526615,0.3646781331\H,3.2331965209,1.96287
 94802,-1.9040774052\H,4.8164534765,2.8695733668,-1.6052587668\H,5.4516
 105234,1.2427600599,0.1140571619\\Version=ES64L-G16RevA.03\State=1-A\H
 F=-357.7349558\RMSD=2.481e-09\RMSF=2.448e-05\ZeroPoint=0.094735\Therma
 l=0.1029503\Dipole=0.1719573,0.6289148,1.7559358\DipoleDeriv=-0.238456
 ,0.021809,0.0745226,-0.0271133,-0.2597937,0.0095943,0.0404817,0.014192
 6,-0.2307746,-0.0544931,0.0361614,-0.0307668,0.035346,-0.0450818,-0.04
 45508,-0.0715287,0.0195537,0.0304758,0.6001125,-0.1696274,-0.0083756,-
 0.2884461,0.7582787,0.0854746,0.0356894,0.1216654,0.3031337,-0.5065108
 ,0.1404327,-0.0026403,0.1953003,-0.3581591,-0.1254402,0.2267859,-0.241
 6662,-0.6724168,0.3740651,-0.1283354,-0.2541918,-0.0495423,0.106559,0.
 1412462,-0.361118,0.3116327,0.600307,-0.3707975,0.0543494,0.0338502,0.
 0200849,-0.3532085,-0.0158344,0.050285,-0.0844873,-0.3335772,0.0078584
 ,0.0390336,0.0555501,0.0730959,-0.0843319,-0.0569335,0.0634917,-0.1047
 782,-0.0739315,-0.0013165,0.1366429,0.086727,0.1355688,-0.0490374,-0.0
 667577,0.0352817,-0.047553,-0.0646503,-0.0162695,-0.0019297,0.0233465,
 0.0104729,-0.0144799,0.0419498,0.0135983,0.0035836,-0.0386416,0.183414
 7,0.0157243,0.133369,0.0317626,0.1192603,-0.0405739,0.0712705,-0.09366
 94,0.2534235,0.0102522,-0.0218554,-0.0533403,-0.0323503,0.1003094,0.00
 02537,-0.0428659,0.0102754,0.0825972,0.0350361,-0.077327,0.0030033,-0.
 0599889,0.0157214,0.0377572,-0.0165544,0.0357576,0.0951718,-0.0228955,
 -0.0450786,-0.0610538,-0.0441906,0.0639635,0.0338148,-0.0448172,0.0554
 931,0.048883\Polar=67.2098405,-2.3044038,63.8630526,-1.1447328,-4.0316
 851,60.4096895\Quadrupole=-7.2004449,5.1850401,2.0154048,3.6238175,1.4
 008698,-5.2239108\PG=C01 [X(C5H5N3)]\NImag=0\\0.99134186,0.09038970,0.
 02463349,0.50563124,0.04701787,0.27911138,-0.99638580,-0.09116683,-0.4
 9840919,1.24194896,-0.08902162,-0.04130673,-0.04646546,0.10625957,0.12
 168112,-0.49812714,-0.04757647,-0.29235333,0.59142621,0.05359385,0.414
 32586,0.00626665,0.00297454,-0.00769349,-0.18723940,-0.02048430,-0.065
 22086,0.46283905,-0.00238922,0.01575296,-0.00284533,-0.02034951,-0.067
 09688,-0.00751704,0.03150777,0.41694229,-0.00725923,-0.00007883,0.0143
 5632,-0.06787961,-0.00831639,-0.11511438,-0.01395535,-0.00218358,0.559
 22590,0.00117424,-0.00331492,-0.00089919,-0.03325315,0.03448441,-0.003
 05422,-0.08908880,0.03010687,0.02014939,0.32442335,-0.00158955,0.00205
 053,-0.00047217,0.02371696,-0.01125304,0.00766233,0.05354126,-0.144009
 88,0.00418434,-0.00333384,0.58140667,0.00028965,-0.00090416,-0.0002665
 5,-0.00625329,0.01043629,0.00543470,0.02380207,0.00982608,-0.07291534,
 -0.29222367,-0.09413653,0.50390182,0.00055933,0.00008741,-0.00001357,0
 .00081600,-0.00084129,0.00267602,-0.01938088,0.01722353,0.02106348,-0.
 12113478,0.02829339,0.12770242,0.46561746,0.00001965,-0.00028511,-0.00
 016792,-0.00104668,0.00196159,-0.00003817,0.01130427,-0.00708553,-0.03
 552296,0.04355557,-0.10564014,-0.04836204,-0.16621597,0.19757630,-0.00
 078382,-0.00104511,-0.00168615,-0.00470090,0.00638635,0.00196012,0.008
 04630,-0.02597082,-0.01517408,0.16349151,-0.03528736,-0.30004203,-0.63
 752895,0.27439107,1.20231432,-0.00018000,-0.00005324,0.00004084,-0.000
 53904,0.00047046,-0.00097655,0.00471949,-0.00545983,-0.00086131,0.0084
 0589,0.00633048,0.02285247,-0.31717633,0.11970813,0.46712531,0.3034108
 5,0.00009981,0.00016283,0.00001938,0.00022877,-0.00053185,0.00011975,-
 0.00042205,0.00057663,0.00356023,0.00386204,0.02009123,-0.01113342,0.1
 1897379,-0.09350241,-0.21064585,-0.12386715,0.07550970,0.00033958,0.00
 051491,0.00074620,0.00160872,-0.00229103,-0.00031947,-0.00355831,0.011
 03118,0.00113218,0.02000883,-0.01395061,-0.02580848,0.46594367,-0.2114
 3311,-0.85697068,-0.48586278,0.22008682,0.87647216,0.00007293,-0.00029
 734,-0.00019013,0.00061380,-0.00109633,0.00216068,0.00733715,-0.013411
 86,0.01400419,-0.00131386,-0.00295498,0.00172018,-0.00044919,0.0003086
 7,0.00055426,0.00030178,-0.00005100,-0.00049867,0.55130167,0.00028047,
 -0.00030448,0.00066344,0.00068051,-0.00133804,0.00106479,0.00224443,-0
 .01792912,0.02131559,-0.00126761,-0.00142966,0.00090674,-0.00058240,-0
 .00069330,0.00101626,0.00020812,0.00022832,-0.00029147,0.09724018,0.57
 981715,-0.00045781,0.00031570,-0.00043853,0.00041546,0.00047167,0.0003
 0206,0.00068449,0.01159245,-0.00496227,0.00078290,-0.00214710,0.000616
 90,0.00058105,0.00006146,-0.00119861,-0.00028414,-0.00042746,0.0005429
 3,0.20582933,-0.31240903,0.50114211,0.00175960,0.00241075,-0.00114196,
 -0.02827512,-0.02566215,0.00355452,-0.12247656,-0.05890614,0.01504595,
 0.01227353,0.01644532,-0.00785711,0.00217702,-0.00016712,-0.00148627,-
 0.00087659,0.00061361,0.00064447,-0.13198977,0.06622755,-0.10948270,0.
 52899354,0.00302531,-0.00159131,0.00324793,-0.01366849,0.00059518,-0.0
 0609209,-0.04626355,-0.13433439,0.02663881,-0.01090183,-0.04079078,0.0
 1486484,-0.00060310,0.00068217,-0.00035312,-0.00000190,-0.00074369,0.0
 0031836,0.06666820,-0.29132574,0.23864722,0.01923232,0.52913391,-0.001
 52525,0.00320957,-0.00277410,-0.01069375,-0.01691285,0.00686005,0.0112
 2173,0.02859444,-0.08759868,-0.00032404,0.00301485,0.00181324,-0.00134
 423,-0.00087689,0.00173516,0.00032573,-0.00012069,-0.00037313,-0.10878
 910,0.23926056,-0.31064303,0.22692350,-0.29433106,0.52372966,-0.003604
 99,0.00004401,0.00242869,0.00153217,-0.00281372,-0.03363764,-0.0547204
 1,0.00314845,0.04190409,-0.00844086,0.00749722,0.02015843,-0.00051631,
 0.00436721,0.00142916,-0.00015761,-0.00050991,0.00019791,-0.00156640,-
 0.00083987,-0.00011562,-0.00178807,-0.00147484,0.01783502,0.06787602,0
 .00006233,0.00025616,0.00051108,-0.00240143,0.00135558,-0.00501748,0.0
 0110562,-0.04174132,-0.01320796,0.01648374,-0.01056976,-0.02978355,0.0
 0139518,-0.00599330,-0.00176676,0.00042353,0.00076545,-0.00047352,-0.0
 0278957,-0.00149634,-0.00021262,-0.00604863,-0.00190167,0.02819269,-0.
 00863577,0.05884231,0.00082930,0.00003391,0.00216341,-0.00633746,-0.00
 093346,-0.02008449,0.04747900,-0.02509302,-0.28872243,0.00331872,-0.00
 167231,-0.00201776,-0.00014964,-0.00068455,0.00096113,-0.00027451,0.00
 008250,0.00033272,0.00163552,-0.00030198,0.00099896,0.00306457,0.00509
 215,-0.00911782,-0.04936825,0.02365006,0.31453823,-0.00078983,-0.00075
 721,-0.00006794,0.00179922,0.00162868,-0.00015141,0.00517603,0.0195955
 2,-0.01088231,-0.09437805,-0.12790188,0.10930634,-0.01053700,-0.011658
 85,0.00417937,0.00204623,0.00107662,0.00104451,0.00064762,0.00057609,-
 0.00008860,-0.00190350,0.00112973,0.00034476,0.00053663,-0.00059541,-0
 .00008006,0.09729776,0.00002178,-0.00009012,-0.00008184,-0.00038225,0.
 00073931,0.00037259,-0.01384746,-0.01911850,0.01014928,-0.11010593,-0.
 29250699,0.14858399,0.00244125,0.01332263,-0.00634081,0.00215927,-0.00
 268872,-0.00342225,-0.00097767,-0.00056068,-0.00052368,0.00463045,-0.0
 0431091,-0.00014067,-0.00047493,0.00073179,-0.00049267,0.11666913,0.30
 419994,0.00000202,-0.00020197,0.00004650,0.00077308,0.00039861,-0.0002
 5966,-0.00531241,-0.00216215,0.00310542,0.08790557,0.13158706,-0.10994
 409,0.02130183,0.02284136,-0.03168012,-0.00223444,-0.00165124,0.004225
 11,-0.00039802,-0.00063275,0.00043785,0.00173822,-0.00150473,0.0001907
 0,-0.00029223,-0.00036120,0.00010831,-0.10351326,-0.14849874,0.1335437
 6,-0.00043369,-0.00029681,0.00020896,0.00060231,-0.00050478,0.00068517
 ,-0.00140153,0.00121890,0.00354202,0.00007041,0.00047291,-0.00028539,0
 .00017228,-0.00005465,-0.00042331,-0.00001175,-0.00007087,0.00017214,-
 0.26345171,-0.02122678,-0.12941117,-0.00388550,-0.00275179,-0.00444417
 ,-0.00015545,-0.00059581,0.00022555,-0.00009181,0.00014268,0.00002605,
 0.27504762,-0.00045093,-0.00024150,-0.00039425,-0.00048893,-0.00096870
 ,0.00062588,0.00378506,-0.00111202,-0.00327277,-0.00056769,-0.00069923
 ,0.00025194,-0.00006681,0.00008036,0.00026662,-0.00002715,0.00004633,-
 0.00008684,-0.02581184,-0.05280190,-0.00537163,0.01875715,0.00589670,0
 .01269325,0.00004324,0.00063940,-0.00038074,0.00019357,-0.00017191,0.0
 0003970,0.02521526,0.04643535,0.00032262,-0.00056361,0.00029370,-0.000
 16788,0.00087288,-0.00061783,0.00152036,-0.00397480,-0.00368107,0.0000
 9100,-0.00083046,0.00062815,-0.00027525,0.00002120,0.00032601,0.000071
 93,0.00005213,-0.00010916,-0.12618153,-0.00291380,-0.11882852,-0.02114
 232,-0.00107085,-0.00633910,0.00020284,0.00071685,-0.00030450,0.000162
 17,-0.00019506,-0.00005617,0.14249250,-0.00087902,0.11895893,0.0002560
 4,-0.00035678,0.00044193,-0.00056970,0.00008817,-0.00049737,0.00276474
 ,-0.00121573,-0.00605045,-0.00019980,-0.00101539,0.00059908,-0.0001935
 5,0.00000012,0.00017659,0.00002734,0.00003787,0.00000127,-0.15882090,-
 0.14069926,0.03456918,0.00773845,0.00858944,-0.00433298,0.00068009,0.0
 0114722,-0.00030354,0.00010521,-0.00017374,-0.00004347,-0.00958409,-0.
 01834509,0.00655744,0.15842077,-0.00008802,0.00017970,-0.00013664,0.00
 082538,0.00007598,0.00041950,-0.00222411,0.00292639,0.00729947,0.00032
 142,0.00106666,-0.00055841,0.00006176,0.00003480,-0.00001759,0.0000554
 9,-0.00000925,-0.00008071,-0.13644875,-0.21721278,0.05671407,-0.014327
 29,-0.01185955,0.00321291,-0.00079726,-0.00162280,0.00049349,-0.000057
 62,0.00025126,-0.00001962,0.00068216,0.00162137,0.00162762,0.14980668,
 0.22626126,0.00016279,-0.00015029,0.00026427,-0.00017066,-0.00001913,0
 .00004421,-0.00637500,0.00536431,0.00507471,0.00105063,0.00242495,-0.0
 0122225,0.00036947,-0.00006310,-0.00061820,-0.00011073,-0.00003085,0.0
 0016734,0.03173902,0.05362628,-0.06050509,0.01424464,0.01920212,-0.002
 52399,-0.00044217,-0.00127509,0.00031812,-0.00034751,0.00064363,0.0002
 7045,-0.00885172,-0.01073729,0.00605879,-0.03397543,-0.06545736,0.0557
 4495,-0.00003634,0.00033671,-0.00033619,-0.00105024,-0.00250711,0.0011
 6259,-0.01479554,-0.00106874,-0.00882087,0.00146189,0.00049810,0.00018
 881,0.00004594,-0.00012035,-0.00007928,0.00002975,0.00002848,-0.000041
 33,-0.00268311,-0.00284144,-0.00302237,-0.26174703,-0.02297951,-0.1251
 9722,0.00032520,0.00044901,-0.00003922,0.00009149,-0.00010258,0.000047
 03,0.00312290,-0.00223583,-0.00365388,-0.00062459,0.00219015,0.0027066
 6,0.27585968,-0.00035970,0.00078358,-0.00089609,-0.00220705,-0.0039135
 2,0.00238256,-0.02322148,-0.00377063,-0.01056523,0.00067777,0.00228438
 ,0.00000823,-0.00016674,-0.00045806,-0.00063288,0.00005378,0.00009543,
 0.00007828,0.01962230,0.00504657,0.01328894,-0.02320582,-0.04944992,-0
 .00579612,0.00044616,0.00073452,0.00020662,0.00010163,0.00020290,0.000
 16568,-0.00223043,0.00127575,0.00713692,0.00213649,-0.00171304,-0.0035
 2817,0.02835311,0.04888203,0.00057605,-0.00057153,0.00053687,0.0003892
 6,0.00277868,-0.00017786,0.00936146,0.00333827,0.00527372,-0.00029746,
 -0.00037699,-0.00017830,-0.00032631,-0.00016635,0.00007311,0.00018817,
 0.00008871,-0.00003770,-0.02158573,-0.00130464,-0.00746478,-0.12410551
 ,-0.00465959,-0.11495897,-0.00030023,-0.00097250,0.00082612,0.00009394
 ,-0.00005377,0.00001194,-0.00393664,0.00724515,0.00367078,0.00285774,-
 0.00349673,-0.00307332,0.13708526,-0.00184872,0.11549841\\-0.00000409,
 0.00000128,-0.00000294,0.00001310,-0.00001302,0.00001664,0.00000698,-0
 .00004884,-0.00003443,-0.00001808,0.00005451,0.00001525,0.00002555,-0.
 00003042,-0.00004571,-0.00003774,0.00002474,0.00005432,0.00002331,-0.0
 0003776,-0.00000776,0.00002315,0.00003756,0.00001984,-0.00000139,0.000
 01513,0.00000278,0.00000212,-0.00000674,-0.00001153,0.00000341,0.00000
 775,-0.00000152,-0.00002245,0.00002335,0.00000238,-0.00001387,-0.00002
 754,-0.00000731\\\@


 KNOWLEDGE IS OF TWO KINDS:  WE KNOW A SUBJECT OURSELVES OR WE KNOW 
 WHERE WE CAN FIND INFORMATION UPON IT.

                                    -- SAMUEL JOHNSON
 Job cpu time:       0 days  1 hours  6 minutes 51.9 seconds.
 Elapsed time:       0 days  0 hours 16 minutes 43.6 seconds.
 File lengths (MBytes):  RWF=     74 Int=      0 D2E=      0 Chk=      6 Scr=      1
 Normal termination of Gaussian 16 at Thu Aug  4 03:59:15 2022.
### All Done ###
