### Starting Gaussian ###
 Entering Gaussian System, Link 0=g16
 Initial command:
 /cluster/software/gaussian/gaussian-16-A.03/avx2/g16/l1.exe "/local/scratch/ks29c/Gau-28544.inp" -scrdir="/local/scratch/ks29c/"
 Entering Link 1 = /cluster/software/gaussian/gaussian-16-A.03/avx2/g16/l1.exe PID=     28545.
  
 Copyright (c) 1988,1990,1992,1993,1995,1998,2003,2009,2016,
            Gaussian, Inc.  All Rights Reserved.
  
 This is part of the Gaussian(R) 16 program.  It is based on
 the Gaussian(R) 09 system (copyright 2009, Gaussian, Inc.),
 the Gaussian(R) 03 system (copyright 2003, Gaussian, Inc.),
 the Gaussian(R) 98 system (copyright 1998, Gaussian, Inc.),
 the Gaussian(R) 94 system (copyright 1995, Gaussian, Inc.),
 the Gaussian 92(TM) system (copyright 1992, Gaussian, Inc.),
 the Gaussian 90(TM) system (copyright 1990, Gaussian, Inc.),
 the Gaussian 88(TM) system (copyright 1988, Gaussian, Inc.),
 the Gaussian 86(TM) system (copyright 1986, Carnegie Mellon
 University), and the Gaussian 82(TM) system (copyright 1983,
 Carnegie Mellon University). Gaussian is a federally registered
 trademark of Gaussian, Inc.
  
 This software contains proprietary and confidential information,
 including trade secrets, belonging to Gaussian, Inc.
  
 This software is provided under written license and may be
 used, copied, transmitted, or stored only in accord with that
 written license.
  
 The following legend is applicable only to US Government
 contracts under FAR:
  
                    RESTRICTED RIGHTS LEGEND
  
 Use, reproduction and disclosure by the US Government is
 subject to restrictions as set forth in subparagraphs (a)
 and (c) of the Commercial Computer Software - Restricted
 Rights clause in FAR 52.227-19.
  
 Gaussian, Inc.
 340 Quinnipiac St., Bldg. 40, Wallingford CT 06492
  
  
 ---------------------------------------------------------------
 Warning -- This program may not be used in any manner that
 competes with the business of Gaussian, Inc. or will provide
 assistance to any competitor of Gaussian, Inc.  The licensee
 of this program is prohibited from giving any competitor of
 Gaussian, Inc. access to this program.  By using this program,
 the user acknowledges that Gaussian, Inc. is engaged in the
 business of creating and licensing software in the field of
 computational chemistry and represents and warrants to the
 licensee that it is not a competitor of Gaussian, Inc. and that
 it will not use this program in any manner prohibited above.
 ---------------------------------------------------------------
  

 Cite this work as:
 Gaussian 16, Revision A.03,
 M. J. Frisch, G. W. Trucks, H. B. Schlegel, G. E. Scuseria, 
 M. A. Robb, J. R. Cheeseman, G. Scalmani, V. Barone, 
 G. A. Petersson, H. Nakatsuji, X. Li, M. Caricato, A. V. Marenich, 
 J. Bloino, B. G. Janesko, R. Gomperts, B. Mennucci, H. P. Hratchian, 
 J. V. Ortiz, A. F. Izmaylov, J. L. Sonnenberg, D. Williams-Young, 
 F. Ding, F. Lipparini, F. Egidi, J. Goings, B. Peng, A. Petrone, 
 T. Henderson, D. Ranasinghe, V. G. Zakrzewski, J. Gao, N. Rega, 
 G. Zheng, W. Liang, M. Hada, M. Ehara, K. Toyota, R. Fukuda, 
 J. Hasegawa, M. Ishida, T. Nakajima, Y. Honda, O. Kitao, H. Nakai, 
 T. Vreven, K. Throssell, J. A. Montgomery, Jr., J. E. Peralta, 
 F. Ogliaro, M. J. Bearpark, J. J. Heyd, E. N. Brothers, K. N. Kudin, 
 V. N. Staroverov, T. A. Keith, R. Kobayashi, J. Normand, 
 K. Raghavachari, A. P. Rendell, J. C. Burant, S. S. Iyengar, 
 J. Tomasi, M. Cossi, J. M. Millam, M. Klene, C. Adamo, R. Cammi, 
 J. W. Ochterski, R. L. Martin, K. Morokuma, O. Farkas, 
 J. B. Foresman, and D. J. Fox, Gaussian, Inc., Wallingford CT, 2016.
 
 ******************************************
 Gaussian 16:  ES64L-G16RevA.03 25-Dec-2016
                 3-Jul-2022 
 ******************************************
 %chk=NtCC1CCC2NC2N1.chk
 %NProcShared=20
 Will use up to   20 processors via shared memory.
 -----------------------------
 # opt freq b3lyp/6-31g(2df,p)
 -----------------------------
 1/18=20,19=15,26=3,38=1/1,3;
 2/9=110,12=2,17=6,18=5,40=1/2;
 3/5=1,6=6,7=104,11=2,25=1,30=1,71=1,74=-5/1,2,3;
 4//1;
 5/5=2,38=5/2;
 6/7=2,8=2,9=2,10=2,28=1/1;
 7//1,2,3,16;
 1/18=20,19=15,26=3/3(2);
 2/9=110/2;
 99//99;
 2/9=110/2;
 3/5=1,6=6,7=104,11=2,25=1,30=1,71=1,74=-5/1,2,3;
 4/5=5,16=3,69=1/1;
 5/5=2,38=5/2;
 7//1,2,3,16;
 1/18=20,19=15,26=3/3(-5);
 2/9=110/2;
 6/7=2,8=2,9=2,10=2,19=2,28=1/1;
 99/9=1/99;
 -------------------
 Title Card Required
 -------------------
 Symbolic Z-matrix:
 Charge =  0 Multiplicity = 1
 N                     1.00417   0.09982   0.00423 
 C                     2.26513   0.09982   0.00423 
 C                     3.78513   0.09982   0.00423 
 C                     4.32228  -1.27119  -0.43055 
 C                     5.86879  -1.25698  -0.35942 
 C                     6.33073  -0.24314  -1.33215 
 N                     6.91061   1.04459  -1.46824 
 C                     5.75974   1.19814  -0.68812 
 N                     4.33133   1.16318  -0.91143 
 H                     4.10116   0.3118    1.03494 
 H                     3.99349  -1.47738  -1.46252 
 H                     3.90658  -2.07105   0.19068 
 H                     6.23342  -2.2535   -0.63387 
 H                     6.20084  -1.04717   0.66238 
 H                     6.12299  -0.61819  -2.32889 
 H                     6.80872   1.44394  -2.39275 
 H                     6.04102   1.62836   0.26577 
 H                     4.07995   0.94843  -1.87591 
 

 GradGradGradGradGradGradGradGradGradGradGradGradGradGradGradGradGradGrad
 Berny optimization.
 Initialization pass.
                           ----------------------------
                           !    Initial Parameters    !
                           ! (Angstroms and Degrees)  !
 --------------------------                            --------------------------
 ! Name  Definition              Value          Derivative Info.                !
 --------------------------------------------------------------------------------
 ! R1    R(1,2)                  1.261          estimate D2E/DX2                !
 ! R2    R(2,3)                  1.52           estimate D2E/DX2                !
 ! R3    R(3,4)                  1.5353         estimate D2E/DX2                !
 ! R4    R(3,9)                  1.5058         estimate D2E/DX2                !
 ! R5    R(3,10)                 1.0987         estimate D2E/DX2                !
 ! R6    R(4,5)                  1.5482         estimate D2E/DX2                !
 ! R7    R(4,11)                 1.1025         estimate D2E/DX2                !
 ! R8    R(4,12)                 1.0948         estimate D2E/DX2                !
 ! R9    R(5,6)                  1.479          estimate D2E/DX2                !
 ! R10   R(5,13)                 1.0961         estimate D2E/DX2                !
 ! R11   R(5,14)                 1.0947         estimate D2E/DX2                !
 ! R12   R(6,7)                  1.4188         estimate D2E/DX2                !
 ! R13   R(6,8)                  1.6787         estimate D2E/DX2                !
 ! R14   R(6,15)                 1.085          estimate D2E/DX2                !
 ! R15   R(7,8)                  1.3988         estimate D2E/DX2                !
 ! R16   R(7,16)                 1.0122         estimate D2E/DX2                !
 ! R17   R(8,9)                  1.4462         estimate D2E/DX2                !
 ! R18   R(8,17)                 1.0836         estimate D2E/DX2                !
 ! R19   R(9,18)                 1.0196         estimate D2E/DX2                !
 ! A1    A(2,3,4)              110.4788         estimate D2E/DX2                !
 ! A2    A(2,3,9)              111.2677         estimate D2E/DX2                !
 ! A3    A(2,3,10)             106.7165         estimate D2E/DX2                !
 ! A4    A(4,3,9)              109.3591         estimate D2E/DX2                !
 ! A5    A(4,3,10)             109.713          estimate D2E/DX2                !
 ! A6    A(9,3,10)             109.2606         estimate D2E/DX2                !
 ! A7    A(3,4,5)              109.1638         estimate D2E/DX2                !
 ! A8    A(3,4,11)             109.1308         estimate D2E/DX2                !
 ! A9    A(3,4,12)             111.0318         estimate D2E/DX2                !
 ! A10   A(5,4,11)             110.0357         estimate D2E/DX2                !
 ! A11   A(5,4,12)             111.0962         estimate D2E/DX2                !
 ! A12   A(11,4,12)            106.3357         estimate D2E/DX2                !
 ! A13   A(4,5,6)              106.742          estimate D2E/DX2                !
 ! A14   A(4,5,13)             108.2076         estimate D2E/DX2                !
 ! A15   A(4,5,14)             110.3429         estimate D2E/DX2                !
 ! A16   A(6,5,13)             110.7719         estimate D2E/DX2                !
 ! A17   A(6,5,14)             112.8163         estimate D2E/DX2                !
 ! A18   A(13,5,14)            107.8829         estimate D2E/DX2                !
 ! A19   A(5,6,7)              144.3794         estimate D2E/DX2                !
 ! A20   A(5,6,8)              103.2958         estimate D2E/DX2                !
 ! A21   A(5,6,15)             107.9043         estimate D2E/DX2                !
 ! A22   A(7,6,15)             107.6895         estimate D2E/DX2                !
 ! A23   A(8,6,15)             125.7372         estimate D2E/DX2                !
 ! A24   A(6,7,16)             113.8627         estimate D2E/DX2                !
 ! A25   A(8,7,16)             112.5353         estimate D2E/DX2                !
 ! A26   A(6,8,9)              104.8305         estimate D2E/DX2                !
 ! A27   A(6,8,17)             126.1798         estimate D2E/DX2                !
 ! A28   A(7,8,9)              136.3748         estimate D2E/DX2                !
 ! A29   A(7,8,17)             108.7215         estimate D2E/DX2                !
 ! A30   A(9,8,17)             113.6988         estimate D2E/DX2                !
 ! A31   A(3,9,8)              106.3463         estimate D2E/DX2                !
 ! A32   A(3,9,18)             109.6974         estimate D2E/DX2                !
 ! A33   A(8,9,18)             113.2463         estimate D2E/DX2                !
 ! A34   L(1,2,3,12,-1)        180.0            estimate D2E/DX2                !
 ! A35   L(1,2,3,12,-2)        180.0            estimate D2E/DX2                !
 ! D1    D(2,3,4,5)           -177.5111         estimate D2E/DX2                !
 ! D2    D(2,3,4,11)            62.1935         estimate D2E/DX2                !
 ! D3    D(2,3,4,12)           -54.6999         estimate D2E/DX2                !
 ! D4    D(9,3,4,5)             59.6952         estimate D2E/DX2                !
 ! D5    D(9,3,4,11)           -60.6003         estimate D2E/DX2                !
 ! D6    D(9,3,4,12)          -177.4936         estimate D2E/DX2                !
 ! D7    D(10,3,4,5)           -60.1259         estimate D2E/DX2                !
 ! D8    D(10,3,4,11)          179.5786         estimate D2E/DX2                !
 ! D9    D(10,3,4,12)           62.6853         estimate D2E/DX2                !
 ! D10   D(2,3,9,8)            172.046          estimate D2E/DX2                !
 ! D11   D(2,3,9,18)           -65.1426         estimate D2E/DX2                !
 ! D12   D(4,3,9,8)            -65.6314         estimate D2E/DX2                !
 ! D13   D(4,3,9,18)            57.18           estimate D2E/DX2                !
 ! D14   D(10,3,9,8)            54.4674         estimate D2E/DX2                !
 ! D15   D(10,3,9,18)          177.2788         estimate D2E/DX2                !
 ! D16   D(3,4,5,6)            -62.9637         estimate D2E/DX2                !
 ! D17   D(3,4,5,13)           177.7737         estimate D2E/DX2                !
 ! D18   D(3,4,5,14)            59.9524         estimate D2E/DX2                !
 ! D19   D(11,4,5,6)            56.7746         estimate D2E/DX2                !
 ! D20   D(11,4,5,13)          -62.4881         estimate D2E/DX2                !
 ! D21   D(11,4,5,14)          179.6906         estimate D2E/DX2                !
 ! D22   D(12,4,5,6)           174.2636         estimate D2E/DX2                !
 ! D23   D(12,4,5,13)           55.0009         estimate D2E/DX2                !
 ! D24   D(12,4,5,14)          -62.8204         estimate D2E/DX2                !
 ! D25   D(4,5,6,7)            108.6137         estimate D2E/DX2                !
 ! D26   D(4,5,6,8)             65.9025         estimate D2E/DX2                !
 ! D27   D(4,5,6,15)           -69.0925         estimate D2E/DX2                !
 ! D28   D(13,5,6,7)          -133.8006         estimate D2E/DX2                !
 ! D29   D(13,5,6,8)          -176.5117         estimate D2E/DX2                !
 ! D30   D(13,5,6,15)           48.4933         estimate D2E/DX2                !
 ! D31   D(14,5,6,7)           -12.745          estimate D2E/DX2                !
 ! D32   D(14,5,6,8)           -55.4561         estimate D2E/DX2                !
 ! D33   D(14,5,6,15)          169.5489         estimate D2E/DX2                !
 ! D34   D(5,6,7,16)          -163.5617         estimate D2E/DX2                !
 ! D35   D(15,6,7,16)           14.1472         estimate D2E/DX2                !
 ! D36   D(5,6,8,9)            -72.5335         estimate D2E/DX2                !
 ! D37   D(5,6,8,17)            62.6003         estimate D2E/DX2                !
 ! D38   D(15,6,8,9)            51.4681         estimate D2E/DX2                !
 ! D39   D(15,6,8,17)         -173.3982         estimate D2E/DX2                !
 ! D40   D(16,7,8,9)            37.0883         estimate D2E/DX2                !
 ! D41   D(16,7,8,17)         -129.0007         estimate D2E/DX2                !
 ! D42   D(6,8,9,3)             69.7105         estimate D2E/DX2                !
 ! D43   D(6,8,9,18)           -50.8385         estimate D2E/DX2                !
 ! D44   D(7,8,9,3)            122.5612         estimate D2E/DX2                !
 ! D45   D(7,8,9,18)             2.0123         estimate D2E/DX2                !
 ! D46   D(17,8,9,3)           -71.8373         estimate D2E/DX2                !
 ! D47   D(17,8,9,18)          167.6138         estimate D2E/DX2                !
 --------------------------------------------------------------------------------
 Trust Radius=3.00D-01 FncErr=1.00D-07 GrdErr=1.00D-06 EigMax=2.50D+02 EigMin=1.00D-04
 Number of steps in this run=    108 maximum allowed number of steps=    108.
 GradGradGradGradGradGradGradGradGradGradGradGradGradGradGradGradGradGrad

                          Input orientation:                          
 ---------------------------------------------------------------------
 Center     Atomic      Atomic             Coordinates (Angstroms)
 Number     Number       Type             X           Y           Z
 ---------------------------------------------------------------------
      1          7           0        1.004170    0.099820    0.004230
      2          6           0        2.265130    0.099820    0.004230
      3          6           0        3.785130    0.099820    0.004230
      4          6           0        4.322280   -1.271190   -0.430550
      5          6           0        5.868790   -1.256980   -0.359420
      6          6           0        6.330730   -0.243140   -1.332150
      7          7           0        6.910610    1.044590   -1.468240
      8          6           0        5.759740    1.198140   -0.688120
      9          7           0        4.331330    1.163180   -0.911430
     10          1           0        4.101160    0.311800    1.034940
     11          1           0        3.993490   -1.477380   -1.462520
     12          1           0        3.906580   -2.071050    0.190680
     13          1           0        6.233420   -2.253500   -0.633870
     14          1           0        6.200840   -1.047170    0.662380
     15          1           0        6.122990   -0.618190   -2.328890
     16          1           0        6.808720    1.443940   -2.392750
     17          1           0        6.041020    1.628360    0.265770
     18          1           0        4.079950    0.948430   -1.875910
 ---------------------------------------------------------------------
                    Distance matrix (angstroms):
                    1          2          3          4          5
     1  N    0.000000
     2  C    1.260960   0.000000
     3  C    2.780960   1.520000   0.000000
     4  C    3.616429   2.510093   1.535328   0.000000
     5  C    5.063366   3.867753   2.512924   1.548210   0.000000
     6  C    5.502343   4.293325   2.895447   2.429741   1.479008
     7  N    6.160097   4.963995   3.581813   3.624788   2.759003
     8  C    4.929615   3.727996   2.363205   2.868837   2.479425
     9  N    3.610978   2.497669   1.505823   2.481428   2.919875
    10  H    3.270878   2.116201   1.098715   2.168505   2.744053
    11  H    3.684420   2.761547   2.163869   1.102533   2.186814
    12  H    3.629246   2.727966   2.182244   1.094764   2.194445
    13  H    5.769778   4.657533   3.455345   2.158409   1.096052
    14  H    5.362287   4.151935   2.753979   2.184873   1.094693
    15  H    5.671094   4.565312   3.380026   2.696787   2.086021
    16  H    6.422225   5.310027   4.085862   4.171875   3.508970
    17  H    5.270170   4.081934   2.737495   3.441848   2.957315
    18  H    3.703443   2.747478   2.083743   2.659794   3.219243
                    6          7          8          9         10
     6  C    0.000000
     7  N    1.418813   0.000000
     8  C    1.678717   1.398809   0.000000
     9  N    2.480391   2.641361   1.446183   0.000000
    10  H    3.298796   3.833523   2.550573   2.136863   0.000000
    11  H    2.646325   3.856158   3.298142   2.718528   3.074096
    12  H    3.396582   4.635022   3.859287   3.443153   2.535470
    13  H    2.130402   3.468740   3.484413   3.920292   3.729909
    14  H    2.154411   3.069002   2.657035   3.295086   2.528687
    15  H    1.085039   2.031231   2.474496   2.896984   4.033365
    16  H    2.049289   1.012216   2.016566   2.900103   4.512392
    17  H    2.477860   2.025775   1.083565   2.127259   2.467389
    18  H    2.604136   2.861482   2.072413   1.019574   2.979731
                   11         12         13         14         15
    11  H    0.000000
    12  H    1.758712   0.000000
    13  H    2.511237   2.475349   0.000000
    14  H    3.093974   2.556259   1.771033   0.000000
    15  H    2.454297   3.656707   2.357865   3.022876   0.000000
    16  H    4.162326   5.239435   4.134694   3.988605   2.174094
    17  H    4.101827   4.271663   3.989387   2.709484   3.433070
    18  H    2.462300   3.663074   4.053696   3.863096   2.614097
                   16         17         18
    16  H    0.000000
    17  H    2.773284   0.000000
    18  H    2.821142   2.982431   0.000000
 Stoichiometry    C6H9N3
 Framework group  C1[X(C6H9N3)]
 Deg. of freedom    48
 Full point group                 C1      NOp   1
 Largest Abelian subgroup         C1      NOp   1
 Largest concise Abelian subgroup C1      NOp   1
                         Standard orientation:                         
 ---------------------------------------------------------------------
 Center     Atomic      Atomic             Coordinates (Angstroms)
 Number     Number       Type             X           Y           Z
 ---------------------------------------------------------------------
      1          7           0        3.616555   -0.354870   -0.232483
      2          6           0        2.398592   -0.200075    0.054961
      3          6           0        0.930422   -0.013479    0.401456
      4          6           0        0.406192    1.309132   -0.175706
      5          6           0       -1.071012    1.498252    0.247445
      6          6           0       -1.834060    0.386821   -0.360785
      7          7           0       -2.524074   -0.822808   -0.089291
      8          6           0       -1.230518   -0.969849    0.422333
      9          7           0        0.096436   -1.152322   -0.122956
     10          1           0        0.864856    0.008825    1.497986
     11          1           0        0.483338    1.279383   -1.275134
     12          1           0        1.021458    2.152712    0.153429
     13          1           0       -1.416825    2.464097   -0.138411
     14          1           0       -1.154099    1.522994    1.338700
     15          1           0       -1.852492    0.543094   -1.434353
     16          1           0       -2.684673   -1.395349   -0.908427
     17          1           0       -1.297862   -1.178800    1.483426
     18          1           0        0.116183   -1.151766   -1.142339
 ---------------------------------------------------------------------
 Rotational constants (GHZ):           3.8709255           1.0896230           0.9117178
 Standard basis: 6-31G(2df,p) (6D, 7F)
 There are   324 symmetry adapted cartesian basis functions of A   symmetry.
 There are   297 symmetry adapted basis functions of A   symmetry.
   297 basis functions,   459 primitive gaussians,   324 cartesian basis functions
    33 alpha electrons       33 beta electrons
       nuclear repulsion energy       431.2267138808 Hartrees.
 NAtoms=   18 NActive=   18 NUniq=   18 SFac= 1.00D+00 NAtFMM=   60 NAOKFM=F Big=F
 Integral buffers will be    131072 words long.
 Raffenetti 2 integral format.
 Two-electron integral symmetry is turned on.
 One-electron integrals computed using PRISM.
 PrsmSu:  requested number of processors reduced to:  13 ShMem   1 Linda.
 NBasis=   297 RedAO= T EigKep=  1.85D-04  NBF=   297
 NBsUse=   297 1.00D-06 EigRej= -1.00D+00 NBFU=   297
 ExpMin= 1.61D-01 ExpMax= 4.17D+03 ExpMxC= 6.27D+02 IAcc=3 IRadAn=         5 AccDes= 0.00D+00
 Harris functional with IExCor=  402 and IRadAn=       5 diagonalized for initial guess.
 HarFok:  IExCor=  402 AccDes= 0.00D+00 IRadAn=         5 IDoV= 1 UseB2=F ITyADJ=14
 ICtDFT=  3500011 ScaDFX=  1.000000  1.000000  1.000000  1.000000
 FoFCou: FMM=F IPFlag=           0 FMFlag=      100000 FMFlg1=           0
         NFxFlg=           0 DoJE=T BraDBF=F KetDBF=T FulRan=T
         wScrn=  0.000000 ICntrl=       500 IOpCl=  0 I1Cent=   200000004 NGrid=           0
         NMat0=    1 NMatS0=      1 NMatT0=    0 NMatD0=    1 NMtDS0=    0 NMtDT0=    0
 Petite list used in FoFCou.
 Requested convergence on RMS density matrix=1.00D-08 within 128 cycles.
 Requested convergence on MAX density matrix=1.00D-06.
 Requested convergence on             energy=1.00D-06.
 No special actions if energy rises.
 Integral accuracy reduced to 1.0D-05 until final iterations.
 Initial convergence to 1.0D-05 achieved.  Increase integral accuracy.
 SCF Done:  E(RB3LYP) =  -398.127165112     A.U. after   15 cycles
            NFock= 15  Conv=0.54D-08     -V/T= 2.0084

 **********************************************************************

            Population analysis using the SCF density.

 **********************************************************************

 Orbital symmetries:
       Occupied  (A) (A) (A) (A) (A) (A) (A) (A) (A) (A) (A) (A)
                 (A) (A) (A) (A) (A) (A) (A) (A) (A) (A) (A) (A)
                 (A) (A) (A) (A) (A) (A) (A) (A) (A)
       Virtual   (A) (A) (A) (A) (A) (A) (A) (A) (A) (A) (A) (A)
                 (A) (A) (A) (A) (A) (A) (A) (A) (A) (A) (A) (A)
                 (A) (A) (A) (A) (A) (A) (A) (A) (A) (A) (A) (A)
                 (A) (A) (A) (A) (A) (A) (A) (A) (A) (A) (A) (A)
                 (A) (A) (A) (A) (A) (A) (A) (A) (A) (A) (A) (A)
                 (A) (A) (A) (A) (A) (A) (A) (A) (A) (A) (A) (A)
                 (A) (A) (A) (A) (A) (A) (A) (A) (A) (A) (A) (A)
                 (A) (A) (A) (A) (A) (A) (A) (A) (A) (A) (A) (A)
                 (A) (A) (A) (A) (A) (A) (A) (A) (A) (A) (A) (A)
                 (A) (A) (A) (A) (A) (A) (A) (A) (A) (A) (A) (A)
                 (A) (A) (A) (A) (A) (A) (A) (A) (A) (A) (A) (A)
                 (A) (A) (A) (A) (A) (A) (A) (A) (A) (A) (A) (A)
                 (A) (A) (A) (A) (A) (A) (A) (A) (A) (A) (A) (A)
                 (A) (A) (A) (A) (A) (A) (A) (A) (A) (A) (A) (A)
                 (A) (A) (A) (A) (A) (A) (A) (A) (A) (A) (A) (A)
                 (A) (A) (A) (A) (A) (A) (A) (A) (A) (A) (A) (A)
                 (A) (A) (A) (A) (A) (A) (A) (A) (A) (A) (A) (A)
                 (A) (A) (A) (A) (A) (A) (A) (A) (A) (A) (A) (A)
                 (A) (A) (A) (A) (A) (A) (A) (A) (A) (A) (A) (A)
                 (A) (A) (A) (A) (A) (A) (A) (A) (A) (A) (A) (A)
                 (A) (A) (A) (A) (A) (A) (A) (A) (A) (A) (A) (A)
                 (A) (A) (A) (A) (A) (A) (A) (A) (A) (A) (A) (A)
 The electronic state is 1-A.
 Alpha  occ. eigenvalues --  -14.36136 -14.35327 -14.34360 -10.27282 -10.24687
 Alpha  occ. eigenvalues --  -10.24498 -10.22440 -10.21220 -10.21091  -1.00050
 Alpha  occ. eigenvalues --   -0.91770  -0.85931  -0.81063  -0.74093  -0.65278
 Alpha  occ. eigenvalues --   -0.64372  -0.59684  -0.55150  -0.52462  -0.49407
 Alpha  occ. eigenvalues --   -0.47692  -0.44614  -0.44342  -0.40539  -0.39908
 Alpha  occ. eigenvalues --   -0.38154  -0.37176  -0.35668  -0.31641  -0.31091
 Alpha  occ. eigenvalues --   -0.30763  -0.27418  -0.17458
 Alpha virt. eigenvalues --   -0.00549   0.00116   0.00592   0.06409   0.08034
 Alpha virt. eigenvalues --    0.09203   0.11710   0.13462   0.14136   0.14875
 Alpha virt. eigenvalues --    0.15021   0.15936   0.17407   0.20110   0.20702
 Alpha virt. eigenvalues --    0.21801   0.24874   0.25634   0.30939   0.31908
 Alpha virt. eigenvalues --    0.35600   0.43646   0.44822   0.45710   0.47833
 Alpha virt. eigenvalues --    0.48899   0.49480   0.51273   0.51708   0.53383
 Alpha virt. eigenvalues --    0.54705   0.55861   0.56602   0.57825   0.58913
 Alpha virt. eigenvalues --    0.61050   0.61951   0.63349   0.65929   0.67786
 Alpha virt. eigenvalues --    0.68837   0.69812   0.70438   0.71511   0.72905
 Alpha virt. eigenvalues --    0.73994   0.74717   0.77221   0.77336   0.78126
 Alpha virt. eigenvalues --    0.78997   0.79795   0.80220   0.80690   0.81570
 Alpha virt. eigenvalues --    0.82340   0.83801   0.85172   0.87528   0.88555
 Alpha virt. eigenvalues --    0.94480   0.97888   0.99049   1.02999   1.05729
 Alpha virt. eigenvalues --    1.08221   1.08539   1.12218   1.14481   1.15768
 Alpha virt. eigenvalues --    1.20889   1.22481   1.23534   1.24709   1.26990
 Alpha virt. eigenvalues --    1.30246   1.31252   1.33066   1.36098   1.38140
 Alpha virt. eigenvalues --    1.41013   1.42957   1.44918   1.47155   1.49375
 Alpha virt. eigenvalues --    1.51702   1.54119   1.55770   1.57492   1.58546
 Alpha virt. eigenvalues --    1.60781   1.63620   1.65642   1.68419   1.71154
 Alpha virt. eigenvalues --    1.71482   1.73364   1.77652   1.78648   1.80363
 Alpha virt. eigenvalues --    1.83981   1.87210   1.89619   1.90779   1.93920
 Alpha virt. eigenvalues --    1.99627   2.01031   2.02665   2.06432   2.16733
 Alpha virt. eigenvalues --    2.21135   2.23559   2.25146   2.29420   2.32286
 Alpha virt. eigenvalues --    2.37887   2.40360   2.41970   2.45800   2.48470
 Alpha virt. eigenvalues --    2.50802   2.53984   2.57708   2.59743   2.62808
 Alpha virt. eigenvalues --    2.65559   2.68427   2.70896   2.75551   2.76448
 Alpha virt. eigenvalues --    2.77561   2.78777   2.81113   2.82360   2.83502
 Alpha virt. eigenvalues --    2.84853   2.85847   2.88530   2.89748   2.93472
 Alpha virt. eigenvalues --    2.94504   2.96788   2.98762   2.99858   3.02183
 Alpha virt. eigenvalues --    3.02542   3.06701   3.10502   3.11166   3.17685
 Alpha virt. eigenvalues --    3.19233   3.19952   3.26186   3.28216   3.29763
 Alpha virt. eigenvalues --    3.31147   3.32870   3.35871   3.36278   3.42728
 Alpha virt. eigenvalues --    3.45227   3.46661   3.47153   3.50987   3.53516
 Alpha virt. eigenvalues --    3.56954   3.61668   3.64485   3.64687   3.65761
 Alpha virt. eigenvalues --    3.69122   3.70118   3.72793   3.74887   3.78127
 Alpha virt. eigenvalues --    3.83489   3.85858   3.88573   3.90818   3.92647
 Alpha virt. eigenvalues --    3.96503   3.98618   4.01574   4.05235   4.06721
 Alpha virt. eigenvalues --    4.09261   4.10031   4.11111   4.12415   4.15495
 Alpha virt. eigenvalues --    4.15964   4.19516   4.22681   4.23757   4.27329
 Alpha virt. eigenvalues --    4.29068   4.31876   4.33318   4.33787   4.39036
 Alpha virt. eigenvalues --    4.40388   4.41951   4.45181   4.47788   4.49317
 Alpha virt. eigenvalues --    4.51767   4.52223   4.54763   4.56127   4.57341
 Alpha virt. eigenvalues --    4.59602   4.61354   4.63883   4.66851   4.67577
 Alpha virt. eigenvalues --    4.69462   4.71819   4.72981   4.75243   4.76096
 Alpha virt. eigenvalues --    4.79520   4.80793   4.82792   4.84481   4.85326
 Alpha virt. eigenvalues --    4.86369   4.88835   4.90700   4.94379   4.98448
 Alpha virt. eigenvalues --    5.02797   5.04562   5.06846   5.09560   5.11594
 Alpha virt. eigenvalues --    5.13973   5.15728   5.18403   5.18765   5.20392
 Alpha virt. eigenvalues --    5.30908   5.34957   5.40341   5.43669   5.47205
 Alpha virt. eigenvalues --    5.50972   5.61558   5.67600   5.76054   5.93924
 Alpha virt. eigenvalues --    6.00725   6.47517  10.32097  10.70992  11.25421
 Alpha virt. eigenvalues --   11.33374  11.34389  11.59182  11.74923  12.18930
 Alpha virt. eigenvalues --   12.65587  14.28188  16.34303  16.92044
          Condensed to atoms (all electrons):
               1          2          3          4          5          6
     1  N    6.495982   0.920384  -0.031025  -0.002012  -0.000003  -0.000008
     2  C    0.920384   4.502359   0.375342  -0.039837   0.002209   0.000779
     3  C   -0.031025   0.375342   4.834888   0.378511  -0.019306  -0.023171
     4  C   -0.002012  -0.039837   0.378511   4.983109   0.389699  -0.040232
     5  C   -0.000003   0.002209  -0.019306   0.389699   4.947935   0.424742
     6  C   -0.000008   0.000779  -0.023171  -0.040232   0.424742   4.914941
     7  N    0.000000  -0.000121   0.004750   0.002609   0.016813   0.331934
     8  C   -0.000017   0.001688  -0.066508  -0.020257  -0.050491   0.158374
     9  N   -0.001812  -0.029591   0.368506  -0.038150  -0.016995  -0.059685
    10  H    0.000046  -0.021751   0.364121  -0.050526  -0.003088  -0.001570
    11  H    0.000322   0.000011  -0.030736   0.357939  -0.035094  -0.001837
    12  H    0.000160   0.000636  -0.024627   0.362635  -0.026548   0.002418
    13  H   -0.000000  -0.000096   0.002272  -0.050757   0.352081  -0.037522
    14  H   -0.000001   0.000393  -0.004886  -0.034030   0.348259  -0.024890
    15  H   -0.000001   0.000141  -0.001315  -0.010627  -0.092170   0.386239
    16  H   -0.000000  -0.000001  -0.000134  -0.000422   0.003749  -0.026785
    17  H   -0.000001   0.000026  -0.003230  -0.000428   0.003895  -0.012063
    18  H    0.000296   0.001934  -0.040854  -0.006443  -0.000253   0.003821
               7          8          9         10         11         12
     1  N    0.000000  -0.000017  -0.001812   0.000046   0.000322   0.000160
     2  C   -0.000121   0.001688  -0.029591  -0.021751   0.000011   0.000636
     3  C    0.004750  -0.066508   0.368506   0.364121  -0.030736  -0.024627
     4  C    0.002609  -0.020257  -0.038150  -0.050526   0.357939   0.362635
     5  C    0.016813  -0.050491  -0.016995  -0.003088  -0.035094  -0.026548
     6  C    0.331934   0.158374  -0.059685  -0.001570  -0.001837   0.002418
     7  N    6.420568   0.360985  -0.030079   0.000036  -0.000576  -0.000093
     8  C    0.360985   4.967509   0.399944  -0.004790  -0.000287   0.000903
     9  N   -0.030079   0.399944   6.460283  -0.029936  -0.005580   0.003696
    10  H    0.000036  -0.004790  -0.029936   0.586508   0.005333  -0.001500
    11  H   -0.000576  -0.000287  -0.005580   0.005333   0.613494  -0.032231
    12  H   -0.000093   0.000903   0.003696  -0.001500  -0.032231   0.593385
    13  H    0.000244   0.006086  -0.000642  -0.000083  -0.001295  -0.001864
    14  H   -0.004940   0.003073  -0.000083   0.003760   0.005511  -0.001159
    15  H   -0.080009   0.009861  -0.002606  -0.000014   0.007566   0.000140
    16  H    0.349105  -0.067464  -0.005300   0.000026  -0.000022   0.000005
    17  H   -0.041374   0.372890  -0.044862   0.004905  -0.000031  -0.000015
    18  H   -0.001823  -0.041727   0.331546   0.005613   0.004858  -0.000084
              13         14         15         16         17         18
     1  N   -0.000000  -0.000001  -0.000001  -0.000000  -0.000001   0.000296
     2  C   -0.000096   0.000393   0.000141  -0.000001   0.000026   0.001934
     3  C    0.002272  -0.004886  -0.001315  -0.000134  -0.003230  -0.040854
     4  C   -0.050757  -0.034030  -0.010627  -0.000422  -0.000428  -0.006443
     5  C    0.352081   0.348259  -0.092170   0.003749   0.003895  -0.000253
     6  C   -0.037522  -0.024890   0.386239  -0.026785  -0.012063   0.003821
     7  N    0.000244  -0.004940  -0.080009   0.349105  -0.041374  -0.001823
     8  C    0.006086   0.003073   0.009861  -0.067464   0.372890  -0.041727
     9  N   -0.000642  -0.000083  -0.002606  -0.005300  -0.044862   0.331546
    10  H   -0.000083   0.003760  -0.000014   0.000026   0.004905   0.005613
    11  H   -0.001295   0.005511   0.007566  -0.000022  -0.000031   0.004858
    12  H   -0.001864  -0.001159   0.000140   0.000005  -0.000015  -0.000084
    13  H    0.663771  -0.029993   0.002091   0.000132   0.000008   0.000097
    14  H   -0.029993   0.621535   0.007948  -0.000120  -0.000892   0.000115
    15  H    0.002091   0.007948   0.709830  -0.012224  -0.000331   0.000843
    16  H    0.000132  -0.000120  -0.012224   0.496706   0.006650   0.002974
    17  H    0.000008  -0.000892  -0.000331   0.006650   0.590870   0.005520
    18  H    0.000097   0.000115   0.000843   0.002974   0.005520   0.507813
 Mulliken charges:
               1
     1  N   -0.382312
     2  C    0.285496
     3  C   -0.082598
     4  C   -0.180778
     5  C   -0.245432
     6  C    0.004515
     7  N   -0.328029
     8  C   -0.029770
     9  N   -0.298653
    10  H    0.142910
    11  H    0.112655
    12  H    0.124145
    13  H    0.095470
    14  H    0.110400
    15  H    0.074638
    16  H    0.253126
    17  H    0.118462
    18  H    0.225754
 Sum of Mulliken charges =  -0.00000
 Mulliken charges with hydrogens summed into heavy atoms:
               1
     1  N   -0.382312
     2  C    0.285496
     3  C    0.060312
     4  C    0.056021
     5  C   -0.039562
     6  C    0.079153
     7  N   -0.074903
     8  C    0.088692
     9  N   -0.072899
 Electronic spatial extent (au):  <R**2>=           1244.7279
 Charge=             -0.0000 electrons
 Dipole moment (field-independent basis, Debye):
    X=             -3.5873    Y=              1.3609    Z=             -0.6694  Tot=              3.8947
 Quadrupole moment (field-independent basis, Debye-Ang):
   XX=            -73.9741   YY=            -53.6351   ZZ=            -48.6409
   XY=              3.9765   XZ=              5.1451   YZ=              2.0688
 Traceless Quadrupole moment (field-independent basis, Debye-Ang):
   XX=            -15.2240   YY=              5.1149   ZZ=             10.1091
   XY=              3.9765   XZ=              5.1451   YZ=              2.0688
 Octapole moment (field-independent basis, Debye-Ang**2):
  XXX=            -64.2392  YYY=              2.1243  ZZZ=             -0.9581  XYY=             -6.9323
  XXY=              4.3765  XXZ=             -3.5009  XZZ=             -5.8885  YZZ=             -4.5522
  YYZ=             -3.8812  XYZ=             -4.0002
 Hexadecapole moment (field-independent basis, Debye-Ang**3):
 XXXX=          -1525.6337 YYYY=           -364.1189 ZZZZ=           -111.9288 XXXY=             36.2870
 XXXZ=             55.9666 YYYX=             17.4147 YYYZ=              6.2381 ZZZX=              4.6739
 ZZZY=              3.7526 XXYY=           -251.9643 XXZZ=           -208.8000 YYZZ=            -74.7660
 XXYZ=             10.8120 YYXZ=              7.9083 ZZXY=              6.5908
 N-N= 4.312267138808D+02 E-N=-1.786759996115D+03  KE= 3.947968586425D+02
 PrsmSu:  requested number of processors reduced to:  13 ShMem   1 Linda.
 Calling FoFJK, ICntrl=      2127 FMM=F ISym2X=0 I1Cent= 0 IOpClX= 0 NMat=1 NMatS=1 NMatT=0.
 ***** Axes restored to original set *****
 -------------------------------------------------------------------
 Center     Atomic                   Forces (Hartrees/Bohr)
 Number     Number              X              Y              Z
 -------------------------------------------------------------------
      1        7           0.180018652   -0.001171212   -0.000231237
      2        6          -0.152166094    0.005340954   -0.001583511
      3        6          -0.022956713   -0.001683303   -0.019929664
      4        6          -0.002061973   -0.003570183    0.004291373
      5        6           0.028258143   -0.020309893    0.019081949
      6        6           0.005063965    0.003710745   -0.012071424
      7        7           0.024575968    0.020674454    0.005745243
      8        6          -0.023081968   -0.009344218   -0.008063534
      9        7          -0.015129598    0.026005151    0.008493860
     10        1           0.000068187    0.003259298   -0.003482416
     11        1           0.001062507    0.001189303    0.003364486
     12        1           0.002970933    0.000513379    0.001422908
     13        1           0.000274076   -0.004469430    0.002262118
     14        1          -0.001148774   -0.002331848    0.001955323
     15        1          -0.027317488    0.002944105   -0.007749732
     16        1           0.009951870   -0.010858703   -0.009023046
     17        1          -0.009114181   -0.010112218    0.010959678
     18        1           0.000732486    0.000213619    0.004557628
 -------------------------------------------------------------------
 Cartesian Forces:  Max     0.180018652 RMS     0.034038887

 GradGradGradGradGradGradGradGradGradGradGradGradGradGradGradGradGradGrad
 Berny optimization.
 FormGI is forming the generalized inverse of G from B-inverse, IUseBI=4.
 Internal  Forces:  Max     0.180018813 RMS     0.019296452
 Search for a local minimum.
 Step number   1 out of a maximum of  108
 All quantities printed in internal units (Hartrees-Bohrs-Radians)
 Mixed Optimization -- RFO/linear search
 Second derivative matrix not updated -- first step.
 ITU=  0
     Eigenvalues ---    0.00501   0.00501   0.00605   0.00912   0.01609
     Eigenvalues ---    0.02143   0.02354   0.02507   0.03531   0.04162
     Eigenvalues ---    0.04548   0.04866   0.05120   0.05288   0.05848
     Eigenvalues ---    0.06500   0.07227   0.07426   0.07585   0.07748
     Eigenvalues ---    0.08520   0.10017   0.10941   0.11801   0.12465
     Eigenvalues ---    0.13226   0.15595   0.17119   0.18356   0.22209
     Eigenvalues ---    0.27022   0.27993   0.30282   0.30367   0.33404
     Eigenvalues ---    0.33678   0.33825   0.34123   0.34268   0.34276
     Eigenvalues ---    0.34856   0.35392   0.35567   0.37372   0.40030
     Eigenvalues ---    0.44406   0.45604   0.79315
 RFO step:  Lambda=-6.52659430D-02 EMin= 5.01385868D-03
 Linear search not attempted -- first point.
 Maximum step size (   0.300) exceeded in Quadratic search.
    -- Step size scaled by   0.949
 Iteration  1 RMS(Cart)=  0.06050872 RMS(Int)=  0.00256888
 Iteration  2 RMS(Cart)=  0.00252405 RMS(Int)=  0.00091661
 Iteration  3 RMS(Cart)=  0.00000872 RMS(Int)=  0.00091658
 Iteration  4 RMS(Cart)=  0.00000001 RMS(Int)=  0.00091658
 Variable       Old X    -DE/DX   Delta X   Delta X   Delta X     New X
                                 (Linear)    (Quad)   (Total)
    R1        2.38287  -0.18002   0.00000  -0.19912  -0.19912   2.18375
    R2        2.87238  -0.02785   0.00000  -0.07168  -0.07168   2.80070
    R3        2.90135   0.00502   0.00000   0.02036   0.02117   2.92252
    R4        2.84559  -0.00982   0.00000  -0.02092  -0.02084   2.82475
    R5        2.07627  -0.00262   0.00000  -0.00616  -0.00616   2.07011
    R6        2.92569   0.00625   0.00000   0.01983   0.01932   2.94502
    R7        2.08349  -0.00369   0.00000  -0.00877  -0.00877   2.07472
    R8        2.06880  -0.00070   0.00000  -0.00162  -0.00162   2.06719
    R9        2.79492   0.01962   0.00000   0.04203   0.04210   2.83702
   R10        2.07124   0.00359   0.00000   0.00838   0.00838   2.07962
   R11        2.06867   0.00103   0.00000   0.00239   0.00239   2.07106
   R12        2.68117   0.00923   0.00000   0.02018   0.01929   2.70046
   R13        3.17232   0.01407   0.00000   0.02527   0.02299   3.19531
   R14        2.05043   0.01133   0.00000   0.02567   0.02567   2.07609
   R15        2.64337   0.01920   0.00000   0.04298   0.04544   2.68881
   R16        1.91281   0.00296   0.00000   0.00538   0.00538   1.91819
   R17        2.73289   0.00038   0.00000  -0.00104  -0.00040   2.73249
   R18        2.04764   0.00327   0.00000   0.00737   0.00737   2.05501
   R19        1.92672  -0.00454   0.00000  -0.00846  -0.00846   1.91826
    A1        1.92822   0.00311   0.00000   0.01270   0.01169   1.93991
    A2        1.94199  -0.00954   0.00000  -0.02692  -0.02782   1.91416
    A3        1.86255   0.00239   0.00000   0.00269   0.00215   1.86471
    A4        1.90868   0.01470   0.00000   0.06912   0.07002   1.97870
    A5        1.91485  -0.00613   0.00000  -0.02055  -0.01925   1.89560
    A6        1.90696  -0.00514   0.00000  -0.04023  -0.04130   1.86565
    A7        1.90527   0.00633   0.00000   0.04517   0.04519   1.95045
    A8        1.90469  -0.00567   0.00000  -0.03124  -0.03028   1.87441
    A9        1.93787   0.00238   0.00000   0.01031   0.00961   1.94748
   A10        1.92048   0.00034   0.00000  -0.01388  -0.01447   1.90601
   A11        1.93899  -0.00549   0.00000  -0.01927  -0.01900   1.92000
   A12        1.85591   0.00187   0.00000   0.00665   0.00650   1.86241
   A13        1.86300  -0.01105   0.00000  -0.05979  -0.06195   1.80105
   A14        1.88858   0.00020   0.00000  -0.00693  -0.00498   1.88360
   A15        1.92585   0.00450   0.00000   0.02415   0.02452   1.95037
   A16        1.93333   0.00846   0.00000   0.04243   0.04175   1.97508
   A17        1.96902   0.00108   0.00000   0.01014   0.01151   1.98052
   A18        1.88291  -0.00306   0.00000  -0.01002  -0.01089   1.87202
   A19        2.51990  -0.00903   0.00000  -0.04298  -0.04396   2.47594
   A20        1.80285  -0.00314   0.00000   0.00536   0.00797   1.81083
   A21        1.88329   0.00793   0.00000   0.01712   0.01576   1.89905
   A22        1.87954   0.00111   0.00000   0.02576   0.02807   1.90760
   A23        2.19453  -0.01105   0.00000  -0.07700  -0.07806   2.11647
   A24        1.98728   0.00053   0.00000  -0.01009  -0.00970   1.97758
   A25        1.96411  -0.00138   0.00000   0.01661   0.01654   1.98065
   A26        1.82964   0.01079   0.00000   0.04478   0.04439   1.87402
   A27        2.20225  -0.00563   0.00000  -0.03024  -0.03014   2.17212
   A28        2.38019   0.00824   0.00000   0.02850   0.02851   2.40870
   A29        1.89755  -0.00285   0.00000   0.00593   0.00600   1.90354
   A30        1.98442  -0.00570   0.00000  -0.03430  -0.03436   1.95006
   A31        1.85609  -0.01121   0.00000  -0.05902  -0.06084   1.79526
   A32        1.91458   0.00404   0.00000   0.01403   0.01328   1.92786
   A33        1.97652  -0.00131   0.00000  -0.00785  -0.00687   1.96965
   A34        3.14159  -0.00273   0.00000  -0.03691  -0.03691   3.10469
   A35        3.14159  -0.00063   0.00000  -0.00848  -0.00848   3.13311
    D1       -3.09815   0.00121   0.00000  -0.00350  -0.00420  -3.10235
    D2        1.08548   0.00040   0.00000   0.00501   0.00536   1.09084
    D3       -0.95469   0.00017   0.00000   0.00984   0.01029  -0.94440
    D4        1.04188   0.00126   0.00000  -0.02445  -0.02672   1.01516
    D5       -1.05767   0.00045   0.00000  -0.01594  -0.01716  -1.07483
    D6       -3.09785   0.00023   0.00000  -0.01111  -0.01223  -3.11007
    D7       -1.04940   0.00227   0.00000  -0.00509  -0.00639  -1.05579
    D8        3.13424   0.00146   0.00000   0.00342   0.00316   3.13740
    D9        1.09406   0.00124   0.00000   0.00825   0.00810   1.10216
   D10        3.00277   0.00304   0.00000   0.03088   0.03045   3.03322
   D11       -1.13695  -0.00311   0.00000  -0.00678  -0.00663  -1.14358
   D12       -1.14548   0.01068   0.00000   0.07628   0.07514  -1.07034
   D13        0.99798   0.00454   0.00000   0.03862   0.03806   1.03604
   D14        0.95064   0.00900   0.00000   0.06868   0.06717   1.01780
   D15        3.09410   0.00286   0.00000   0.03102   0.03009   3.12418
   D16       -1.09892   0.00728   0.00000   0.05551   0.05461  -1.04431
   D17        3.10274   0.00324   0.00000   0.04181   0.04123  -3.13922
   D18        1.04637   0.00427   0.00000   0.04431   0.04347   1.08983
   D19        0.99090   0.00445   0.00000   0.03670   0.03608   1.02699
   D20       -1.09062   0.00040   0.00000   0.02300   0.02270  -1.06792
   D21        3.13619   0.00143   0.00000   0.02550   0.02494  -3.12205
   D22        3.04147   0.00360   0.00000   0.02444   0.02402   3.06550
   D23        0.95995  -0.00044   0.00000   0.01075   0.01064   0.97059
   D24       -1.09642   0.00059   0.00000   0.01325   0.01288  -1.08354
   D25        1.89567   0.00594   0.00000   0.05980   0.05910   1.95477
   D26        1.15022  -0.00558   0.00000  -0.01786  -0.01764   1.13258
   D27       -1.20589   0.00508   0.00000   0.06261   0.06297  -1.14292
   D28       -2.33526   0.00426   0.00000   0.03933   0.03778  -2.29748
   D29       -3.08071  -0.00726   0.00000  -0.03833  -0.03896  -3.11967
   D30        0.84637   0.00340   0.00000   0.04214   0.04165   0.88802
   D31       -0.22244   0.00715   0.00000   0.06401   0.06341  -0.15904
   D32       -0.96789  -0.00437   0.00000  -0.01366  -0.01333  -0.98123
   D33        2.95919   0.00629   0.00000   0.06681   0.06728   3.02646
   D34       -2.85469  -0.01381   0.00000  -0.13068  -0.13012  -2.98481
   D35        0.24692  -0.01287   0.00000  -0.13359  -0.13417   0.11275
   D36       -1.26595  -0.00992   0.00000  -0.07539  -0.07574  -1.34169
   D37        1.09258  -0.01159   0.00000  -0.10768  -0.10872   0.98386
   D38        0.89829  -0.01013   0.00000  -0.10432  -0.10243   0.79586
   D39       -3.02637  -0.01180   0.00000  -0.13662  -0.13540   3.12141
   D40        0.64731  -0.00762   0.00000  -0.06205  -0.06222   0.58510
   D41       -2.25149  -0.00464   0.00000  -0.05698  -0.05717  -2.30866
   D42        1.21668  -0.00373   0.00000  -0.02238  -0.02282   1.19386
   D43       -0.88730  -0.00043   0.00000   0.00453   0.00368  -0.88361
   D44        2.13910   0.00159   0.00000   0.00986   0.01015   2.14925
   D45        0.03512   0.00489   0.00000   0.03678   0.03666   0.07178
   D46       -1.25380  -0.00111   0.00000   0.00899   0.00920  -1.24460
   D47        2.92541   0.00220   0.00000   0.03590   0.03570   2.96111
         Item               Value     Threshold  Converged?
 Maximum Force            0.180019     0.000450     NO 
 RMS     Force            0.019296     0.000300     NO 
 Maximum Displacement     0.265683     0.001800     NO 
 RMS     Displacement     0.061150     0.001200     NO 
 Predicted change in Energy=-3.981378D-02
 GradGradGradGradGradGradGradGradGradGradGradGradGradGradGradGradGradGrad

                          Input orientation:                          
 ---------------------------------------------------------------------
 Center     Atomic      Atomic             Coordinates (Angstroms)
 Number     Number       Type             X           Y           Z
 ---------------------------------------------------------------------
      1          7           0        1.144763    0.071147   -0.046786
      2          6           0        2.299385    0.117871   -0.039276
      3          6           0        3.781433    0.122273   -0.033110
      4          6           0        4.345080   -1.269868   -0.401893
      5          6           0        5.902251   -1.296121   -0.344875
      6          6           0        6.299496   -0.252653   -1.348480
      7          7           0        6.903769    1.038478   -1.448178
      8          6           0        5.712217    1.187454   -0.684939
      9          7           0        4.285092    1.218668   -0.915525
     10          1           0        4.093815    0.366604    0.988037
     11          1           0        4.017252   -1.496222   -1.424957
     12          1           0        3.933750   -2.053674    0.240829
     13          1           0        6.234135   -2.308932   -0.618991
     14          1           0        6.275059   -1.094168    0.665748
     15          1           0        5.990887   -0.587270   -2.348361
     16          1           0        6.841309    1.440409   -2.378181
     17          1           0        5.968352    1.558242    0.304754
     18          1           0        4.038036    1.037062   -1.883205
 ---------------------------------------------------------------------
                    Distance matrix (angstroms):
                    1          2          3          4          5
     1  N    0.000000
     2  C    1.155591   0.000000
     3  C    2.637200   1.482067   0.000000
     4  C    3.488043   2.498435   1.546530   0.000000
     5  C    4.959029   3.882448   2.570391   1.558436   0.000000
     6  C    5.326399   4.225185   2.865556   2.398020   1.501284
     7  N    6.005478   4.902333   3.548356   3.601397   2.769596
     8  C    4.744999   3.634324   2.299439   2.826237   2.513941
     9  N    3.454443   2.433639   1.494794   2.541698   3.043847
    10  H    3.139276   2.082599   1.095454   2.161730   2.794951
    11  H    3.550661   2.734314   2.147644   1.097892   2.181705
    12  H    3.517959   2.732254   2.198406   1.093907   2.189048
    13  H    5.647468   4.659152   3.502822   2.166867   1.100488
    14  H    5.309010   4.215694   2.861171   2.212588   1.095960
    15  H    5.405152   4.410927   3.278037   2.638818   2.127036
    16  H    6.305625   5.277182   4.074270   4.181205   3.536206
    17  H    5.059846   3.956557   2.637949   3.336551   2.928101
    18  H    3.560401   2.695903   2.079793   2.758712   3.359390
                    6          7          8          9         10
     6  C    0.000000
     7  N    1.429021   0.000000
     8  C    1.690885   1.422857   0.000000
     9  N    2.531809   2.678368   1.445970   0.000000
    10  H    3.272281   3.779206   2.468172   2.094313   0.000000
    11  H    2.600182   3.841512   3.259241   2.775228   3.049347
    12  H    3.371399   4.608162   3.811155   3.488383   2.538047
    13  H    2.182823   3.512992   3.535741   4.041122   3.784442
    14  H    2.183085   3.067920   2.710525   3.436510   2.644910
    15  H    1.098621   2.070444   2.448320   2.867781   3.954783
    16  H    2.054337   1.015064   2.050829   2.953435   4.475847
    17  H    2.474304   2.053760   1.087465   2.106598   2.323955
    18  H    2.657724   2.898564   2.064302   1.015098   2.949009
                   11         12         13         14         15
    11  H    0.000000
    12  H    1.758570   0.000000
    13  H    2.494924   2.469051   0.000000
    14  H    3.103286   2.565723   1.768581   0.000000
    15  H    2.360953   3.617465   2.452349   3.069617   0.000000
    16  H    4.184224   5.246115   4.185806   4.001277   2.198997
    17  H    4.016023   4.146038   3.984844   2.694377   3.412147
    18  H    2.574481   3.751672   4.197234   4.005443   2.582334
                   16         17         18
    16  H    0.000000
    17  H    2.823841   0.000000
    18  H    2.875070   2.963935   0.000000
 Stoichiometry    C6H9N3
 Framework group  C1[X(C6H9N3)]
 Deg. of freedom    48
 Full point group                 C1      NOp   1
 Largest Abelian subgroup         C1      NOp   1
 Largest concise Abelian subgroup C1      NOp   1
                         Standard orientation:                         
 ---------------------------------------------------------------------
 Center     Atomic      Atomic             Coordinates (Angstroms)
 Number     Number       Type             X           Y           Z
 ---------------------------------------------------------------------
      1          7           0        3.483675   -0.296907   -0.228841
      2          6           0        2.364756   -0.203381    0.044407
      3          6           0        0.931520   -0.029978    0.379502
      4          6           0        0.392593    1.317468   -0.155009
      5          6           0       -1.098944    1.539786    0.238203
      6          6           0       -1.797969    0.371778   -0.395023
      7          7           0       -2.495790   -0.831933   -0.069099
      8          6           0       -1.168179   -0.966265    0.424790
      9          7           0        0.155169   -1.212589   -0.103324
     10          1           0        0.859342   -0.026485    1.472571
     11          1           0        0.478020    1.294268   -1.249326
     12          1           0        1.000096    2.159179    0.190095
     13          1           0       -1.416763    2.509611   -0.173506
     14          1           0       -1.229236    1.589588    1.325250
     15          1           0       -1.718085    0.460793   -1.487115
     16          1           0       -2.687932   -1.416019   -0.876738
     17          1           0       -1.202228   -1.098742    1.503619
     18          1           0        0.172737   -1.258633   -1.117225
 ---------------------------------------------------------------------
 Rotational constants (GHZ):           3.7665149           1.1398353           0.9395236
 Standard basis: 6-31G(2df,p) (6D, 7F)
 There are   324 symmetry adapted cartesian basis functions of A   symmetry.
 There are   297 symmetry adapted basis functions of A   symmetry.
   297 basis functions,   459 primitive gaussians,   324 cartesian basis functions
    33 alpha electrons       33 beta electrons
       nuclear repulsion energy       433.9652184457 Hartrees.
 NAtoms=   18 NActive=   18 NUniq=   18 SFac= 1.00D+00 NAtFMM=   60 NAOKFM=F Big=F
 Integral buffers will be    131072 words long.
 Raffenetti 2 integral format.
 Two-electron integral symmetry is turned on.
 One-electron integrals computed using PRISM.
 PrsmSu:  requested number of processors reduced to:  13 ShMem   1 Linda.
 NBasis=   297 RedAO= T EigKep=  1.36D-04  NBF=   297
 NBsUse=   297 1.00D-06 EigRej= -1.00D+00 NBFU=   297
 Initial guess from the checkpoint file:  "NtCC1CCC2NC2N1.chk"
 B after Tr=     0.000000   -0.000000   -0.000000
         Rot=    0.999979    0.004941    0.000107   -0.004192 Ang=   0.74 deg.
 ExpMin= 1.61D-01 ExpMax= 4.17D+03 ExpMxC= 6.27D+02 IAcc=2 IRadAn=         4 AccDes= 0.00D+00
 Harris functional with IExCor=  402 and IRadAn=       4 diagonalized for initial guess.
 HarFok:  IExCor=  402 AccDes= 0.00D+00 IRadAn=         4 IDoV= 1 UseB2=F ITyADJ=14
 ICtDFT=  3500011 ScaDFX=  1.000000  1.000000  1.000000  1.000000
 FoFCou: FMM=F IPFlag=           0 FMFlag=      100000 FMFlg1=           0
         NFxFlg=           0 DoJE=T BraDBF=F KetDBF=T FulRan=T
         wScrn=  0.000000 ICntrl=       500 IOpCl=  0 I1Cent=   200000004 NGrid=           0
         NMat0=    1 NMatS0=      1 NMatT0=    0 NMatD0=    1 NMtDS0=    0 NMtDT0=    0
 Petite list used in FoFCou.
 Requested convergence on RMS density matrix=1.00D-08 within 128 cycles.
 Requested convergence on MAX density matrix=1.00D-06.
 Requested convergence on             energy=1.00D-06.
 No special actions if energy rises.
 Integral accuracy reduced to 1.0D-05 until final iterations.
 Initial convergence to 1.0D-05 achieved.  Increase integral accuracy.
 SCF Done:  E(RB3LYP) =  -398.167367926     A.U. after   13 cycles
            NFock= 13  Conv=0.47D-08     -V/T= 2.0077
 PrsmSu:  requested number of processors reduced to:  13 ShMem   1 Linda.
 Calling FoFJK, ICntrl=      2127 FMM=F ISym2X=0 I1Cent= 0 IOpClX= 0 NMat=1 NMatS=1 NMatT=0.
 ***** Axes restored to original set *****
 -------------------------------------------------------------------
 Center     Atomic                   Forces (Hartrees/Bohr)
 Number     Number              X              Y              Z
 -------------------------------------------------------------------
      1        7           0.000714630    0.000652268   -0.000278444
      2        6           0.007814126   -0.001728505   -0.000830207
      3        6          -0.013749685   -0.000708865   -0.008771290
      4        6           0.002618129   -0.002870846    0.002739749
      5        6           0.017224201   -0.009011079    0.006730362
      6        6          -0.008276995    0.012733980   -0.002247826
      7        7           0.014627440    0.018216853    0.004711511
      8        6          -0.000659790   -0.018967414   -0.016228312
      9        7          -0.001938013    0.015027919    0.006141965
     10        1           0.000045449    0.002019858    0.000110036
     11        1           0.000789082   -0.001864767    0.000746132
     12        1          -0.000917240    0.002241066    0.001913171
     13        1           0.001028018    0.000133156    0.000471405
     14        1          -0.002174551   -0.000088142   -0.000050885
     15        1          -0.018292336    0.004965667    0.003927375
     16        1           0.007821319   -0.009038446   -0.004895968
     17        1          -0.005763429   -0.010536407    0.005686665
     18        1          -0.000910356   -0.001176297    0.000124560
 -------------------------------------------------------------------
 Cartesian Forces:  Max     0.018967414 RMS     0.007718734

 GradGradGradGradGradGradGradGradGradGradGradGradGradGradGradGradGradGrad
 Berny optimization.
 Using GEDIIS/GDIIS optimizer.
 FormGI is forming the generalized inverse of G from B-inverse, IUseBI=4.
 Internal  Forces:  Max     0.009931765 RMS     0.003693201
 Search for a local minimum.
 Step number   2 out of a maximum of  108
 All quantities printed in internal units (Hartrees-Bohrs-Radians)
 Mixed Optimization -- RFO/linear search
 Update second derivatives using D2CorX and points    1    2
 DE= -4.02D-02 DEPred=-3.98D-02 R= 1.01D+00
 TightC=F SS=  1.41D+00  RLast= 4.77D-01 DXNew= 5.0454D-01 1.4303D+00
 Trust test= 1.01D+00 RLast= 4.77D-01 DXMaxT set to 5.05D-01
 ITU=  1  0
 Use linear search instead of GDIIS.
     Eigenvalues ---    0.00501   0.00503   0.00569   0.00893   0.01681
     Eigenvalues ---    0.02281   0.02411   0.02576   0.03572   0.04110
     Eigenvalues ---    0.04646   0.04801   0.05077   0.05201   0.05843
     Eigenvalues ---    0.06273   0.06996   0.07142   0.07313   0.08144
     Eigenvalues ---    0.08762   0.10489   0.10930   0.11514   0.12398
     Eigenvalues ---    0.13069   0.16092   0.18110   0.18498   0.21904
     Eigenvalues ---    0.27068   0.28006   0.30004   0.30383   0.33401
     Eigenvalues ---    0.33526   0.33832   0.34129   0.34268   0.34279
     Eigenvalues ---    0.34703   0.35457   0.35572   0.37453   0.39568
     Eigenvalues ---    0.44419   0.45604   0.90528
 RFO step:  Lambda=-1.52963545D-02 EMin= 5.01349649D-03
 Quartic linear search produced a step of  0.21067.
 Iteration  1 RMS(Cart)=  0.07499509 RMS(Int)=  0.00567318
 Iteration  2 RMS(Cart)=  0.00577326 RMS(Int)=  0.00164035
 Iteration  3 RMS(Cart)=  0.00004460 RMS(Int)=  0.00163983
 Iteration  4 RMS(Cart)=  0.00000013 RMS(Int)=  0.00163983
 Variable       Old X    -DE/DX   Delta X   Delta X   Delta X     New X
                                 (Linear)    (Quad)   (Total)
    R1        2.18375  -0.00074  -0.04195   0.02904  -0.01291   2.17084
    R2        2.80070  -0.00852  -0.01510  -0.01641  -0.03152   2.76918
    R3        2.92252  -0.00089   0.00446   0.00927   0.01507   2.93759
    R4        2.82475  -0.00139  -0.00439   0.00626   0.00255   2.82730
    R5        2.07011   0.00057  -0.00130   0.00301   0.00171   2.07182
    R6        2.94502   0.00194   0.00407   0.00680   0.01062   2.95564
    R7        2.07472  -0.00055  -0.00185  -0.00011  -0.00196   2.07275
    R8        2.06719  -0.00014  -0.00034  -0.00014  -0.00048   2.06670
    R9        2.83702   0.00766   0.00887   0.01055   0.01893   2.85594
   R10        2.07962   0.00007   0.00177  -0.00136   0.00040   2.08002
   R11        2.07106  -0.00080   0.00050  -0.00303  -0.00252   2.06854
   R12        2.70046   0.00571   0.00406   0.01993   0.02343   2.72389
   R13        3.19531  -0.00692   0.00484  -0.11189  -0.11263   3.08268
   R14        2.07609   0.00005   0.00541  -0.00465   0.00076   2.07686
   R15        2.68881   0.00676   0.00957   0.02290   0.03769   2.72650
   R16        1.91819   0.00043   0.00113   0.00010   0.00124   1.91943
   R17        2.73249   0.00319  -0.00008   0.00731   0.00752   2.74001
   R18        2.05501   0.00023   0.00155  -0.00068   0.00087   2.05588
   R19        1.91826   0.00031  -0.00178   0.00225   0.00047   1.91873
    A1        1.93991   0.00075   0.00246  -0.00139   0.00050   1.94041
    A2        1.91416  -0.00097  -0.00586   0.00961   0.00389   1.91805
    A3        1.86471   0.00097   0.00045   0.00589   0.00595   1.87065
    A4        1.97870   0.00363   0.01475   0.02542   0.03834   2.01703
    A5        1.89560  -0.00213  -0.00406  -0.01281  -0.01531   1.88030
    A6        1.86565  -0.00253  -0.00870  -0.02923  -0.03758   1.82808
    A7        1.95045   0.00261   0.00952   0.02610   0.03417   1.98463
    A8        1.87441  -0.00100  -0.00638  -0.00438  -0.01014   1.86427
    A9        1.94748  -0.00112   0.00202  -0.01633  -0.01446   1.93303
   A10        1.90601  -0.00175  -0.00305  -0.02632  -0.02912   1.87689
   A11        1.92000   0.00048  -0.00400   0.01946   0.01609   1.93608
   A12        1.86241   0.00061   0.00137  -0.00109   0.00003   1.86244
   A13        1.80105  -0.00269  -0.01305  -0.02384  -0.04039   1.76065
   A14        1.88360  -0.00217  -0.00105  -0.01022  -0.00917   1.87443
   A15        1.95037   0.00333   0.00517   0.02028   0.02596   1.97633
   A16        1.97508   0.00316   0.00880   0.01057   0.01978   1.99486
   A17        1.98052  -0.00114   0.00242  -0.00137   0.00227   1.98279
   A18        1.87202  -0.00045  -0.00229   0.00416   0.00102   1.87304
   A19        2.47594  -0.00409  -0.00926  -0.03891  -0.05266   2.42328
   A20        1.81083  -0.00059   0.00168   0.00595   0.01114   1.82197
   A21        1.89905   0.00266   0.00332   0.00122   0.00275   1.90180
   A22        1.90760   0.00146   0.00591   0.03776   0.04988   1.95749
   A23        2.11647  -0.00728  -0.01644  -0.08299  -0.10128   2.01519
   A24        1.97758   0.00066  -0.00204  -0.01084  -0.01027   1.96731
   A25        1.98065   0.00093   0.00348   0.03472   0.03855   2.01920
   A26        1.87402   0.00398   0.00935   0.00990   0.01768   1.89170
   A27        2.17212  -0.00369  -0.00635  -0.04686  -0.05439   2.11772
   A28        2.40870   0.00681   0.00601   0.02232   0.02636   2.43506
   A29        1.90354  -0.00387   0.00126   0.00799   0.01205   1.91559
   A30        1.95006  -0.00314  -0.00724  -0.02493  -0.03330   1.91675
   A31        1.79526  -0.00218  -0.01282  -0.00802  -0.02303   1.77223
   A32        1.92786   0.00253   0.00280   0.00669   0.00851   1.93637
   A33        1.96965  -0.00253  -0.00145  -0.01003  -0.01018   1.95948
   A34        3.10469   0.00143  -0.00778   0.12969   0.12191   3.22660
   A35        3.13311  -0.00037  -0.00179  -0.00940  -0.01119   3.12193
    D1       -3.10235  -0.00070  -0.00089  -0.05566  -0.05718   3.12365
    D2        1.09084   0.00055   0.00113  -0.03593  -0.03471   1.05613
    D3       -0.94440   0.00104   0.00217  -0.02303  -0.02111  -0.96551
    D4        1.01516  -0.00274  -0.00563  -0.08663  -0.09328   0.92188
    D5       -1.07483  -0.00149  -0.00362  -0.06691  -0.07081  -1.14564
    D6       -3.11007  -0.00101  -0.00258  -0.05401  -0.05721   3.11590
    D7       -1.05579  -0.00038  -0.00135  -0.05708  -0.05893  -1.11472
    D8        3.13740   0.00087   0.00067  -0.03735  -0.03645   3.10095
    D9        1.10216   0.00135   0.00171  -0.02445  -0.02285   1.07931
   D10        3.03322   0.00353   0.00642   0.05977   0.06587   3.09909
   D11       -1.14358   0.00055  -0.00140   0.04669   0.04503  -1.09855
   D12       -1.07034   0.00643   0.01583   0.08414   0.09935  -0.97099
   D13        1.03604   0.00345   0.00802   0.07106   0.07852   1.11456
   D14        1.01780   0.00425   0.01415   0.06377   0.07699   1.09479
   D15        3.12418   0.00127   0.00634   0.05070   0.05616  -3.10284
   D16       -1.04431   0.00332   0.01151   0.05567   0.06827  -0.97604
   D17       -3.13922   0.00206   0.00869   0.06036   0.06960  -3.06962
   D18        1.08983   0.00205   0.00916   0.04998   0.05913   1.14896
   D19        1.02699   0.00255   0.00760   0.04931   0.05723   1.08422
   D20       -1.06792   0.00129   0.00478   0.05400   0.05856  -1.00936
   D21       -3.12205   0.00128   0.00525   0.04362   0.04808  -3.07397
   D22        3.06550   0.00254   0.00506   0.04380   0.04925   3.11474
   D23        0.97059   0.00128   0.00224   0.04849   0.05058   1.02116
   D24       -1.08354   0.00126   0.00271   0.03811   0.04010  -1.04344
   D25        1.95477   0.00799   0.01245   0.12338   0.13318   2.08795
   D26        1.13258  -0.00108  -0.00372   0.02247   0.01909   1.15167
   D27       -1.14292   0.00656   0.01327   0.11909   0.13243  -1.01048
   D28       -2.29748   0.00531   0.00796   0.10210   0.10737  -2.19011
   D29       -3.11967  -0.00376  -0.00821   0.00119  -0.00671  -3.12638
   D30        0.88802   0.00389   0.00877   0.09782   0.10663   0.99465
   D31       -0.15904   0.00630   0.01336   0.11494   0.12653  -0.03250
   D32       -0.98123  -0.00277  -0.00281   0.01403   0.01245  -0.96878
   D33        3.02646   0.00488   0.01417   0.11066   0.12579  -3.13093
   D34       -2.98481  -0.00993  -0.02741  -0.14870  -0.17420   3.12418
   D35        0.11275  -0.00848  -0.02826  -0.14496  -0.17424  -0.06149
   D36       -1.34169  -0.00272  -0.01596  -0.07043  -0.08754  -1.42923
   D37        0.98386  -0.00684  -0.02290  -0.14895  -0.17259   0.81127
   D38        0.79586  -0.00457  -0.02158  -0.11971  -0.13786   0.65801
   D39        3.12141  -0.00869  -0.02853  -0.19823  -0.22290   2.89851
   D40        0.58510  -0.00597  -0.01311  -0.07712  -0.09093   0.49417
   D41       -2.30866  -0.00389  -0.01204  -0.10439  -0.11822  -2.42688
   D42        1.19386  -0.00105  -0.00481   0.00276  -0.00377   1.19009
   D43       -0.88361  -0.00148   0.00078   0.00463   0.00465  -0.87896
   D44        2.14925   0.00546   0.00214   0.05313   0.05355   2.20280
   D45        0.07178   0.00503   0.00772   0.05500   0.06197   0.13375
   D46       -1.24460   0.00332   0.00194   0.08419   0.08517  -1.15943
   D47        2.96111   0.00289   0.00752   0.08605   0.09359   3.05470
         Item               Value     Threshold  Converged?
 Maximum Force            0.009932     0.000450     NO 
 RMS     Force            0.003693     0.000300     NO 
 Maximum Displacement     0.416748     0.001800     NO 
 RMS     Displacement     0.075792     0.001200     NO 
 Predicted change in Energy=-1.521418D-02
 GradGradGradGradGradGradGradGradGradGradGradGradGradGradGradGradGradGrad

                          Input orientation:                          
 ---------------------------------------------------------------------
 Center     Atomic      Atomic             Coordinates (Angstroms)
 Number     Number       Type             X           Y           Z
 ---------------------------------------------------------------------
      1          7           0        1.161062    0.139578   -0.162067
      2          6           0        2.306240    0.078476   -0.095119
      3          6           0        3.770436    0.119531   -0.052561
      4          6           0        4.380347   -1.278899   -0.350701
      5          6           0        5.944289   -1.297061   -0.345413
      6          6           0        6.245399   -0.228292   -1.370640
      7          7           0        6.925829    1.040040   -1.448404
      8          6           0        5.704104    1.151371   -0.689017
      9          7           0        4.273489    1.239095   -0.908110
     10          1           0        4.057064    0.398090    0.968347
     11          1           0        4.049928   -1.561000   -1.357840
     12          1           0        3.978598   -2.030940    0.334213
     13          1           0        6.262654   -2.308946   -0.639139
     14          1           0        6.375195   -1.093080    0.639939
     15          1           0        5.770353   -0.502860   -2.322900
     16          1           0        6.902552    1.441140   -2.381282
     17          1           0        5.934974    1.400279    0.344582
     18          1           0        4.023568    1.092778   -1.881279
 ---------------------------------------------------------------------
                    Distance matrix (angstroms):
                    1          2          3          4          5
     1  N    0.000000
     2  C    1.148759   0.000000
     3  C    2.611747   1.465389   0.000000
     4  C    3.522989   2.491929   1.554505   0.000000
     5  C    4.997680   3.897454   2.611155   1.564056   0.000000
     6  C    5.238937   4.151871   2.825554   2.371174   1.511299
     7  N    5.974783   4.908827   3.571025   3.614126   2.764425
     8  C    4.684083   3.612382   2.282289   2.788011   2.484064
     9  N    3.384186   2.424470   1.496145   2.581165   3.088735
    10  H    3.119533   2.073281   1.096360   2.157937   2.856768
    11  H    3.559126   2.706066   2.146172   1.096854   2.164088
    12  H    3.591093   2.725939   2.194870   1.093653   2.205541
    13  H    5.678829   4.652844   3.528842   2.165011   1.100701
    14  H    5.417549   4.297586   2.955461   2.235019   1.094626
    15  H    5.131032   4.159452   3.088929   2.534546   2.138098
    16  H    6.291556   5.311259   4.120648   4.228875   3.544118
    17  H    4.963496   3.886928   2.546225   3.174630   2.784209
    18  H    3.472495   2.677385   2.086983   2.845139   3.429196
                    6          7          8          9         10
     6  C    0.000000
     7  N    1.441422   0.000000
     8  C    1.631282   1.442801   0.000000
     9  N    2.501118   2.714120   1.449951   0.000000
    10  H    3.263745   3.805601   2.455002   2.067660   0.000000
    11  H    2.568340   3.878713   3.246626   2.844779   3.041255
    12  H    3.360722   4.614630   3.761845   3.510478   2.511667
    13  H    2.205564   3.508620   3.505462   4.076483   3.844045
    14  H    2.192517   3.035552   2.693334   3.500380   2.775819
    15  H    1.099025   2.116697   2.326036   2.697525   3.818296
    16  H    2.059187   1.015719   2.093801   3.020436   4.517165
    17  H    2.385496   2.079991   1.087926   2.087043   2.218110
    18  H    2.634865   2.934839   2.061341   1.015346   2.933272
                   11         12         13         14         15
    11  H    0.000000
    12  H    1.757549   0.000000
    13  H    2.443791   2.498322   0.000000
    14  H    3.101119   2.591665   1.768343   0.000000
    15  H    2.238496   3.550446   2.517809   3.081008   0.000000
    16  H    4.265881   5.289496   4.184218   3.978461   2.250426
    17  H    3.901386   3.949782   3.851419   2.549092   3.280929
    18  H    2.705036   3.829889   4.257716   4.082238   2.406730
                   16         17         18
    16  H    0.000000
    17  H    2.892786   0.000000
    18  H    2.942772   2.949998   0.000000
 Stoichiometry    C6H9N3
 Framework group  C1[X(C6H9N3)]
 Deg. of freedom    48
 Full point group                 C1      NOp   1
 Largest Abelian subgroup         C1      NOp   1
 Largest concise Abelian subgroup C1      NOp   1
                         Standard orientation:                         
 ---------------------------------------------------------------------
 Center     Atomic      Atomic             Coordinates (Angstroms)
 Number     Number       Type             X           Y           Z
 ---------------------------------------------------------------------
      1          7           0        3.451512   -0.334609   -0.246868
      2          6           0        2.356114   -0.133404    0.034680
      3          6           0        0.939045   -0.001301    0.383719
      4          6           0        0.359172    1.348763   -0.123784
      5          6           0       -1.159893    1.540505    0.195506
      6          6           0       -1.744595    0.303482   -0.446306
      7          7           0       -2.496862   -0.865150   -0.064086
      8          6           0       -1.144225   -0.932084    0.433474
      9          7           0        0.193112   -1.225807   -0.043618
     10          1           0        0.873605   -0.002512    1.478123
     11          1           0        0.470508    1.351741   -1.214969
     12          1           0        0.947095    2.189752    0.254582
     13          1           0       -1.477400    2.485740   -0.270609
     14          1           0       -1.369379    1.619102    1.267021
     15          1           0       -1.480679    0.295888   -1.513145
     16          1           0       -2.706887   -1.471348   -0.851550
     17          1           0       -1.150871   -0.907865    1.521110
     18          1           0        0.225969   -1.337303   -1.052289
 ---------------------------------------------------------------------
 Rotational constants (GHZ):           3.7333514           1.1527799           0.9465052
 Standard basis: 6-31G(2df,p) (6D, 7F)
 There are   324 symmetry adapted cartesian basis functions of A   symmetry.
 There are   297 symmetry adapted basis functions of A   symmetry.
   297 basis functions,   459 primitive gaussians,   324 cartesian basis functions
    33 alpha electrons       33 beta electrons
       nuclear repulsion energy       434.7981534762 Hartrees.
 NAtoms=   18 NActive=   18 NUniq=   18 SFac= 1.00D+00 NAtFMM=   60 NAOKFM=F Big=F
 Integral buffers will be    131072 words long.
 Raffenetti 2 integral format.
 Two-electron integral symmetry is turned on.
 One-electron integrals computed using PRISM.
 PrsmSu:  requested number of processors reduced to:  13 ShMem   1 Linda.
 NBasis=   297 RedAO= T EigKep=  1.37D-04  NBF=   297
 NBsUse=   297 1.00D-06 EigRej= -1.00D+00 NBFU=   297
 Initial guess from the checkpoint file:  "NtCC1CCC2NC2N1.chk"
 B after Tr=    -0.000000    0.000000    0.000000
         Rot=    0.999897    0.013042    0.002319   -0.005594 Ang=   1.65 deg.
 ExpMin= 1.61D-01 ExpMax= 4.17D+03 ExpMxC= 6.27D+02 IAcc=2 IRadAn=         4 AccDes= 0.00D+00
 Harris functional with IExCor=  402 and IRadAn=       4 diagonalized for initial guess.
 HarFok:  IExCor=  402 AccDes= 0.00D+00 IRadAn=         4 IDoV= 1 UseB2=F ITyADJ=14
 ICtDFT=  3500011 ScaDFX=  1.000000  1.000000  1.000000  1.000000
 FoFCou: FMM=F IPFlag=           0 FMFlag=      100000 FMFlg1=           0
         NFxFlg=           0 DoJE=T BraDBF=F KetDBF=T FulRan=T
         wScrn=  0.000000 ICntrl=       500 IOpCl=  0 I1Cent=   200000004 NGrid=           0
         NMat0=    1 NMatS0=      1 NMatT0=    0 NMatD0=    1 NMtDS0=    0 NMtDT0=    0
 Petite list used in FoFCou.
 Requested convergence on RMS density matrix=1.00D-08 within 128 cycles.
 Requested convergence on MAX density matrix=1.00D-06.
 Requested convergence on             energy=1.00D-06.
 No special actions if energy rises.
 Integral accuracy reduced to 1.0D-05 until final iterations.
 Initial convergence to 1.0D-05 achieved.  Increase integral accuracy.
 SCF Done:  E(RB3LYP) =  -398.184237112     A.U. after   12 cycles
            NFock= 12  Conv=0.87D-08     -V/T= 2.0077
 PrsmSu:  requested number of processors reduced to:  13 ShMem   1 Linda.
 Calling FoFJK, ICntrl=      2127 FMM=F ISym2X=0 I1Cent= 0 IOpClX= 0 NMat=1 NMatS=1 NMatT=0.
 ***** Axes restored to original set *****
 -------------------------------------------------------------------
 Center     Atomic                   Forces (Hartrees/Bohr)
 Number     Number              X              Y              Z
 -------------------------------------------------------------------
      1        7          -0.016245936   -0.003221745   -0.000348198
      2        6           0.016286702    0.006610278   -0.001944731
      3        6          -0.001557378   -0.002084907   -0.001173968
      4        6           0.003748908   -0.002786098   -0.000454708
      5        6           0.010261998   -0.008916542   -0.002079112
      6        6          -0.013958948    0.018586815    0.013777013
      7        7           0.007608697    0.013602981    0.001811433
      8        6           0.007122897   -0.028329070   -0.020269260
      9        7          -0.003428705    0.014359469    0.001653740
     10        1          -0.001811076    0.000049230    0.001481821
     11        1          -0.000591816   -0.002889875    0.000675141
     12        1          -0.000687939    0.002018673    0.001877466
     13        1           0.001625686    0.000746173    0.000818644
     14        1          -0.002267174    0.000983657   -0.000201369
     15        1          -0.006517665    0.005505558    0.005270034
     16        1           0.003272576   -0.005470510   -0.002451289
     17        1          -0.001355838   -0.007429901    0.001296448
     18        1          -0.001504988   -0.001334185    0.000260893
 -------------------------------------------------------------------
 Cartesian Forces:  Max     0.028329070 RMS     0.008062706

 GradGradGradGradGradGradGradGradGradGradGradGradGradGradGradGradGradGrad
 Berny optimization.
 Using GEDIIS/GDIIS optimizer.
 FormGI is forming the generalized inverse of G from B-inverse, IUseBI=4.
 Internal  Forces:  Max     0.016044304 RMS     0.003430440
 Search for a local minimum.
 Step number   3 out of a maximum of  108
 All quantities printed in internal units (Hartrees-Bohrs-Radians)
 Mixed Optimization -- RFO/linear search
 Update second derivatives using D2CorX and points    2    3
 DE= -1.69D-02 DEPred=-1.52D-02 R= 1.11D+00
 TightC=F SS=  1.41D+00  RLast= 6.73D-01 DXNew= 8.4853D-01 2.0192D+00
 Trust test= 1.11D+00 RLast= 6.73D-01 DXMaxT set to 8.49D-01
 ITU=  1  1  0
 Use linear search instead of GDIIS.
     Eigenvalues ---    0.00302   0.00501   0.00615   0.00887   0.01972
     Eigenvalues ---    0.02312   0.02530   0.02884   0.03354   0.04159
     Eigenvalues ---    0.04426   0.04800   0.05036   0.05239   0.05832
     Eigenvalues ---    0.06339   0.06668   0.07162   0.07239   0.08454
     Eigenvalues ---    0.08894   0.10194   0.10750   0.10996   0.12298
     Eigenvalues ---    0.12698   0.16592   0.18568   0.19082   0.21722
     Eigenvalues ---    0.27100   0.28013   0.30377   0.30589   0.33320
     Eigenvalues ---    0.33415   0.33816   0.33943   0.34132   0.34268
     Eigenvalues ---    0.34281   0.35520   0.35613   0.37596   0.40798
     Eigenvalues ---    0.44418   0.45605   0.93953
 RFO step:  Lambda=-2.00403909D-02 EMin= 3.01680395D-03
 Quartic linear search produced a step of  0.91048.
 Iteration  1 RMS(Cart)=  0.11451941 RMS(Int)=  0.03450497
 Iteration  2 RMS(Cart)=  0.04484181 RMS(Int)=  0.00987142
 Iteration  3 RMS(Cart)=  0.01490441 RMS(Int)=  0.00528018
 Iteration  4 RMS(Cart)=  0.00055216 RMS(Int)=  0.00525112
 Iteration  5 RMS(Cart)=  0.00000052 RMS(Int)=  0.00525112
 Variable       Old X    -DE/DX   Delta X   Delta X   Delta X     New X
                                 (Linear)    (Quad)   (Total)
    R1        2.17084   0.01604  -0.01175   0.01800   0.00624   2.17708
    R2        2.76918  -0.00007  -0.02869  -0.01082  -0.03952   2.72966
    R3        2.93759   0.00108   0.01372   0.02011   0.03803   2.97562
    R4        2.82730   0.00098   0.00232   0.00651   0.01098   2.83829
[...]
 .2084353,-0.0248624,-0.1632105,0.0026188,-0.25991,0.1591751,-0.6454293
 ,-0.3220935,0.2063619,-0.2578536,-0.2567355,0.1825618,0.1413052,0.1833
 103,-0.2154611,0.6727493,0.0884008,-0.0978706,0.0791918,0.1405534,-0.0
 485923,0.046836,0.1161994,0.2534778,-0.5983324,0.1050869,0.0793602,0.0
 799839,-0.5462266,0.1380358,0.0619372,0.0342479,-0.2098567,-0.0057151,
 0.0040856,-0.0365598,-0.0135879,0.0063695,-0.0208414,0.0036284,-0.0112
 45,-0.0574652,-0.0129926,-0.0010827,-0.0407504,0.0087212,0.0116258,-0.
 0280973,-0.0576531,-0.0679359,-0.0653475,-0.0013402,-0.0489296,0.05516
 13,-0.0270756,-0.0243693,0.0602354,0.0588128,0.0800412,-0.0294382,-0.0
 312046,0.0628283,0.0147152,0.0696774,-0.1797787,-0.0154652,0.0286823,-
 0.0436606,0.0337225,-0.0129191,-0.00111,-0.0471555,-0.034567,0.0267595
 ,-0.0426196,-0.0740254,0.0097176,-0.0792773,0.0020331,-0.0808873,-0.11
 43316,-0.0495573,-0.0410891,0.035444,-0.0812566,0.0065837,-0.0745692,0
 .2340451,0.0608445,-0.1069006,0.0113951,0.1386529,0.0122197,-0.0024926
 ,0.0279171,0.0379764,-0.018784,0.0135352,0.0141062,0.0558561,0.0638585
 ,-0.0014768,-0.0035636,-0.0225306,-0.1032062,0.1229311,-0.0580616,0.02
 71448,-0.0850726,0.227363,-0.0972837,-0.0455539,0.0026449,0.0130892\Po
 lar=94.3512844,2.620629,70.9317646,-4.1264796,-3.9454596,65.2355642\Qu
 adrupole=-12.2627112,3.1756776,9.0870336,-0.9690039,-0.3274442,-1.7226
 054\PG=C01 [X(C6H9N3)]\NImag=0\\1.21197654,0.10549046,0.02726786,0.212
 97975,0.01943118,0.05615998,-1.20957499,-0.10429190,-0.20952313,1.5188
 3642,-0.10382395,-0.04517441,-0.01966649,0.12230638,0.12287688,-0.2074
 5735,-0.01941098,-0.07442296,0.24557361,0.02082441,0.15216566,-0.00229
 863,-0.00178538,-0.00324005,-0.24542543,-0.00967186,-0.03406105,0.5070
 5691,-0.00211534,0.01721934,0.00060669,-0.01102330,-0.06564630,-0.0046
 7030,0.02904497,0.32726045,-0.00619005,-0.00034688,0.01672357,-0.03067
 302,-0.00109643,-0.07397810,0.04292093,0.04783175,0.53494224,0.0000510
 0,-0.00262171,-0.00101085,-0.02292618,0.02977512,0.00499973,-0.0806867
 7,0.00562689,0.00394397,0.41963515,-0.00561334,-0.00223715,-0.00171138
 ,0.01393236,0.00178978,0.00196980,0.00625662,-0.09604076,-0.01383406,0
 .07536739,0.43389129,-0.00017174,-0.00069866,-0.00006514,-0.00396616,0
 .00341856,0.00052598,0.00678435,-0.00999147,-0.08227783,0.00135395,-0.
 02382161,0.59653625,0.00113915,0.00019576,0.00021729,-0.00162123,0.000
 73185,0.00044323,-0.00852866,0.00655163,-0.00023698,-0.13132485,-0.000
 27980,-0.00029205,0.39128191,0.00122613,0.00101635,0.00050718,-0.00000
 821,-0.00501114,-0.00125541,0.02702736,0.00659319,-0.00294255,0.005915
 60,-0.07333360,-0.00716216,-0.04261735,0.56709823,0.00006776,0.0003627
 5,0.00034600,0.00027883,-0.00093765,-0.00029039,0.00523479,-0.00137475
 ,-0.00022671,-0.00006767,-0.00605913,-0.07485539,0.08603012,0.05141379
 ,0.54716734,0.00048844,-0.00026187,0.00016794,-0.00011382,0.00084398,-
 0.00058380,0.00100648,0.00808421,-0.00046236,-0.01832618,-0.02606230,0
 .02421351,-0.05886563,-0.00915057,-0.01412293,0.34827852,-0.00023378,0
 .00032826,-0.00024025,0.00045202,-0.00139895,0.00054664,-0.00251872,-0
 .00179438,0.00283888,-0.01756607,-0.01183145,0.01396269,-0.02122533,-0
 .13447195,0.06780238,0.05253564,0.55868501,-0.00038751,-0.00012105,-0.
 00026768,-0.00012887,0.00093380,0.00018944,0.00043896,-0.00330103,0.00
 077742,0.01436379,0.00863018,-0.00632363,-0.00436336,0.06925426,-0.130
 97389,0.11356272,-0.00137689,0.53045847,-0.00062301,0.00012458,-0.0003
 3052,0.00063814,-0.00112311,0.00160691,-0.00539921,0.00273937,-0.00194
 871,0.00070173,-0.00140198,0.00133217,0.00611088,0.00099753,0.00686831
 ,-0.05943075,-0.08404147,-0.03389029,0.26140733,-0.00043171,0.00010971
 ,-0.00017835,-0.00005320,0.00010811,0.00008287,-0.00022806,-0.00412912
 ,-0.00037161,0.00037874,-0.00149304,0.00159374,-0.00364532,-0.00297111
 ,-0.00255060,-0.07796266,-0.12068898,-0.01587736,0.05770228,0.21770343
 ,0.00002907,0.00012858,-0.00018507,-0.00034467,-0.00077476,0.00104845,
 -0.00203632,0.00043936,-0.00052369,0.00010144,0.00508661,-0.00442493,0
 .01896013,-0.00924274,0.00081720,-0.00524172,0.05311647,-0.06400632,-0
 .04438277,-0.15068063,0.57135440,0.00038388,0.00061184,-0.00041097,-0.
 00448405,-0.00365443,0.00155992,-0.04758689,-0.01473396,0.01653196,0.0
 0228683,-0.00166348,-0.00270657,-0.00253603,0.00716645,0.00040077,-0.0
 5253278,0.08943317,0.02325115,-0.14750119,0.00547073,0.08656047,0.5040
 3738,-0.00032225,0.00044342,-0.00044045,-0.00263249,-0.00377109,0.0027
 7242,-0.02607301,0.00153663,0.00495183,0.00083657,-0.00209842,-0.00154
 603,0.01202887,-0.05214006,-0.00581155,0.01363243,-0.18414828,-0.05622
 824,0.03139885,-0.00471374,0.01202491,-0.08034369,0.36141934,0.0005422
 7,-0.00075471,0.00134041,0.00298440,0.00407284,-0.00438676,0.02330207,
 -0.00105512,0.00409865,0.00040163,0.00233955,0.00063547,-0.00949120,0.
 01724289,0.00726518,-0.00168192,-0.10407109,-0.08725609,0.06128195,0.0
 5309797,-0.12432837,-0.00819754,0.05481387,0.63969601,0.00182629,0.001
 92240,-0.00197963,-0.02769869,-0.02853154,0.02045192,-0.07000976,-0.02
 702096,-0.00426482,0.00740408,-0.00003071,-0.00356535,-0.00401347,-0.0
 0539671,0.00273671,-0.03990974,0.02417275,0.00188883,-0.00569958,0.003
 19995,0.00223290,-0.18451190,0.06809272,-0.01011090,0.41302246,0.00428
 620,0.00038746,0.00137293,-0.01547765,-0.00517132,0.00161950,-0.000642
 47,-0.09449740,0.00652001,-0.01026244,-0.02100155,0.01824406,0.0011755
 8,0.00019467,-0.00125556,0.04441325,-0.02084794,0.00634213,-0.01478607
 ,0.00063240,-0.01134611,0.01284590,-0.05233133,0.01627785,-0.00987196,
 0.22376329,-0.00230807,0.00100000,-0.00063593,0.00325936,-0.00389348,0
 .00218556,-0.00079865,0.04905951,-0.10452279,-0.00121451,0.00285483,0.
 00364707,0.00101221,0.00191693,-0.00154170,0.01542110,-0.00753837,0.00
 061937,0.00791274,-0.01425080,0.00822044,-0.02695306,0.01862155,-0.101
 48963,0.11239524,-0.03498176,0.59138022,-0.00220448,0.00100206,0.00402
 408,-0.01124468,-0.00962279,-0.03595019,-0.05299496,-0.00913312,-0.037
 15964,0.00359978,0.00567893,0.01406995,0.00048067,-0.00019347,0.000230
 23,-0.00015596,0.00023421,-0.00009770,0.00014861,0.00021553,-0.0003009
 3,0.00106786,-0.00093661,0.00285611,0.00247045,0.00048014,0.01313364,0
 .06104816,0.00050177,0.00059652,0.00005608,-0.00140058,-0.00088432,-0.
 00183130,-0.01038159,-0.05608635,-0.07042654,-0.00280828,-0.01278997,-
 0.02626115,-0.00035844,0.00001972,0.00010232,-0.00072450,0.00002705,0.
 00007140,-0.00007789,0.00029715,-0.00014129,0.00172271,-0.00053947,0.0
 0120511,0.00148622,-0.00234649,0.03112345,0.01264365,0.07729822,0.0023
 7639,0.00023211,0.00068905,-0.00755711,-0.00196129,-0.00488021,-0.0338
 2139,-0.06564773,-0.27581670,-0.00106442,-0.00299742,-0.00483833,0.000
 22749,0.00004725,-0.00002168,0.00029038,-0.00004114,-0.00016468,0.0004
 2197,-0.00043573,0.00072070,-0.00234084,-0.00036403,-0.00103950,-0.000
 69468,0.00734694,-0.02140080,0.03795830,0.06280876,0.30465955,-0.00008
 169,-0.00024022,-0.00023627,0.00113383,0.00100348,0.00153358,0.0025474
 6,0.00613898,0.01167809,-0.08433716,-0.04160551,-0.08631501,-0.0169520
 9,-0.01185655,-0.02632247,-0.00003479,0.00147975,-0.00249516,0.0005530
 4,-0.00002970,0.00074776,-0.00068490,-0.00015311,0.00000302,-0.0000776
 5,-0.00027439,-0.00066053,-0.00060233,0.00303338,0.00035459,0.09876127
 ,0.00050690,0.00030845,0.00045213,-0.00205422,0.00024528,-0.00065414,-
 0.00817112,-0.01360086,-0.02723329,-0.04157498,-0.08664293,-0.08378053
 ,0.00186002,0.00021569,0.00118206,-0.00063425,-0.00031264,-0.00085100,
 0.00021086,0.00007100,0.00031550,0.00020286,-0.00012466,-0.00000823,-0
 .00018811,0.00036293,0.00117226,0.00300492,-0.00463140,-0.00082978,0.0
 3940031,0.09529999,0.00044756,0.00041818,0.00019190,-0.00037260,-0.000
 35959,0.00020250,-0.00002223,-0.00082822,-0.00353518,-0.08439066,-0.08
 405060,-0.22909787,0.00114819,0.00188808,0.00182195,0.00124253,0.00058
 804,0.00002746,-0.00020086,-0.00005470,0.00026520,0.00029497,0.0000085
 8,0.00007373,-0.00030860,-0.00055967,0.00082860,0.00055218,-0.00068282
 ,0.00131019,0.09088954,0.09320361,0.24645222,-0.00002944,-0.00013602,0
 .00013750,0.00018857,0.00021530,-0.00048480,0.00313908,0.00745016,-0.0
 0854230,-0.06924983,-0.04565534,0.06395481,-0.00861845,-0.01702647,0.0
 2275197,-0.00654160,-0.00239616,-0.00063546,-0.00038125,-0.00028345,0.
 00246647,-0.00164020,0.00108564,-0.00004856,-0.00040358,0.00284039,0.0
 0026641,0.00053164,-0.00042034,-0.00015513,0.00366709,0.00729961,-0.00
 997275,0.07687247,0.00048068,0.00033821,-0.00006701,-0.00076456,-0.000
 28008,0.00014495,-0.00755957,-0.01767912,0.02178731,-0.04478594,-0.127
 39704,0.11358976,-0.00009808,0.00084026,-0.00118390,0.00001687,0.00019
 221,-0.00029316,-0.00007493,0.00052148,0.00007087,0.00225153,-0.000322
 00,0.00061670,0.00054802,-0.00508678,-0.00083331,-0.00100360,0.0010177
 1,-0.00006999,0.00401169,0.00778204,-0.01023779,0.04751189,0.14012635,
 -0.00027796,-0.00027307,0.00003625,0.00023652,0.00043254,0.00019119,-0
 .00174344,-0.00469834,0.00288562,0.06290057,0.11504051,-0.20466814,-0.
 00177944,-0.00060509,0.00022044,0.00057346,0.00102141,-0.00050113,0.00
 006157,-0.00043308,0.00049242,0.00014379,-0.00040859,-0.00012428,0.000
 25639,-0.00170241,0.00104284,-0.00044493,0.00011801,0.00105903,0.00821
 526,0.01546316,-0.02075005,-0.06912644,-0.12311786,0.21888824,-0.00050
 446,-0.00032328,-0.00018158,0.00031072,0.00149470,0.00031579,-0.005195
 41,-0.00393759,0.00076330,-0.01202495,0.02885592,0.01070529,-0.0657727
 1,0.06152514,0.02285432,0.00239012,-0.00516280,-0.00485200,0.00051081,
 -0.00084867,-0.00069589,0.00061127,-0.00170718,0.00054623,0.00142396,0
 .00049332,-0.00035837,-0.00008532,0.00015734,0.00010324,0.00158264,0.0
 0018701,-0.00059516,0.00055473,-0.00042392,0.00037749,0.07155305,-0.00
 001948,-0.00009298,-0.00002185,-0.00003094,0.00031249,0.00005340,-0.00
 148053,0.00132505,0.00077578,0.00038538,0.00105558,-0.00068536,0.06142
 205,-0.25544786,-0.07938914,0.00431513,-0.01732487,-0.00882647,-0.0000
 0287,-0.00207547,-0.00037278,-0.00032241,-0.00288637,0.00528989,0.0009
 7877,-0.00141086,-0.00039060,-0.00003911,0.00004599,0.00001081,0.00028
 149,0.00070696,0.00027851,0.00067548,0.00001476,-0.00008671,-0.0679987
 9,0.27859552,-0.00000698,0.00005781,-0.00002320,0.00026863,-0.00043092
 ,0.00016153,0.00033377,0.00062643,0.00033475,-0.00075604,-0.00290427,-
 0.00158080,0.02360299,-0.07963008,-0.08189286,-0.00553238,0.01776512,0
 .00979638,-0.00025699,0.00028701,0.00101231,0.00042230,0.00388756,-0.0
 0223375,-0.00084635,0.00052168,0.00045933,-0.00026379,0.00033831,0.000
 01999,-0.00016870,0.00050238,0.00088535,0.00002302,-0.00006457,-0.0002
 2197,-0.02484480,0.08475541,0.08138445,-0.00001259,0.00007739,0.000032
 50,0.00002141,-0.00002893,0.00025249,0.00059579,-0.00040055,-0.0005426
 9,-0.01398444,-0.00623067,-0.02749679,-0.09761524,-0.01947333,-0.10392
 507,0.00337219,0.00102714,0.00749544,-0.00014874,0.00104051,-0.0002003
 2,0.00012291,0.00023617,-0.00052360,-0.00004785,0.00018770,0.00032852,
 -0.00022139,0.00054365,0.00032003,-0.00581283,0.00068179,0.00072907,0.
 00167676,-0.00012559,0.00035704,0.00429655,0.00144458,0.00807516,0.106
 79299,-0.00004080,-0.00001373,0.00000270,0.00008420,0.00004374,-0.0000
 5036,-0.00005296,-0.00008302,0.00078067,-0.00063530,-0.00117549,-0.000
 13404,-0.02085676,-0.05790599,-0.04423997,0.01315895,0.00250157,0.0206
 2400,-0.00174006,0.00068137,-0.00080497,0.00071082,0.00146655,0.001718
 85,0.00042966,0.00004202,-0.00016368,0.00000921,0.00019065,-0.00005732
 ,-0.00045978,0.00078846,0.00059206,-0.00025614,0.00015275,-0.00010725,
 -0.01300376,-0.00407632,-0.02490501,0.02196305,0.06164123,-0.00002273,
 -0.00003152,-0.00000743,0.00000267,0.00012198,0.00002276,-0.00040977,0
 .00006070,0.00010463,0.00317650,0.00125168,0.00554383,-0.10432521,-0.0
 4147157,-0.24953510,-0.01090421,-0.00371925,-0.02005376,0.00125004,-0.
 00015841,0.00093039,0.00043887,-0.00220777,-0.00037340,-0.00003714,-0.
 00002612,0.00062728,-0.00018926,0.00015586,-0.00006289,0.00175134,0.00
 003218,0.00085134,-0.00065626,-0.00003324,0.00069474,-0.00452048,-0.00
 169462,-0.00887921,0.11401977,0.04372697,0.27023669,0.00005708,0.00001
 020,0.00002989,-0.00007903,-0.00001431,-0.00000927,0.00013238,0.000223
 70,0.00020824,0.00009402,-0.00129838,0.00207177,-0.00310665,-0.0017688
 8,-0.00370679,-0.10939310,-0.02144898,-0.12350736,-0.01970700,-0.01785
 285,-0.02062574,0.00767381,0.00421366,0.01816640,0.00187911,-0.0010620
 5,0.00074523,0.00005267,-0.00003978,-0.00010133,0.00027375,-0.00060086
 ,0.00080974,0.00017408,0.00028348,0.00031024,-0.00021995,0.00001216,0.
 00013863,0.00097641,0.00072397,-0.00017486,0.11947043,-0.00001644,-0.0
 0003795,0.00001779,0.00009067,0.00025943,-0.00007871,0.00027419,-0.000
 32854,-0.00011044,0.00109838,0.00066738,0.00051944,0.01275173,0.002393
 42,0.02414010,-0.01811364,-0.04929263,-0.02719061,-0.01124565,-0.01554
 312,-0.01468890,-0.01340393,-0.00801588,-0.01486282,-0.00203401,0.0025
 6097,-0.00083075,-0.00002906,-0.00016476,0.00007987,-0.00062292,-0.000
 27353,0.00000904,0.00020304,-0.00011630,-0.00015727,0.00034263,0.00046
 949,-0.00088352,-0.00155713,-0.00334109,0.00378372,0.03258822,0.072944
 24,0.00003317,0.00002844,0.00005765,0.00012513,-0.00009995,-0.00007060
 ,0.00070806,0.00051884,-0.00061960,-0.00150549,-0.00072636,-0.00063059
 ,-0.00970370,-0.00201551,-0.01774041,-0.11470100,-0.03267710,-0.230211
 42,0.00881826,0.00471754,0.00773803,-0.00956462,-0.00404349,-0.0142070
 3,-0.00285136,0.00276815,0.00237365,-0.00019171,0.00002697,0.00013590,
 0.00110020,0.00049892,0.00038990,0.00016548,0.00006738,0.00058341,0.00
 020389,0.00036044,0.00027915,0.00080725,0.00324089,-0.00160129,0.12443
 220,0.03145003,0.24992158,0.00009328,0.00003553,-0.00000423,-0.0003050
 9,-0.00002022,-0.00013766,0.00009417,-0.00077323,0.00011435,-0.0002528
 0,-0.00018642,0.00035777,-0.00088805,0.00254966,-0.00011778,-0.0104112
 4,-0.01382212,0.01114042,-0.02624248,0.03765105,-0.07053132,-0.0051819
 5,-0.01319405,0.03043482,0.00256376,0.00224636,-0.00056822,0.00002192,
 0.00009563,-0.00025534,-0.00003728,-0.00008628,-0.00000851,-0.00017525
 ,-0.00001182,-0.00001764,0.00026579,0.00012122,-0.00024555,-0.00017063
 ,-0.00027440,0.00004102,0.00181043,-0.00086644,0.00100456,0.04115609,0
 .00007031,-0.00001853,-0.00002281,0.00008639,0.00013473,0.00011842,0.0
 0005559,-0.00022005,-0.00012124,0.00008462,-0.00195253,0.00146775,-0.0
 0582742,0.00169880,-0.00064082,0.00319872,-0.01810352,0.03530523,0.015
 91741,-0.07089052,0.10283559,-0.00779595,0.00005234,-0.01502577,-0.000
 76643,0.00073078,0.00088682,-0.00004504,0.00002224,0.00014964,-0.00018
 732,-0.00003062,-0.00006972,-0.00076135,0.00002592,-0.00013547,0.00012
 913,0.00008488,-0.00009123,0.00007241,0.00021678,-0.00000623,0.0023394
 8,0.00045826,-0.00152888,-0.01005735,0.08630691,-0.00002718,0.00001404
 ,-0.00005565,0.00002331,-0.00008239,0.00022748,-0.00057820,0.00012741,
 -0.00013176,0.00003736,-0.00039305,0.00031381,-0.00107876,-0.00048794,
 0.00025009,-0.00526224,-0.00787715,0.00331763,-0.01530426,0.12679532,-
 0.38174747,-0.01127043,0.00318377,-0.01904901,-0.00007841,-0.00135491,
 0.00357546,-0.00013562,-0.00005164,0.00016018,0.00008039,0.00006341,-0
 .00002045,-0.00019981,0.00000087,0.00004626,-0.00002785,-0.00007767,0.
 00008290,0.00002720,-0.00014005,0.00025571,0.00015388,-0.00156869,0.00
 238406,0.02797865,-0.12049364,0.39164606,0.00008519,-0.00011240,0.0001
 1234,0.00038697,0.00040122,0.00005226,-0.00020347,0.00065434,-0.002772
 17,-0.00031840,-0.00005467,0.00010725,0.00066999,0.00086871,0.00082026
 ,-0.00130309,0.00040205,0.00013800,-0.00573362,-0.00137445,0.03145233,
 -0.05568491,-0.00524908,-0.06890862,-0.01924748,0.00135770,-0.03169991
 ,-0.00065749,-0.00032735,0.00096241,-0.00006481,0.00013591,0.00002389,
 0.00019505,-0.00016883,-0.00001568,0.00020261,0.00023451,-0.00001493,0
 .00013715,0.00033682,0.00023567,-0.00018268,-0.00040898,-0.00004714,-0
 .00175308,0.00334295,0.00445994,0.08946614,0.00002807,-0.00001607,0.00
 003219,0.00016374,0.00000105,-0.00021373,-0.00148336,0.00017956,-0.000
 17010,0.00014387,-0.00019283,0.00011011,-0.00156642,0.00206895,-0.0016
 6420,-0.00737194,-0.00320547,-0.02898853,0.00566835,0.00122515,0.01475
 397,-0.00517486,-0.04741766,-0.02535737,0.00612529,0.00159050,0.014024
 39,-0.00049846,0.00030596,-0.00008308,0.00027152,0.00012197,0.00008273
 ,-0.00026871,0.00012735,0.00007748,0.00021116,0.00070685,0.00025864,0.
 00052863,-0.00106728,0.00040874,0.00312448,-0.00186469,-0.00181908,-0.
 00359819,0.00131379,0.00244642,0.00060473,0.04508005,0.00011860,0.0000
 7753,-0.00016455,0.00002428,-0.00022411,0.00099061,0.00123234,0.000174
 73,-0.00015170,-0.00038465,-0.00072934,0.00026725,-0.00092494,0.002353
 56,-0.00093555,0.00120138,0.00061544,-0.00682392,0.00744235,-0.0017344
 2,-0.01845851,-0.07080115,-0.02440891,-0.29474591,-0.00540611,0.000937
 87,-0.00587475,0.00005883,-0.00020808,0.00061966,0.00014600,0.00001785
 ,-0.00002123,-0.00015756,-0.00003843,0.00003646,0.00027967,0.00007413,
 0.00041176,0.00023070,0.00018285,0.00127877,0.00077497,0.00031883,0.00
 011944,0.00110677,-0.00301491,-0.00105553,0.06571536,0.02579375,0.3229
 5313,-0.00077155,0.00030257,-0.00078406,0.00195710,-0.00028089,0.00189
 469,0.00375690,0.00262378,0.01663189,-0.00034103,-0.00000864,-0.000437
 14,0.00016046,0.00021496,-0.00001137,0.00148293,-0.00132131,-0.0019215
 9,0.00079628,-0.00294873,0.00180909,-0.01383913,-0.00091342,-0.0415565
 5,-0.07897042,-0.01794950,-0.08991313,-0.00125515,-0.00364560,0.002975
 44,0.00016645,-0.00018037,-0.00026630,0.00004012,-0.00008731,-0.000026
 81,0.00010054,0.00002337,0.00007199,0.00002153,-0.00009673,0.00032404,
 0.00009423,0.00094936,0.00116684,-0.00058757,0.00014384,0.00120204,-0.
 00599407,0.00309210,-0.00065683,0.09318237,0.00002657,-0.00042473,-0.0
 0013028,0.00062129,0.00156612,0.00003252,0.00738990,-0.00400832,0.0311
 6690,0.00064216,0.00078272,0.00117489,-0.00024256,-0.00085758,0.000103
 89,0.00008257,0.00168697,0.00189331,-0.00026521,0.00115532,-0.00071968
 ,0.00667672,-0.00640933,0.00445959,-0.03311535,-0.02757136,-0.05777700
 ,-0.00176739,-0.00237845,0.00181213,-0.00019110,-0.00028614,-0.0002257
 1,-0.00007754,-0.00025771,-0.00042796,0.00000965,-0.00000284,-0.000090
 76,0.00001318,-0.00006220,-0.00019310,0.00056674,-0.00077470,-0.000767
 24,0.00019107,0.00017033,-0.00010410,-0.00064320,0.00104280,-0.0001883
 7,0.02008251,0.03662909,0.00025500,-0.00011376,0.00028282,-0.00021120,
 -0.00027707,0.00011786,-0.00424414,-0.00787845,-0.01808281,-0.00088465
 ,0.00005406,0.00129301,0.00055398,0.00018908,0.00012548,0.00181953,-0.
 00071583,0.00139633,-0.00068188,0.00015123,0.00107482,0.00264099,-0.00
 480544,-0.00387571,-0.10981863,-0.01072458,-0.37949420,0.00185045,0.00
 359657,-0.00114946,-0.00030163,0.00045352,0.00012447,0.00021341,-0.000
 33859,0.00008869,-0.00007310,-0.00005318,0.00000390,0.00001330,-0.0002
 6635,-0.00003307,0.00028416,0.00005288,0.00109817,-0.00029209,0.000387
 25,-0.00019978,-0.00062128,0.00030768,0.00155458,0.10949777,0.01998097
 ,0.39567492\\-0.00000729,0.00000435,-0.00000188,0.00000063,-0.00001637
 ,0.00001045,-0.00001108,0.00007828,-0.00003444,0.00000690,-0.00004913,
 0.00002715,-0.00000294,-0.00000479,-0.00001203,0.00001685,-0.00005290,
 -0.00000545,0.00005299,0.00002927,-0.00003900,-0.00003573,0.00004413,0
 .00006837,-0.00001118,-0.00004265,0.00001305,0.00000572,-0.00000706,0.
 00000076,0.00000132,0.00000744,-0.00000757,-0.00000549,0.00000729,-0.0
 0000819,0.00000304,-0.00000478,-0.00000451,-0.00000222,-0.00000361,-0.
 00000329,-0.00001181,0.00000058,0.00000120,-0.00000704,-0.00000013,0.0
 0000157,0.00000099,0.00000714,-0.00000938,0.00000633,0.00000293,0.0000
 0319\\\@


 THE FIRST MORNING OF CREATION WROTE WHAT THE LAST DAWN OF
 RECKONING SHALL READ. -- OMAR KHAYYAM
 Job cpu time:       0 days  1 hours 59 minutes 40.5 seconds.
 Elapsed time:       0 days  0 hours 29 minutes 55.6 seconds.
 File lengths (MBytes):  RWF=    128 Int=      0 D2E=      0 Chk=      8 Scr=      1
 Normal termination of Gaussian 16 at Sun Jul  3 13:27:32 2022.
### All Done ###
