### Starting Gaussian ###
 Entering Gaussian System, Link 0=g16
 Initial command:
 /cluster/software/gaussian/gaussian-16-A.03/avx2/g16/l1.exe "/local/scratch/ks29c/Gau-9546.inp" -scrdir="/local/scratch/ks29c/"
 Entering Link 1 = /cluster/software/gaussian/gaussian-16-A.03/avx2/g16/l1.exe PID=      9547.
  
 Copyright (c) 1988,1990,1992,1993,1995,1998,2003,2009,2016,
            Gaussian, Inc.  All Rights Reserved.
  
 This is part of the Gaussian(R) 16 program.  It is based on
 the Gaussian(R) 09 system (copyright 2009, Gaussian, Inc.),
 the Gaussian(R) 03 system (copyright 2003, Gaussian, Inc.),
 the Gaussian(R) 98 system (copyright 1998, Gaussian, Inc.),
 the Gaussian(R) 94 system (copyright 1995, Gaussian, Inc.),
 the Gaussian 92(TM) system (copyright 1992, Gaussian, Inc.),
 the Gaussian 90(TM) system (copyright 1990, Gaussian, Inc.),
 the Gaussian 88(TM) system (copyright 1988, Gaussian, Inc.),
 the Gaussian 86(TM) system (copyright 1986, Carnegie Mellon
 University), and the Gaussian 82(TM) system (copyright 1983,
 Carnegie Mellon University). Gaussian is a federally registered
 trademark of Gaussian, Inc.
  
 This software contains proprietary and confidential information,
 including trade secrets, belonging to Gaussian, Inc.
  
 This software is provided under written license and may be
 used, copied, transmitted, or stored only in accord with that
 written license.
  
 The following legend is applicable only to US Government
 contracts under FAR:
  
                    RESTRICTED RIGHTS LEGEND
  
 Use, reproduction and disclosure by the US Government is
 subject to restrictions as set forth in subparagraphs (a)
 and (c) of the Commercial Computer Software - Restricted
 Rights clause in FAR 52.227-19.
  
 Gaussian, Inc.
 340 Quinnipiac St., Bldg. 40, Wallingford CT 06492
  
  
 ---------------------------------------------------------------
 Warning -- This program may not be used in any manner that
 competes with the business of Gaussian, Inc. or will provide
 assistance to any competitor of Gaussian, Inc.  The licensee
 of this program is prohibited from giving any competitor of
 Gaussian, Inc. access to this program.  By using this program,
 the user acknowledges that Gaussian, Inc. is engaged in the
 business of creating and licensing software in the field of
 computational chemistry and represents and warrants to the
 licensee that it is not a competitor of Gaussian, Inc. and that
 it will not use this program in any manner prohibited above.
 ---------------------------------------------------------------
  

 Cite this work as:
 Gaussian 16, Revision A.03,
 M. J. Frisch, G. W. Trucks, H. B. Schlegel, G. E. Scuseria, 
 M. A. Robb, J. R. Cheeseman, G. Scalmani, V. Barone, 
 G. A. Petersson, H. Nakatsuji, X. Li, M. Caricato, A. V. Marenich, 
 J. Bloino, B. G. Janesko, R. Gomperts, B. Mennucci, H. P. Hratchian, 
 J. V. Ortiz, A. F. Izmaylov, J. L. Sonnenberg, D. Williams-Young, 
 F. Ding, F. Lipparini, F. Egidi, J. Goings, B. Peng, A. Petrone, 
 T. Henderson, D. Ranasinghe, V. G. Zakrzewski, J. Gao, N. Rega, 
 G. Zheng, W. Liang, M. Hada, M. Ehara, K. Toyota, R. Fukuda, 
 J. Hasegawa, M. Ishida, T. Nakajima, Y. Honda, O. Kitao, H. Nakai, 
 T. Vreven, K. Throssell, J. A. Montgomery, Jr., J. E. Peralta, 
 F. Ogliaro, M. J. Bearpark, J. J. Heyd, E. N. Brothers, K. N. Kudin, 
 V. N. Staroverov, T. A. Keith, R. Kobayashi, J. Normand, 
 K. Raghavachari, A. P. Rendell, J. C. Burant, S. S. Iyengar, 
 J. Tomasi, M. Cossi, J. M. Millam, M. Klene, C. Adamo, R. Cammi, 
 J. W. Ochterski, R. L. Martin, K. Morokuma, O. Farkas, 
 J. B. Foresman, and D. J. Fox, Gaussian, Inc., Wallingford CT, 2016.
 
 ******************************************
 Gaussian 16:  ES64L-G16RevA.03 25-Dec-2016
                 4-Aug-2022 
 ******************************************
 %chk=NtCN1CdNCpCdNpC1.chk
 %NProcShared=20
 Will use up to   20 processors via shared memory.
 -----------------------------
 # opt freq b3lyp/6-31g(2df,p)
 -----------------------------
 1/18=20,19=15,26=3,38=1/1,3;
 2/9=110,12=2,17=6,18=5,40=1/2;
 3/5=1,6=6,7=104,11=2,25=1,30=1,71=1,74=-5/1,2,3;
 4//1;
 5/5=2,38=5/2;
 6/7=2,8=2,9=2,10=2,28=1/1;
 7//1,2,3,16;
 1/18=20,19=15,26=3/3(2);
 2/9=110/2;
 99//99;
 2/9=110/2;
 3/5=1,6=6,7=104,11=2,25=1,30=1,71=1,74=-5/1,2,3;
 4/5=5,16=3,69=1/1;
 5/5=2,38=5/2;
 7//1,2,3,16;
 1/18=20,19=15,26=3/3(-5);
 2/9=110/2;
 6/7=2,8=2,9=2,10=2,19=2,28=1/1;
 99/9=1/99;
 -------------------
 Title Card Required
 -------------------
 Symbolic Z-matrix:
 Charge =  0 Multiplicity = 1
 N                     1.32486   0.03587  -0.0386 
 C                     2.48515   0.03254  -0.07099 
 N                     3.91024   0.05722  -0.11902 
 C                     4.70378  -1.01386   0.07256 
 N                     5.94515  -0.78463   0.40204 
 C                     5.99104   0.71483   0.55427 
 C                     6.05057   1.04595   2.03227 
 N                     6.14064   2.25104   2.49814 
 C                     4.69394   1.2555   -0.07824 
 H                     4.28062  -2.01584  -0.10806 
 H                     6.88413   1.12286   0.07041 
 H                     6.0056    0.20836   2.74872 
 H                     6.19279   2.95732   1.75813 
 H                     4.89486   1.56774  -1.10927 
 H                     4.24241   2.08865   0.46814 
 

 GradGradGradGradGradGradGradGradGradGradGradGradGradGradGradGradGradGrad
 Berny optimization.
 Initialization pass.
                           ----------------------------
                           !    Initial Parameters    !
                           ! (Angstroms and Degrees)  !
 --------------------------                            --------------------------
 ! Name  Definition              Value          Derivative Info.                !
 --------------------------------------------------------------------------------
 ! R1    R(1,2)                  1.1607         estimate D2E/DX2                !
 ! R2    R(2,3)                  1.4261         estimate D2E/DX2                !
 ! R3    R(3,4)                  1.3467         estimate D2E/DX2                !
 ! R4    R(3,9)                  1.4324         estimate D2E/DX2                !
 ! R5    R(4,5)                  1.3046         estimate D2E/DX2                !
 ! R6    R(4,10)                 1.1026         estimate D2E/DX2                !
 ! R7    R(5,6)                  1.5079         estimate D2E/DX2                !
 ! R8    R(6,7)                  1.5158         estimate D2E/DX2                !
 ! R9    R(6,9)                  1.5411         estimate D2E/DX2                !
 ! R10   R(6,11)                 1.0946         estimate D2E/DX2                !
 ! R11   R(7,8)                  1.2951         estimate D2E/DX2                !
 ! R12   R(7,12)                 1.1031         estimate D2E/DX2                !
 ! R13   R(8,13)                 1.0243         estimate D2E/DX2                !
 ! R14   R(9,14)                 1.0958         estimate D2E/DX2                !
 ! R15   R(9,15)                 1.0939         estimate D2E/DX2                !
 ! A1    A(2,3,4)              124.7688         estimate D2E/DX2                !
 ! A2    A(2,3,9)              124.0735         estimate D2E/DX2                !
 ! A3    A(4,3,9)              109.81           estimate D2E/DX2                !
 ! A4    A(3,4,5)              117.184          estimate D2E/DX2                !
 ! A5    A(3,4,10)             118.2501         estimate D2E/DX2                !
 ! A6    A(5,4,10)             124.4875         estimate D2E/DX2                !
 ! A7    A(4,5,6)              103.2486         estimate D2E/DX2                !
 ! A8    A(5,6,7)              108.4732         estimate D2E/DX2                !
 ! A9    A(5,6,9)              106.3697         estimate D2E/DX2                !
 ! A10   A(5,6,11)             110.5412         estimate D2E/DX2                !
 ! A11   A(7,6,9)              110.8926         estimate D2E/DX2                !
 ! A12   A(7,6,11)             108.514          estimate D2E/DX2                !
 ! A13   A(9,6,11)             111.9945         estimate D2E/DX2                !
 ! A14   A(6,7,8)              123.8294         estimate D2E/DX2                !
 ! A15   A(6,7,12)             117.7628         estimate D2E/DX2                !
 ! A16   A(8,7,12)             118.4057         estimate D2E/DX2                !
 ! A17   A(7,8,13)             112.6596         estimate D2E/DX2                !
 ! A18   A(3,9,6)              100.294          estimate D2E/DX2                !
 ! A19   A(3,9,14)             108.1732         estimate D2E/DX2                !
 ! A20   A(3,9,15)             115.1853         estimate D2E/DX2                !
 ! A21   A(6,9,14)             109.3784         estimate D2E/DX2                !
 ! A22   A(6,9,15)             114.1826         estimate D2E/DX2                !
 ! A23   A(14,9,15)            109.1846         estimate D2E/DX2                !
 ! A24   L(1,2,3,15,-1)        178.9822         estimate D2E/DX2                !
 ! A25   L(1,2,3,15,-2)        180.83           estimate D2E/DX2                !
 ! D1    D(2,3,4,5)           -159.5845         estimate D2E/DX2                !
 ! D2    D(2,3,4,10)            23.4899         estimate D2E/DX2                !
 ! D3    D(9,3,4,5)              7.5755         estimate D2E/DX2                !
 ! D4    D(9,3,4,10)          -169.3501         estimate D2E/DX2                !
 ! D5    D(2,3,9,6)            152.2237         estimate D2E/DX2                !
 ! D6    D(2,3,9,14)           -93.2848         estimate D2E/DX2                !
 ! D7    D(2,3,9,15)            29.1653         estimate D2E/DX2                !
 ! D8    D(4,3,9,6)            -15.0444         estimate D2E/DX2                !
 ! D9    D(4,3,9,14)            99.4471         estimate D2E/DX2                !
 ! D10   D(4,3,9,15)          -138.1028         estimate D2E/DX2                !
 ! D11   D(3,4,5,6)              4.4115         estimate D2E/DX2                !
 ! D12   D(10,4,5,6)          -178.8743         estimate D2E/DX2                !
 ! D13   D(4,5,6,7)            105.671          estimate D2E/DX2                !
 ! D14   D(4,5,6,9)            -13.6702         estimate D2E/DX2                !
 ! D15   D(4,5,6,11)          -135.4671         estimate D2E/DX2                !
 ! D16   D(5,6,7,8)            177.7946         estimate D2E/DX2                !
 ! D17   D(5,6,7,12)            -2.7423         estimate D2E/DX2                !
 ! D18   D(9,6,7,8)            -65.7449         estimate D2E/DX2                !
 ! D19   D(9,6,7,12)           113.7182         estimate D2E/DX2                !
 ! D20   D(11,6,7,8)            57.6618         estimate D2E/DX2                !
 ! D21   D(11,6,7,12)         -122.8751         estimate D2E/DX2                !
 ! D22   D(5,6,9,3)             17.2026         estimate D2E/DX2                !
 ! D23   D(5,6,9,14)           -96.3701         estimate D2E/DX2                !
 ! D24   D(5,6,9,15)           140.9597         estimate D2E/DX2                !
 ! D25   D(7,6,9,3)           -100.5475         estimate D2E/DX2                !
 ! D26   D(7,6,9,14)           145.8798         estimate D2E/DX2                !
 ! D27   D(7,6,9,15)            23.2095         estimate D2E/DX2                !
 ! D28   D(11,6,9,3)           138.0704         estimate D2E/DX2                !
 ! D29   D(11,6,9,14)           24.4977         estimate D2E/DX2                !
 ! D30   D(11,6,9,15)          -98.1726         estimate D2E/DX2                !
 ! D31   D(6,7,8,13)            -1.5399         estimate D2E/DX2                !
 ! D32   D(12,7,8,13)          179.0002         estimate D2E/DX2                !
 --------------------------------------------------------------------------------
 Trust Radius=3.00D-01 FncErr=1.00D-07 GrdErr=1.00D-06 EigMax=2.50D+02 EigMin=1.00D-04
 Number of steps in this run=     82 maximum allowed number of steps=    100.
 GradGradGradGradGradGradGradGradGradGradGradGradGradGradGradGradGradGrad

                          Input orientation:                          
 ---------------------------------------------------------------------
 Center     Atomic      Atomic             Coordinates (Angstroms)
 Number     Number       Type             X           Y           Z
 ---------------------------------------------------------------------
      1          7           0        1.324860    0.035870   -0.038600
      2          6           0        2.485150    0.032540   -0.070990
      3          7           0        3.910240    0.057220   -0.119020
      4          6           0        4.703780   -1.013860    0.072560
      5          7           0        5.945150   -0.784630    0.402040
      6          6           0        5.991040    0.714830    0.554270
      7          6           0        6.050570    1.045950    2.032270
      8          7           0        6.140640    2.251040    2.498140
      9          6           0        4.693940    1.255500   -0.078240
     10          1           0        4.280620   -2.015840   -0.108060
     11          1           0        6.884130    1.122860    0.070410
     12          1           0        6.005600    0.208360    2.748720
     13          1           0        6.192790    2.957320    1.758130
     14          1           0        4.894860    1.567740   -1.109270
     15          1           0        4.242410    2.088650    0.468140
 ---------------------------------------------------------------------
                    Distance matrix (angstroms):
                    1          2          3          4          5
     1  N    0.000000
     2  C    1.160747   0.000000
     3  N    2.586719   1.426113   0.000000
     4  C    3.539970   2.457210   1.346707   0.000000
     5  N    4.713222   3.586520   2.262979   1.304647   0.000000
     6  C    4.752443   3.625980   2.283747   2.208495   1.507866
     7  C    5.257480   4.261798   3.191653   3.145969   2.453525
     8  N    5.876544   4.988465   4.078855   4.313650   3.694204
     9  C    3.583262   2.524765   1.432384   2.274386   2.440968
    10  H    3.598730   2.724142   2.105915   1.102566   2.132309
    11  H    5.665590   4.534293   3.164727   3.052786   2.151785
    12  H    5.450526   4.513895   3.554899   3.217202   2.548841
    13  H    5.954817   5.064248   4.140568   4.563833   3.987793
    14  H    4.029623   3.039995   2.057120   2.845680   2.986773
    15  H    3.603164   2.757936   2.140514   3.161473   3.340573
                    6          7          8          9         10
     6  C    0.000000
     7  C    1.515806   0.000000
     8  N    2.482126   1.295141   0.000000
     9  C    1.541059   2.517659   3.117976   0.000000
    10  H    3.289495   4.133799   5.334624   3.297482   0.000000
    11  H    1.094632   2.132987   2.778388   2.199232   4.081857
    12  H    2.252184   1.103123   2.062418   3.287652   4.010463
    13  H    2.553183   1.936160   1.024288   2.918047   5.645474
    14  H    2.167125   3.387802   3.877148   1.095849   3.771175
    15  H    2.225423   2.608288   2.783981   1.093869   4.144913
                   11         12         13         14         15
    11  H    0.000000
    12  H    2.963354   0.000000
    13  H    2.586811   2.927984   0.000000
    14  H    2.355156   4.238602   3.440572   0.000000
    15  H    2.840708   3.441711   2.494523   1.784730   0.000000
 Stoichiometry    C5H6N4
 Framework group  C1[X(C5H6N4)]
 Deg. of freedom    39
 Full point group                 C1      NOp   1
 Largest Abelian subgroup         C1      NOp   1
 Largest concise Abelian subgroup C1      NOp   1
                         Standard orientation:                         
 ---------------------------------------------------------------------
 Center     Atomic      Atomic             Coordinates (Angstroms)
 Number     Number       Type             X           Y           Z
 ---------------------------------------------------------------------
      1          7           0       -3.204362   -1.081561   -0.404225
      2          6           0       -2.241559   -0.497435   -0.122905
      3          7           0       -1.052732    0.199747    0.243734
      4          6           0       -0.666928    1.383169   -0.270355
      5          7           0        0.594555    1.697584   -0.161238
      6          6           0        1.205105    0.466469    0.459442
      7          6           0        1.986508   -0.272731   -0.608575
      8          7           0        2.665888   -1.352933   -0.387224
      9          6           0        0.030651   -0.389301    0.972451
     10          1           0       -1.438620    2.039726   -0.705185
     11          1           0        1.893109    0.743180    1.264613
     12          1           0        1.964861    0.132657   -1.634281
     13          1           0        2.639218   -1.641524    0.595207
     14          1           0       -0.126107   -0.189863    2.038535
     15          1           0        0.161434   -1.465051    0.823433
 ---------------------------------------------------------------------
 Rotational constants (GHZ):           3.1847644           1.1341884           0.9452985
 Standard basis: 6-31G(2df,p) (6D, 7F)
 There are   309 symmetry adapted cartesian basis functions of A   symmetry.
 There are   282 symmetry adapted basis functions of A   symmetry.
   282 basis functions,   438 primitive gaussians,   309 cartesian basis functions
    32 alpha electrons       32 beta electrons
       nuclear repulsion energy       404.6672497377 Hartrees.
 NAtoms=   15 NActive=   15 NUniq=   15 SFac= 1.00D+00 NAtFMM=   60 NAOKFM=F Big=F
 Integral buffers will be    131072 words long.
 Raffenetti 2 integral format.
 Two-electron integral symmetry is turned on.
 One-electron integrals computed using PRISM.
 PrsmSu:  requested number of processors reduced to:  13 ShMem   1 Linda.
 NBasis=   282 RedAO= T EigKep=  1.29D-04  NBF=   282
 NBsUse=   282 1.00D-06 EigRej= -1.00D+00 NBFU=   282
 ExpMin= 1.61D-01 ExpMax= 4.17D+03 ExpMxC= 6.27D+02 IAcc=3 IRadAn=         5 AccDes= 0.00D+00
 Harris functional with IExCor=  402 and IRadAn=       5 diagonalized for initial guess.
 HarFok:  IExCor=  402 AccDes= 0.00D+00 IRadAn=         5 IDoV= 1 UseB2=F ITyADJ=14
 ICtDFT=  3500011 ScaDFX=  1.000000  1.000000  1.000000  1.000000
 FoFCou: FMM=F IPFlag=           0 FMFlag=      100000 FMFlg1=           0
         NFxFlg=           0 DoJE=T BraDBF=F KetDBF=T FulRan=T
         wScrn=  0.000000 ICntrl=       500 IOpCl=  0 I1Cent=   200000004 NGrid=           0
         NMat0=    1 NMatS0=      1 NMatT0=    0 NMatD0=    1 NMtDS0=    0 NMtDT0=    0
 Petite list used in FoFCou.
 Requested convergence on RMS density matrix=1.00D-08 within 128 cycles.
 Requested convergence on MAX density matrix=1.00D-06.
 Requested convergence on             energy=1.00D-06.
 No special actions if energy rises.
 Integral accuracy reduced to 1.0D-05 until final iterations.
 Initial convergence to 1.0D-05 achieved.  Increase integral accuracy.
 SCF Done:  E(RB3LYP) =  -413.086392564     A.U. after   15 cycles
            NFock= 15  Conv=0.55D-08     -V/T= 2.0078

 **********************************************************************

            Population analysis using the SCF density.

 **********************************************************************

 Orbital symmetries:
       Occupied  (A) (A) (A) (A) (A) (A) (A) (A) (A) (A) (A) (A)
                 (A) (A) (A) (A) (A) (A) (A) (A) (A) (A) (A) (A)
                 (A) (A) (A) (A) (A) (A) (A) (A)
       Virtual   (A) (A) (A) (A) (A) (A) (A) (A) (A) (A) (A) (A)
                 (A) (A) (A) (A) (A) (A) (A) (A) (A) (A) (A) (A)
                 (A) (A) (A) (A) (A) (A) (A) (A) (A) (A) (A) (A)
                 (A) (A) (A) (A) (A) (A) (A) (A) (A) (A) (A) (A)
                 (A) (A) (A) (A) (A) (A) (A) (A) (A) (A) (A) (A)
                 (A) (A) (A) (A) (A) (A) (A) (A) (A) (A) (A) (A)
                 (A) (A) (A) (A) (A) (A) (A) (A) (A) (A) (A) (A)
                 (A) (A) (A) (A) (A) (A) (A) (A) (A) (A) (A) (A)
                 (A) (A) (A) (A) (A) (A) (A) (A) (A) (A) (A) (A)
                 (A) (A) (A) (A) (A) (A) (A) (A) (A) (A) (A) (A)
                 (A) (A) (A) (A) (A) (A) (A) (A) (A) (A) (A) (A)
                 (A) (A) (A) (A) (A) (A) (A) (A) (A) (A) (A) (A)
                 (A) (A) (A) (A) (A) (A) (A) (A) (A) (A) (A) (A)
                 (A) (A) (A) (A) (A) (A) (A) (A) (A) (A) (A) (A)
                 (A) (A) (A) (A) (A) (A) (A) (A) (A) (A) (A) (A)
                 (A) (A) (A) (A) (A) (A) (A) (A) (A) (A) (A) (A)
                 (A) (A) (A) (A) (A) (A) (A) (A) (A) (A) (A) (A)
                 (A) (A) (A) (A) (A) (A) (A) (A) (A) (A) (A) (A)
                 (A) (A) (A) (A) (A) (A) (A) (A) (A) (A) (A) (A)
                 (A) (A) (A) (A) (A) (A) (A) (A) (A) (A) (A) (A)
                 (A) (A) (A) (A) (A) (A) (A) (A) (A) (A)
 The electronic state is 1-A.
 Alpha  occ. eigenvalues --  -14.43401 -14.35322 -14.34446 -14.33547 -10.28877
 Alpha  occ. eigenvalues --  -10.27774 -10.26322 -10.25018 -10.24858  -1.04932
 Alpha  occ. eigenvalues --   -0.93426  -0.91134  -0.89180  -0.79785  -0.69391
 Alpha  occ. eigenvalues --   -0.66207  -0.60470  -0.60028  -0.53430  -0.49078
 Alpha  occ. eigenvalues --   -0.47732  -0.44748  -0.43757  -0.42002  -0.39913
 Alpha  occ. eigenvalues --   -0.38454  -0.36233  -0.35582  -0.32334  -0.30394
 Alpha  occ. eigenvalues --   -0.28237  -0.25379
 Alpha virt. eigenvalues --   -0.03498  -0.02327   0.00862   0.05034   0.05544
 Alpha virt. eigenvalues --    0.07298   0.09081   0.11671   0.12270   0.13308
 Alpha virt. eigenvalues --    0.15863   0.17467   0.19082   0.22058   0.25095
 Alpha virt. eigenvalues --    0.29113   0.29919   0.33316   0.34229   0.41339
 Alpha virt. eigenvalues --    0.43016   0.43734   0.46500   0.47759   0.48506
 Alpha virt. eigenvalues --    0.49233   0.51075   0.53222   0.54313   0.54684
 Alpha virt. eigenvalues --    0.57110   0.57581   0.59358   0.61711   0.62258
 Alpha virt. eigenvalues --    0.63123   0.64887   0.66266   0.68031   0.69668
 Alpha virt. eigenvalues --    0.70574   0.70786   0.72575   0.73071   0.75739
 Alpha virt. eigenvalues --    0.76575   0.77476   0.78683   0.79505   0.80476
 Alpha virt. eigenvalues --    0.82936   0.83345   0.84040   0.86927   0.88319
 Alpha virt. eigenvalues --    0.90726   0.91112   0.93553   0.94991   0.96396
 Alpha virt. eigenvalues --    1.00637   1.03761   1.06403   1.07984   1.12296
 Alpha virt. eigenvalues --    1.13826   1.15417   1.20811   1.22758   1.24797
 Alpha virt. eigenvalues --    1.26937   1.27368   1.29145   1.31712   1.33561
 Alpha virt. eigenvalues --    1.37196   1.37580   1.41496   1.44229   1.47467
 Alpha virt. eigenvalues --    1.48412   1.48702   1.50975   1.52747   1.55033
 Alpha virt. eigenvalues --    1.57727   1.58391   1.63457   1.64325   1.66343
 Alpha virt. eigenvalues --    1.67921   1.68741   1.75536   1.78614   1.79794
 Alpha virt. eigenvalues --    1.82663   1.87063   1.88828   1.92901   1.98100
 Alpha virt. eigenvalues --    1.99406   2.09087   2.11044   2.15115   2.21615
 Alpha virt. eigenvalues --    2.22417   2.26012   2.27891   2.35492   2.39460
 Alpha virt. eigenvalues --    2.42412   2.44858   2.46731   2.49099   2.53505
 Alpha virt. eigenvalues --    2.57920   2.63292   2.66726   2.73901   2.74524
 Alpha virt. eigenvalues --    2.77887   2.78866   2.81196   2.81869   2.85800
 Alpha virt. eigenvalues --    2.86698   2.87620   2.88948   2.91127   2.93335
 Alpha virt. eigenvalues --    2.96207   2.99156   3.02745   3.03643   3.05897
 Alpha virt. eigenvalues --    3.08441   3.11503   3.15082   3.16448   3.21161
 Alpha virt. eigenvalues --    3.22962   3.24554   3.27011   3.28857   3.32164
 Alpha virt. eigenvalues --    3.34470   3.35336   3.40588   3.41465   3.44935
 Alpha virt. eigenvalues --    3.49259   3.54631   3.58228   3.59666   3.65391
 Alpha virt. eigenvalues --    3.65440   3.66226   3.68319   3.70404   3.72906
 Alpha virt. eigenvalues --    3.78608   3.79418   3.81366   3.82882   3.85861
 Alpha virt. eigenvalues --    3.91023   3.93797   3.94787   3.97599   4.00322
 Alpha virt. eigenvalues --    4.02294   4.05193   4.07661   4.10070   4.11671
 Alpha virt. eigenvalues --    4.13207   4.14157   4.16246   4.18604   4.19767
 Alpha virt. eigenvalues --    4.21487   4.24450   4.26026   4.31399   4.31910
 Alpha virt. eigenvalues --    4.33920   4.35324   4.39013   4.40745   4.42226
 Alpha virt. eigenvalues --    4.43065   4.43693   4.45785   4.46489   4.47987
 Alpha virt. eigenvalues --    4.51352   4.52157   4.53736   4.55178   4.57894
 Alpha virt. eigenvalues --    4.58590   4.61875   4.64181   4.67707   4.70306
 Alpha virt. eigenvalues --    4.71071   4.74127   4.75425   4.77620   4.82679
 Alpha virt. eigenvalues --    4.84622   4.85927   4.91136   4.93877   4.96997
 Alpha virt. eigenvalues --    5.02080   5.03059   5.06772   5.07791   5.12998
 Alpha virt. eigenvalues --    5.13873   5.18977   5.24888   5.28598   5.31045
 Alpha virt. eigenvalues --    5.33974   5.37106   5.43682   5.47149   5.48829
 Alpha virt. eigenvalues --    5.57999   5.59613   5.66864   5.74175   5.87454
 Alpha virt. eigenvalues --    6.20613   6.27594   9.22096  10.05789  10.69539
 Alpha virt. eigenvalues --   11.04248  11.25386  11.28516  11.41029  11.45020
 Alpha virt. eigenvalues --   11.79747  12.25101  13.82960  16.64068  27.11711
          Condensed to atoms (all electrons):
               1          2          3          4          5          6
     1  N    6.365742   0.920327   0.027308  -0.000886  -0.000086  -0.000000
     2  C    0.920327   4.469679   0.353745  -0.046715   0.002003   0.003481
     3  N    0.027308   0.353745   6.089902   0.458690  -0.058158  -0.054220
     4  C   -0.000886  -0.046715   0.458690   4.693777   0.638298  -0.108303
     5  N   -0.000086   0.002003  -0.058158   0.638298   6.434523   0.370764
     6  C   -0.000000   0.003481  -0.054220  -0.108303   0.370764   4.918043
     7  C   -0.000007   0.000493   0.004907   0.002766  -0.042736   0.379807
     8  N    0.000000   0.000007   0.000231   0.000160   0.004211  -0.053124
     9  C   -0.000915  -0.052633   0.400769  -0.065694  -0.042455   0.346102
    10  H    0.000399  -0.000396  -0.038192   0.362820  -0.021171   0.005752
    11  H    0.000001  -0.000110   0.003478   0.001191  -0.017058   0.364306
    12  H    0.000002   0.000034  -0.000052   0.002611   0.005180  -0.063166
    13  H    0.000000   0.000007   0.000109   0.000052   0.000322  -0.014767
    14  H    0.000038   0.001884  -0.040153   0.005445   0.001088  -0.024857
    15  H    0.000437  -0.001812  -0.015248   0.002765   0.003962  -0.019837
               7          8          9         10         11         12
     1  N   -0.000007   0.000000  -0.000915   0.000399   0.000001   0.000002
     2  C    0.000493   0.000007  -0.052633  -0.000396  -0.000110   0.000034
     3  N    0.004907   0.000231   0.400769  -0.038192   0.003478  -0.000052
     4  C    0.002766   0.000160  -0.065694   0.362820   0.001191   0.002611
     5  N   -0.042736   0.004211  -0.042455  -0.021171  -0.017058   0.005180
     6  C    0.379807  -0.053124   0.346102   0.005752   0.364306  -0.063166
     7  C    4.753421   0.660844  -0.020084   0.000052  -0.037122   0.349573
     8  N    0.660844   6.468066  -0.007723   0.000004  -0.002321  -0.018697
     9  C   -0.020084  -0.007723   4.966729   0.005887  -0.037416   0.003070
    10  H    0.000052   0.000004   0.005887   0.523620  -0.000215  -0.000054
    11  H   -0.037122  -0.002321  -0.037416  -0.000215   0.596955   0.004204
    12  H    0.349573  -0.018697   0.003070  -0.000054   0.004204   0.574087
    13  H   -0.098572   0.332410   0.002148   0.000000   0.003385   0.008429
    14  H    0.004914   0.000052   0.357709  -0.000100  -0.007875  -0.000197
    15  H   -0.006476   0.004894   0.357939  -0.000122   0.004444   0.000566
              13         14         15
     1  N    0.000000   0.000038   0.000437
     2  C    0.000007   0.001884  -0.001812
     3  N    0.000109  -0.040153  -0.015248
     4  C    0.000052   0.005445   0.002765
     5  N    0.000322   0.001088   0.003962
     6  C   -0.014767  -0.024857  -0.019837
     7  C   -0.098572   0.004914  -0.006476
     8  N    0.332410   0.000052   0.004894
     9  C    0.002148   0.357709   0.357939
    10  H    0.000000  -0.000100  -0.000122
    11  H    0.003385  -0.007875   0.004444
    12  H    0.008429  -0.000197   0.000566
    13  H    0.543178  -0.000552   0.003484
    14  H   -0.000552   0.612359  -0.041641
    15  H    0.003484  -0.041641   0.553830
 Mulliken charges:
               1
     1  N   -0.312361
     2  C    0.350006
     3  N   -0.133114
     4  C    0.053022
     5  N   -0.278689
     6  C   -0.049981
     7  C    0.048220
     8  N   -0.389015
     9  C   -0.213436
    10  H    0.161716
    11  H    0.124152
    12  H    0.134411
    13  H    0.220365
    14  H    0.131887
    15  H    0.152816
 Sum of Mulliken charges =  -0.00000
 Mulliken charges with hydrogens summed into heavy atoms:
               1
     1  N   -0.312361
     2  C    0.350006
     3  N   -0.133114
     4  C    0.214739
     5  N   -0.278689
     6  C    0.074171
     7  C    0.182631
     8  N   -0.168650
     9  C    0.071267
 Electronic spatial extent (au):  <R**2>=           1209.8793
 Charge=             -0.0000 electrons
 Dipole moment (field-independent basis, Debye):
    X=              0.6859    Y=              1.1195    Z=              2.4868  Tot=              2.8121
 Quadrupole moment (field-independent basis, Debye-Ang):
   XX=            -67.2728   YY=            -57.2669   ZZ=            -48.7884
   XY=             -5.1529   XZ=              3.1235   YZ=             -4.0824
 Traceless Quadrupole moment (field-independent basis, Debye-Ang):
   XX=             -9.4967   YY=              0.5091   ZZ=              8.9876
   XY=             -5.1529   XZ=              3.1235   YZ=             -4.0824
 Octapole moment (field-independent basis, Debye-Ang**2):
  XXX=             29.0475  YYY=             -3.8983  ZZZ=              2.8132  XYY=             -8.5162
  XXY=             33.3649  XXZ=             18.5613  XZZ=              3.4514  YZZ=              1.7479
  YYZ=              6.7642  XYZ=             -2.0287
 Hexadecapole moment (field-independent basis, Debye-Ang**3):
 XXXX=          -1324.3592 YYYY=           -390.7543 ZZZZ=           -143.4855 XXXY=            -35.4318
 XXXZ=             15.0348 YYYX=            -24.2708 YYYZ=            -13.8716 ZZZX=             -0.4111
 ZZZY=             -2.3700 XXYY=           -280.2627 XXZZ=           -204.4593 YYZZ=            -88.0968
 XXYZ=            -34.2038 YYXZ=             16.9170 ZZXY=             -0.7944
 N-N= 4.046672497377D+02 E-N=-1.769462080317D+03  KE= 4.098862004401D+02
 PrsmSu:  requested number of processors reduced to:  13 ShMem   1 Linda.
 Calling FoFJK, ICntrl=      2127 FMM=F ISym2X=0 I1Cent= 0 IOpClX= 0 NMat=1 NMatS=1 NMatT=0.
 ***** Axes restored to original set *****
 -------------------------------------------------------------------
 Center     Atomic                   Forces (Hartrees/Bohr)
 Number     Number              X              Y              Z
 -------------------------------------------------------------------
      1        7           0.004690636   -0.000512775   -0.000618003
      2        6           0.060382671    0.001160480   -0.004077516
      3        7          -0.101530405    0.008716852    0.000806972
      4        6           0.044339232   -0.039392087    0.009179314
      5        7          -0.035974703    0.008689579   -0.014839873
      6        6           0.007119584   -0.013899802    0.011212981
      7        6           0.007153563    0.037982744    0.015643882
      8        7          -0.002080152   -0.033319396   -0.000873011
      9        6           0.015596584    0.019916655   -0.012100046
     10        1           0.005266717    0.009439089    0.005541333
     11        1          -0.001617716   -0.001562921   -0.000877568
     12        1           0.000435178    0.005382830   -0.005597953
     13        1          -0.000263933   -0.002231315   -0.003120798
     14        1          -0.001972033    0.004531521   -0.000666049
     15        1          -0.001545224   -0.004901454    0.000386336
 -------------------------------------------------------------------
 Cartesian Forces:  Max     0.101530405 RMS     0.022878196

 GradGradGradGradGradGradGradGradGradGradGradGradGradGradGradGradGradGrad
 Berny optimization.
 FormGI is forming the generalized inverse of G from B-inverse, IUseBI=4.
 Internal  Forces:  Max     0.065197148 RMS     0.011346555
 Search for a local minimum.
 Step number   1 out of a maximum of   82
 All quantities printed in internal units (Hartrees-Bohrs-Radians)
 Mixed Optimization -- RFO/linear search
 Second derivative matrix not updated -- first step.
 ITU=  0
     Eigenvalues ---    0.00520   0.00557   0.01193   0.01346   0.01346
     Eigenvalues ---    0.01741   0.01951   0.02607   0.03079   0.04491
     Eigenvalues ---    0.04812   0.05651   0.06080   0.07747   0.08201
     Eigenvalues ---    0.09028   0.15827   0.15981   0.16000   0.16000
     Eigenvalues ---    0.19907   0.22000   0.23120   0.24025   0.27404
     Eigenvalues ---    0.30636   0.30774   0.33339   0.33400   0.34145
     Eigenvalues ---    0.34283   0.34369   0.39217   0.41553   0.43661
     Eigenvalues ---    0.51818   0.62682   0.68561   1.27306
 RFO step:  Lambda=-2.16976666D-02 EMin= 5.20058489D-03
 Linear search not attempted -- first point.
 Iteration  1 RMS(Cart)=  0.05007776 RMS(Int)=  0.00105083
 Iteration  2 RMS(Cart)=  0.00132633 RMS(Int)=  0.00031416
 Iteration  3 RMS(Cart)=  0.00000069 RMS(Int)=  0.00031416
 Variable       Old X    -DE/DX   Delta X   Delta X   Delta X     New X
                                 (Linear)    (Quad)   (Total)
    R1        2.19349  -0.00471   0.00000  -0.00364  -0.00364   2.18986
    R2        2.69496  -0.06520   0.00000  -0.14912  -0.14912   2.54585
    R3        2.54491   0.03279   0.00000   0.05873   0.05855   2.60346
    R4        2.70681   0.02265   0.00000   0.05845   0.05826   2.76507
    R5        2.46542  -0.03000   0.00000  -0.04594  -0.04590   2.41952
    R6        2.08355  -0.01151   0.00000  -0.03235  -0.03235   2.05120
    R7        2.84945  -0.00362   0.00000  -0.01735  -0.01715   2.83230
    R8        2.86446   0.00781   0.00000   0.02372   0.02372   2.88818
    R9        2.91218   0.00958   0.00000   0.03129   0.03142   2.94360
   R10        2.06855  -0.00151   0.00000  -0.00416  -0.00416   2.06440
   R11        2.44746  -0.03468   0.00000  -0.04903  -0.04903   2.39843
   R12        2.08460  -0.00774   0.00000  -0.02180  -0.02180   2.06280
   R13        1.93562   0.00070   0.00000   0.00153   0.00153   1.93716
   R14        2.07085   0.00156   0.00000   0.00429   0.00429   2.07514
   R15        2.06711  -0.00290   0.00000  -0.00795  -0.00795   2.05917
    A1        2.17763   0.00338   0.00000   0.00627   0.00641   2.18404
    A2        2.16549   0.00515   0.00000   0.01244   0.01275   2.17824
    A3        1.91655  -0.00848   0.00000  -0.01713  -0.01754   1.89900
    A4        2.04525  -0.00479   0.00000  -0.01943  -0.01959   2.02565
    A5        2.06385   0.00445   0.00000   0.02125   0.02131   2.08517
    A6        2.17272   0.00035   0.00000  -0.00161  -0.00150   2.17121
    A7        1.80203   0.01869   0.00000   0.05149   0.05152   1.85355
    A8        1.89321   0.00008   0.00000   0.01593   0.01555   1.90876
    A9        1.85650  -0.00368   0.00000  -0.02164  -0.02203   1.83448
   A10        1.92931   0.00099   0.00000  -0.01104  -0.01125   1.91806
   A11        1.93544   0.00783   0.00000   0.04486   0.04515   1.98059
   A12        1.89393  -0.00246   0.00000  -0.00841  -0.00812   1.88581
   A13        1.95467  -0.00260   0.00000  -0.01851  -0.01912   1.93555
   A14        2.16123   0.01048   0.00000   0.04336   0.04335   2.20458
   A15        2.05535  -0.00601   0.00000  -0.02593  -0.02593   2.02941
   A16        2.06657  -0.00446   0.00000  -0.01738  -0.01739   2.04918
   A17        1.96628  -0.00732   0.00000  -0.04027  -0.04027   1.92602
   A18        1.75046  -0.00284   0.00000  -0.00163  -0.00166   1.74880
   A19        1.88798   0.00183   0.00000   0.01950   0.01891   1.90689
   A20        2.01036  -0.00150   0.00000  -0.03322  -0.03299   1.97737
   A21        1.90901   0.00270   0.00000   0.02542   0.02513   1.93414
   A22        1.99286   0.00131   0.00000  -0.00089  -0.00123   1.99164
   A23        1.90563  -0.00125   0.00000  -0.00521  -0.00511   1.90052
   A24        3.12383   0.00135   0.00000   0.03827   0.03827   3.16210
   A25        3.15608   0.00057   0.00000   0.01610   0.01610   3.17218
    D1       -2.78527  -0.00144   0.00000  -0.03683  -0.03639  -2.82166
    D2        0.40998  -0.00162   0.00000  -0.04088  -0.04074   0.36924
    D3        0.13222  -0.00073   0.00000  -0.02817  -0.02739   0.10483
    D4       -2.95572  -0.00091   0.00000  -0.03222  -0.03174  -2.98746
    D5        2.65680  -0.00028   0.00000   0.00665   0.00704   2.66384
    D6       -1.62813   0.00210   0.00000   0.04092   0.04116  -1.58697
    D7        0.50903   0.00084   0.00000   0.02621   0.02613   0.53516
    D8       -0.26257  -0.00073   0.00000  -0.00102  -0.00095  -0.26353
    D9        1.73568   0.00165   0.00000   0.03325   0.03317   1.76885
   D10       -2.41035   0.00039   0.00000   0.01854   0.01814  -2.39221
   D11        0.07700   0.00296   0.00000   0.04458   0.04488   0.12188
   D12       -3.12195   0.00327   0.00000   0.04963   0.05021  -3.07174
   D13        1.84431   0.00225   0.00000   0.00576   0.00518   1.84949
   D14       -0.23859  -0.00500   0.00000  -0.04357  -0.04405  -0.28264
   D15       -2.36435  -0.00012   0.00000  -0.00124  -0.00193  -2.36628
   D16        3.10310  -0.00012   0.00000  -0.00722  -0.00760   3.09551
   D17       -0.04786   0.00005   0.00000  -0.00226  -0.00265  -0.05051
   D18       -1.14747  -0.00012   0.00000   0.00132   0.00169  -1.14578
   D19        1.98476   0.00006   0.00000   0.00627   0.00663   1.99139
   D20        1.00639   0.00007   0.00000   0.00170   0.00172   1.00811
   D21       -2.14457   0.00024   0.00000   0.00665   0.00667  -2.13791
   D22        0.30024   0.00225   0.00000   0.02292   0.02202   0.32226
   D23       -1.68197   0.00057   0.00000  -0.00703  -0.00763  -1.68961
   D24        2.46021  -0.00077   0.00000  -0.01890  -0.01943   2.44078
   D25       -1.75489   0.00014   0.00000  -0.00735  -0.00771  -1.76260
   D26        2.54608  -0.00154   0.00000  -0.03730  -0.03736   2.50872
   D27        0.40508  -0.00288   0.00000  -0.04918  -0.04915   0.35593
   D28        2.40978  -0.00043   0.00000  -0.01540  -0.01559   2.39419
   D29        0.42757  -0.00211   0.00000  -0.04536  -0.04524   0.38232
   D30       -1.71343  -0.00346   0.00000  -0.05723  -0.05704  -1.77047
   D31       -0.02688   0.00017   0.00000   0.00409   0.00410  -0.02277
   D32        3.12414   0.00000   0.00000  -0.00085  -0.00086   3.12329
         Item               Value     Threshold  Converged?
 Maximum Force            0.065197     0.000450     NO 
 RMS     Force            0.011347     0.000300     NO 
 Maximum Displacement     0.150690     0.001800     NO 
 RMS     Displacement     0.050194     0.001200     NO 
 Predicted change in Energy=-1.170158D-02
 GradGradGradGradGradGradGradGradGradGradGradGradGradGradGradGradGradGrad

                          Input orientation:                          
 ---------------------------------------------------------------------
 Center     Atomic      Atomic             Coordinates (Angstroms)
 Number     Number       Type             X           Y           Z
 ---------------------------------------------------------------------
      1          7           0        1.355608   -0.013514   -0.116637
      2          6           0        2.513642    0.027479   -0.104574
      3          7           0        3.860314    0.056927   -0.128410
      4          6           0        4.681197   -1.026298    0.096984
      5          7           0        5.897659   -0.758247    0.393094
      6          6           0        5.969106    0.729391    0.561022
      7          6           0        6.082704    1.066713    2.047356
      8          7           0        6.210475    2.226278    2.547297
      9          6           0        4.669628    1.275654   -0.101801
     10          1           0        4.287393   -2.029997   -0.028318
     11          1           0        6.856833    1.118234    0.056887
     12          1           0        6.045499    0.222744    2.738655
     13          1           0        6.250597    2.932127    1.805005
     14          1           0        4.864799    1.603342   -1.131553
     15          1           0        4.200328    2.092718    0.445494
 ---------------------------------------------------------------------
                    Distance matrix (angstroms):
                    1          2          3          4          5
     1  N    0.000000
     2  C    1.158823   0.000000
     3  N    2.505724   1.347204   0.000000
     4  C    3.482945   2.418546   1.377689   0.000000
     5  N    4.630840   3.509502   2.255493   1.280356   0.000000
     6  C    4.721811   3.588304   2.318303   2.226316   1.498789
     7  C    5.309915   4.295231   3.269961   3.185729   2.470081
     8  N    5.973521   5.053089   4.169982   4.349940   3.694027
     9  C    3.555967   2.491229   1.463213   2.310547   2.426877
    10  H    3.559405   2.717575   2.132526   1.085447   2.094730
    11  H    5.619114   4.480973   3.184310   3.055162   2.134064
    12  H    5.495780   4.538292   3.608683   3.224881   2.546735
    13  H    6.027473   5.103754   4.209314   4.587971   3.966978
    14  H    3.994834   3.010974   2.099210   2.908267   2.994737
    15  H    3.583941   2.722627   2.142293   3.175051   3.318384
                    6          7          8          9         10
     6  C    0.000000
     7  C    1.528358   0.000000
     8  N    2.498844   1.269196   0.000000
     9  C    1.557684   2.580565   3.208678   0.000000
    10  H    3.284768   4.137775   5.333659   3.328488   0.000000
    11  H    1.092433   2.136327   2.801371   2.198597   4.064559
    12  H    2.237099   1.091587   2.019402   3.327135   3.977679
    13  H    2.545344   1.888568   1.025100   2.979811   5.642510
    14  H    2.201839   3.446262   3.966464   1.098117   3.840791
    15  H    2.236198   2.676188   2.911375   1.089664   4.150766
                   11         12         13         14         15
    11  H    0.000000
    12  H    2.941435   0.000000
    13  H    2.591070   2.873068   0.000000
    14  H    2.369793   4.275350   3.508487   0.000000
    15  H    2.856160   3.487125   2.599323   1.779913   0.000000
 Stoichiometry    C5H6N4
 Framework group  C1[X(C5H6N4)]
 Deg. of freedom    39
 Full point group                 C1      NOp   1
 Largest Abelian subgroup         C1      NOp   1
 Largest concise Abelian subgroup C1      NOp   1
                         Standard orientation:                         
 ---------------------------------------------------------------------
 Center     Atomic      Atomic             Coordinates (Angstroms)
 Number     Number       Type             X           Y           Z
 ---------------------------------------------------------------------
      1          7           0       -3.201822   -1.048845   -0.428569
      2          6           0       -2.220314   -0.506391   -0.136581
      3          7           0       -1.101736    0.150951    0.226247
      4          6           0       -0.696660    1.366343   -0.280469
      5          7           0        0.535800    1.666047   -0.105730
      6          6           0        1.183490    0.447744    0.479594
      7          6           0        2.042403   -0.231351   -0.586698
      8          7           0        2.767965   -1.259989   -0.424458
      9          6           0        0.004242   -0.436937    0.982680
     10          1           0       -1.425995    2.019175   -0.749593
     11          1           0        1.835938    0.734935    1.307387
     12          1           0        2.020498    0.216231   -1.582064
     13          1           0        2.722241   -1.578641    0.548784
     14          1           0       -0.168897   -0.282921    2.056069
     15          1           0        0.135810   -1.502370    0.795836
 ---------------------------------------------------------------------
 Rotational constants (GHZ):           3.3099661           1.1080470           0.9394736
 Standard basis: 6-31G(2df,p) (6D, 7F)
 There are   309 symmetry adapted cartesian basis functions of A   symmetry.
 There are   282 symmetry adapted basis functions of A   symmetry.
   282 basis functions,   438 primitive gaussians,   309 cartesian basis functions
    32 alpha electrons       32 beta electrons
       nuclear repulsion energy       404.9923031006 Hartrees.
 NAtoms=   15 NActive=   15 NUniq=   15 SFac= 1.00D+00 NAtFMM=   60 NAOKFM=F Big=F
 Integral buffers will be    131072 words long.
 Raffenetti 2 integral format.
 Two-electron integral symmetry is turned on.
 One-electron integrals computed using PRISM.
 PrsmSu:  requested number of processors reduced to:  13 ShMem   1 Linda.
 NBasis=   282 RedAO= T EigKep=  1.17D-04  NBF=   282
 NBsUse=   282 1.00D-06 EigRej= -1.00D+00 NBFU=   282
 Initial guess from the checkpoint file:  "NtCN1CdNCpCdNpC1.chk"
 B after Tr=     0.000000    0.000000    0.000000
         Rot=    0.999873   -0.013380    0.003940   -0.007772 Ang=  -1.83 deg.
 ExpMin= 1.61D-01 ExpMax= 4.17D+03 ExpMxC= 6.27D+02 IAcc=2 IRadAn=         4 AccDes= 0.00D+00
 Harris functional with IExCor=  402 and IRadAn=       4 diagonalized for initial guess.
 HarFok:  IExCor=  402 AccDes= 0.00D+00 IRadAn=         4 IDoV= 1 UseB2=F ITyADJ=14
 ICtDFT=  3500011 ScaDFX=  1.000000  1.000000  1.000000  1.000000
 FoFCou: FMM=F IPFlag=           0 FMFlag=      100000 FMFlg1=           0
         NFxFlg=           0 DoJE=T BraDBF=F KetDBF=T FulRan=T
         wScrn=  0.000000 ICntrl=       500 IOpCl=  0 I1Cent=   200000004 NGrid=           0
         NMat0=    1 NMatS0=      1 NMatT0=    0 NMatD0=    1 NMtDS0=    0 NMtDT0=    0
 Petite list used in FoFCou.
 Requested convergence on RMS density matrix=1.00D-08 within 128 cycles.
 Requested convergence on MAX density matrix=1.00D-06.
 Requested convergence on             energy=1.00D-06.
 No special actions if energy rises.
 Integral accuracy reduced to 1.0D-05 until final iterations.
 Initial convergence to 1.0D-05 achieved.  Increase integral accuracy.
 SCF Done:  E(RB3LYP) =  -413.099567271     A.U. after   13 cycles
            NFock= 13  Conv=0.60D-08     -V/T= 2.0073
 PrsmSu:  requested number of processors reduced to:  13 ShMem   1 Linda.
 Calling FoFJK, ICntrl=      2127 FMM=F ISym2X=0 I1Cent= 0 IOpClX= 0 NMat=1 NMatS=1 NMatT=0.
 ***** Axes restored to original set *****
 -------------------------------------------------------------------
 Center     Atomic                   Forces (Hartrees/Bohr)
 Number     Number              X              Y              Z
 -------------------------------------------------------------------
      1        7          -0.004669627    0.000467624    0.000802717
      2        6           0.016894568   -0.000687292   -0.004601755
      3        7          -0.032399004    0.007071197    0.001578443
      4        6           0.023228658   -0.008106723    0.002426501
      5        7          -0.009001160    0.005756507    0.000290679
      6        6          -0.000117272   -0.009293349    0.000950091
      7        6           0.000556211    0.003646240    0.002648612
      8        7           0.000149543   -0.002305438   -0.002702342
      9        6           0.010248496    0.004289269   -0.003489042
     10        1          -0.001113408    0.001175439    0.001158313
     11        1           0.000229157   -0.000534007   -0.001136570
     12        1          -0.000218065   -0.002597296   -0.001472380
     13        1          -0.000155488    0.002699587    0.000148795
     14        1          -0.001422897    0.000229515    0.001502330
     15        1          -0.002209710   -0.001811274    0.001895607
 -------------------------------------------------------------------
 Cartesian Forces:  Max     0.032399004 RMS     0.007380871

 GradGradGradGradGradGradGradGradGradGradGradGradGradGradGradGradGradGrad
 Berny optimization.
 Using GEDIIS/GDIIS optimizer.
 FormGI is forming the generalized inverse of G from B-inverse, IUseBI=4.
 Internal  Forces:  Max     0.014489080 RMS     0.003140068
 Search for a local minimum.
 Step number   2 out of a maximum of   82
 All quantities printed in internal units (Hartrees-Bohrs-Radians)
 Mixed Optimization -- RFO/linear search
 Update second derivatives using D2CorX and points    1    2
 DE= -1.32D-02 DEPred=-1.17D-02 R= 1.13D+00
 TightC=F SS=  1.41D+00  RLast= 2.80D-01 DXNew= 5.0454D-01 8.3947D-01
 Trust test= 1.13D+00 RLast= 2.80D-01 DXMaxT set to 5.05D-01
 ITU=  1  0
 Use linear search instead of GDIIS.
     Eigenvalues ---    0.00531   0.00557   0.01197   0.01346   0.01361
     Eigenvalues ---    0.01733   0.01944   0.02609   0.03078   0.04532
     Eigenvalues ---    0.04881   0.05425   0.05981   0.07867   0.08241
     Eigenvalues ---    0.08978   0.15711   0.15941   0.15986   0.16350
     Eigenvalues ---    0.20243   0.21909   0.23510   0.24050   0.27596
     Eigenvalues ---    0.28196   0.30915   0.33328   0.33653   0.34127
     Eigenvalues ---    0.34287   0.34393   0.37281   0.39949   0.43723
     Eigenvalues ---    0.50688   0.61032   0.69836   1.27753
 RFO step:  Lambda=-2.93240205D-03 EMin= 5.31265224D-03
 Quartic linear search produced a step of  0.20083.
 Iteration  1 RMS(Cart)=  0.04750624 RMS(Int)=  0.00271686
 Iteration  2 RMS(Cart)=  0.00385724 RMS(Int)=  0.00019820
 Iteration  3 RMS(Cart)=  0.00002564 RMS(Int)=  0.00019705
 Iteration  4 RMS(Cart)=  0.00000000 RMS(Int)=  0.00019705
 Variable       Old X    -DE/DX   Delta X   Delta X   Delta X     New X
                                 (Linear)    (Quad)   (Total)
    R1        2.18986   0.00464  -0.00073   0.00463   0.00390   2.19376
    R2        2.54585  -0.01228  -0.02995  -0.02178  -0.05173   2.49412
    R3        2.60346   0.01449   0.01176   0.02710   0.03912   2.64258
    R4        2.76507   0.00473   0.01170   0.01058   0.02238   2.78745
    R5        2.41952  -0.00893  -0.00922  -0.01305  -0.02219   2.39733
    R6        2.05120  -0.00082  -0.00650   0.00019  -0.00631   2.04489
    R7        2.83230  -0.00684  -0.00344  -0.02707  -0.03076   2.80154
    R8        2.88818  -0.00100   0.00476  -0.00618  -0.00141   2.88677
    R9        2.94360   0.00082   0.00631   0.00021   0.00635   2.94994
   R10        2.06440   0.00052  -0.00083   0.00220   0.00137   2.06576
   R11        2.39843  -0.00065  -0.00985   0.00281  -0.00703   2.39140
   R12        2.06280   0.00108  -0.00438   0.00595   0.00157   2.06437
   R13        1.93716   0.00175   0.00031   0.00462   0.00493   1.94209
   R14        2.07514  -0.00159   0.00086  -0.00595  -0.00509   2.07005
   R15        2.05917   0.00054  -0.00160   0.00263   0.00103   2.06020
    A1        2.18404   0.00400   0.00129   0.01677   0.01801   2.20205
    A2        2.17824   0.00358   0.00256   0.01309   0.01554   2.19379
    A3        1.89900  -0.00753  -0.00352  -0.02390  -0.02766   1.87134
    A4        2.02565   0.00154  -0.00393   0.01459   0.01021   2.03586
    A5        2.08517  -0.00193   0.00428  -0.01641  -0.01236   2.07281
    A6        2.17121   0.00044  -0.00030   0.00381   0.00328   2.17449
    A7        1.85355   0.00343   0.01035   0.00746   0.01695   1.87050
    A8        1.90876  -0.00059   0.00312  -0.00396  -0.00078   1.90798
    A9        1.83448   0.00144  -0.00442   0.01324   0.00815   1.84263
   A10        1.91806  -0.00046  -0.00226  -0.00071  -0.00279   1.91527
   A11        1.98059  -0.00021   0.00907  -0.00459   0.00468   1.98528
   A12        1.88581   0.00037  -0.00163  -0.00007  -0.00175   1.88406
   A13        1.93555  -0.00057  -0.00384  -0.00372  -0.00752   1.92803
   A14        2.20458   0.00054   0.00871  -0.00192   0.00678   2.21136
   A15        2.02941  -0.00314  -0.00521  -0.01965  -0.02486   2.00455
   A16        2.04918   0.00261  -0.00349   0.02158   0.01809   2.06727
   A17        1.92602   0.00393  -0.00809   0.03406   0.02598   1.95199
   A18        1.74880   0.00127  -0.00033   0.01264   0.01180   1.76061
   A19        1.90689  -0.00029   0.00380  -0.00829  -0.00467   1.90222
   A20        1.97737  -0.00214  -0.00663  -0.02254  -0.02891   1.94846
   A21        1.93414  -0.00008   0.00505   0.00325   0.00846   1.94260
   A22        1.99164   0.00071  -0.00025   0.00669   0.00643   1.99806
   A23        1.90052   0.00050  -0.00103   0.00751   0.00619   1.90671
   A24        3.16210  -0.00182   0.00769  -0.15890  -0.15122   3.01088
   A25        3.17218  -0.00110   0.00323  -0.09166  -0.08842   3.08376
    D1       -2.82166  -0.00014  -0.00731  -0.01038  -0.01791  -2.83957
    D2        0.36924  -0.00127  -0.00818  -0.05284  -0.06102   0.30822
    D3        0.10483   0.00032  -0.00550   0.01941   0.01383   0.11866
    D4       -2.98746  -0.00081  -0.00638  -0.02304  -0.02929  -3.01675
    D5        2.66384   0.00132   0.00141   0.06097   0.06226   2.72610
    D6       -1.58697   0.00173   0.00827   0.06758   0.07569  -1.51128
    D7        0.53516   0.00072   0.00525   0.05601   0.06134   0.59650
    D8       -0.26353   0.00079  -0.00019   0.03071   0.03030  -0.23323
    D9        1.76885   0.00120   0.00666   0.03732   0.04373   1.81258
   D10       -2.39221   0.00019   0.00364   0.02575   0.02938  -2.36283
   D11        0.12188  -0.00072   0.00901  -0.06056  -0.05160   0.07028
   D12       -3.07174   0.00040   0.01008  -0.01637  -0.00617  -3.07791
   D13        1.84949   0.00051   0.00104   0.07340   0.07435   1.92383
   D14       -0.28264   0.00023  -0.00885   0.07326   0.06438  -0.21826
   D15       -2.36628   0.00033  -0.00039   0.07051   0.07009  -2.29619
   D16        3.09551  -0.00058  -0.00153   0.00883   0.00750   3.10301
   D17       -0.05051  -0.00048  -0.00053   0.01285   0.01248  -0.03802
   D18       -1.14578   0.00070   0.00034   0.01993   0.02012  -1.12566
   D19        1.99139   0.00080   0.00133   0.02395   0.02510   2.01649
   D20        1.00811   0.00010   0.00035   0.01200   0.01234   1.02045
   D21       -2.13791   0.00019   0.00134   0.01602   0.01732  -2.12059
   D22        0.32226   0.00017   0.00442  -0.05657  -0.05237   0.26989
   D23       -1.68961  -0.00011  -0.00153  -0.05477  -0.05641  -1.74602
   D24        2.44078  -0.00124  -0.00390  -0.07231  -0.07643   2.36435
   D25       -1.76260   0.00007  -0.00155  -0.05779  -0.05943  -1.82202
   D26        2.50872  -0.00021  -0.00750  -0.05599  -0.06347   2.44526
   D27        0.35593  -0.00134  -0.00987  -0.07354  -0.08349   0.27244
   D28        2.39419   0.00017  -0.00313  -0.05162  -0.05487   2.33932
   D29        0.38232  -0.00012  -0.00909  -0.04982  -0.05891   0.32342
   D30       -1.77047  -0.00125  -0.01145  -0.06736  -0.07893  -1.84940
   D31       -0.02277   0.00042   0.00082   0.01477   0.01564  -0.00714
   D32        3.12329   0.00033  -0.00017   0.01080   0.01059   3.13388
         Item               Value     Threshold  Converged?
 Maximum Force            0.014489     0.000450     NO 
 RMS     Force            0.003140     0.000300     NO 
 Maximum Displacement     0.176151     0.001800     NO 
 RMS     Displacement     0.046314     0.001200     NO 
 Predicted change in Energy=-2.170183D-03
 GradGradGradGradGradGradGradGradGradGradGradGradGradGradGradGradGradGrad

                          Input orientation:                          
 ---------------------------------------------------------------------
 Center     Atomic      Atomic             Coordinates (Angstroms)
 Number     Number       Type             X           Y           Z
 ---------------------------------------------------------------------
      1          7           0        1.362276    0.073555   -0.143450
      2          6           0        2.518839   -0.010495   -0.197789
      3          7           0        3.836784    0.037710   -0.146254
      4          6           0        4.693245   -1.041001    0.095321
      5          7           0        5.880848   -0.758362    0.440420
      6          6           0        5.958466    0.716007    0.574801
      7          6           0        6.110804    1.081693    2.050153
      8          7           0        6.245965    2.244377    2.531111
      9          6           0        4.651053    1.265724   -0.077380
     10          1           0        4.311778   -2.046246   -0.026844
     11          1           0        6.837328    1.089434    0.042691
     12          1           0        6.098777    0.232510    2.737263
     13          1           0        6.250862    2.963610    1.797035
     14          1           0        4.835709    1.628465   -1.094371
     15          1           0        4.153044    2.046570    0.497794
 ---------------------------------------------------------------------
                    Distance matrix (angstroms):
                    1          2          3          4          5
     1  N    0.000000
     2  C    1.160885   0.000000
     3  N    2.474769   1.319833   0.000000
     4  C    3.520596   2.424025   1.398392   0.000000
     5  N    4.631466   3.502816   2.270708   1.268613   0.000000
     6  C    4.696125   3.599407   2.341269   2.217602   1.482513
     7  C    5.326983   4.375880   3.329455   3.215068   2.455589
     8  N    5.976299   5.140312   4.223957   4.374667   3.677056
     9  C    3.498812   2.487884   1.475057   2.313565   2.424342
    10  H    3.634104   2.718112   2.140736   1.082109   2.083017
    11  H    5.571611   4.462849   3.185136   3.023014   2.118347
    12  H    5.546008   4.635680   3.670045   3.252261   2.510937
    13  H    6.001347   5.172293   4.262046   4.621569   3.978742
    14  H    3.922592   2.976228   2.104109   2.926040   3.024044
    15  H    3.477408   2.717715   2.133152   3.160205   3.294881
                    6          7          8          9         10
     6  C    0.000000
     7  C    1.527611   0.000000
     8  N    2.499144   1.265474   0.000000
     9  C    1.561044   2.586723   3.210253   0.000000
    10  H    3.271635   4.163461   5.356646   3.329685   0.000000
    11  H    1.093155   2.134901   2.806392   2.196655   4.026876
    12  H    2.220292   1.092417   2.027750   3.329511   4.003296
    13  H    2.575087   1.904021   1.027709   2.992597   5.673203
    14  H    2.208913   3.436983   3.938564   1.095422   3.862333
    15  H    2.244076   2.678363   2.924691   1.090210   4.129356
                   11         12         13         14         15
    11  H    0.000000
    12  H    2.922412   0.000000
    13  H    2.633287   2.892414   0.000000
    14  H    2.364306   4.269127   3.485039   0.000000
    15  H    2.885933   3.477342   2.632457   1.782087   0.000000
 Stoichiometry    C5H6N4
 Framework group  C1[X(C5H6N4)]
 Deg. of freedom    39
 Full point group                 C1      NOp   1
 Largest Abelian subgroup         C1      NOp   1
 Largest concise Abelian subgroup C1      NOp   1
                         Standard orientation:                         
 ---------------------------------------------------------------------
 Center     Atomic      Atomic             Coordinates (Angstroms)
 Number     Number       Type             X           Y           Z
 ---------------------------------------------------------------------
      1          7           0       -3.174807   -1.088381   -0.443333
      2          6           0       -2.269221   -0.436856   -0.122268
      3          7           0       -1.137869    0.154755    0.212393
      4          6           0       -0.687225    1.395357   -0.249481
      5          7           0        0.546403    1.646687   -0.093360
      6          6           0        1.171449    0.431250    0.480989
      7          6           0        2.078397   -0.213377   -0.565671
      8          7           0        2.799437   -1.241822   -0.411314
      9          6           0       -0.015288   -0.477999    0.930187
     10          1           0       -1.399212    2.071684   -0.704033
     11          1           0        1.789778    0.704849    1.339942
     12          1           0        2.085647    0.286172   -1.537151
     13          1           0        2.721229   -1.624438    0.539304
     14          1           0       -0.191558   -0.398509    2.008408
     15          1           0        0.093298   -1.528678    0.660295
 ---------------------------------------------------------------------
 Rotational constants (GHZ):           3.3494088           1.1009689           0.9294324
 Standard basis: 6-31G(2df,p) (6D, 7F)
 There are   309 symmetry adapted cartesian basis functions of A   symmetry.
 There are   282 symmetry adapted basis functions of A   symmetry.
   282 basis functions,   438 primitive gaussians,   309 cartesian basis functions
    32 alpha electrons       32 beta electrons
       nuclear repulsion energy       404.9174585036 Hartrees.
 NAtoms=   15 NActive=   15 NUniq=   15 SFac= 1.00D+00 NAtFMM=   60 NAOKFM=F Big=F
 Integral buffers will be    131072 words long.
 Raffenetti 2 integral format.
 Two-electron integral symmetry is turned on.
 One-electron integrals computed using PRISM.
 PrsmSu:  requested number of processors reduced to:  13 ShMem   1 Linda.
 NBasis=   282 RedAO= T EigKep=  1.22D-04  NBF=   282
 NBsUse=   282 1.00D-06 EigRej= -1.00D+00 NBFU=   282
 Initial guess from the checkpoint file:  "NtCN1CdNCpCdNpC1.chk"
 B after Tr=    -0.000000   -0.000000   -0.000000
         Rot=    0.999949   -0.009641    0.003079   -0.000322 Ang=  -1.16 deg.
 ExpMin= 1.61D-01 ExpMax= 4.17D+03 ExpMxC= 6.27D+02 IAcc=2 IRadAn=         4 AccDes= 0.00D+00
 Harris functional with IExCor=  402 and IRadAn=       4 diagonalized for initial guess.
 HarFok:  IExCor=  402 AccDes= 0.00D+00 IRadAn=         4 IDoV= 1 UseB2=F ITyADJ=14
 ICtDFT=  3500011 ScaDFX=  1.000000  1.000000  1.000000  1.000000
 FoFCou: FMM=F IPFlag=           0 FMFlag=      100000 FMFlg1=           0
         NFxFlg=           0 DoJE=T BraDBF=F KetDBF=T FulRan=T
         wScrn=  0.000000 ICntrl=       500 IOpCl=  0 I1Cent=   200000004 NGrid=           0
         NMat0=    1 NMatS0=      1 NMatT0=    0 NMatD0=    1 NMtDS0=    0 NMtDT0=    0
 Petite list used in FoFCou.
 Requested convergence on RMS density matrix=1.00D-08 within 128 cycles.
 Requested convergence on MAX density matrix=1.00D-06.
 Requested convergence on             energy=1.00D-06.
 No special actions if energy rises.
 Integral accuracy reduced to 1.0D-05 until final iterations.
 Initial convergence to 1.0D-05 achieved.  Increase integral accuracy.
 SCF Done:  E(RB3LYP) =  -413.100258704     A.U. after   13 cycles
            NFock= 13  Conv=0.94D-08     -V/T= 2.0072
 PrsmSu:  requested number of processors reduced to:  13 ShMem   1 Linda.
 Calling FoFJK, ICntrl=      2127 FMM=F ISym2X=0 I1Cent= 0 IOpClX= 0 NMat=1 NMatS=1 NMatT=0.
 ***** Axes restored to original set *****
 -------------------------------------------------------------------
 Center     Atomic                   Forces (Hartrees/Bohr)
 Number     Number              X              Y              Z
 -------------------------------------------------------------------
      1        7          -0.004069420   -0.004205251   -0.005494747
      2        6          -0.006929568    0.008688279    0.007191630
      3        7           0.009922592   -0.004179267   -0.001120866
      4        6           0.002133165   -0.002693536    0.000915973
      5        7           0.000769201    0.003446246   -0.001087719
      6        6          -0.001790453   -0.003312456    0.001037425
      7        6           0.000108233    0.000611047   -0.001150111
      8        7          -0.000168327    0.002389071    0.000432459
      9        6           0.002123212    0.002240395   -0.003061436
     10        1          -0.001698203   -0.001248268    0.000140992
     11        1           0.000231610   -0.000294440   -0.000871033
     12        1           0.000357218   -0.000663298    0.000269637
     13        1           0.000084748   -0.001168243    0.000556603
     14        1          -0.000730566    0.001001863    0.000791262
     15        1          -0.000343442   -0.000612141    0.001449932
 -------------------------------------------------------------------
 Cartesian Forces:  Max     0.009922592 RMS     0.003117564

 GradGradGradGradGradGradGradGradGradGradGradGradGradGradGradGradGradGrad
 Berny optimization.
 Using GEDIIS/GDIIS optimizer.
 FormGI is forming the generalized inverse of G from B-inverse, IUseBI=4.
 Internal  Forces:  Max     0.013417592 RMS     0.002357691
 Search for a local minimum.
 Step number   3 out of a maximum of   82
 All quantities printed in internal units (Hartrees-Bohrs-Radians)
 Mixed Optimization -- RFO/linear search
 Update second derivatives using D2CorX and points    1    2    3
 DE= -6.91D-04 DEPred=-2.17D-03 R= 3.19D-01
 Trust test= 3.19D-01 RLast= 3.50D-01 DXMaxT set to 5.05D-01
 ITU=  0  1  0
 Use linear search instead of GDIIS.
     Eigenvalues ---    0.00431   0.00556   0.01217   0.01345   0.01503
     Eigenvalues ---    0.01872   0.02506   0.03000   0.03302   0.04563
     Eigenvalues ---    0.04909   0.05264   0.05909   0.07890   0.08404
     Eigenvalues ---    0.09042   0.15453   0.16007   0.16081   0.16407
     Eigenvalues ---    0.20267   0.21580   0.23786   0.24233   0.25791
     Eigenvalues ---    0.27697   0.30966   0.33366   0.33640   0.34078
     Eigenvalues ---    0.34276   0.34379   0.36849   0.42849   0.43734
     Eigenvalues ---    0.50532   0.60504   0.69852   1.27840
 RFO step:  Lambda=-4.87614183D-03 EMin= 4.30640644D-03
 Quartic linear search produced a step of -0.38733.
 Iteration  1 RMS(Cart)=  0.09153904 RMS(Int)=  0.01997456
 Iteration  2 RMS(Cart)=  0.03526184 RMS(Int)=  0.00274294
 Iteration  3 RMS(Cart)=  0.00278604 RMS(Int)=  0.00011823
 Iteration  4 RMS(Cart)=  0.00000844 RMS(Int)=  0.00011813
 Iteration  5 RMS(Cart)=  0.00000000 RMS(Int)=  0.00011813
 Variable       Old X    -DE/DX   Delta X   Delta X   Delta X     New X
                                 (Linear)    (Quad)   (Total)
    R1        2.19376   0.00349  -0.00151   0.00657   0.00506   2.19882
    R2        2.49412   0.01080   0.02003  -0.07826  -0.05822   2.43590
    R3        2.64258   0.00209  -0.01515   0.06570   0.05064   2.69321
    R4        2.78745   0.00131  -0.00867   0.04186   0.03326   2.82071
    R5        2.39733   0.00078   0.00860  -0.03676  -0.02817   2.36916
    R6        2.04489   0.00174   0.00244  -0.01040  -0.00796   2.03693
    R7        2.80154  -0.00133   0.01191  -0.04854  -0.03673   2.76482
    R8        2.88677   0.00042   0.00055   0.00228   0.00283   2.88960
    R9        2.94994  -0.00044  -0.00246   0.01161   0.00911   2.95906
   R10        2.06576   0.00051  -0.00053   0.00217   0.00164   2.06741
   R11        2.39140   0.00149   0.00272  -0.01551  -0.01279   2.37861
   R12        2.06437   0.00068  -0.00061   0.00022  -0.00038   2.06398
   R13        1.94209  -0.00122  -0.00191   0.00546   0.00355   1.94564
   R14        2.07005  -0.00053   0.00197  -0.00737  -0.00539   2.06465
   R15        2.06020   0.00040  -0.00040   0.00097   0.00057   2.06076
    A1        2.20205   0.00115  -0.00698   0.02947   0.02205   2.22409
    A2        2.19379  -0.00131  -0.00602   0.02078   0.01424   2.20802
    A3        1.87134   0.00031   0.01072  -0.03904  -0.02844   1.84290
    A4        2.03586  -0.00169  -0.00396   0.00636   0.00261   2.03848
    A5        2.07281  -0.00020   0.00479  -0.01586  -0.01116   2.06165
    A6        2.17449   0.00188  -0.00127   0.00974   0.00839   2.18288
    A7        1.87050   0.00108  -0.00657   0.03072   0.02421   1.89471
    A8        1.90798   0.00022   0.00030   0.00471   0.00490   1.91288
    A9        1.84263   0.00071  -0.00316   0.00760   0.00440   1.84702
   A10        1.91527  -0.00034   0.00108  -0.00676  -0.00566   1.90961
   A11        1.98528  -0.00027  -0.00181   0.01275   0.01084   1.99611
   A12        1.88406   0.00023   0.00068  -0.00329  -0.00257   1.88149
   A13        1.92803  -0.00055   0.00291  -0.01525  -0.01227   1.91576
   A14        2.21136   0.00025  -0.00263   0.01643   0.01380   2.22517
   A15        2.00455  -0.00030   0.00963  -0.03901  -0.02938   1.97517
   A16        2.06727   0.00004  -0.00701   0.02257   0.01556   2.08283
   A17        1.95199  -0.00084  -0.01006   0.02665   0.01659   1.96858
   A18        1.76061  -0.00045  -0.00457   0.01193   0.00744   1.76804
   A19        1.90222   0.00031   0.00181  -0.00014   0.00148   1.90370
   A20        1.94846  -0.00010   0.01120  -0.04682  -0.03562   1.91284
   A21        1.94260   0.00025  -0.00328   0.01871   0.01543   1.95803
   A22        1.99806   0.00007  -0.00249   0.00696   0.00420   2.00226
   A23        1.90671  -0.00008  -0.00240   0.00806   0.00554   1.91226
   A24        3.01088   0.01342   0.05857   0.27213   0.33070   3.34158
   A25        3.08376   0.00715   0.03425   0.13513   0.16938   3.25314
    D1       -2.83957  -0.00103   0.00694  -0.06318  -0.05654  -2.89611
    D2        0.30822  -0.00084   0.02364  -0.10533  -0.08179   0.22642
    D3        0.11866  -0.00029  -0.00536   0.00134  -0.00406   0.11459
    D4       -3.01675  -0.00011   0.01134  -0.04081  -0.02931  -3.04606
    D5        2.72610   0.00116  -0.02411   0.10350   0.07922   2.80532
    D6       -1.51128   0.00136  -0.02932   0.13035   0.10096  -1.41032
    D7        0.59650   0.00139  -0.02376   0.11053   0.08666   0.68316
    D8       -0.23323   0.00011  -0.01174   0.03816   0.02627  -0.20696
    D9        1.81258   0.00030  -0.01694   0.06501   0.04800   1.86058
   D10       -2.36283   0.00033  -0.01138   0.04519   0.03371  -2.32912
   D11        0.07028   0.00036   0.01999  -0.04053  -0.02044   0.04983
   D12       -3.07791   0.00015   0.00239   0.00425   0.00668  -3.07122
   D13        1.92383  -0.00022  -0.02880   0.08025   0.05151   1.97535
   D14       -0.21826  -0.00044  -0.02494   0.05783   0.03302  -0.18524
   D15       -2.29619  -0.00002  -0.02715   0.07506   0.04795  -2.24824
   D16        3.10301  -0.00020  -0.00291   0.01092   0.00801   3.11101
   D17       -0.03802  -0.00016  -0.00484   0.01924   0.01438  -0.02365
   D18       -1.12566   0.00067  -0.00779   0.03170   0.02393  -1.10173
   D19        2.01649   0.00072  -0.00972   0.04002   0.03030   2.04679
   D20        1.02045  -0.00004  -0.00478   0.01829   0.01354   1.03398
   D21       -2.12059   0.00000  -0.00671   0.02662   0.01991  -2.10068
   D22        0.26989   0.00013   0.02029  -0.05342  -0.03316   0.23673
   D23       -1.74602  -0.00009   0.02185  -0.06697  -0.04521  -1.79122
   D24        2.36435  -0.00024   0.02960  -0.09868  -0.06916   2.29519
   D25       -1.82202  -0.00045   0.02302  -0.07162  -0.04859  -1.87061
   D26        2.44526  -0.00067   0.02458  -0.08518  -0.06064   2.38462
   D27        0.27244  -0.00082   0.03234  -0.11688  -0.08460   0.18784
   D28        2.33932  -0.00015   0.02125  -0.06500  -0.04369   2.29563
   D29        0.32342  -0.00037   0.02282  -0.07856  -0.05574   0.26767
   D30       -1.84940  -0.00052   0.03057  -0.11026  -0.07970  -1.92910
   D31       -0.00714  -0.00010  -0.00606   0.01912   0.01310   0.00596
   D32        3.13388  -0.00015  -0.00410   0.01051   0.00637   3.14025
         Item               Value     Threshold  Converged?
 Maximum Force            0.013418     0.000450     NO 
 RMS     Force            0.002358     0.000300     NO 
 Maximum Displacement     0.588883     0.001800     NO 
 RMS     Displacement     0.112191     0.001200     NO 
 Predicted change in Energy=-3.559063D-03
 GradGradGradGradGradGradGradGradGradGradGradGradGradGradGradGradGradGrad

                          Input orientation:                          
 ---------------------------------------------------------------------
 Center     Atomic      Atomic             Coordinates (Angstroms)
 Number     Number       Type             X           Y           Z
 ---------------------------------------------------------------------
      1          7           0        1.373085   -0.175798   -0.455073
      2          6           0        2.488800    0.047192   -0.211474
      3          7           0        3.773069    0.077582   -0.105132
      4          6           0        4.648371   -1.020550    0.137998
      5          7           0        5.824022   -0.742741    0.473327
      6          6           0        5.944763    0.710929    0.586721
      7          6           0        6.185015    1.093274    2.047634
      8          7           0        6.367123    2.246614    2.517725
      9          6           0        4.629074    1.297885   -0.026778
     10          1           0        4.251792   -2.017960    0.039193
     11          1           0        6.807419    1.050557    0.005889
     12          1           0        6.197320    0.233048    2.720530
     13          1           0        6.336636    2.980694    1.796442
     14          1           0        4.783310    1.691115   -1.034392
     15          1           0        4.135980    2.051709    0.587891
 ---------------------------------------------------------------------
                    Distance matrix (angstroms):
                    1          2          3          4          5
     1  N    0.000000
     2  C    1.163565   0.000000
     3  N    2.438561   1.289022   0.000000
     4  C    3.434069   2.434327   1.425188   0.000000
     5  N    4.581942   3.495233   2.283409   1.253707   0.000000
     6  C    4.771987   3.608510   2.365596   2.209074   1.463077
     7  C    5.570346   4.456440   3.388734   3.236702   2.445345
     8  N    6.296509   5.227559   4.279392   4.392217   3.662072
     9  C    3.599533   2.485783   1.492656   2.324363   2.417057
    10  H    3.453232   2.726871   2.154368   1.077898   2.070402
    11  H    5.590029   4.438971   3.188462   2.994734   2.097972
    12  H    5.790065   4.731206   3.726330   3.261936   2.478192
    13  H    6.298381   5.238607   4.314617   4.648724   3.984643
    14  H    3.930726   2.940145   2.118395   2.957336   3.046302
    15  H    3.699074   2.714826   2.123479   3.147019   3.266737
                    6          7          8          9         10
     6  C    0.000000
     7  C    1.529109   0.000000
     8  N    2.503096   1.258706   0.000000
     9  C    1.565866   2.601154   3.224190   0.000000
    10  H    3.257725   4.177435   5.366967   3.337892   0.000000
    11  H    1.094024   2.134932   2.816688   2.192584   3.993512
    12  H    2.201203   1.092213   2.030865   3.337810   4.005207
    13  H    2.601696   1.910089   1.029588   3.011934   5.693948
    14  H    2.222104   3.438179   3.928686   1.092568   3.897735
    15  H    2.251531   2.692209   2.956391   1.090510   4.108125
                   11         12         13         14         15
    11  H    0.000000
    12  H    2.899968   0.000000
    13  H    2.674537   2.902225   0.000000
    14  H    2.364216   4.269054   3.476989   0.000000
    15  H    2.911635   3.479196   2.677031   1.783498   0.000000
 Stoichiometry    C5H6N4
 Framework group  C1[X(C5H6N4)]
 Deg. of freedom    39
 Full point group                 C1      NOp   1
 Largest Abelian subgroup         C1      NOp   1
 Largest concise Abelian subgroup C1      NOp   1
                         Standard orientation:                         
 ---------------------------------------------------------------------
 Center     Atomic      Atomic             Coordinates (Angstroms)
 Number     Number       Type             X           Y           Z
 ---------------------------------------------------------------------
      1          7           0       -3.357486   -0.831892   -0.414110
      2          6           0       -2.256972   -0.537267   -0.177573
      3          7           0       -1.149695    0.029144    0.161096
      4          6           0       -0.710448    1.342681   -0.174824
      5          7           0        0.500347    1.601411    0.022194
      6          6           0        1.162435    0.390187    0.507138
      7          6           0        2.163316   -0.101245   -0.539240
      8          7           0        2.933450   -1.093383   -0.456197
      9          6           0        0.014068   -0.624389    0.829356
     10          1           0       -1.430329    2.028054   -0.591836
     11          1           0        1.719254    0.620887    1.420166
     12          1           0        2.179389    0.514653   -1.441094
     13          1           0        2.835951   -1.600514    0.434513
     14          1           0       -0.184048   -0.696452    1.901392
     15          1           0        0.159076   -1.623393    0.416835
 ---------------------------------------------------------------------
 Rotational constants (GHZ):           3.7650463           1.0371033           0.8984705
 Standard basis: 6-31G(2df,p) (6D, 7F)
 There are   309 symmetry adapted cartesian basis functions of A   symmetry.
 There are   282 symmetry adapted basis functions of A   symmetry.
   282 basis functions,   438 primitive gaussians,   309 cartesian basis functions
    32 alpha electrons       32 beta electrons
       nuclear repulsion energy       404.2522118057 Hartrees.
 NAtoms=   15 NActive=   15 NUniq=   15 SFac= 1.00D+00 NAtFMM=   60 NAOKFM=F Big=F
 Integral buffers will be    131072 words long.
 Raffenetti 2 integral format.
 Two-electron integral symmetry is turned on.
 One-electron integrals computed using PRISM.
 PrsmSu:  requested number of processors reduced to:  13 ShMem   1 Linda.
 NBasis=   282 RedAO= T EigKep=  1.41D-04  NBF=   282
 NBsUse=   282 1.00D-06 EigRej= -1.00D+00 NBFU=   282
 Initial guess from the checkpoint file:  "NtCN1CdNCpCdNpC1.chk"
 B after Tr=    -0.000000   -0.000000   -0.000000
         Rot=    0.999024   -0.043987    0.000425   -0.004119 Ang=  -5.06 deg.
 ExpMin= 1.61D-01 ExpMax= 4.17D+03 ExpMxC= 6.27D+02 IAcc=2 IRadAn=         4 AccDes= 0.00D+00
 Harris functional with IExCor=  402 and IRadAn=       4 diagonalized for initial guess.
 HarFok:  IExCor=  402 AccDes= 0.00D+00 IRadAn=         4 IDoV= 1 UseB2=F ITyADJ=14
 ICtDFT=  3500011 ScaDFX=  1.000000  1.000000  1.000000  1.000000
 FoFCou: FMM=F IPFlag=           0 FMFlag=      100000 FMFlg1=           0
         NFxFlg=           0 DoJE=T BraDBF=F KetDBF=T FulRan=T
         wScrn=  0.000000 ICntrl=       500 IOpCl=  0 I1Cent=   200000004 NGrid=           0
         NMat0=    1 NMatS0=      1 NMatT0=    0 NMatD0=    1 NMtDS0=    0 NMtDT0=    0
 Petite list used in FoFCou.
 Requested convergence on RMS density matrix=1.00D-08 within 128 cycles.
 Requested convergence on MAX density matrix=1.00D-06.
 Requested convergence on             energy=1.00D-06.
 No special actions if energy rises.
 Integral accuracy reduced to 1.0D-05 until final iterations.
 Initial convergence to 1.0D-05 achieved.  Increase integral accuracy.
 SCF Done:  E(RB3LYP) =  -413.096968506     A.U. after   15 cycles
            NFock= 15  Conv=0.68D-08     -V/T= 2.0070
 PrsmSu:  requested number of processors reduced to:  13 ShMem   1 Linda.
 Calling FoFJK, ICntrl=      2127 FMM=F ISym2X=0 I1Cent= 0 IOpClX= 0 NMat=1 NMatS=1 NMatT=0.
 ***** Axes restored to original set *****
 -------------------------------------------------------------------
 Center     Atomic                   Forces (Hartrees/Bohr)
[...]
 ! D27   D(7,6,9,15)            -7.7484         -DE/DX =    0.0                 !
 ! D28   D(11,6,9,3)           114.001          -DE/DX =    0.0                 !
 ! D29   D(11,6,9,14)           -4.1693         -DE/DX =    0.0                 !
 ! D30   D(11,6,9,15)         -128.6247         -DE/DX =    0.0                 !
 ! D31   D(6,7,8,13)             1.5308         -DE/DX =    0.0                 !
 ! D32   D(12,7,8,13)          179.8263         -DE/DX =    0.0                 !
 --------------------------------------------------------------------------------
 GradGradGradGradGradGradGradGradGradGradGradGradGradGradGradGradGradGrad


 ----------------------------------------------------------------------

 Electric dipole moment (input orientation):
 (Debye = 10**-18 statcoulomb cm , SI units = C m)
                  (au)            (Debye)         (10**-30 SI)
   Tot        0.916561D+00      0.232967D+01      0.777093D+01
   x          0.807253D+00      0.205183D+01      0.684417D+01
   y          0.120899D+00      0.307294D+00      0.102502D+01
   z         -0.416906D+00     -0.105967D+01     -0.353468D+01

 Dipole polarizability, Alpha (input orientation).
 (esu units = cm**3 , SI units = C**2 m**2 J**-1)
 Alpha(0;0):
               (au)            (10**-24 esu)      (10**-40 SI)
   iso        0.746574D+02      0.110631D+02      0.123093D+02
   aniso      0.488677D+02      0.724145D+01      0.805720D+01
   xx         0.931702D+02      0.138064D+02      0.153617D+02
   yx         0.288972D+01      0.428212D+00      0.476450D+00
   yy         0.712050D+02      0.105515D+02      0.117401D+02
   zx         0.214445D+02      0.317775D+01      0.353572D+01
   zy         0.608835D+01      0.902200D+00      0.100383D+01
   zz         0.595968D+02      0.883134D+01      0.982619D+01

 ----------------------------------------------------------------------

 Dipole orientation:
     7         -0.23988329          0.24446990          3.17497773
     6          1.34235960          0.35564723          4.69278576
     7          3.13657537          0.46893171          6.44813544
     6          4.66426182          2.55699068          6.99952185
     7          6.34758034          2.22596694          8.67092789
     6          6.16817874         -0.42260501          9.53926539
     6          8.75500840         -1.67141895          9.37753438
     7          9.31277641         -3.91942745          8.78192921
     6          4.02069015         -1.69096283          7.97509030
     1          4.32229107          4.30628136          5.98905747
     1          5.67003729         -0.38178684         11.55475221
     1         10.28938118         -0.39371499          9.91004662
     1          7.74948884         -4.96474008          8.31968889
     1          2.48547430         -2.43074079          9.13759311
     1          4.70735599         -3.19982194          6.73679919

 Electric dipole moment (dipole orientation):
 (Debye = 10**-18 statcoulomb cm , SI units = C m)
                  (au)            (Debye)         (10**-30 SI)
   Tot        0.916561D+00      0.232967D+01      0.777093D+01
   x          0.000000D+00      0.000000D+00      0.000000D+00
   y          0.000000D+00      0.000000D+00      0.000000D+00
   z          0.916561D+00      0.232967D+01      0.777093D+01

 Dipole polarizability, Alpha (dipole orientation).
 (esu units = cm**3 , SI units = C**2 m**2 J**-1)
 Alpha(0;0):
               (au)            (10**-24 esu)      (10**-40 SI)
   iso        0.746574D+02      0.110631D+02      0.123093D+02
   aniso      0.488677D+02      0.724145D+01      0.805720D+01
   xx         0.835490D+02      0.123807D+02      0.137754D+02
   yx        -0.423019D+01     -0.626850D+00     -0.697465D+00
   yy         0.718223D+02      0.106430D+02      0.118419D+02
   zx         0.266656D+02      0.395143D+01      0.439656D+01
   zy        -0.227579D+01     -0.337238D+00     -0.375227D+00
   zz         0.686008D+02      0.101656D+02      0.113107D+02

 ----------------------------------------------------------------------
 1\1\GINC-LEWIS4-Z10PH-HPC3-NODE395\Freq\RB3LYP\6-31G(2df,p)\C5H6N4\KS2
 9C\04-Aug-2022\0\\#N Geom=AllCheck Guess=TCheck SCRF=Check GenChk RB3L
 YP/6-31G(2df,p) Freq\\Title Card Required\\0,1\N,1.4308275347,0.103932
 6835,-0.893086489\C,2.5337878745,0.0848890027,-0.5287519513\N,3.799911
 3704,0.0723671183,-0.1229472419\C,4.5225118076,-1.045438479,0.31059043
 47\N,5.7033422305,-0.8268276653,0.7159280072\C,5.9518107083,0.62616642
 32,0.6081781841\C,6.4626863397,1.1585088048,1.9399140409\N,6.227886923
 3,2.2687341028,2.5001480585\C,4.6387098524,1.2708890155,0.0723337897\H
 ,4.0410080636,-2.0161339803,0.2723261978\H,6.7698337448,0.7665574015,-
 0.1119684305\H,7.143899405,0.462796288,2.4376747002\H,5.5821024942,2.8
 490680014,1.9557754561\H,4.7700114093,1.8036971596,-0.8713594247\H,4.1
 674502418,1.9443441234,0.7957446681\\Version=ES64L-G16RevA.03\State=1-
 A\HF=-413.1042597\RMSD=4.116e-09\RMSF=6.595e-06\ZeroPoint=0.11411\Ther
 mal=0.1223082\Dipole=0.8072527,0.1208989,-0.416906\DipoleDeriv=-0.5979
 188,-0.0290217,-0.1059856,-0.0071648,-0.3052463,-0.0064092,-0.0871982,
 -0.0131682,-0.3812133,1.2327459,0.0484118,0.3747743,-0.0239756,-0.0169
 102,0.014914,0.3393196,0.0391162,0.3363225,-1.2414724,-0.1036894,-0.43
 79937,0.5639809,-0.3457015,0.2645359,-0.4820836,0.0019917,-0.3313687,1
 .0432172,-0.1575044,0.3942205,-0.7396871,0.5641376,-0.374157,0.439006,
 -0.1163968,0.3338858,-0.9190345,0.0171175,-0.2633254,0.1051726,-0.4517
 036,0.0380422,-0.2460546,-0.0330416,-0.5109914,0.324171,0.1020503,-0.0
 328531,0.0761813,0.2072926,-0.0264842,-0.0994693,-0.0910347,0.0843621,
 0.210264,-0.0674109,0.1996214,-0.1188974,0.4315557,0.1769857,0.3183477
 ,0.3023247,0.5328966,-0.3489731,-0.1105327,0.0245017,-0.1215247,-0.581
 9208,-0.2240416,-0.0376254,-0.3300565,-0.5031559,0.112362,0.2053537,-0
 .0751393,0.2022736,0.3208302,0.0401998,-0.0874562,0.0556624,0.2370384,
 0.047892,-0.0619149,-0.0313257,-0.0242068,0.0340191,0.0030374,-0.01845
 7,-0.004351,0.1182364,-0.0620651,-0.0406456,0.012721,-0.0661105,-0.001
 2238,-0.0339885,0.0636103,-0.002466,-0.0070048,0.011423,0.0638269,-0.0
 393282,0.0776537,-0.0101952,0.0337604,-0.0732824,0.0065486,-0.0004307,
 0.0895148,0.1279818,-0.074642,0.1085824,0.2137667,0.1047728,-0.0958257
 ,0.1874806,0.148987,0.0425254,-0.0201649,-0.0080376,-0.0297446,-0.0068
 824,0.0288944,0.0066348,0.0702342,-0.0573923,0.0553486,0.0261426,0.062
 7918,-0.0025329,-0.051818,-0.0400623,0.0605341,-0.0728436,-0.0001718\P
 olar=93.1702345,2.8897191,71.2049972,21.4445144,6.0883507,59.596829\Qu
 adrupole=-6.4480949,6.4705107,-0.0224158,-0.4028644,-7.5705102,-3.1483
 331\PG=C01 [X(C5H6N4)]\NImag=0\\1.08129399,-0.01845511,0.01890459,0.34
 836067,-0.00525145,0.14084438,-1.05059017,0.01761113,-0.33220140,1.492
 52988,0.01764935,-0.03917702,0.00483157,-0.02181956,0.12327398,-0.3318
 7603,0.00485759,-0.15711844,0.46441407,-0.01098622,0.24379243,-0.04145
 840,0.00108744,-0.01854504,-0.37979278,0.00050596,-0.11156744,0.731177
 59,0.00653555,0.02285610,0.00148801,-0.01099544,-0.09742560,0.00334874
 ,-0.01289593,0.50251560,-0.01890349,-0.00041263,0.01099384,-0.11559498
 ,0.00785903,-0.06984038,0.23145690,-0.05641676,0.16338707,0.00860124,-
 0.00077469,0.00177275,-0.04083928,0.02499417,-0.01467303,-0.11709537,0
 .03962640,-0.03276062,0.79693638,-0.01352821,-0.00341714,-0.00339620,0
 .01968213,0.01513073,0.00326485,0.03744977,-0.21002978,0.03653105,0.20
 616497,0.71435103,0.00332694,0.00087550,0.00441100,-0.01143426,0.00372
 987,-0.01488115,-0.03525190,0.04143725,-0.05905894,0.21210751,-0.00449
 268,0.22224679,-0.00350892,-0.00132782,-0.00020514,0.00612671,0.006739
 19,-0.00171691,-0.06576888,0.03998356,-0.04138413,-0.52251570,-0.07955
 035,-0.15897485,0.68795328,0.00309580,0.00135051,0.00063973,-0.0048166
 7,-0.00583701,0.00003859,0.03337135,-0.00100172,0.01708807,-0.12749780
 ,-0.12268233,-0.03916747,0.10773112,0.34220385,-0.00115674,-0.00092947
 ,-0.00176117,0.00023319,0.00465010,0.00612691,-0.04020077,0.01916970,0
 .01130346,-0.15111275,-0.02226826,-0.11561839,0.20513281,0.00592667,0.
 17503516,0.00114078,0.00072572,0.00007590,-0.00496290,-0.00384353,-0.0
 0123731,-0.03634546,-0.00830183,-0.01019208,-0.02919850,-0.04936246,-0
 .00554372,-0.07667162,0.01173118,-0.00469767,0.54086014,0.00084850,0.0
 0085236,0.00031775,-0.00113378,-0.00655830,0.00002239,-0.00639810,0.00
 174856,-0.00340702,-0.03320841,-0.03560831,-0.00599209,-0.03352423,-0.
 14403058,-0.00059050,0.03807069,0.39637424,-0.00021483,0.00032288,0.00
 085712,-0.00047202,-0.00118494,-0.00219500,-0.01217211,-0.00376960,-0.
 00988631,-0.00984026,-0.01194125,0.00574036,0.00614315,0.02174755,-0.0
 7493310,-0.03130458,0.00950279,0.48019766,0.00025770,0.00015318,0.0002
 0894,-0.00124282,-0.00094078,-0.00090421,-0.00265453,-0.00083649,-0.00
 016057,-0.00034367,0.00254456,-0.00185234,-0.00186969,-0.00974681,-0.0
 0494127,-0.09802947,0.00156974,-0.03239963,0.36704726,0.00010247,-0.00
 012009,-0.00005442,0.00051376,0.00090141,0.00040628,0.00219886,-0.0018
 9277,-0.00046931,0.00120843,-0.00586418,-0.00018479,-0.01559475,-0.027
 02373,-0.03459632,0.00282116,-0.08167428,-0.00947639,-0.23380318,0.808
 15808,0.00108959,-0.00009650,0.00025221,-0.00205103,0.00018713,-0.0004
 8375,0.00235046,-0.00285732,0.00048257,-0.00114065,0.00767209,-0.00180
 332,0.00096521,-0.01189165,0.00710747,-0.03532695,-0.01534113,-0.15152
 334,0.10242019,0.16362084,0.48484779,-0.00020008,0.00000613,-0.0001145
 4,0.00065465,-0.00011024,0.00031056,-0.00006924,-0.00057401,-0.0006870
 2,-0.00069075,0.00034507,0.00038447,0.00173191,-0.00012351,0.00116575,
 0.02352866,-0.00028570,-0.01217816,-0.10264145,0.13161780,0.03598624,0
 .26437718,-0.00050881,0.00000525,-0.00018369,0.00094582,0.00016288,0.0
 0042411,-0.00073732,0.00133111,-0.00049356,0.00114976,-0.00167024,0.00
 070030,-0.00116941,0.00328643,-0.00052680,0.00742980,-0.01152891,-0.02
 675903,0.10525614,-0.52566390,-0.22888503,-0.25490495,0.70966372,-0.00
 091864,0.00005760,-0.00015140,0.00191288,0.00002860,0.00027317,-0.0013
 4390,0.00198387,-0.00161048,0.00269091,-0.00525152,0.00142461,-0.00420
 907,-0.00023466,-0.00831319,-0.00406948,-0.03935658,-0.00599299,0.0135
 8294,-0.18727164,-0.19026691,0.09875861,0.13402740,0.33597320,0.006749
 20,0.00027026,0.00140258,-0.02975164,-0.02112404,-0.00615639,-0.097537
 95,-0.02912347,-0.01056013,0.02104979,-0.01103208,0.00752027,-0.006996
 23,0.01540002,-0.00635983,-0.12298894,0.02648112,-0.01069439,-0.009035
 65,-0.00033025,-0.01028976,-0.00002400,0.00311495,0.00186783,0.4070583
 7,0.00597326,-0.00212135,0.00232717,-0.00433578,0.00974055,-0.00296400
 ,-0.03860824,-0.15160273,-0.00362417,0.00118587,-0.05537008,0.00699838
 ,0.00933607,-0.03185324,0.00719253,0.01596417,-0.07885427,0.00131005,-
 0.00612804,0.01029187,0.00476843,0.00152062,-0.00341613,-0.00217119,-0
 .04747308,0.54310212,0.00070775,0.00043631,0.00261583,-0.00650414,-0.0
 0799842,-0.00725076,-0.01240417,-0.00404114,-0.06281667,0.00566882,0.0
 0496949,0.00520480,-0.00487532,0.01090739,-0.00178243,-0.01621253,0.00
 665813,-0.08702958,-0.02437704,0.01402905,-0.00889622,0.00213434,0.000
 22239,0.00081908,-0.06194978,-0.02278994,0.58146363,-0.00065236,-0.000
 34375,-0.00011536,0.00254973,0.00011078,0.00096483,0.00777209,0.019770
 14,-0.00098501,-0.10616701,-0.11322419,-0.00692998,-0.01402826,-0.0283
 5673,-0.00059671,-0.00202539,-0.00079079,-0.00555675,0.00007466,-0.001
 51978,0.00152073,0.00007288,-0.00019928,-0.00110780,-0.00206944,0.0019
 5482,-0.00248655,0.11383947,0.00109740,0.00038222,0.00029037,-0.002226
 72,-0.00052115,-0.00071961,-0.00866621,-0.01901675,-0.00018015,-0.1099
 9879,-0.28745737,-0.00555075,-0.00255667,0.00260829,-0.00154650,0.0005
 8251,0.00137538,0.00186783,-0.00024141,0.00038741,-0.00035882,0.000027
 43,0.00006964,0.00021301,0.00150499,-0.00062024,0.00138461,0.12137192,
 0.30391713,-0.00031778,-0.00020555,-0.00024440,0.00125875,0.00007635,0
 .00009146,0.00289093,0.01113819,0.00289637,-0.00715350,-0.00674107,-0.
 04525795,-0.00405930,-0.01141111,-0.00149872,-0.00505388,0.00152259,0.
 01057615,0.00014970,0.00181295,-0.00071863,-0.00004257,0.00013461,0.00
 077081,-0.00258956,0.00121102,0.00226067,0.01482220,0.00497079,0.03149
 106,-0.00004435,0.00007701,-0.00027678,-0.00064427,-0.00060139,0.00085
 499,-0.00187042,0.00015260,-0.00021120,0.00163357,-0.00035109,0.000843
 40,-0.00427972,-0.00820016,0.00303105,-0.18153731,-0.01686256,0.118026
 52,0.00852376,0.00145469,-0.00499972,-0.00132030,-0.00174410,0.0002693
 3,-0.01809237,0.00075632,0.01536802,0.00000452,-0.00026207,-0.00063929
 ,0.19923460,-0.00033972,-0.00001828,-0.00011438,0.00090596,0.00051164,
 0.00015783,-0.00007216,0.00158748,0.00007516,0.00249656,-0.00643077,0.
 00386930,-0.03089219,-0.01538529,0.02207212,-0.01631119,-0.04155516,0.
 01660533,0.00920543,0.00186819,-0.01011288,-0.00280296,-0.00116655,0.0
 0039270,0.01043124,0.00121741,-0.00698298,0.00023464,-0.00026878,-0.00
 271928,0.02453416,0.05891214,0.00003498,0.00009282,-0.00009968,-0.0005
 2748,-0.00054332,0.00020283,-0.00089810,-0.00100925,-0.00086811,-0.002
 00543,0.00080122,-0.00053613,0.00185376,0.00343006,0.00336721,0.128772
 05,0.02188050,-0.15771676,0.02220307,-0.00187576,-0.02499532,-0.006034
 01,-0.00125998,0.00115640,-0.01047036,0.00097085,0.00742517,0.00007641
 ,-0.00012949,-0.00020888,-0.13116814,-0.02284489,0.17110073,0.00002990
 ,0.00001122,0.00004000,-0.00003589,-0.00014847,-0.00007187,0.00049872,
 -0.00033937,0.00004856,-0.00058689,-0.00000695,-0.00008645,0.00060613,
 0.00144730,0.00169391,-0.00101232,0.00780345,-0.00760955,-0.15280877,0
 .10065317,-0.08150599,-0.00672433,0.00609388,0.00515968,0.00094412,0.0
 0032227,-0.00162276,-0.00002156,-0.00002766,-0.00002641,-0.00056376,-0
 .00059915,-0.00186050,0.14952425,0.00003633,0.00004267,0.00000504,-0.0
 0034678,-0.00016427,-0.00001259,-0.00030949,-0.00020303,-0.00004908,-0
 .00025804,0.00058144,-0.00036659,-0.00001903,0.00166083,0.00049053,-0.
 00442575,0.00561210,-0.00660789,0.10049512,-0.14381993,0.07580708,0.01
 893106,-0.03097016,0.00945278,-0.00007789,-0.00080427,-0.00192581,0.00
 002525,-0.00003168,-0.00005237,0.00015168,0.00008030,-0.00015108,-0.12
 090171,0.16893603,-0.00006041,0.00006914,0.00002614,-0.00000716,-0.000
 51513,-0.00012176,-0.00034064,-0.00004275,-0.00015374,-0.00076910,0.00
 014951,-0.00015417,0.00130463,0.00121842,0.00176449,-0.02218994,0.0144
 1678,-0.01102240,-0.08328770,0.07797208,-0.11656151,0.01614962,-0.0114
 3169,0.00948217,0.00134808,-0.00276045,-0.00341794,-0.00004863,-0.0000
 3418,0.00005338,0.00107635,0.00027719,0.00062938,0.09213094,-0.0727588
 3,0.11452081,0.00007916,-0.00000518,0.00004416,-0.00017942,0.00006256,
 -0.00008084,0.00079843,0.00015889,0.00010102,-0.00017762,-0.00063105,-
 0.00004965,-0.00033729,-0.00011160,-0.00147872,-0.00757314,-0.00567359
 ,0.00383703,-0.00623175,0.00606328,-0.01070354,-0.17962539,0.13624319,
 -0.11187624,0.00086339,-0.00289107,-0.00163988,-0.00020910,-0.00000628
 ,0.00027998,0.00037116,0.00114819,0.00203817,0.01060012,0.00721100,-0.
 00452520,0.18271161,0.00029108,-0.00002766,0.00011097,-0.00077267,0.00
 014306,-0.00032728,0.00003775,0.00094436,0.00066817,0.00075316,-0.0001
 6388,0.00017342,-0.00065430,-0.00026446,-0.00019570,-0.00273235,0.0004
 1098,0.00461542,0.03278478,-0.03210709,0.02158551,0.10921291,-0.142744
 04,0.08744078,-0.00026412,-0.00068864,-0.00149663,0.00003054,0.0000291
 0,-0.00009230,0.00016466,0.00032773,0.00081581,0.00552006,-0.00095692,
 -0.00696077,-0.14214258,0.17450139,0.00031712,-0.00006276,0.00001957,-
 0.00058712,0.00020742,-0.00002895,0.00093710,-0.00038908,0.00039766,-0
 .00054242,0.00051225,-0.00018267,0.00032718,0.00057722,0.00057763,0.00
 600163,0.00113771,-0.00188289,0.01153333,-0.02291076,0.00339880,-0.134
 33558,0.13236795,-0.14309386,-0.00011625,-0.00122759,-0.00120526,0.000
 08697,0.00000442,-0.00002614,-0.00042552,-0.00046530,-0.00086742,-0.00
 621526,-0.00370875,0.00466948,0.12405019,-0.10586964,0.13822923,-0.000
 82321,0.00047281,-0.00087471,0.00269974,-0.00083256,0.00214861,-0.0052
 4427,-0.02023238,0.01500175,-0.00619529,0.00132473,-0.00100225,-0.0002
 2612,0.00336605,-0.00109881,0.00380028,0.01091211,-0.02228858,-0.00234
 602,0.00322381,-0.00002439,0.00055507,-0.00053681,-0.00039032,-0.05003
 631,-0.01113836,0.02707505,0.00064544,-0.00038079,-0.00026382,0.001735
 24,-0.00006996,-0.00005031,-0.00058620,-0.00029338,-0.00080600,-0.0001
 0487,-0.00016873,-0.00006453,0.05643931,-0.00109761,0.00019775,-0.0008
 1543,0.00266481,-0.00008039,0.00183919,-0.00916677,-0.02292923,0.02026
 645,-0.00359890,-0.00096022,0.00001668,0.00100741,-0.00136993,0.000576
 61,-0.00002442,-0.00270025,0.00857585,0.00060555,-0.00120281,-0.000675
 48,-0.00054608,0.00031921,0.00043207,-0.01354264,-0.10401628,0.1043022
 0,0.00063992,-0.00051550,-0.00006034,-0.00034809,0.00098324,-0.0004572
 4,0.00006414,0.00007711,0.00030455,0.00039820,0.00038434,-0.00011246,0
 .01989814,0.12113529,0.00027162,-0.00002655,-0.00033536,0.00025064,0.0
 0026500,0.00083321,-0.00112448,-0.00498166,0.01215581,-0.00139763,-0.0
 0096934,-0.00027679,0.00027885,-0.00025296,-0.00052125,0.00208230,0.00
 184188,-0.00533575,-0.00120255,0.00050039,-0.00004270,-0.00058419,0.00
 041008,0.00000207,0.02944228,0.11119639,-0.25947504,0.00033968,-0.0002
 5066,-0.00012854,-0.00010483,-0.00045767,0.00159084,-0.00013725,-0.000
 14488,-0.00021975,0.00057099,0.00028413,0.00005320,-0.03080127,-0.1172
 9623,0.26996014,-0.00087450,0.00049164,0.00042801,0.00347845,-0.000641
 43,-0.00040902,0.00759047,-0.02292821,-0.01516900,-0.00441089,0.000175
 15,-0.00305718,-0.00021559,0.00271046,0.00038656,-0.00898480,0.0121915
 5,0.01672418,0.00130043,0.00139054,0.00170962,0.00037519,-0.00043287,-
 0.00032673,-0.10013233,0.07356118,0.08111818,0.00021432,-0.00021765,0.
 00074458,-0.00315035,0.00213115,-0.00196411,0.00013648,-0.00021838,0.0
 0002516,-0.00098528,-0.00206018,-0.00096685,-0.00031277,0.00304636,0.0
 0211584,0.10597116,-0.00170029,0.00029009,-0.00019504,0.00412378,-0.00
 010051,0.00065015,0.00220311,-0.02688159,-0.01743524,-0.00224270,-0.00
 040892,-0.00204632,0.00049141,-0.00166162,0.00057529,0.00767632,-0.003
 86357,-0.00480859,-0.00091778,-0.00223818,-0.00342226,-0.00231357,0.00
 232169,0.00025677,0.06576499,-0.13500471,-0.09767465,0.00029651,-0.000
 33769,0.00041552,0.00107835,-0.00066329,0.00027975,0.00010783,-0.00004
 023,0.00009612,0.00017605,0.00021172,-0.00006062,-0.00554468,0.0106776
 7,0.00988207,-0.06919930,0.15769913,-0.00066075,0.00027307,-0.00030965
 ,0.00131007,-0.00060704,0.00060019,-0.00378682,-0.00505818,0.00261785,
 -0.00084459,0.00115987,-0.00125804,-0.00058087,0.00138415,-0.00085410,
 -0.00110375,0.00738680,0.01014682,-0.00097284,-0.00150222,-0.00079714,
 -0.00091349,0.00125294,-0.00047267,0.07760541,-0.10043748,-0.16791528,
 0.00001596,0.00003913,-0.00005664,-0.00164419,0.00024775,-0.00018025,0
 .00006296,0.00002245,0.00050544,-0.00056746,-0.00075188,-0.00005836,0.
 01343959,-0.01689641,-0.01826009,-0.08135923,0.11348704,0.17629193\\0.
 00000042,-0.00000015,0.00000172,-0.00000613,-0.00000535,-0.00000143,0.
 00000998,0.00002218,0.00000201,-0.00000488,-0.00000830,0.00000013,0.00
 000002,-0.00000103,-0.00000222,0.00000316,-0.00000183,0.00002340,-0.00
 000591,-0.00001015,-0.00001467,0.00000153,0.00000252,0.00000363,-0.000
 01229,-0.00000054,-0.00000487,0.00000411,0.00000080,-0.00000012,0.0000
 0459,0.,-0.00000382,0.00000171,0.00000288,-0.00000060,0.00000081,-0.00
 000079,-0.00000279,0.00000162,-0.00000070,0.00000084,0.00000126,0.0000
 0045,-0.00000121\\\@


 SEE YOU NOW,
 YOUR BAIT OF FALSEHOOD TAKES THIS CARP OF TRUTH.
 AND THUS DO WE OF WISDOM AND OF REACH...
 BY INDIRECTIONS FIND DIRECTIONS OUT.    -- HAMLET, II, 1
 Job cpu time:       0 days  1 hours 51 minutes 33.1 seconds.
 Elapsed time:       0 days  0 hours 27 minutes 54.7 seconds.
 File lengths (MBytes):  RWF=    102 Int=      0 D2E=      0 Chk=      8 Scr=      1
 Normal termination of Gaussian 16 at Thu Aug  4 14:46:29 2022.
### All Done ###
