### Starting Gaussian ###
 Entering Gaussian System, Link 0=g16
 Initial command:
 /cluster/software/gaussian/gaussian-16-A.03/avx2/g16/l1.exe "/local/scratch/yxie/Gau-22232.inp" -scrdir="/local/scratch/yxie/"
 Entering Link 1 = /cluster/software/gaussian/gaussian-16-A.03/avx2/g16/l1.exe PID=     22234.
  
 Copyright (c) 1988,1990,1992,1993,1995,1998,2003,2009,2016,
            Gaussian, Inc.  All Rights Reserved.
  
 This is part of the Gaussian(R) 16 program.  It is based on
 the Gaussian(R) 09 system (copyright 2009, Gaussian, Inc.),
 the Gaussian(R) 03 system (copyright 2003, Gaussian, Inc.),
 the Gaussian(R) 98 system (copyright 1998, Gaussian, Inc.),
 the Gaussian(R) 94 system (copyright 1995, Gaussian, Inc.),
 the Gaussian 92(TM) system (copyright 1992, Gaussian, Inc.),
 the Gaussian 90(TM) system (copyright 1990, Gaussian, Inc.),
 the Gaussian 88(TM) system (copyright 1988, Gaussian, Inc.),
 the Gaussian 86(TM) system (copyright 1986, Carnegie Mellon
 University), and the Gaussian 82(TM) system (copyright 1983,
 Carnegie Mellon University). Gaussian is a federally registered
 trademark of Gaussian, Inc.
  
 This software contains proprietary and confidential information,
 including trade secrets, belonging to Gaussian, Inc.
  
 This software is provided under written license and may be
 used, copied, transmitted, or stored only in accord with that
 written license.
  
 The following legend is applicable only to US Government
 contracts under FAR:
  
                    RESTRICTED RIGHTS LEGEND
  
 Use, reproduction and disclosure by the US Government is
 subject to restrictions as set forth in subparagraphs (a)
 and (c) of the Commercial Computer Software - Restricted
 Rights clause in FAR 52.227-19.
  
 Gaussian, Inc.
 340 Quinnipiac St., Bldg. 40, Wallingford CT 06492
  
  
 ---------------------------------------------------------------
 Warning -- This program may not be used in any manner that
 competes with the business of Gaussian, Inc. or will provide
 assistance to any competitor of Gaussian, Inc.  The licensee
 of this program is prohibited from giving any competitor of
 Gaussian, Inc. access to this program.  By using this program,
 the user acknowledges that Gaussian, Inc. is engaged in the
 business of creating and licensing software in the field of
 computational chemistry and represents and warrants to the
 licensee that it is not a competitor of Gaussian, Inc. and that
 it will not use this program in any manner prohibited above.
 ---------------------------------------------------------------
  

 Cite this work as:
 Gaussian 16, Revision A.03,
 M. J. Frisch, G. W. Trucks, H. B. Schlegel, G. E. Scuseria, 
 M. A. Robb, J. R. Cheeseman, G. Scalmani, V. Barone, 
 G. A. Petersson, H. Nakatsuji, X. Li, M. Caricato, A. V. Marenich, 
 J. Bloino, B. G. Janesko, R. Gomperts, B. Mennucci, H. P. Hratchian, 
 J. V. Ortiz, A. F. Izmaylov, J. L. Sonnenberg, D. Williams-Young, 
 F. Ding, F. Lipparini, F. Egidi, J. Goings, B. Peng, A. Petrone, 
 T. Henderson, D. Ranasinghe, V. G. Zakrzewski, J. Gao, N. Rega, 
 G. Zheng, W. Liang, M. Hada, M. Ehara, K. Toyota, R. Fukuda, 
 J. Hasegawa, M. Ishida, T. Nakajima, Y. Honda, O. Kitao, H. Nakai, 
 T. Vreven, K. Throssell, J. A. Montgomery, Jr., J. E. Peralta, 
 F. Ogliaro, M. J. Bearpark, J. J. Heyd, E. N. Brothers, K. N. Kudin, 
 V. N. Staroverov, T. A. Keith, R. Kobayashi, J. Normand, 
 K. Raghavachari, A. P. Rendell, J. C. Burant, S. S. Iyengar, 
 J. Tomasi, M. Cossi, J. M. Millam, M. Klene, C. Adamo, R. Cammi, 
 J. W. Ochterski, R. L. Martin, K. Morokuma, O. Farkas, 
 J. B. Foresman, and D. J. Fox, Gaussian, Inc., Wallingford CT, 2016.
 
 ******************************************
 Gaussian 16:  ES64L-G16RevA.03 25-Dec-2016
                 4-Aug-2022 
 ******************************************
 %chk=OCC1dNCdCNdCO1.chk
 %NProcShared=20
 Will use up to   20 processors via shared memory.
 -----------------------------
 # opt freq b3lyp/6-31g(2df,p)
 -----------------------------
 1/18=20,19=15,26=3,38=1/1,3;
 2/9=110,12=2,17=6,18=5,40=1/2;
 3/5=1,6=6,7=104,11=2,25=1,30=1,71=1,74=-5/1,2,3;
 4//1;
 5/5=2,38=5/2;
 6/7=2,8=2,9=2,10=2,28=1/1;
 7//1,2,3,16;
 1/18=20,19=15,26=3/3(2);
 2/9=110/2;
 99//99;
 2/9=110/2;
 3/5=1,6=6,7=104,11=2,25=1,30=1,71=1,74=-5/1,2,3;
 4/5=5,16=3,69=1/1;
 5/5=2,38=5/2;
 7//1,2,3,16;
 1/18=20,19=15,26=3/3(-5);
 2/9=110/2;
 6/7=2,8=2,9=2,10=2,19=2,28=1/1;
 99/9=1/99;
 -------------------
 Title Card Required
 -------------------
 Symbolic Z-matrix:
 Charge =  0 Multiplicity = 1
 O                     0.92648  -0.05056   0.02454 
 C                     2.34579   0.05621   0.04051 
 C                     2.76923   1.22774   0.92874 
 N                     2.43862   2.41225   0.54103 
 C                     2.64573   3.53668   1.25657 
 C                     3.21478   3.71346   2.44719 
 N                     3.7941    2.81891   3.2793 
 C                     3.85946   1.55903   3.02542 
 O                     3.43645   0.78049   2.01301 
 H                     0.68153  -0.65784  -0.69158 
 H                     2.70545   0.24347  -0.9779 
 H                     2.75869  -0.89294   0.39251 
 H                     2.24165   4.42273   0.7704 
 H                     3.22789   4.73312   2.83029 
 H                     4.36046   0.91485   3.76688 
 

 GradGradGradGradGradGradGradGradGradGradGradGradGradGradGradGradGradGrad
 Berny optimization.
 Initialization pass.
                           ----------------------------
                           !    Initial Parameters    !
                           ! (Angstroms and Degrees)  !
 --------------------------                            --------------------------
 ! Name  Definition              Value          Derivative Info.                !
 --------------------------------------------------------------------------------
 ! R1    R(1,2)                  1.4234         estimate D2E/DX2                !
 ! R2    R(1,10)                 0.9704         estimate D2E/DX2                !
 ! R3    R(2,3)                  1.5299         estimate D2E/DX2                !
 ! R4    R(2,11)                 1.0962         estimate D2E/DX2                !
 ! R5    R(2,12)                 1.0933         estimate D2E/DX2                !
 ! R6    R(3,4)                  1.2895         estimate D2E/DX2                !
 ! R7    R(3,9)                  1.3494         estimate D2E/DX2                !
 ! R8    R(4,5)                  1.3488         estimate D2E/DX2                !
 ! R9    R(5,6)                  1.3314         estimate D2E/DX2                !
 ! R10   R(5,13)                 1.0885         estimate D2E/DX2                !
 ! R11   R(6,7)                  1.3521         estimate D2E/DX2                !
 ! R12   R(6,14)                 1.0893         estimate D2E/DX2                !
 ! R13   R(7,8)                  1.2869         estimate D2E/DX2                !
 ! R14   R(8,9)                  1.3454         estimate D2E/DX2                !
 ! R15   R(8,15)                 1.1026         estimate D2E/DX2                !
 ! A1    A(2,1,10)             107.874          estimate D2E/DX2                !
 ! A2    A(1,2,3)              109.8721         estimate D2E/DX2                !
 ! A3    A(1,2,11)             109.2416         estimate D2E/DX2                !
 ! A4    A(1,2,12)             108.3652         estimate D2E/DX2                !
 ! A5    A(3,2,11)             108.5275         estimate D2E/DX2                !
 ! A6    A(3,2,12)             111.9213         estimate D2E/DX2                !
 ! A7    A(11,2,12)            108.876          estimate D2E/DX2                !
 ! A8    A(2,3,4)              117.251          estimate D2E/DX2                !
 ! A9    A(2,3,9)              110.4597         estimate D2E/DX2                !
 ! A10   A(4,3,9)              132.2875         estimate D2E/DX2                !
 ! A11   A(3,4,5)              124.5364         estimate D2E/DX2                !
 ! A12   A(4,5,6)              130.5965         estimate D2E/DX2                !
 ! A13   A(4,5,13)             112.6235         estimate D2E/DX2                !
 ! A14   A(6,5,13)             116.7447         estimate D2E/DX2                !
 ! A15   A(5,6,7)              130.2117         estimate D2E/DX2                !
 ! A16   A(5,6,14)             116.3545         estimate D2E/DX2                !
 ! A17   A(7,6,14)             113.4338         estimate D2E/DX2                !
 ! A18   A(6,7,8)              123.2343         estimate D2E/DX2                !
 ! A19   A(7,8,9)              134.3495         estimate D2E/DX2                !
 ! A20   A(7,8,15)             117.5418         estimate D2E/DX2                !
 ! A21   A(9,8,15)             108.1084         estimate D2E/DX2                !
 ! A22   A(3,9,8)              124.6337         estimate D2E/DX2                !
 ! D1    D(10,1,2,3)           167.3092         estimate D2E/DX2                !
 ! D2    D(10,1,2,11)           48.36           estimate D2E/DX2                !
 ! D3    D(10,1,2,12)          -70.1251         estimate D2E/DX2                !
 ! D4    D(1,2,3,4)            -65.5709         estimate D2E/DX2                !
 ! D5    D(1,2,3,9)            113.9988         estimate D2E/DX2                !
 ! D6    D(11,2,3,4)            53.816          estimate D2E/DX2                !
 ! D7    D(11,2,3,9)          -126.6144         estimate D2E/DX2                !
 ! D8    D(12,2,3,4)           173.9923         estimate D2E/DX2                !
 ! D9    D(12,2,3,9)            -6.438          estimate D2E/DX2                !
 ! D10   D(2,3,4,5)            174.7454         estimate D2E/DX2                !
 ! D11   D(9,3,4,5)             -4.7096         estimate D2E/DX2                !
 ! D12   D(2,3,9,8)           -175.3449         estimate D2E/DX2                !
 ! D13   D(4,3,9,8)              4.138          estimate D2E/DX2                !
 ! D14   D(3,4,5,6)              0.9222         estimate D2E/DX2                !
 ! D15   D(3,4,5,13)          -176.8067         estimate D2E/DX2                !
 ! D16   D(4,5,6,7)              2.307          estimate D2E/DX2                !
 ! D17   D(4,5,6,14)          -177.7841         estimate D2E/DX2                !
 ! D18   D(13,5,6,7)           179.9595         estimate D2E/DX2                !
 ! D19   D(13,5,6,14)           -0.1315         estimate D2E/DX2                !
 ! D20   D(5,6,7,8)             -1.4703         estimate D2E/DX2                !
 ! D21   D(14,6,7,8)           178.6186         estimate D2E/DX2                !
 ! D22   D(6,7,8,9)             -0.6811         estimate D2E/DX2                !
 ! D23   D(6,7,8,15)           179.5406         estimate D2E/DX2                !
 ! D24   D(7,8,9,3)             -0.355          estimate D2E/DX2                !
 ! D25   D(15,8,9,3)           179.4382         estimate D2E/DX2                !
 --------------------------------------------------------------------------------
 Trust Radius=3.00D-01 FncErr=1.00D-07 GrdErr=1.00D-06 EigMax=2.50D+02 EigMin=1.00D-04
 Number of steps in this run=     72 maximum allowed number of steps=    100.
 GradGradGradGradGradGradGradGradGradGradGradGradGradGradGradGradGradGrad

                          Input orientation:                          
 ---------------------------------------------------------------------
 Center     Atomic      Atomic             Coordinates (Angstroms)
 Number     Number       Type             X           Y           Z
 ---------------------------------------------------------------------
      1          8           0        0.926480   -0.050560    0.024540
      2          6           0        2.345790    0.056210    0.040510
      3          6           0        2.769230    1.227740    0.928740
      4          7           0        2.438620    2.412250    0.541030
      5          6           0        2.645730    3.536680    1.256570
      6          6           0        3.214780    3.713460    2.447190
      7          7           0        3.794100    2.818910    3.279300
      8          6           0        3.859460    1.559030    3.025420
      9          8           0        3.436450    0.780490    2.013010
     10          1           0        0.681530   -0.657840   -0.691580
     11          1           0        2.705450    0.243470   -0.977900
     12          1           0        2.758690   -0.892940    0.392510
     13          1           0        2.241650    4.422730    0.770400
     14          1           0        3.227890    4.733120    2.830290
     15          1           0        4.360460    0.914850    3.766880
 ---------------------------------------------------------------------
                    Distance matrix (angstroms):
                    1          2          3          4          5
     1  O    0.000000
     2  C    1.423410   0.000000
     3  C    2.418131   1.529947   0.000000
     4  N    2.935773   2.410407   1.289452   0.000000
     5  C    4.164374   3.698978   2.335365   1.348790   0.000000
     6  C    5.027265   4.463489   2.946695   2.434957   1.331407
     7  N    5.201016   4.496651   3.017832   3.082340   2.434211
     8  C    4.494267   3.668699   2.386299   2.986464   2.917717
     9  O    3.308263   2.367462   1.349391   2.413510   2.965472
    10  H    0.970370   1.953352   3.246435   3.745951   5.024676
    11  H    2.063025   1.096166   2.146656   2.661194   3.980158
    12  H    2.049878   1.093287   2.187450   3.323971   4.514520
    13  H    4.721896   4.428327   3.242125   2.033086   1.088451
    14  H    6.004358   5.516744   4.014219   3.354116   2.060819
    15  H    5.170043   4.322267   3.268784   4.042497   4.014467
                    6          7          8          9         10
     6  C    0.000000
     7  N    1.352124   0.000000
     8  C    2.321967   1.286866   0.000000
     9  O    2.973208   2.426223   1.345376   0.000000
    10  H    5.947898   6.127297   5.369343   4.119852   0.000000
    11  H    4.902192   5.093310   4.369097   3.125427   2.233963
    12  H    5.064450   4.814921   3.762455   2.426056   2.354807
    13  H    2.064381   3.358112   3.987882   4.029583   5.512128
    14  H    1.089332   2.046070   3.242191   4.041624   6.924591
    15  H    3.299452   2.045469   1.102602   1.986934   5.990471
                   11         12         13         14         15
    11  H    0.000000
    12  H    1.781091   0.000000
    13  H    4.553886   5.354109   0.000000
    14  H    5.910348   6.149429   2.304812   0.000000
    15  H    5.069788   4.149716   5.076758   4.091345   0.000000
 Stoichiometry    C5H6N2O2
 Framework group  C1[X(C5H6N2O2)]
 Deg. of freedom    39
 Full point group                 C1      NOp   1
 Largest Abelian subgroup         C1      NOp   1
 Largest concise Abelian subgroup C1      NOp   1
                         Standard orientation:                         
 ---------------------------------------------------------------------
 Center     Atomic      Atomic             Coordinates (Angstroms)
 Number     Number       Type             X           Y           Z
 ---------------------------------------------------------------------
      1          8           0       -2.810566    0.277079    0.720799
      2          6           0       -2.144400   -0.268591   -0.412587
      3          6           0       -0.634307   -0.063923   -0.276686
      4          7           0       -0.198757    1.149572   -0.297031
      5          6           0        1.085635    1.504605   -0.088407
      6          6           0        2.161579    0.759654    0.156617
      7          7           0        2.295059   -0.583916    0.229014
      8          6           0        1.310284   -1.399383    0.083219
      9          8           0       -0.007312   -1.251530   -0.145072
     10          1           0       -3.758764    0.316775    0.518411
     11          1           0       -2.486124    0.249090   -1.316363
     12          1           0       -2.407494   -1.326899   -0.490312
     13          1           0        1.228087    2.583676   -0.094798
     14          1           0        3.093380    1.297409    0.327525
     15          1           0        1.527083   -2.478213    0.152898
 ---------------------------------------------------------------------
 Rotational constants (GHZ):           3.5858018           1.2393665           0.9796138
 Standard basis: 6-31G(2df,p) (6D, 7F)
 There are   309 symmetry adapted cartesian basis functions of A   symmetry.
 There are   282 symmetry adapted basis functions of A   symmetry.
   282 basis functions,   438 primitive gaussians,   309 cartesian basis functions
    33 alpha electrons       33 beta electrons
       nuclear repulsion energy       436.0389199179 Hartrees.
 NAtoms=   15 NActive=   15 NUniq=   15 SFac= 1.00D+00 NAtFMM=   60 NAOKFM=F Big=F
 Integral buffers will be    131072 words long.
 Raffenetti 2 integral format.
 Two-electron integral symmetry is turned on.
 One-electron integrals computed using PRISM.
 PrsmSu:  requested number of processors reduced to:  13 ShMem   1 Linda.
 NBasis=   282 RedAO= T EigKep=  1.69D-04  NBF=   282
 NBsUse=   282 1.00D-06 EigRej= -1.00D+00 NBFU=   282
 ExpMin= 1.61D-01 ExpMax= 5.48D+03 ExpMxC= 8.25D+02 IAcc=3 IRadAn=         5 AccDes= 0.00D+00
 Harris functional with IExCor=  402 and IRadAn=       5 diagonalized for initial guess.
 HarFok:  IExCor=  402 AccDes= 0.00D+00 IRadAn=         5 IDoV= 1 UseB2=F ITyADJ=14
 ICtDFT=  3500011 ScaDFX=  1.000000  1.000000  1.000000  1.000000
 FoFCou: FMM=F IPFlag=           0 FMFlag=      100000 FMFlg1=           0
         NFxFlg=           0 DoJE=T BraDBF=F KetDBF=T FulRan=T
         wScrn=  0.000000 ICntrl=       500 IOpCl=  0 I1Cent=   200000004 NGrid=           0
         NMat0=    1 NMatS0=      1 NMatT0=    0 NMatD0=    1 NMtDS0=    0 NMtDT0=    0
 Petite list used in FoFCou.
 Requested convergence on RMS density matrix=1.00D-08 within 128 cycles.
 Requested convergence on MAX density matrix=1.00D-06.
 Requested convergence on             energy=1.00D-06.
 No special actions if energy rises.
 Integral accuracy reduced to 1.0D-05 until final iterations.
 Initial convergence to 1.0D-05 achieved.  Increase integral accuracy.
 SCF Done:  E(RB3LYP) =  -454.025640018     A.U. after   14 cycles
            NFock= 14  Conv=0.81D-08     -V/T= 2.0062

 **********************************************************************

            Population analysis using the SCF density.

 **********************************************************************

 Orbital symmetries:
       Occupied  (A) (A) (A) (A) (A) (A) (A) (A) (A) (A) (A) (A)
                 (A) (A) (A) (A) (A) (A) (A) (A) (A) (A) (A) (A)
                 (A) (A) (A) (A) (A) (A) (A) (A) (A)
       Virtual   (A) (A) (A) (A) (A) (A) (A) (A) (A) (A) (A) (A)
                 (A) (A) (A) (A) (A) (A) (A) (A) (A) (A) (A) (A)
                 (A) (A) (A) (A) (A) (A) (A) (A) (A) (A) (A) (A)
                 (A) (A) (A) (A) (A) (A) (A) (A) (A) (A) (A) (A)
                 (A) (A) (A) (A) (A) (A) (A) (A) (A) (A) (A) (A)
                 (A) (A) (A) (A) (A) (A) (A) (A) (A) (A) (A) (A)
                 (A) (A) (A) (A) (A) (A) (A) (A) (A) (A) (A) (A)
                 (A) (A) (A) (A) (A) (A) (A) (A) (A) (A) (A) (A)
                 (A) (A) (A) (A) (A) (A) (A) (A) (A) (A) (A) (A)
                 (A) (A) (A) (A) (A) (A) (A) (A) (A) (A) (A) (A)
                 (A) (A) (A) (A) (A) (A) (A) (A) (A) (A) (A) (A)
                 (A) (A) (A) (A) (A) (A) (A) (A) (A) (A) (A) (A)
                 (A) (A) (A) (A) (A) (A) (A) (A) (A) (A) (A) (A)
                 (A) (A) (A) (A) (A) (A) (A) (A) (A) (A) (A) (A)
                 (A) (A) (A) (A) (A) (A) (A) (A) (A) (A) (A) (A)
                 (A) (A) (A) (A) (A) (A) (A) (A) (A) (A) (A) (A)
                 (A) (A) (A) (A) (A) (A) (A) (A) (A) (A) (A) (A)
                 (A) (A) (A) (A) (A) (A) (A) (A) (A) (A) (A) (A)
                 (A) (A) (A) (A) (A) (A) (A) (A) (A) (A) (A) (A)
                 (A) (A) (A) (A) (A) (A) (A) (A) (A) (A) (A) (A)
                 (A) (A) (A) (A) (A) (A) (A) (A) (A)
 The electronic state is 1-A.
 Alpha  occ. eigenvalues --  -19.21651 -19.14422 -14.33303 -14.32907 -10.30516
 Alpha  occ. eigenvalues --  -10.30153 -10.24769 -10.20614 -10.20511  -1.13412
 Alpha  occ. eigenvalues --   -1.02400  -0.94319  -0.93173  -0.77168  -0.74973
 Alpha  occ. eigenvalues --   -0.67751  -0.62968  -0.57346  -0.53097  -0.52536
 Alpha  occ. eigenvalues --   -0.47822  -0.47127  -0.45683  -0.44156  -0.40976
 Alpha  occ. eigenvalues --   -0.38540  -0.36755  -0.36104  -0.34474  -0.28889
 Alpha  occ. eigenvalues --   -0.27766  -0.25976  -0.20376
 Alpha virt. eigenvalues --   -0.09155   0.03503   0.08021   0.11272   0.11604
 Alpha virt. eigenvalues --    0.12346   0.13542   0.14685   0.17321   0.19013
 Alpha virt. eigenvalues --    0.20709   0.21583   0.22070   0.24002   0.32804
 Alpha virt. eigenvalues --    0.36929   0.39293   0.40525   0.42177   0.43579
 Alpha virt. eigenvalues --    0.45116   0.46063   0.46490   0.49465   0.51451
 Alpha virt. eigenvalues --    0.51661   0.52427   0.53162   0.54445   0.56181
 Alpha virt. eigenvalues --    0.60471   0.62409   0.63798   0.68260   0.69640
 Alpha virt. eigenvalues --    0.71043   0.72870   0.73663   0.75481   0.76622
 Alpha virt. eigenvalues --    0.77091   0.77829   0.78131   0.79587   0.80572
 Alpha virt. eigenvalues --    0.81525   0.82943   0.83040   0.86186   0.87313
 Alpha virt. eigenvalues --    0.88483   0.88623   0.90905   0.93551   0.94483
 Alpha virt. eigenvalues --    0.98806   0.99988   1.01861   1.03881   1.05805
 Alpha virt. eigenvalues --    1.06741   1.09063   1.09933   1.14262   1.20850
 Alpha virt. eigenvalues --    1.22800   1.24695   1.27703   1.29335   1.30620
 Alpha virt. eigenvalues --    1.32589   1.33830   1.35651   1.38208   1.40424
 Alpha virt. eigenvalues --    1.42647   1.45284   1.46055   1.47478   1.51439
 Alpha virt. eigenvalues --    1.53746   1.53950   1.56008   1.61582   1.63183
 Alpha virt. eigenvalues --    1.64332   1.66768   1.68454   1.72445   1.76633
 Alpha virt. eigenvalues --    1.78151   1.82768   1.84324   1.89344   1.91255
 Alpha virt. eigenvalues --    1.94455   1.99214   2.03263   2.08596   2.11982
 Alpha virt. eigenvalues --    2.13868   2.17323   2.17865   2.25793   2.26156
 Alpha virt. eigenvalues --    2.29284   2.31058   2.34344   2.38590   2.45091
 Alpha virt. eigenvalues --    2.47011   2.53208   2.60611   2.61075   2.63143
 Alpha virt. eigenvalues --    2.70818   2.73788   2.75274   2.77936   2.81669
 Alpha virt. eigenvalues --    2.87999   2.91167   2.91547   2.94119   2.95658
 Alpha virt. eigenvalues --    2.99433   3.01432   3.04214   3.05548   3.09428
 Alpha virt. eigenvalues --    3.12386   3.13030   3.14904   3.16160   3.18731
 Alpha virt. eigenvalues --    3.23169   3.24264   3.26856   3.27921   3.28638
 Alpha virt. eigenvalues --    3.32343   3.33375   3.35344   3.39007   3.42156
 Alpha virt. eigenvalues --    3.43218   3.46825   3.48330   3.49690   3.57989
 Alpha virt. eigenvalues --    3.63346   3.65923   3.68267   3.75420   3.78435
 Alpha virt. eigenvalues --    3.80113   3.81308   3.88971   3.92316   3.93085
 Alpha virt. eigenvalues --    3.94647   4.00105   4.01450   4.04231   4.07679
 Alpha virt. eigenvalues --    4.08365   4.08944   4.15667   4.17777   4.17965
 Alpha virt. eigenvalues --    4.20354   4.22329   4.25349   4.26253   4.29819
 Alpha virt. eigenvalues --    4.32629   4.33983   4.36150   4.36553   4.39212
 Alpha virt. eigenvalues --    4.41256   4.43535   4.44745   4.46819   4.48195
 Alpha virt. eigenvalues --    4.50319   4.51128   4.52999   4.54519   4.55089
 Alpha virt. eigenvalues --    4.59646   4.60092   4.60960   4.64379   4.66818
 Alpha virt. eigenvalues --    4.69968   4.74949   4.77826   4.81387   4.82446
 Alpha virt. eigenvalues --    4.83904   4.87502   4.90224   4.95358   4.95825
 Alpha virt. eigenvalues --    4.99617   5.05206   5.07579   5.12695   5.17521
 Alpha virt. eigenvalues --    5.19444   5.23250   5.31665   5.33600   5.37255
 Alpha virt. eigenvalues --    5.39303   5.45546   5.45724   5.47619   5.53575
 Alpha virt. eigenvalues --    5.58894   5.66559   5.69323   5.79156   5.86490
 Alpha virt. eigenvalues --    5.90896   5.92585   5.94120   5.98228   6.00364
 Alpha virt. eigenvalues --    6.02261   6.05922   6.21143   6.37500   6.38983
 Alpha virt. eigenvalues --    7.03421   7.15698   7.27636   9.97578  10.53600
 Alpha virt. eigenvalues --   10.80208  11.34959  11.37168  11.55542  11.80428
 Alpha virt. eigenvalues --   13.15535  13.58546  14.43085  21.23790
          Condensed to atoms (all electrons):
               1          2          3          4          5          6
     1  O    7.870087   0.344823  -0.038334   0.002411   0.000276  -0.000016
     2  C    0.344823   4.843737   0.338670  -0.028702   0.001262   0.000630
     3  C   -0.038334   0.338670   4.468274   0.602255  -0.079253  -0.012713
     4  N    0.002411  -0.028702   0.602255   6.399003   0.450049  -0.023531
     5  C    0.000276   0.001262  -0.079253   0.450049   4.722602   0.639845
     6  C   -0.000016   0.000630  -0.012713  -0.023531   0.639845   4.734376
     7  N    0.000003  -0.000073   0.008690  -0.018934  -0.024207   0.435925
     8  C   -0.000062   0.004847  -0.044236   0.008317  -0.011910  -0.077302
     9  O   -0.000514  -0.033811   0.385708  -0.054066   0.002378   0.000934
    10  H    0.300143  -0.044926   0.005562   0.000361   0.000002   0.000000
    11  H   -0.028052   0.346608  -0.000926  -0.008003  -0.000101  -0.000009
    12  H   -0.032767   0.359335  -0.037322   0.003913   0.000047  -0.000033
    13  H    0.000010  -0.000305   0.004245  -0.032699   0.361979  -0.052529
    14  H   -0.000000   0.000008  -0.000286   0.003639  -0.048883   0.362307
    15  H    0.000001  -0.000392   0.004646  -0.000323   0.000563   0.002077
               7          8          9         10         11         12
     1  O    0.000003  -0.000062  -0.000514   0.300143  -0.028052  -0.032767
     2  C   -0.000073   0.004847  -0.033811  -0.044926   0.346608   0.359335
     3  C    0.008690  -0.044236   0.385708   0.005562  -0.000926  -0.037322
     4  N   -0.018934   0.008317  -0.054066   0.000361  -0.008003   0.003913
     5  C   -0.024207  -0.011910   0.002378   0.000002  -0.000101   0.000047
     6  C    0.435925  -0.077302   0.000934   0.000000  -0.000009  -0.000033
     7  N    6.336322   0.665573  -0.050665  -0.000000   0.000009   0.000032
     8  C    0.665573   4.572886   0.384378   0.000009  -0.000241  -0.000284
     9  O   -0.050665   0.384378   7.615612  -0.000047   0.001011   0.004423
    10  H   -0.000000   0.000009  -0.000047   0.453145  -0.007309  -0.001664
    11  H    0.000009  -0.000241   0.001011  -0.007309   0.625882  -0.048764
    12  H    0.000032  -0.000284   0.004423  -0.001664  -0.048764   0.646949
    13  H    0.003652  -0.000250  -0.000101  -0.000001   0.000003   0.000004
    14  H   -0.033300   0.003331  -0.000118   0.000000  -0.000000  -0.000000
    15  H   -0.032471   0.365813  -0.037826  -0.000000   0.000007  -0.000004
              13         14         15
     1  O    0.000010  -0.000000   0.000001
     2  C   -0.000305   0.000008  -0.000392
     3  C    0.004245  -0.000286   0.004646
     4  N   -0.032699   0.003639  -0.000323
     5  C    0.361979  -0.048883   0.000563
     6  C   -0.052529   0.362307   0.002077
     7  N    0.003652  -0.033300  -0.032471
     8  C   -0.000250   0.003331   0.365813
     9  O   -0.000101  -0.000118  -0.037826
    10  H   -0.000001   0.000000  -0.000000
    11  H    0.000003  -0.000000   0.000007
    12  H    0.000004  -0.000000  -0.000004
    13  H    0.620252  -0.004884   0.000013
    14  H   -0.004884   0.617495  -0.000283
    15  H    0.000013  -0.000283   0.558788
 Mulliken charges:
               1
     1  O   -0.418008
     2  C   -0.131711
     3  C    0.395019
     4  N   -0.303691
     5  C   -0.014647
     6  C   -0.009961
     7  N   -0.290554
     8  C    0.129130
     9  O   -0.217294
    10  H    0.294723
    11  H    0.119884
    12  H    0.106136
    13  H    0.100610
    14  H    0.100973
    15  H    0.139392
 Sum of Mulliken charges =  -0.00000
 Mulliken charges with hydrogens summed into heavy atoms:
               1
     1  O   -0.123285
     2  C    0.094308
     3  C    0.395019
     4  N   -0.303691
     5  C    0.085963
     6  C    0.091012
     7  N   -0.290554
     8  C    0.268522
     9  O   -0.217294
 Electronic spatial extent (au):  <R**2>=           1162.9957
 Charge=             -0.0000 electrons
 Dipole moment (field-independent basis, Debye):
    X=             -1.9334    Y=             -1.2715    Z=             -1.2094  Tot=              2.6111
 Quadrupole moment (field-independent basis, Debye-Ang):
   XX=            -45.1838   YY=            -49.1634   ZZ=            -52.3338
   XY=              2.8764   XZ=              2.5359   YZ=              0.2912
 Traceless Quadrupole moment (field-independent basis, Debye-Ang):
   XX=              3.7099   YY=             -0.2698   ZZ=             -3.4401
   XY=              2.8764   XZ=              2.5359   YZ=              0.2912
 Octapole moment (field-independent basis, Debye-Ang**2):
  XXX=            -72.9882  YYY=             -9.8941  ZZZ=              0.3741  XYY=              5.0798
  XXY=              6.8895  XXZ=             -5.4090  XZZ=             -4.1059  YZZ=             -2.6532
  YYZ=              1.9267  XYZ=              1.2552
 Hexadecapole moment (field-independent basis, Debye-Ang**3):
 XXXX=           -831.4820 YYYY=           -338.4142 ZZZZ=            -87.6139 XXXY=             13.3882
 XXXZ=             -8.6726 YYYX=             -7.6775 YYYZ=              0.1919 ZZZX=             -4.7302
 ZZZY=              1.2171 XXYY=           -222.7667 XXZZ=           -191.2313 YYZZ=            -79.3129
 XXYZ=              4.6896 YYXZ=             -1.9554 ZZXY=             -3.2946
 N-N= 4.360389199179D+02 E-N=-1.933159720015D+03  KE= 4.512214767481D+02
 PrsmSu:  requested number of processors reduced to:  13 ShMem   1 Linda.
 Calling FoFJK, ICntrl=      2127 FMM=F ISym2X=0 I1Cent= 0 IOpClX= 0 NMat=1 NMatS=1 NMatT=0.
 ***** Axes restored to original set *****
 -------------------------------------------------------------------
 Center     Atomic                   Forces (Hartrees/Bohr)
 Number     Number              X              Y              Z
 -------------------------------------------------------------------
      1        8          -0.004228090    0.001740531   -0.000926709
      2        6          -0.005824186   -0.004390727   -0.003501040
      3        6          -0.033654977    0.026769631   -0.048839769
      4        7           0.006271263   -0.072073666   -0.006044654
      5        6          -0.002500135    0.041501058    0.009621106
      6        6          -0.014134266    0.040475427   -0.014505125
      7        7           0.017995870   -0.068430246    0.013359066
      8        6           0.018565092    0.039837486    0.046332620
      9        8           0.004368181   -0.020033484    0.000692119
     10        1           0.003682282    0.005464498    0.006048532
     11        1           0.004799703    0.002411885    0.000735648
     12        1           0.007897454    0.001567395    0.003598903
     13        1           0.001264051    0.001146369    0.001172159
     14        1           0.000427791   -0.000619367   -0.000842392
     15        1          -0.004930032    0.004633209   -0.006900464
 -------------------------------------------------------------------
 Cartesian Forces:  Max     0.072073666 RMS     0.022819256

 GradGradGradGradGradGradGradGradGradGradGradGradGradGradGradGradGradGrad
 Berny optimization.
 FormGI is forming the generalized inverse of G from B-inverse, IUseBI=4.
 Internal  Forces:  Max     0.049462570 RMS     0.012833127
 Search for a local minimum.
 Step number   1 out of a maximum of   72
 All quantities printed in internal units (Hartrees-Bohrs-Radians)
 Mixed Optimization -- RFO/linear search
 Second derivative matrix not updated -- first step.
 ITU=  0
     Eigenvalues ---    0.00370   0.01382   0.01632   0.02377   0.02613
     Eigenvalues ---    0.02733   0.02802   0.02826   0.02918   0.02961
     Eigenvalues ---    0.06207   0.07204   0.11511   0.13940   0.15995
     Eigenvalues ---    0.16000   0.16000   0.16000   0.22085   0.22131
     Eigenvalues ---    0.23086   0.23987   0.24970   0.25000   0.29428
     Eigenvalues ---    0.33396   0.34110   0.34436   0.34890   0.34992
     Eigenvalues ---    0.41951   0.51515   0.53091   0.53301   0.54930
     Eigenvalues ---    0.55698   0.58462   0.67948   0.70441
 RFO step:  Lambda=-1.97001657D-02 EMin= 3.69811815D-03
 Linear search not attempted -- first point.
 Iteration  1 RMS(Cart)=  0.03007587 RMS(Int)=  0.00083447
 Iteration  2 RMS(Cart)=  0.00076154 RMS(Int)=  0.00047615
 Iteration  3 RMS(Cart)=  0.00000024 RMS(Int)=  0.00047615
 Variable       Old X    -DE/DX   Delta X   Delta X   Delta X     New X
                                 (Linear)    (Quad)   (Total)
    R1        2.68985  -0.00006   0.00000  -0.00013  -0.00013   2.68973
    R2        1.83373  -0.00881   0.00000  -0.01594  -0.01594   1.81779
    R3        2.89118  -0.01041   0.00000  -0.03316  -0.03316   2.85802
    R4        2.07145   0.00130   0.00000   0.00361   0.00361   2.07507
    R5        2.06601   0.00278   0.00000   0.00764   0.00764   2.07365
    R6        2.43671  -0.03213   0.00000  -0.04491  -0.04495   2.39176
    R7        2.54998   0.03268   0.00000   0.05567   0.05552   2.60550
    R8        2.54884   0.04946   0.00000   0.08745   0.08756   2.63640
    R9        2.51599   0.01203   0.00000   0.02126   0.02142   2.53742
   R10        2.05688  -0.00006   0.00000  -0.00016  -0.00016   2.05671
   R11        2.55514   0.04893   0.00000   0.08769   0.08780   2.64294
   R12        2.05854  -0.00087   0.00000  -0.00236  -0.00236   2.05618
   R13        2.43182  -0.03268   0.00000  -0.04514  -0.04518   2.38664
   R14        2.54239   0.03203   0.00000   0.05379   0.05364   2.59603
   R15        2.08362  -0.00959   0.00000  -0.02711  -0.02711   2.05651
    A1        1.88276  -0.00278   0.00000  -0.01550  -0.01550   1.86726
    A2        1.91763  -0.00998   0.00000  -0.04044  -0.04025   1.87738
    A3        1.90663   0.00670   0.00000   0.04378   0.04284   1.94946
    A4        1.89133   0.00947   0.00000   0.05974   0.05859   1.94992
    A5        1.89416  -0.00138   0.00000  -0.02126  -0.02117   1.87299
    A6        1.95340  -0.00471   0.00000  -0.04213  -0.04197   1.91143
    A7        1.90024   0.00025   0.00000   0.00271   0.00052   1.90076
    A8        2.04642   0.00571   0.00000   0.02281   0.02286   2.06927
    A9        1.92789  -0.00160   0.00000  -0.00427  -0.00422   1.92367
   A10        2.30885  -0.00410   0.00000  -0.01841  -0.01863   2.29022
   A11        2.17357   0.00620   0.00000   0.02651   0.02663   2.20020
   A12        2.27934  -0.00660   0.00000  -0.01935  -0.01910   2.26024
   A13        1.96565   0.00530   0.00000   0.02107   0.02086   1.98651
   A14        2.03758   0.00132   0.00000  -0.00107  -0.00128   2.03630
   A15        2.27262  -0.00667   0.00000  -0.01953  -0.01923   2.25340
   A16        2.03077   0.00303   0.00000   0.00807   0.00791   2.03868
   A17        1.97979   0.00364   0.00000   0.01146   0.01131   1.99110
   A18        2.15085   0.00732   0.00000   0.03140   0.03152   2.18236
   A19        2.34484  -0.00525   0.00000  -0.02504  -0.02522   2.31962
   A20        2.05149   0.00381   0.00000   0.01912   0.01921   2.07070
   A21        1.88685   0.00144   0.00000   0.00593   0.00602   1.89287
   A22        2.17527   0.00913   0.00000   0.02511   0.02463   2.19990
    D1        2.92010   0.00069   0.00000   0.00205   0.00222   2.92232
    D2        0.84404   0.00428   0.00000   0.02567   0.02731   0.87135
    D3       -1.22391  -0.00528   0.00000  -0.03689  -0.03871  -1.26263
    D4       -1.14443  -0.00021   0.00000  -0.01373  -0.01368  -1.15811
    D5        1.98965   0.00030   0.00000   0.00109   0.00130   1.99095
    D6        0.93927   0.00123   0.00000   0.00285   0.00264   0.94191
    D7       -2.20984   0.00173   0.00000   0.01767   0.01762  -2.19222
    D8        3.03674  -0.00230   0.00000  -0.03401  -0.03409   3.00265
    D9       -0.11237  -0.00180   0.00000  -0.01919  -0.01911  -0.13148
   D10        3.04988   0.00126   0.00000   0.02621   0.02623   3.07612
   D11       -0.08220   0.00059   0.00000   0.00730   0.00741  -0.07479
   D12       -3.06035  -0.00071   0.00000  -0.01884  -0.01861  -3.07896
   D13        0.07222  -0.00004   0.00000  -0.00078  -0.00087   0.07136
   D14        0.01610   0.00027   0.00000   0.00342   0.00350   0.01960
   D15       -3.08586  -0.00067   0.00000  -0.01755  -0.01764  -3.10350
   D16        0.04026  -0.00064   0.00000  -0.01459  -0.01461   0.02565
   D17       -3.10292  -0.00080   0.00000  -0.01807  -0.01810  -3.12102
   D18        3.14089   0.00039   0.00000   0.00747   0.00743  -3.13487
   D19       -0.00230   0.00023   0.00000   0.00399   0.00394   0.00164
   D20       -0.02566   0.00050   0.00000   0.00874   0.00865  -0.01701
   D21        3.11748   0.00065   0.00000   0.01214   0.01206   3.12955
   D22       -0.01189   0.00052   0.00000   0.00848   0.00842  -0.00347
   D23        3.13357   0.00040   0.00000   0.00659   0.00659   3.14016
   D24       -0.00620  -0.00054   0.00000  -0.01265  -0.01258  -0.01878
   D25        3.13179  -0.00042   0.00000  -0.01086  -0.01086   3.12093
         Item               Value     Threshold  Converged?
 Maximum Force            0.049463     0.000450     NO 
 RMS     Force            0.012833     0.000300     NO 
 Maximum Displacement     0.103278     0.001800     NO 
 RMS     Displacement     0.029955     0.001200     NO 
 Predicted change in Energy=-1.035306D-02
 GradGradGradGradGradGradGradGradGradGradGradGradGradGradGradGradGradGrad

                          Input orientation:                          
 ---------------------------------------------------------------------
 Center     Atomic      Atomic             Coordinates (Angstroms)
 Number     Number       Type             X           Y           Z
 ---------------------------------------------------------------------
      1          8           0        0.923519   -0.045891    0.035691
      2          6           0        2.343858    0.045631    0.022773
      3          6           0        2.733962    1.214113    0.900171
      4          7           0        2.412434    2.381440    0.531557
      5          6           0        2.626054    3.557766    1.250578
      6          6           0        3.215971    3.734284    2.443809
      7          7           0        3.805802    2.785615    3.285332
      8          6           0        3.865238    1.545953    3.051307
      9          8           0        3.421083    0.768556    2.009387
     10          1           0        0.674510   -0.651358   -0.669091
     11          1           0        2.728249    0.251098   -0.985098
     12          1           0        2.813342   -0.870664    0.402402
     13          1           0        2.235935    4.448584    0.761916
     14          1           0        3.254929    4.752224    2.826174
     15          1           0        4.351423    0.900250    3.780001
 ---------------------------------------------------------------------
                    Distance matrix (angstroms):
                    1          2          3          4          5
     1  O    0.000000
     2  C    1.423344   0.000000
     3  C    2.369100   1.512401   0.000000
     4  N    2.890447   2.391562   1.265665   0.000000
     5  C    4.166644   3.731251   2.372160   1.395123   0.000000
     6  C    5.034292   4.497573   2.994398   2.476402   1.342744
     7  N    5.185089   4.504341   3.050813   3.112573   2.475530
     8  C    4.503512   3.706424   2.453017   3.026188   2.970790
     9  O    3.285822   2.372692   1.378774   2.408889   2.997925
    10  H    0.961932   1.936800   3.191223   3.695917   5.020994
    11  H    2.094580   1.098079   2.116995   2.634072   3.992837
    12  H    2.094316   1.097328   2.144847   3.279266   4.512812
    13  H    4.738159   4.465868   3.275508   2.087416   1.088366
    14  H    6.020313   5.553478   4.061912   3.405243   2.074781
    15  H    5.163871   4.344819   3.317847   4.062756   4.054291
                    6          7          8          9         10
     6  C    0.000000
     7  N    1.398583   0.000000
     8  C    2.362074   1.262958   0.000000
     9  O    3.004386   2.417555   1.373760   0.000000
    10  H    5.948364   6.103707   5.371246   4.090729   0.000000
    11  H    4.912012   5.081483   4.388845   3.116845   2.265421
    12  H    5.053216   4.760739   3.736739   2.374614   2.402248
    13  H    2.073515   3.405523   4.039952   4.062434   5.522250
    14  H    1.088082   2.093284   3.271595   4.069933   6.933552
    15  H    3.332628   2.024105   1.088257   2.004482   5.976755
                   11         12         13         14         15
    11  H    0.000000
    12  H    1.786267   0.000000
    13  H    4.573108   5.362560   0.000000
    14  H    5.921429   6.138936   2.322006   0.000000
    15  H    5.075653   4.112177   5.116132   4.117012   0.000000
 Stoichiometry    C5H6N2O2
 Framework group  C1[X(C5H6N2O2)]
 Deg. of freedom    39
 Full point group                 C1      NOp   1
 Largest Abelian subgroup         C1      NOp   1
 Largest concise Abelian subgroup C1      NOp   1
                         Standard orientation:                         
 ---------------------------------------------------------------------
 Center     Atomic      Atomic             Coordinates (Angstroms)
 Number     Number       Type             X           Y           Z
 ---------------------------------------------------------------------
      1          8           0       -2.793762    0.269442    0.726839
      2          6           0       -2.154595   -0.270095   -0.424800
      3          6           0       -0.667262   -0.044237   -0.269275
      4          7           0       -0.230826    1.143709   -0.283953
      5          6           0        1.092933    1.534862   -0.081392
      6          6           0        2.180741    0.781572    0.147060
      7          7           0        2.290629   -0.610892    0.217792
      8          6           0        1.330978   -1.421552    0.087558
      9          8           0       -0.012966   -1.251007   -0.140360
     10          1           0       -3.735735    0.304270    0.535041
     11          1           0       -2.469153    0.244733   -1.342287
     12          1           0       -2.352922   -1.343836   -0.533777
     13          1           0        1.240389    2.613035   -0.099806
     14          1           0        3.120455    1.309263    0.296732
     15          1           0        1.535395   -2.487948    0.160479
 ---------------------------------------------------------------------
 Rotational constants (GHZ):           3.5166025           1.2360398           0.9726585
 Standard basis: 6-31G(2df,p) (6D, 7F)
 There are   309 symmetry adapted cartesian basis functions of A   symmetry.
 There are   282 symmetry adapted basis functions of A   symmetry.
   282 basis functions,   438 primitive gaussians,   309 cartesian basis functions
    33 alpha electrons       33 beta electrons
       nuclear repulsion energy       433.7192554458 Hartrees.
 NAtoms=   15 NActive=   15 NUniq=   15 SFac= 1.00D+00 NAtFMM=   60 NAOKFM=F Big=F
 Integral buffers will be    131072 words long.
 Raffenetti 2 integral format.
 Two-electron integral symmetry is turned on.
 One-electron integrals computed using PRISM.
 PrsmSu:  requested number of processors reduced to:  13 ShMem   1 Linda.
 NBasis=   282 RedAO= T EigKep=  1.79D-04  NBF=   282
 NBsUse=   282 1.00D-06 EigRej= -1.00D+00 NBFU=   282
 Initial guess from the checkpoint file:  "OCC1dNCdCNdCO1.chk"
 B after Tr=     0.000000   -0.000000    0.000000
         Rot=    0.999998   -0.001279   -0.001050   -0.000535 Ang=  -0.20 deg.
 ExpMin= 1.61D-01 ExpMax= 5.48D+03 ExpMxC= 8.25D+02 IAcc=2 IRadAn=         4 AccDes= 0.00D+00
 Harris functional with IExCor=  402 and IRadAn=       4 diagonalized for initial guess.
 HarFok:  IExCor=  402 AccDes= 0.00D+00 IRadAn=         4 IDoV= 1 UseB2=F ITyADJ=14
 ICtDFT=  3500011 ScaDFX=  1.000000  1.000000  1.000000  1.000000
 FoFCou: FMM=F IPFlag=           0 FMFlag=      100000 FMFlg1=           0
         NFxFlg=           0 DoJE=T BraDBF=F KetDBF=T FulRan=T
         wScrn=  0.000000 ICntrl=       500 IOpCl=  0 I1Cent=   200000004 NGrid=           0
         NMat0=    1 NMatS0=      1 NMatT0=    0 NMatD0=    1 NMtDS0=    0 NMtDT0=    0
 Petite list used in FoFCou.
 Requested convergence on RMS density matrix=1.00D-08 within 128 cycles.
 Requested convergence on MAX density matrix=1.00D-06.
 Requested convergence on             energy=1.00D-06.
 No special actions if energy rises.
 Integral accuracy reduced to 1.0D-05 until final iterations.
 Initial convergence to 1.0D-05 achieved.  Increase integral accuracy.
 SCF Done:  E(RB3LYP) =  -454.036892282     A.U. after   12 cycles
            NFock= 12  Conv=0.61D-08     -V/T= 2.0067
 PrsmSu:  requested number of processors reduced to:  13 ShMem   1 Linda.
 Calling FoFJK, ICntrl=      2127 FMM=F ISym2X=0 I1Cent= 0 IOpClX= 0 NMat=1 NMatS=1 NMatT=0.
 ***** Axes restored to original set *****
 -------------------------------------------------------------------
 Center     Atomic                   Forces (Hartrees/Bohr)
 Number     Number              X              Y              Z
 -------------------------------------------------------------------
      1        8           0.003861523   -0.000470156   -0.000847440
      2        6          -0.002353672   -0.002443285    0.001503485
      3        6          -0.007937339    0.015124593   -0.013518497
      4        7           0.001836597   -0.013530086    0.001449633
      5        6           0.002516557    0.008670777    0.008427771
      6        6          -0.005524562    0.007258384   -0.009583245
      7        7           0.002762922   -0.014135640    0.001934320
      8        6           0.002907688    0.017337564    0.010407470
      9        8           0.002545504   -0.010712396    0.002132211
     10        1          -0.000949625   -0.000240537    0.000130897
     11        1          -0.000255674   -0.000140076   -0.000188454
     12        1           0.000222577   -0.000085481   -0.000033525
     13        1           0.000113537   -0.002289567   -0.000689205
     14        1           0.001254383   -0.002188423    0.000975637
     15        1          -0.001000418   -0.002155670   -0.002101057
 -------------------------------------------------------------------
 Cartesian Forces:  Max     0.017337564 RMS     0.006322526

 GradGradGradGradGradGradGradGradGradGradGradGradGradGradGradGradGradGrad
 Berny optimization.
 Using GEDIIS/GDIIS optimizer.
 FormGI is forming the generalized inverse of G from B-inverse, IUseBI=4.
 Internal  Forces:  Max     0.009594629 RMS     0.003027677
 Search for a local minimum.
 Step number   2 out of a maximum of   72
 All quantities printed in internal units (Hartrees-Bohrs-Radians)
 Mixed Optimization -- RFO/linear search
 Update second derivatives using D2CorX and points    1    2
 DE= -1.13D-02 DEPred=-1.04D-02 R= 1.09D+00
 TightC=F SS=  1.41D+00  RLast= 2.23D-01 DXNew= 5.0454D-01 6.7000D-01
 Trust test= 1.09D+00 RLast= 2.23D-01 DXMaxT set to 5.05D-01
 ITU=  1  0
 Use linear search instead of GDIIS.
     Eigenvalues ---    0.00370   0.01382   0.01614   0.02377   0.02610
     Eigenvalues ---    0.02727   0.02799   0.02826   0.02921   0.02959
     Eigenvalues ---    0.06541   0.07562   0.11324   0.13746   0.15840
     Eigenvalues ---    0.15999   0.16000   0.16147   0.22119   0.22341
     Eigenvalues ---    0.23333   0.23708   0.24587   0.25232   0.29860
     Eigenvalues ---    0.33459   0.34111   0.34438   0.34853   0.34982
     Eigenvalues ---    0.41694   0.46668   0.52608   0.53154   0.53598
     Eigenvalues ---    0.55507   0.59178   0.67689   0.68344
 RFO step:  Lambda=-1.19878882D-03 EMin= 3.69744299D-03
 Quartic linear search produced a step of  0.20450.
 Iteration  1 RMS(Cart)=  0.03643836 RMS(Int)=  0.00059500
 Iteration  2 RMS(Cart)=  0.00079695 RMS(Int)=  0.00010248
 Iteration  3 RMS(Cart)=  0.00000019 RMS(Int)=  0.00010248
 Variable       Old X    -DE/DX   Delta X   Delta X   Delta X     New X
                                 (Linear)    (Quad)   (Total)
    R1        2.68973  -0.00287  -0.00003  -0.00819  -0.00822   2.68151
    R2        1.81779   0.00030  -0.00326   0.00294  -0.00032   1.81747
    R3        2.85802   0.00215  -0.00678   0.01341   0.00663   2.86465
    R4        2.07507   0.00006   0.00074  -0.00030   0.00043   2.07550
    R5        2.07365   0.00015   0.00156  -0.00054   0.00103   2.07468
    R6        2.39176  -0.00899  -0.00919  -0.00891  -0.01811   2.37365
    R7        2.60550   0.00959   0.01135   0.01321   0.02453   2.63004
    R8        2.63640   0.00768   0.01791   0.00422   0.02215   2.65855
    R9        2.53742  -0.00384   0.00438  -0.01101  -0.00659   2.53083
   R10        2.05671  -0.00161  -0.00003  -0.00548  -0.00551   2.05120
   R11        2.64294   0.00765   0.01795   0.00421   0.02219   2.66513
   R12        2.05618  -0.00166  -0.00048  -0.00537  -0.00586   2.05032
   R13        2.38664  -0.00945  -0.00924  -0.00960  -0.01885   2.36779
   R14        2.59603   0.00804   0.01097   0.00975   0.02068   2.61671
   R15        2.05651  -0.00057  -0.00554   0.00175  -0.00379   2.05272
    A1        1.86726   0.00166  -0.00317   0.01456   0.01139   1.87865
    A2        1.87738   0.00096  -0.00823   0.01168   0.00349   1.88087
    A3        1.94946  -0.00040   0.00876  -0.00752   0.00103   1.95049
    A4        1.94992  -0.00028   0.01198  -0.01038   0.00137   1.95129
    A5        1.87299   0.00017  -0.00433   0.00640   0.00208   1.87508
    A6        1.91143  -0.00043  -0.00858   0.00277  -0.00578   1.90564
    A7        1.90076  -0.00000   0.00011  -0.00194  -0.00228   1.89849
    A8        2.06927   0.00510   0.00467   0.02084   0.02553   2.09480
    A9        1.92367  -0.00399  -0.00086  -0.01892  -0.01977   1.90390
   A10        2.29022  -0.00111  -0.00381  -0.00183  -0.00573   2.28449
   A11        2.20020   0.00147   0.00545   0.00377   0.00920   2.20940
   A12        2.26024   0.00008  -0.00391   0.00251  -0.00141   2.25883
   A13        1.98651  -0.00186   0.00427  -0.01627  -0.01208   1.97443
   A14        2.03630   0.00178  -0.00026   0.01395   0.01362   2.04992
   A15        2.25340  -0.00046  -0.00393  -0.00076  -0.00465   2.24874
   A16        2.03868   0.00239   0.00162   0.01679   0.01839   2.05707
   A17        1.99110  -0.00194   0.00231  -0.01602  -0.01373   1.97737
   A18        2.18236   0.00082   0.00644  -0.00100   0.00541   2.18777
   A19        2.31962   0.00043  -0.00516   0.00629   0.00104   2.32066
   A20        2.07070   0.00299   0.00393   0.01988   0.02385   2.09455
   A21        1.89287  -0.00342   0.00123  -0.02616  -0.02489   1.86798
   A22        2.19990  -0.00121   0.00504  -0.00781  -0.00295   2.19695
    D1        2.92232   0.00034   0.00045   0.01225   0.01274   2.93506
    D2        0.87135  -0.00023   0.00559   0.00155   0.00747   0.87882
    D3       -1.26263   0.00026  -0.00792   0.01698   0.00869  -1.25394
    D4       -1.15811  -0.00017  -0.00280  -0.04200  -0.04477  -1.20288
    D5        1.99095  -0.00030   0.00027  -0.05205  -0.05176   1.93920
    D6        0.94191  -0.00002   0.00054  -0.04100  -0.04048   0.90143
    D7       -2.19222  -0.00015   0.00360  -0.05105  -0.04747  -2.23968
    D8        3.00265  -0.00016  -0.00697  -0.03817  -0.04514   2.95751
    D9       -0.13148  -0.00029  -0.00391  -0.04822  -0.05213  -0.18360
   D10        3.07612   0.00036   0.00536   0.00862   0.01395   3.09007
   D11       -0.07479   0.00051   0.00151   0.02110   0.02266  -0.05213
   D12       -3.07896  -0.00008  -0.00381   0.00125  -0.00259  -3.08155
   D13        0.07136  -0.00026  -0.00018  -0.01060  -0.01076   0.06060
   D14        0.01960  -0.00001   0.00072  -0.00346  -0.00278   0.01683
   D15       -3.10350  -0.00037  -0.00361  -0.01626  -0.01979  -3.12330
   D16        0.02565  -0.00046  -0.00299  -0.01877  -0.02178   0.00387
   D17       -3.12102  -0.00036  -0.00370  -0.01398  -0.01770  -3.13872
   D18       -3.13487  -0.00012   0.00152  -0.00593  -0.00438  -3.13925
   D19        0.00164  -0.00002   0.00081  -0.00114  -0.00029   0.00135
   D20       -0.01701   0.00038   0.00177   0.01442   0.01616  -0.00085
   D21        3.12955   0.00027   0.00247   0.00966   0.01215  -3.14149
   D22       -0.00347   0.00025   0.00172   0.00734   0.00906   0.00559
   D23        3.14016   0.00012   0.00135   0.00389   0.00520  -3.13782
   D24       -0.01878  -0.00032  -0.00257  -0.01118  -0.01375  -0.03253
   D25        3.12093  -0.00020  -0.00222  -0.00795  -0.01021   3.11072
         Item               Value     Threshold  Converged?
 Maximum Force            0.009595     0.000450     NO 
 RMS     Force            0.003028     0.000300     NO 
 Maximum Displacement     0.119277     0.001800     NO 
 RMS     Displacement     0.036412     0.001200     NO 
 Predicted change in Energy=-8.919383D-04
 GradGradGradGradGradGradGradGradGradGradGradGradGradGradGradGradGradGrad

                          Input orientation:                          
 ---------------------------------------------------------------------
 Center     Atomic      Atomic             Coordinates (Angstroms)
 Number     Number       Type             X           Y           Z
 ---------------------------------------------------------------------
      1          8           0        0.934533   -0.094481    0.059072
      2          6           0        2.345222    0.050334    0.008753
      3          6           0        2.720315    1.231919    0.881185
      4          7           0        2.406455    2.396586    0.530779
      5          6           0        2.631738    3.580211    1.257064
      6          6           0        3.228273    3.749093    2.444178
      7          7           0        3.800515    2.778656    3.292592
      8          6           0        3.843360    1.547990    3.061099
      9          8           0        3.401116    0.770602    2.003986
     10          1           0        0.680428   -0.714477   -0.630875
     11          1           0        2.696023    0.268238   -1.008959
     12          1           0        2.860547   -0.846989    0.375596
     13          1           0        2.254538    4.466158    0.756050
     14          1           0        3.299312    4.757972    2.836990
     15          1           0        4.303935    0.875788    3.779400
 ---------------------------------------------------------------------
                    Distance matrix (angstroms):
                    1          2          3          4          5
     1  O    0.000000
     2  C    1.418995   0.000000
     3  C    2.371545   1.515908   0.000000
     4  N    2.931634   2.404405   1.256082   0.000000
     5  C    4.221262   3.755051   2.379833   1.406844   0.000000
     6  C    5.071788   4.515739   3.006182   2.483093   1.339259
     7  N    5.188875   4.510568   3.061717   3.117208   2.480303
     8  C    4.491231   3.715402   2.472479   3.031061   2.975314
     9  O    3.258081   2.369526   1.391756   2.409048   3.007281
    10  H    0.961764   1.940515   3.199363   3.742636   5.080971
    11  H    2.091675   1.098309   2.121772   2.642822   4.013497
    12  H    2.091886   1.097871   2.144095   3.278881   4.519894
    13  H    4.798711   4.479529   3.270001   2.087331   1.085448
    14  H    6.070858   5.574144   4.073507   3.419349   2.080611
    15  H    5.112253   4.328477   3.321796   4.057930   4.058611
                    6          7          8          9         10
     6  C    0.000000
     7  N    1.410324   0.000000
     8  C    2.367230   1.252982   0.000000
     9  O    3.015800   2.419154   1.384702   0.000000
    10  H    5.989234   6.109870   5.362235   4.068181   0.000000
    11  H    4.931916   5.101514   4.418090   3.134863   2.274050
    12  H    5.053535   4.747389   3.730117   2.358065   2.404883
    13  H    2.076564   3.416395   4.043923   4.065602   5.589308
    14  H    1.084982   2.092001   3.263465   4.074724   6.988014
    15  H    3.346005   2.027639   1.086250   1.994553   5.925307
                   11         12         13         14         15
    11  H    0.000000
    12  H    1.785439   0.000000
    13  H    4.575226   5.361112   0.000000
    14  H    5.942474   6.137309   2.346704   0.000000
    15  H    5.087522   4.078874   5.121663   4.119315   0.000000
 Stoichiometry    C5H6N2O2
 Framework group  C1[X(C5H6N2O2)]
 Deg. of freedom    39
 Full point group                 C1      NOp   1
 Largest Abelian subgroup         C1      NOp   1
 Largest concise Abelian subgroup C1      NOp   1
                         Standard orientation:                         
 ---------------------------------------------------------------------
 Center     Atomic      Atomic             Coordinates (Angstroms)
 Number     Number       Type             X           Y           Z
 ---------------------------------------------------------------------
      1          8           0       -2.805088    0.235568    0.735110
      2          6           0       -2.162005   -0.229410   -0.441235
      3          6           0       -0.672280   -0.004362   -0.273746
      4          7           0       -0.210200    1.163603   -0.264783
      5          6           0        1.132053    1.532860   -0.061765
      6          6           0        2.205068    0.758706    0.145449
      7          7           0        2.281249   -0.647956    0.212630
      8          6           0        1.313438   -1.433331    0.084204
      9          8           0       -0.036880   -1.236504   -0.150959
     10          1           0       -3.749766    0.267704    0.557510
     11          1           0       -2.481877    0.332302   -1.329177
     12          1           0       -2.348475   -1.297647   -0.612756
     13          1           0        1.286158    2.607152   -0.080312
     14          1           0        3.163813    1.247429    0.283809
     15          1           0        1.470913   -2.505749    0.155342
 ---------------------------------------------------------------------
 Rotational constants (GHZ):           3.5121895           1.2265500           0.9674922
 Standard basis: 6-31G(2df,p) (6D, 7F)
 There are   309 symmetry adapted cartesian basis functions of A   symmetry.
 There are   282 symmetry adapted basis functions of A   symmetry.
   282 basis functions,   438 primitive gaussians,   309 cartesian basis functions
    33 alpha electrons       33 beta electrons
       nuclear repulsion energy       432.8601330471 Hartrees.
 NAtoms=   15 NActive=   15 NUniq=   15 SFac= 1.00D+00 NAtFMM=   60 NAOKFM=F Big=F
 Integral buffers will be    131072 words long.
 Raffenetti 2 integral format.
 Two-electron integral symmetry is turned on.
 One-electron integrals computed using PRISM.
 PrsmSu:  requested number of processors reduced to:  13 ShMem   1 Linda.
 NBasis=   282 RedAO= T EigKep=  1.79D-04  NBF=   282
 NBsUse=   282 1.00D-06 EigRej= -1.00D+00 NBFU=   282
 Initial guess from the checkpoint file:  "OCC1dNCdCNdCO1.chk"
 B after Tr=    -0.000000    0.000000   -0.000000
         Rot=    0.999953   -0.008456    0.000284    0.004787 Ang=  -1.11 deg.
 ExpMin= 1.61D-01 ExpMax= 5.48D+03 ExpMxC= 8.25D+02 IAcc=2 IRadAn=         4 AccDes= 0.00D+00
 Harris functional with IExCor=  402 and IRadAn=       4 diagonalized for initial guess.
 HarFok:  IExCor=  402 AccDes= 0.00D+00 IRadAn=         4 IDoV= 1 UseB2=F ITyADJ=14
 ICtDFT=  3500011 ScaDFX=  1.000000  1.000000  1.000000  1.000000
 FoFCou: FMM=F IPFlag=           0 FMFlag=      100000 FMFlg1=           0
         NFxFlg=           0 DoJE=T BraDBF=F KetDBF=T FulRan=T
         wScrn=  0.000000 ICntrl=       500 IOpCl=  0 I1Cent=   200000004 NGrid=           0
         NMat0=    1 NMatS0=      1 NMatT0=    0 NMatD0=    1 NMtDS0=    0 NMtDT0=    0
 Petite list used in FoFCou.
 Requested convergence on RMS density matrix=1.00D-08 within 128 cycles.
 Requested convergence on MAX density matrix=1.00D-06.
 Requested convergence on             energy=1.00D-06.
 No special actions if energy rises.
 Integral accuracy reduced to 1.0D-05 until final iterations.
 Initial convergence to 1.0D-05 achieved.  Increase integral accuracy.
 SCF Done:  E(RB3LYP) =  -454.037938753     A.U. after   12 cycles
            NFock= 12  Conv=0.52D-08     -V/T= 2.0067
 PrsmSu:  requested number of processors reduced to:  13 ShMem   1 Linda.
 Calling FoFJK, ICntrl=      2127 FMM=F ISym2X=0 I1Cent= 0 IOpClX= 0 NMat=1 NMatS=1 NMatT=0.
 ***** Axes restored to original set *****
 -------------------------------------------------------------------
 Center     Atomic                   Forces (Hartrees/Bohr)
 Number     Number              X              Y              Z
 -------------------------------------------------------------------
      1        8           0.000788697    0.000429342    0.000147596
      2        6          -0.000163632   -0.001062516    0.000266260
      3        6          -0.001561517    0.001611357   -0.002563685
      4        7          -0.000349118    0.001311027    0.000406733
      5        6           0.001409013    0.000380322    0.002176682
      6        6          -0.000920133   -0.000431470   -0.002759178
      7        7          -0.000501786    0.001926532    0.000548952
      8        6           0.000126355    0.001305365    0.000439235
      9        8           0.001221786   -0.004055607    0.001153197
     10        1          -0.000015086   -0.000288379    0.000000497
     11        1          -0.000264457    0.000252601   -0.000093459
     12        1           0.000039876    0.000310537   -0.000087150
     13        1          -0.000342364   -0.000377692   -0.000491097
     14        1           0.000333834   -0.000126777    0.000440169
     15        1           0.000198532   -0.001184641    0.000415248
 -------------------------------------------------------------------
 Cartesian Forces:  Max     0.004055607 RMS     0.001148903

 GradGradGradGradGradGradGradGradGradGradGradGradGradGradGradGradGradGrad
 Berny optimization.
 Using GEDIIS/GDIIS optimizer.
 FormGI is forming the generalized inverse of G from B-inverse, IUseBI=4.
 Internal  Forces:  Max     0.003046590 RMS     0.000725567
 Search for a local minimum.
 Step number   3 out of a maximum of   72
 All quantities printed in internal units (Hartrees-Bohrs-Radians)
 Mixed Optimization -- En-DIIS/RFO-DIIS
 Update second derivatives using D2CorX and points    1    2    3
 DE= -1.05D-03 DEPred=-8.92D-04 R= 1.17D+00
 TightC=F SS=  1.41D+00  RLast= 1.51D-01 DXNew= 8.4853D-01 4.5359D-01
 Trust test= 1.17D+00 RLast= 1.51D-01 DXMaxT set to 5.05D-01
 ITU=  1  1  0
 Use linear search instead of GDIIS.
     Eigenvalues ---    0.00349   0.01378   0.01610   0.02351   0.02596
     Eigenvalues ---    0.02718   0.02795   0.02831   0.02917   0.02930
     Eigenvalues ---    0.06517   0.07567   0.11186   0.13685   0.15031
     Eigenvalues ---    0.16000   0.16028   0.16109   0.22095   0.22328
     Eigenvalues ---    0.22906   0.23380   0.24704   0.25203   0.29946
     Eigenvalues ---    0.33593   0.34110   0.34454   0.34901   0.35016
     Eigenvalues ---    0.40807   0.44368   0.53028   0.53326   0.54779
     Eigenvalues ---    0.55863   0.59710   0.67909   0.72335
 RFO step:  Lambda=-1.77856534D-04 EMin= 3.48642871D-03
 Quartic linear search produced a step of  0.18193.
 Iteration  1 RMS(Cart)=  0.03899963 RMS(Int)=  0.00084933
 Iteration  2 RMS(Cart)=  0.00107189 RMS(Int)=  0.00001351
 Iteration  3 RMS(Cart)=  0.00000048 RMS(Int)=  0.00001351
 Variable       Old X    -DE/DX   Delta X   Delta X   Delta X     New X
                                 (Linear)    (Quad)   (Total)
    R1        2.68151  -0.00078  -0.00149  -0.00138  -0.00287   2.67864
    R2        1.81747   0.00019  -0.00006   0.00013   0.00007   1.81754
    R3        2.86465   0.00005   0.00121  -0.00112   0.00009   2.86474
    R4        2.07550   0.00005   0.00008   0.00021   0.00029   2.07579
    R5        2.07468  -0.00026   0.00019  -0.00083  -0.00064   2.07403
    R6        2.37365   0.00080  -0.00329   0.00223  -0.00106   2.37259
    R7        2.63004   0.00305   0.00446   0.00546   0.00993   2.63996
    R8        2.65855  -0.00040   0.00403  -0.00147   0.00256   2.66111
    R9        2.53083  -0.00208  -0.00120  -0.00336  -0.00456   2.52627
   R10        2.05120   0.00004  -0.00100   0.00064  -0.00036   2.05084
   R11        2.66513   0.00007   0.00404  -0.00045   0.00359   2.66872
   R12        2.05032   0.00006  -0.00107   0.00072  -0.00035   2.04997
   R13        2.36779   0.00178  -0.00343   0.00390   0.00048   2.36827
   R14        2.61671   0.00182   0.00376   0.00316   0.00693   2.62363
   R15        2.05272   0.00109  -0.00069   0.00360   0.00291   2.05562
    A1        1.87865  -0.00003   0.00207  -0.00162   0.00045   1.87910
    A2        1.88087  -0.00021   0.00063  -0.00265  -0.00202   1.87885
    A3        1.95049   0.00002   0.00019   0.00093   0.00112   1.95161
    A4        1.95129   0.00011   0.00025   0.00169   0.00194   1.95323
    A5        1.87508   0.00007   0.00038  -0.00035   0.00003   1.87511
    A6        1.90564  -0.00012  -0.00105  -0.00192  -0.00297   1.90267
    A7        1.89849   0.00012  -0.00041   0.00208   0.00166   1.90015
    A8        2.09480   0.00078   0.00464   0.00129   0.00594   2.10074
    A9        1.90390  -0.00101  -0.00360  -0.00330  -0.00689   1.89701
   A10        2.28449   0.00024  -0.00104   0.00201   0.00094   2.28543
   A11        2.20940   0.00060   0.00167   0.00179   0.00343   2.21283
   A12        2.25883   0.00024  -0.00026  -0.00066  -0.00095   2.25789
   A13        1.97443  -0.00084  -0.00220  -0.00338  -0.00557   1.96886
   A14        2.04992   0.00059   0.00248   0.00403   0.00651   2.05643
   A15        2.24874   0.00042  -0.00085   0.00067  -0.00021   2.24853
   A16        2.05707   0.00036   0.00335   0.00225   0.00560   2.06267
   A17        1.97737  -0.00078  -0.00250  -0.00292  -0.00541   1.97196
   A18        2.18777   0.00030   0.00098   0.00116   0.00211   2.18989
   A19        2.32066   0.00017   0.00019   0.00128   0.00145   2.32210
   A20        2.09455   0.00056   0.00434   0.00191   0.00625   2.10080
   A21        1.86798  -0.00073  -0.00453  -0.00318  -0.00770   1.86028
   A22        2.19695  -0.00197  -0.00054  -0.00619  -0.00676   2.19020
    D1        2.93506   0.00019   0.00232   0.00985   0.01217   2.94723
    D2        0.87882   0.00022   0.00136   0.01138   0.01274   0.89156
    D3       -1.25394  -0.00003   0.00158   0.00678   0.00836  -1.24558
    D4       -1.20288  -0.00018  -0.00815  -0.05916  -0.06731  -1.27019
    D5        1.93920  -0.00024  -0.00942  -0.06146  -0.07088   1.86832
    D6        0.90143  -0.00024  -0.00736  -0.05972  -0.06708   0.83435
    D7       -2.23968  -0.00029  -0.00864  -0.06202  -0.07065  -2.31034
    D8        2.95751  -0.00013  -0.00821  -0.05847  -0.06669   2.89082
    D9       -0.18360  -0.00018  -0.00948  -0.06077  -0.07026  -0.25386
   D10        3.09007   0.00017   0.00254   0.00627   0.00880   3.09886
   D11       -0.05213   0.00024   0.00412   0.00915   0.01327  -0.03886
   D12       -3.08155   0.00006  -0.00047   0.00475   0.00426  -3.07729
   D13        0.06060  -0.00000  -0.00196   0.00212   0.00017   0.06077
   D14        0.01683  -0.00022  -0.00050  -0.00877  -0.00929   0.00753
   D15       -3.12330  -0.00011  -0.00360  -0.00431  -0.00790  -3.13120
   D16        0.00387  -0.00014  -0.00396  -0.00464  -0.00861  -0.00474
   D17       -3.13872   0.00005  -0.00322   0.00222  -0.00099  -3.13971
   D18       -3.13925  -0.00025  -0.00080  -0.00927  -0.01007   3.13387
   D19        0.00135  -0.00007  -0.00005  -0.00241  -0.00245  -0.00110
   D20       -0.00085   0.00030   0.00294   0.01134   0.01428   0.01343
   D21       -3.14149   0.00012   0.00221   0.00474   0.00698  -3.13450
   D22        0.00559  -0.00001   0.00165  -0.00222  -0.00055   0.00504
   D23       -3.13782   0.00005   0.00095   0.00169   0.00265  -3.13517
   D24       -0.03253  -0.00018  -0.00250  -0.00742  -0.00992  -0.04245
   D25        3.11072  -0.00024  -0.00186  -0.01097  -0.01282   3.09790
         Item               Value     Threshold  Converged?
 Maximum Force            0.003047     0.000450     NO 
 RMS     Force            0.000726     0.000300     NO 
 Maximum Displacement     0.103500     0.001800     NO 
 RMS     Displacement     0.039046     0.001200     NO 
 Predicted change in Energy=-1.112364D-04
 GradGradGradGradGradGradGradGradGradGradGradGradGradGradGradGradGradGrad

                          Input orientation:                          
 ---------------------------------------------------------------------
 Center     Atomic      Atomic             Coordinates (Angstroms)
 Number     Number       Type             X           Y           Z
 ---------------------------------------------------------------------
      1          8           0        0.949059   -0.134896    0.105419
      2          6           0        2.348622    0.060118   -0.006069
      3          6           0        2.719518    1.240232    0.870222
      4          7           0        2.414564    2.408052    0.524495
      5          6           0        2.647591    3.590922    1.252192
      6          6           0        3.236132    3.752769    2.441554
      7          7           0        3.783243    2.773411    3.299404
      8          6           0        3.818622    1.542158    3.068408
      9          8           0        3.387687    0.765340    2.001443
     10          1           0        0.686378   -0.760666   -0.576105
     11          1           0        2.645758    0.307404   -1.034262
     12          1           0        2.912599   -0.821644    0.324080
     13          1           0        2.280802    4.476784    0.743766
     14          1           0        3.319375    4.758557    2.839357
     15          1           0        4.256360    0.859059    3.793006
 ---------------------------------------------------------------------
                    Distance matrix (angstroms):
                    1          2          3          4          5
     1  O    0.000000
     2  C    1.417475   0.000000
     3  C    2.368634   1.515955   0.000000
     4  N    2.964779   2.408037   1.255519   0.000000
     5  C    4.252272   3.760211   2.382608   1.408200   0.000000
     6  C    5.079583   4.518209   3.008125   2.481603   1.336847
     7  N    5.166468   4.510682   3.063180   3.115588   2.479739
     8  C    4.452663   3.716148   2.476128   3.031937   2.977816
     9  O    3.217490   2.367932   1.397009   2.413886   3.015465
    10  H    0.961803   1.939505   3.198298   3.773422   5.111295
    11  H    2.091241   1.098463   2.121949   2.626003   4.001170
    12  H    2.091633   1.097530   2.141701   3.274009   4.516897
    13  H    4.842377   4.480379   3.268598   2.084617   1.085257
    14  H    6.085942   5.578006   4.076265   3.420840   2.081768
    15  H    5.052176   4.325592   3.324130   4.058911   4.062875
                    6          7          8          9         10
     6  C    0.000000
     7  N    1.412224   0.000000
     8  C    2.370451   1.253234   0.000000
     9  O    3.023474   2.423534   1.388367   0.000000
    10  H    5.998217   6.090964   5.328829   4.033549   0.000000
    11  H    4.929541   5.114267   4.442086   3.158429   2.278124
    12  H    5.051101   4.747104   3.733600   2.357494   2.402106
    13  H    2.078303   3.419078   4.047330   4.072071   5.631618
    14  H    1.084798   2.089885   3.262964   4.080753   7.004275
    15  H    3.352737   2.032789   1.087788   1.993257   5.870043
                   11         12         13         14         15
    11  H    0.000000
    12  H    1.786350   0.000000
    13  H    4.547340   5.352443   0.000000
    14  H    5.938977   6.134389   2.355745   0.000000
    15  H    5.118679   4.082144   5.127244   4.122314   0.000000
 Stoichiometry    C5H6N2O2
 Framework group  C1[X(C5H6N2O2)]
 Deg. of freedom    39
 Full point group                 C1      NOp   1
 Largest Abelian subgroup         C1      NOp   1
 Largest concise Abelian subgroup C1      NOp   1
                         Standard orientation:                         
 ---------------------------------------------------------------------
 Center     Atomic      Atomic             Coordinates (Angstroms)
 Number     Number       Type             X           Y           Z
 ---------------------------------------------------------------------
      1          8           0       -2.796405    0.194074    0.755063
      2          6           0       -2.165134   -0.178395   -0.458197
      3          6           0       -0.673270    0.024477   -0.281259
      4          7           0       -0.189254    1.182595   -0.252658
      5          6           0        1.160653    1.527559   -0.048260
      6          6           0        2.218026    0.733928    0.149908
      7          7           0        2.267403   -0.675996    0.213568
      8          6           0        1.287481   -1.444973    0.075646
      9          8           0       -0.061508   -1.226470   -0.169402
     10          1           0       -3.743163    0.235423    0.590734
     11          1           0       -2.486229    0.454565   -1.296577
     12          1           0       -2.355414   -1.228783   -0.713246
     13          1           0        1.326780    2.599990   -0.057055
     14          1           0        3.188093    1.198563    0.290866
     15          1           0        1.419662   -2.522366    0.146607
 ---------------------------------------------------------------------
 Rotational constants (GHZ):           3.4973916           1.2265468           0.9692746
 Standard basis: 6-31G(2df,p) (6D, 7F)
 There are   309 symmetry adapted cartesian basis functions of A   symmetry.
 There are   282 symmetry adapted basis functions of A   symmetry.
   282 basis functions,   438 primitive gaussians,   309 cartesian basis functions
    33 alpha electrons       33 beta electrons
       nuclear repulsion energy       432.6553587174 Hartrees.
 NAtoms=   15 NActive=   15 NUniq=   15 SFac= 1.00D+00 NAtFMM=   60 NAOKFM=F Big=F
 Integral buffers will be    131072 words long.
 Raffenetti 2 integral format.
 Two-electron integral symmetry is turned on.
 One-electron integrals computed using PRISM.
 PrsmSu:  requested number of processors reduced to:  13 ShMem   1 Linda.
 NBasis=   282 RedAO= T EigKep=  1.79D-04  NBF=   282
 NBsUse=   282 1.00D-06 EigRej= -1.00D+00 NBFU=   282
 Initial guess from the checkpoint file:  "OCC1dNCdCNdCO1.chk"
 B after Tr=    -0.000000    0.000000    0.000000
         Rot=    0.999943   -0.009668   -0.000154    0.004555 Ang=  -1.22 deg.
 ExpMin= 1.61D-01 ExpMax= 5.48D+03 ExpMxC= 8.25D+02 IAcc=2 IRadAn=         4 AccDes= 0.00D+00
 Harris functional with IExCor=  402 and IRadAn=       4 diagonalized for initial guess.
 HarFok:  IExCor=  402 AccDes= 0.00D+00 IRadAn=         4 IDoV= 1 UseB2=F ITyADJ=14
 ICtDFT=  3500011 ScaDFX=  1.000000  1.000000  1.000000  1.000000
 FoFCou: FMM=F IPFlag=           0 FMFlag=      100000 FMFlg1=           0
         NFxFlg=           0 DoJE=T BraDBF=F KetDBF=T FulRan=T
         wScrn=  0.000000 ICntrl=       500 IOpCl=  0 I1Cent=   200000004 NGrid=           0
         NMat0=    1 NMatS0=      1 NMatT0=    0 NMatD0=    1 NMtDS0=    0 NMtDT0=    0
 Petite list used in FoFCou.
 Requested convergence on RMS density matrix=1.00D-08 within 128 cycles.
 Requested convergence on MAX density matrix=1.00D-06.
 Requested convergence on             energy=1.00D-06.
 No special actions if energy rises.
 Integral accuracy reduced to 1.0D-05 until final iterations.
 Initial convergence to 1.0D-05 achieved.  Increase integral accuracy.
 SCF Done:  E(RB3LYP) =  -454.038125311     A.U. after   11 cycles
            NFock= 11  Conv=0.91D-08     -V/T= 2.0068
 PrsmSu:  requested number of processors reduced to:  13 ShMem   1 Linda.
 Calling FoFJK, ICntrl=      2127 FMM=F ISym2X=0 I1Cent= 0 IOpClX= 0 NMat=1 NMatS=1 NMatT=0.
 ***** Axes restored to original set *****
 -------------------------------------------------------------------
 Center     Atomic                   Forces (Hartrees/Bohr)
 Number     Number              X              Y              Z
 -------------------------------------------------------------------
      1        8          -0.000409144    0.000003062    0.000224698
      2        6           0.000826073    0.000350216   -0.000364051
      3        6          -0.000073929   -0.000521533   -0.000196879
      4        7           0.000095382    0.001776680    0.000303344
      5        6          -0.000144175   -0.000937810   -0.000488036
      6        6           0.000438681   -0.001252015    0.000567291
      7        7          -0.000432517    0.001659581   -0.000267400
      8        6          -0.000812287   -0.000847470   -0.000732414
      9        8           0.000790772   -0.000466600    0.000692978
     10        1          -0.000060658   -0.000318541    0.000088615
     11        1          -0.000424163    0.000245866    0.000186169
     12        1           0.000003844   -0.000086144   -0.000120569
     13        1           0.000018619    0.000075433   -0.000133070
     14        1           0.000134647    0.000167108    0.000005613
     15        1           0.000048857    0.000152166    0.000233711
 -------------------------------------------------------------------
 Cartesian Forces:  Max     0.001776680 RMS     0.000572715

 GradGradGradGradGradGradGradGradGradGradGradGradGradGradGradGradGradGrad
 Berny optimization.
 Using GEDIIS/GDIIS optimizer.
 FormGI is forming the generalized inverse of G from B-inverse, IUseBI=4.
 Internal  Forces:  Max     0.001250051 RMS     0.000348055
 Search for a local minimum.
 Step number   4 out of a maximum of   72
 All quantities printed in internal units (Hartrees-Bohrs-Radians)
 Mixed Optimization -- En-DIIS/RFO-DIIS
 Swapping is turned off.
 Update second derivatives using D2CorX and points    1    2    3    4
 DE= -1.87D-04 DEPred=-1.11D-04 R= 1.68D+00
 TightC=F SS=  1.41D+00  RLast= 1.75D-01 DXNew= 8.4853D-01 5.2429D-01
 Trust test= 1.68D+00 RLast= 1.75D-01 DXMaxT set to 5.24D-01
 ITU=  1  1  1  0
     Eigenvalues ---    0.00063   0.01340   0.01603   0.02217   0.02620
     Eigenvalues ---    0.02742   0.02800   0.02875   0.02930   0.03057
     Eigenvalues ---    0.06532   0.07566   0.11448   0.13830   0.15968
     Eigenvalues ---    0.16001   0.16137   0.17988   0.22120   0.22436
     Eigenvalues ---    0.23187   0.24091   0.25010   0.26682   0.30246
     Eigenvalues ---    0.33824   0.34202   0.34525   0.34934   0.35204
     Eigenvalues ---    0.42866   0.51659   0.52939   0.53419   0.54763
     Eigenvalues ---    0.56838   0.66532   0.68992   0.74897
 En-DIIS/RFO-DIIS/Sim-DIIS IScMMF=       -3 using points:     4    3
 RFO step:  Lambda=-6.35430992D-04.
 DidBck=F Rises=F RFO-DIIS coefs:    3.00000   -2.00000
 Iteration  1 RMS(Cart)=  0.12106971 RMS(Int)=  0.04661272
 Iteration  2 RMS(Cart)=  0.07667540 RMS(Int)=  0.00347083
 Iteration  3 RMS(Cart)=  0.00416411 RMS(Int)=  0.00018436
 Iteration  4 RMS(Cart)=  0.00000848 RMS(Int)=  0.00018427
 Iteration  5 RMS(Cart)=  0.00000000 RMS(Int)=  0.00018427
 Variable       Old X    -DE/DX   Delta X   Delta X   Delta X     New X
[...]
 ! D19   D(13,5,6,14)           -0.195          -DE/DX =    0.0                 !
 ! D20   D(5,6,7,8)             33.013          -DE/DX =    0.0                 !
 ! D21   D(14,6,7,8)          -156.0654         -DE/DX =    0.0                 !
 ! D22   D(6,7,8,9)              7.8459         -DE/DX =    0.0                 !
 ! D23   D(6,7,8,15)          -172.9817         -DE/DX =    0.0                 !
 ! D24   D(7,8,9,3)            -70.2705         -DE/DX =    0.0                 !
 ! D25   D(15,8,9,3)           110.4906         -DE/DX =    0.0                 !
 --------------------------------------------------------------------------------
 GradGradGradGradGradGradGradGradGradGradGradGradGradGradGradGradGradGrad


 ----------------------------------------------------------------------

 Electric dipole moment (input orientation):
 (Debye = 10**-18 statcoulomb cm , SI units = C m)
                  (au)            (Debye)         (10**-30 SI)
   Tot        0.940259D+00      0.238990D+01      0.797185D+01
   x          0.636565D-01      0.161799D+00      0.539703D+00
   y         -0.713239D+00     -0.181287D+01     -0.604709D+01
   z         -0.609364D+00     -0.154885D+01     -0.516641D+01

 Dipole polarizability, Alpha (input orientation).
 (esu units = cm**3 , SI units = C**2 m**2 J**-1)
 Alpha(0;0):
               (au)            (10**-24 esu)      (10**-40 SI)
   iso        0.714566D+02      0.105888D+02      0.117816D+02
   aniso      0.478454D+02      0.708996D+01      0.788865D+01
   xx         0.439666D+02      0.651517D+01      0.724911D+01
   yx         0.617444D+01      0.914957D+00      0.101803D+01
   yy         0.925712D+02      0.137176D+02      0.152629D+02
   zx         0.830527D+01      0.123071D+01      0.136935D+01
   zy         0.590530D+01      0.875075D+00      0.973652D+00
   zz         0.778321D+02      0.115335D+02      0.128328D+02

 ----------------------------------------------------------------------

 Dipole orientation:
     8          3.16269959          1.96570477         -0.11432645
     6          4.17064039         -0.51822065         -0.04537198
     6          5.48639526         -0.99398884         -2.51650974
     7          4.96356936         -2.82943368         -3.96136763
     6          6.08715829         -3.07667134         -6.31374764
     6          6.77299251         -1.14829829         -7.84816676
     7          6.47143822          1.40196756         -7.32078877
     6          6.63226662          2.21546465         -5.08165168
     8          7.40048236          0.75553509         -3.02523326
     1          2.87270690          2.50920155          1.59438130
     1          2.70805387         -1.96339591          0.20759385
     1          5.57522789         -0.71858454          1.47706777
     1          6.13739089         -4.99474592         -7.03932905
     1          7.36384304         -1.56238836         -9.76825644
     1          6.19904860          4.15830648         -4.58352163

 Electric dipole moment (dipole orientation):
 (Debye = 10**-18 statcoulomb cm , SI units = C m)
                  (au)            (Debye)         (10**-30 SI)
   Tot        0.940259D+00      0.238990D+01      0.797185D+01
   x          0.000000D+00      0.000000D+00      0.000000D+00
   y          0.000000D+00      0.000000D+00      0.000000D+00
   z          0.940259D+00      0.238990D+01      0.797185D+01

 Dipole polarizability, Alpha (dipole orientation).
 (esu units = cm**3 , SI units = C**2 m**2 J**-1)
 Alpha(0;0):
               (au)            (10**-24 esu)      (10**-40 SI)
   iso        0.714566D+02      0.105888D+02      0.117816D+02
   aniso      0.478454D+02      0.708996D+01      0.788865D+01
   xx         0.456991D+02      0.677190D+01      0.753476D+01
   yx         0.288422D+01      0.427397D+00      0.475544D+00
   yy         0.780698D+02      0.115688D+02      0.128720D+02
   zx        -0.130443D+02     -0.193297D+01     -0.215072D+01
   zy         0.690945D+01      0.102387D+01      0.113921D+01
   zz         0.906011D+02      0.134257D+02      0.149381D+02

 ----------------------------------------------------------------------
 1\1\GINC-LEWIS4-R630-HPC4RC-NODE355\Freq\RB3LYP\6-31G(2df,p)\C5H6N2O2\
 YXIE\04-Aug-2022\0\\#N Geom=AllCheck Guess=TCheck SCRF=Check GenChk RB
 3LYP/6-31G(2df,p) Freq\\Title Card Required\\0,1\O,1.6324648619,-0.578
 9883197,0.9415691737\C,2.2077896676,0.2654706864,-0.0430420135\C,2.821
 4352578,1.4429721218,0.6605943422\N,2.5240392801,2.6464990067,0.400610
 8684\C,3.0367640996,3.6944502707,1.1483692843\C,3.3119129218,3.6575177
 394,2.4732379732\N,3.1296223981,2.5624834794,3.3052736269\C,3.28129738
 24,1.3861364187,2.8696696938\O,3.7844354809,1.0761673593,1.6059120933\
 H,1.5316881176,-1.4568553379,0.5633439599\H,1.4688675134,0.6375599803,
 -0.7623035304\H,3.0068448843,-0.2534820293,-0.5952702467\H,3.068905488
 2,4.6471609381,0.6290718477\H,3.5617472231,4.5806261761,2.9866803164\H
 ,3.0384954232,0.5098815101,3.4631926109\\Version=ES64L-G16RevA.03\Stat
 e=1-A\HF=-454.0532765\RMSD=3.098e-09\RMSF=9.599e-06\ZeroPoint=0.112409
 2\Thermal=0.1205107\Dipole=0.0636565,-0.7132387,-0.6093643\DipoleDeriv
 =-0.5406785,-0.1977439,0.0354117,-0.1516674,-0.6393435,0.1419235,0.084
 0019,0.261362,-0.4586801,0.4654012,0.2005626,-0.0276419,0.0776755,0.55
 60625,-0.11525,-0.1289767,-0.2088446,0.4048722,0.4639711,-0.1379397,0.
 4857529,-0.0311608,0.6516039,-0.0439554,0.4532478,-0.0106637,0.6157255
 ,-0.3488377,-0.0479974,-0.211721,-0.0238297,-0.5815769,-0.0108655,-0.1
 583382,0.0951799,-0.5423989,0.0126072,0.0250519,0.0779214,0.1198662,0.
 2889148,0.0697922,0.1123764,-0.2102018,0.1472148,-0.0304395,0.0996488,
 0.023696,0.0737664,0.2300604,-0.1191674,-0.0245048,0.1708143,0.2405847
 ,-0.2475938,-0.0550312,0.060918,-0.0246838,-0.530301,-0.0392762,0.0034
 111,-0.1311975,-0.6727292,0.1252446,-0.0917662,-0.3310238,0.020803,0.5
 686384,0.2094881,-0.2026275,0.2343894,0.9752204,-0.3880484,0.3287239,-
 0.086696,-0.0100723,-0.4731407,-0.0343258,-0.1582734,-0.190859,-0.9494
 166,0.3081188,-0.0212867,-0.0006374,-0.0122363,0.2084093,-0.0546383,0.
 0072278,-0.0889539,0.2071849,-0.0429866,0.0047092,-0.0879796,0.0268418
 ,-0.0170105,0.057828,-0.0416743,0.043646,-0.0607707,-0.0822904,0.00751
 18,0.0710109,0.0226497,-0.1144893,-0.1097863,0.067358,-0.0050109,-0.01
 82851,0.0846336,-0.0297991,-0.0912837,-0.0284445,-0.0825808,0.0516763,
 0.000305,0.0685968,0.0625901,0.1142599,-0.0483753,0.057782,-0.0476855,
 -0.0692962,-0.0494512,-0.0274818,-0.0630304,0.031462,0.1066384,-0.0362
 687,0.0244906,-0.0118221,0.0040495,0.046008,0.0139486,0.0347736,0.0174
 26\Polar=43.966577,6.1744391,92.5712187,8.3052741,5.9052955,77.8321372
 \Quadrupole=-3.9196279,5.920247,-2.0006191,2.3828381,0.9443683,2.49634
 87\PG=C01 [X(C5H6N2O2)]\NImag=0\\0.09783913,0.11826776,0.60563690,-0.0
 6868075,0.08892259,0.30735875,-0.08544037,-0.04972342,0.03744648,0.544
 57477,-0.02562918,-0.13307203,0.02948431,-0.05712376,0.51710224,0.0521
 8731,0.08038856,-0.15974700,0.04536953,0.00907735,0.52405691,-0.007951
 68,-0.01886863,-0.00387309,-0.09430068,-0.04060142,-0.02196575,0.32206
 422,-0.01513410,-0.03209629,0.00128393,-0.04201190,-0.14084056,-0.0579
 4991,-0.04435550,0.86555188,0.00854862,0.02912156,0.00983250,-0.031003
 26,-0.06754265,-0.10512999,0.13432278,0.01517860,0.34793600,-0.0007965
 3,-0.00396278,0.00065019,0.00714244,-0.00712423,0.00246674,-0.09479459
 ,0.08331237,-0.03435276,0.18211621,-0.00056865,-0.00343999,-0.00192841
 ,0.01012119,-0.03991733,0.00342806,0.10756343,-0.52777312,0.06024594,-
 0.05539347,0.82299131,-0.00012789,-0.00172700,0.00097122,0.00611684,-0
 .01300848,0.00132987,-0.01796655,0.05512996,-0.08484448,0.11260393,0.0
 1660227,0.24730187,0.00032088,0.00194863,0.00094423,0.00482628,-0.0008
 0546,-0.00654391,0.00457858,-0.00727382,0.00668310,-0.08602604,-0.0543
 8743,-0.04226650,0.18038409,0.00007462,0.00027330,-0.00067140,0.000928
 30,0.00140728,0.00230472,-0.01128200,-0.08834843,-0.00309587,-0.047273
 51,-0.18697799,-0.06409475,0.07741818,0.63638388,-0.00079656,-0.003872
 00,-0.00141686,-0.00799151,0.00561359,0.01168899,-0.01532108,-0.017764
 79,0.00980456,-0.02933937,-0.06967647,-0.13741099,0.12677302,-0.074429
 10,0.72716185,0.00002427,-0.00023695,0.00015793,-0.00097989,-0.0003091
 9,0.00018801,-0.00638923,0.01141373,-0.01231966,0.00107909,-0.02412167
 ,-0.02090090,-0.06718115,-0.00192394,-0.07230191,0.17739733,-0.0005862
 3,-0.00210999,0.00024082,0.00001877,0.00040094,0.00320323,-0.02001965,
 0.00521096,-0.00973264,-0.00707298,0.00194907,-0.02889981,-0.00911814,
 -0.11537674,-0.00747981,0.10022639,0.63015579,0.00035477,0.00106915,0.
 00024724,0.00207378,-0.00129244,-0.00270696,0.00729303,0.01917931,-0.0
 1288655,-0.02027284,-0.04470328,-0.02860005,-0.08309074,0.02761540,-0.
 42447566,0.12028705,0.03190429,0.73546181,0.00019408,0.00035804,-0.000
 24603,0.00260875,-0.00167831,0.00058082,-0.00012123,0.01108019,-0.0029
 5828,-0.00674487,-0.00337697,0.00077634,0.01148518,0.00440665,0.003314
 68,-0.06896609,-0.01906439,-0.00111080,0.10796949,-0.00031916,0.001623
 84,-0.00037851,0.00163553,0.00013534,-0.00376828,0.03127007,-0.0069089
 9,0.00292970,-0.00779251,-0.00890504,-0.00795077,-0.00447269,-0.002668
 64,0.05218971,-0.02350491,-0.19328912,0.08244970,-0.04889672,0.8239965
 2,-0.00064191,-0.00085366,0.00051969,-0.00180444,0.00107736,-0.0005756
 2,0.01263614,-0.01257417,0.01352854,0.00245974,0.00860331,0.00195523,0
 .00371317,0.03166946,-0.03335528,0.01149404,0.07409927,-0.14505555,-0.
 05549513,0.05156271,0.32031226,-0.00033871,-0.00046344,0.00024762,-0.0
 0304950,0.00346650,-0.00554499,0.01758107,-0.02776456,0.00940861,0.000
 20363,0.02567999,-0.00498302,-0.00592862,-0.01308013,-0.01079582,0.010
 04518,-0.01069366,0.01554206,-0.07196366,0.06694475,0.01671815,0.19826
 772,0.00055321,-0.00167471,0.00107576,-0.00176551,0.00197298,0.0011712
 3,-0.03374615,0.01023214,-0.00668141,0.01530036,-0.00613167,0.00693785
 ,0.00182546,0.00450261,-0.02086823,-0.00214217,-0.08997555,0.01435983,
 0.05042824,-0.53728151,-0.11569086,-0.00993997,0.92656835,0.00114190,0
 .00009224,-0.00198909,0.00057486,-0.00220989,0.00615909,-0.05427475,0.
 02526306,-0.08121804,0.00996358,-0.01575265,0.01404785,0.00979700,0.01
 805899,-0.01369312,-0.00414799,0.00258798,0.00728822,0.02923217,-0.126
 51879,-0.11958348,-0.11062764,-0.02056678,0.45771494,0.00157115,0.0017
 1602,0.00078742,-0.01311601,0.00636809,-0.02352705,-0.14034289,0.03927
 974,-0.07080593,-0.01607800,0.00347679,-0.03908589,0.00150944,0.004285
 41,0.02312768,-0.00683496,0.01638563,-0.02245163,0.01344532,-0.0213630
 4,0.02219999,-0.08614606,0.03829707,0.08299459,0.23338394,-0.00227397,
 0.00111234,-0.00289769,-0.01368090,0.00375617,-0.01054906,0.02966815,-
 0.07384399,0.00465823,0.03686530,-0.02476174,0.03484097,0.00425324,0.0
 1042048,0.00741536,0.00077922,0.00969458,-0.00767190,0.01781818,-0.017
 43248,-0.04589802,0.02061855,-0.07402009,-0.01126934,-0.08653672,0.158
 03387,0.00144258,-0.00047057,0.00403058,-0.02567909,0.01267651,-0.0290
 1358,-0.04450551,-0.01955791,-0.07581555,-0.03956593,0.05912528,-0.021
 77344,-0.00637432,-0.02861046,-0.00569025,0.00618207,0.02426152,0.0033
 2242,0.02543400,-0.05676976,-0.05340662,0.05747282,0.00372387,-0.13998
 007,0.02014402,0.01800943,0.35192290,-0.00969302,-0.03720280,0.0021560
 3,-0.00629477,-0.01973758,-0.00649446,-0.00196719,-0.00278458,0.004049
 01,-0.00045343,-0.00103222,-0.00034887,0.00045670,-0.00000755,-0.00044
 578,-0.00008195,-0.00031940,0.00008322,0.00003060,0.00030333,0.0000266
 3,-0.00010719,-0.00026880,-0.00012953,0.00001600,0.00019599,-0.0000112
 8,0.01613731,-0.05835325,-0.43209430,-0.15833333,-0.00147585,-0.022416
 36,-0.01297622,-0.00123749,-0.00290292,0.00365820,-0.00069834,0.000696
 78,0.00046850,0.00023468,-0.00028104,-0.00098584,0.00004821,-0.0003668
 9,0.00035100,-0.00002047,0.00051905,0.00019972,0.00019382,-0.00057995,
 -0.00098507,0.00067600,0.00067072,0.00102277,0.06002622,0.45316156,-0.
 01275113,-0.20985308,-0.11861973,0.00823967,0.03641768,0.00533791,0.00
 051356,0.00127756,-0.00404892,0.00034982,0.00172163,0.00040624,-0.0003
 1013,-0.00019229,0.00014096,0.00015914,0.00004662,0.00023458,-0.000134
 78,0.00024904,-0.00008386,0.00002485,0.00009371,0.00037614,0.00010787,
 -0.00026141,-0.00009754,0.00280841,0.16942472,0.11623716,0.01605168,-0
 .00838147,0.01515741,-0.18085427,0.05554785,-0.11434525,-0.00926473,0.
 00809414,-0.00671532,0.00110960,0.00082647,0.00142101,0.00015022,-0.00
 058797,-0.00007281,0.00007310,0.00044348,0.00013372,0.00053367,-0.0005
 4537,-0.00065026,-0.00128014,-0.00006285,0.00163726,0.00029458,-0.0021
 6045,-0.00384237,0.00070323,0.00028851,0.00019267,0.18749888,0.0055893
 1,-0.01141916,0.02236575,0.06041211,-0.07709289,0.04970339,-0.01728321
 ,0.00857262,-0.01545515,0.00073872,0.00050402,0.00001714,-0.00017505,-
 0.00017856,-0.00020672,-0.00020118,0.00030527,0.00033693,0.00080219,-0
 .00026652,-0.00072216,-0.00165668,-0.00022744,0.00170184,-0.00316201,-
 0.00285803,-0.00606306,0.00107401,0.00000236,0.00117558,-0.05961763,0.
 08528311,-0.00606197,0.01838296,-0.02147514,-0.11091169,0.04523464,-0.
 14766472,-0.01408277,0.00387663,-0.01047717,0.00149175,0.00265380,0.00
 119210,0.00028001,-0.00090172,-0.00060722,0.00014045,0.00025970,0.0003
 7241,0.00034608,-0.00025736,-0.00035579,-0.00078149,0.00023881,0.00109
 602,-0.00168671,-0.00175472,-0.00228236,-0.00021210,-0.00076301,-0.000
 88276,0.12111964,-0.06173306,0.16957019,-0.01136529,-0.00296438,0.0154
 4065,-0.17469885,0.08717165,0.07593206,0.01120789,-0.00485897,-0.00782
 837,-0.00023734,-0.00132330,-0.00015320,-0.00056970,0.00001432,0.00129
 479,0.00008162,0.00006492,-0.00026332,-0.00030899,-0.00030124,-0.00024
 864,0.00003372,-0.00002749,0.00058755,0.00049148,0.00042582,0.00094378
 ,0.00120955,0.00044860,0.00071500,-0.01488150,0.01347373,0.01052146,0.
 18903336,-0.02156298,0.00760473,0.02086228,0.09168311,-0.11106020,-0.0
 6373542,0.01996407,-0.01711693,-0.01219352,-0.00131471,-0.00169960,-0.
 00256883,-0.00179455,-0.00028845,0.00090685,0.00013709,-0.00077424,0.0
 0019964,-0.00047576,0.00052707,0.00025108,0.00044555,-0.00036964,-0.00
 083631,-0.00108916,0.00152987,0.00222964,-0.00023529,0.00351018,0.0000
 0783,0.00618505,-0.00260657,-0.00530747,-0.09198523,0.12098850,0.02530
 239,-0.00075633,-0.02076715,0.07651419,-0.05560184,-0.10266420,0.01187
 799,-0.01101833,-0.00675591,-0.00066239,-0.00136698,-0.00091348,-0.000
 45704,-0.00037626,0.00059211,0.00016486,0.00001372,-0.00009149,-0.0003
 5303,-0.00005658,0.00029556,0.00026236,0.00039629,-0.00040458,-0.00066
 045,0.00054824,0.00125330,-0.00138840,-0.00110780,0.00084167,-0.013892
 57,0.00906560,0.01135935,-0.09677254,0.06037924,0.11724252,-0.00008763
 ,-0.00020076,0.00011365,0.00072422,0.00030060,0.00030663,0.00117667,-0
 .00260101,0.00066050,-0.00149825,-0.01144168,0.00358820,-0.04033321,-0
 .00613065,-0.00743651,0.00264789,0.00663219,0.00267718,0.01016036,0.00
 113635,-0.00599158,-0.00142947,-0.00328507,-0.00191205,0.00389123,-0.0
 0047118,0.00130788,0.00000898,-0.00001360,-0.00002740,0.00002399,0.000
 11868,0.00000597,-0.00008278,-0.00033017,-0.00010884,0.02994662,-0.000
 12433,-0.00021656,0.00009292,0.00093490,-0.00032448,-0.00010738,-0.004
 18518,-0.00010853,-0.00224510,-0.00259625,-0.02906410,0.00417118,-0.00
 926268,-0.25957077,0.12561289,0.00017618,0.00012452,-0.00286450,-0.001
 80799,0.00190260,0.00103156,0.00074715,0.00022307,-0.00155950,0.000042
 02,-0.00011579,0.00144245,-0.00002295,0.00003732,0.00002476,-0.0000085
 5,0.00001461,0.00002932,-0.00012716,-0.00024727,-0.00010735,0.01546458
 ,0.28673247,-0.00000860,0.00005271,0.00007949,0.00075885,-0.00051663,-
 0.00041550,-0.00235668,-0.00325316,-0.00244182,-0.00176946,-0.02204295
 ,0.01101367,-0.00163649,0.12374702,-0.12184756,0.00143450,0.02885779,-
 0.01211177,-0.00399666,0.00021404,-0.00301404,0.00111758,-0.00166494,-
 0.00154046,-0.00142655,0.00059363,0.00140467,-0.00000572,0.00002347,0.
 00001057,-0.00001426,0.00001480,0.00001501,-0.00011880,-0.00018478,-0.
 00010779,0.00635973,-0.12577025,0.12836203,-0.00002363,-0.00026137,-0.
 00032079,-0.00123101,0.00032175,0.00135349,-0.00096701,-0.00262443,0.0
 0132680,0.01173924,0.00079379,-0.00039012,-0.00127389,-0.00485556,-0.0
 0747794,-0.05174322,-0.05649245,-0.02876588,-0.00008384,-0.00202718,0.
 00113370,0.00136246,-0.00117006,-0.00211531,0.00329824,-0.00060269,-0.
 00223187,-0.00004362,-0.00010402,0.00002615,-0.00011501,-0.00005630,-0
 .00016083,0.00015971,0.00036267,0.00009349,-0.00382984,0.00062097,0.00
 111581,0.04276278,-0.00002258,0.00004953,-0.00000641,0.00008313,0.0000
 1504,-0.00024244,0.00146067,0.00002339,0.00129596,-0.00214597,0.001951
 97,0.00011507,0.00169191,0.00159932,0.00321327,-0.05978734,-0.24603852
 ,-0.11841719,-0.00490507,-0.02984743,-0.00505334,-0.00288540,-0.000593
 69,0.00401469,-0.00059271,0.00004328,-0.00159354,0.00002966,0.00004158
 ,-0.00001112,-0.00001168,-0.00000700,-0.00000309,-0.00001287,-0.000038
 85,-0.00001010,0.00054760,0.00059193,-0.00035510,0.06591892,0.27296713
 ,-0.00003791,-0.00024043,0.00007488,0.00017071,-0.00013498,0.00016697,
 -0.00116532,0.00297622,-0.00158110,-0.00250063,-0.00027171,-0.00461276
 ,-0.00645468,-0.02840504,-0.00965809,-0.03450612,-0.11790219,-0.124569
 79,0.00674420,0.02239987,0.01078137,0.00047864,0.00419320,-0.00211583,
 0.00041634,-0.00048252,0.00165485,-0.00001907,0.00000160,0.00003092,0.
 00006397,0.00006370,0.00008803,-0.00000359,-0.00008784,-0.00003682,0.0
 0068648,0.00010489,0.00021525,0.03682416,0.11720733,0.12947843,-0.0003
 0433,-0.00002444,0.00001905,0.00008889,-0.00016731,0.00003683,-0.00050
 919,-0.00377130,0.00098416,0.00323884,0.00318374,0.00171662,-0.0023987
 6,-0.00198617,-0.00253088,0.01082802,-0.00040447,0.00751040,0.00176123
 ,0.00793280,-0.00554959,-0.05725044,-0.05399628,0.03727838,0.00461653,
 -0.00489856,0.00928322,0.00007881,-0.00001304,0.00008631,-0.00004329,-
 0.00005669,-0.00000781,-0.00007288,0.00001030,0.00007997,-0.00131878,0
 .00014931,0.00054675,-0.00001137,0.00063174,-0.00069718,0.04129671,0.0
 0008952,-0.00017760,-0.00011262,-0.00003572,-0.00006614,0.00005216,0.0
 0165284,0.00034876,-0.00014185,-0.00084200,0.00057742,-0.00003330,-0.0
 0008228,-0.00089624,0.00033130,-0.00055346,0.00008991,-0.00251595,-0.0
 0466782,-0.03210469,0.01229775,-0.05161246,-0.23264489,0.12797953,0.00
 221688,0.00777082,-0.00942616,-0.00001803,0.00000190,-0.00012123,-0.00
 000953,-0.00002583,0.00004457,0.00000159,0.00004141,-0.00000151,0.0002
 7413,0.00002099,0.00028432,0.00017597,-0.00075767,0.00057790,0.0534103
 7,0.25782183,0.00012917,-0.00025671,0.00090061,0.00012507,0.00072547,-
 0.00082216,0.00886800,-0.00204700,0.00409792,-0.00152238,0.00336216,-0
 .00006286,-0.00105671,-0.00261869,-0.00123342,0.00396854,-0.00146048,0
 .00357112,-0.00213359,-0.01629471,0.00803757,0.03146027,0.13328165,-0.
 12615759,0.00986629,0.01471880,-0.03552929,-0.00006809,0.00000129,0.00
 011667,-0.00019284,-0.00026458,0.00005205,-0.00004681,0.00007762,0.000
 15689,-0.00022984,0.00014411,0.00037827,-0.00041086,-0.00015401,0.0000
 8368,-0.04875623,-0.12921491,0.14641053\\-0.00000343,-0.00000756,0.000
 00734,0.00000148,0.00001113,-0.00000872,0.00001414,-0.00000600,0.00000
 513,-0.00000983,-0.00001273,0.00001112,0.00000108,0.00000337,-0.000022
 14,0.00000431,0.00000841,0.00001310,-0.00000690,-0.00002538,-0.0000111
 5,0.00000143,0.00001605,0.00002283,-0.00001413,0.00001077,-0.00002099,
 0.00000101,0.00000152,-0.00000053,0.00000100,0.00000157,-0.00000011,0.
 00000089,-0.00000124,0.00000308,0.00000474,0.00000052,0.00000128,0.000
 00094,-0.00000169,-0.00000019,0.00000326,0.00000124,-0.00000003\\\@


 GETTING A SIMPLE ANSWER FROM A PROFESSOR IS LIKE
 GETTING A THIMBLE OF WATER FROM A FIRE HYDRANT.
     -- PROF. LEN SHAPIRO, NDSU
 Job cpu time:       0 days  1 hours 19 minutes 24.8 seconds.
 Elapsed time:       0 days  0 hours 19 minutes 51.7 seconds.
 File lengths (MBytes):  RWF=    104 Int=      0 D2E=      0 Chk=      7 Scr=      1
 Normal termination of Gaussian 16 at Thu Aug  4 05:33:08 2022.
### All Done ###
