### Starting Gaussian ###
 Entering Gaussian System, Link 0=g16
 Initial command:
 /cluster/software/gaussian/gaussian-16-A.03/avx2/g16/l1.exe "/local/scratch/ks29c/Gau-11381.inp" -scrdir="/local/scratch/ks29c/"
 Entering Link 1 = /cluster/software/gaussian/gaussian-16-A.03/avx2/g16/l1.exe PID=     11382.
  
 Copyright (c) 1988,1990,1992,1993,1995,1998,2003,2009,2016,
            Gaussian, Inc.  All Rights Reserved.
  
 This is part of the Gaussian(R) 16 program.  It is based on
 the Gaussian(R) 09 system (copyright 2009, Gaussian, Inc.),
 the Gaussian(R) 03 system (copyright 2003, Gaussian, Inc.),
 the Gaussian(R) 98 system (copyright 1998, Gaussian, Inc.),
 the Gaussian(R) 94 system (copyright 1995, Gaussian, Inc.),
 the Gaussian 92(TM) system (copyright 1992, Gaussian, Inc.),
 the Gaussian 90(TM) system (copyright 1990, Gaussian, Inc.),
 the Gaussian 88(TM) system (copyright 1988, Gaussian, Inc.),
 the Gaussian 86(TM) system (copyright 1986, Carnegie Mellon
 University), and the Gaussian 82(TM) system (copyright 1983,
 Carnegie Mellon University). Gaussian is a federally registered
 trademark of Gaussian, Inc.
  
 This software contains proprietary and confidential information,
 including trade secrets, belonging to Gaussian, Inc.
  
 This software is provided under written license and may be
 used, copied, transmitted, or stored only in accord with that
 written license.
  
 The following legend is applicable only to US Government
 contracts under FAR:
  
                    RESTRICTED RIGHTS LEGEND
  
 Use, reproduction and disclosure by the US Government is
 subject to restrictions as set forth in subparagraphs (a)
 and (c) of the Commercial Computer Software - Restricted
 Rights clause in FAR 52.227-19.
  
 Gaussian, Inc.
 340 Quinnipiac St., Bldg. 40, Wallingford CT 06492
  
  
 ---------------------------------------------------------------
 Warning -- This program may not be used in any manner that
 competes with the business of Gaussian, Inc. or will provide
 assistance to any competitor of Gaussian, Inc.  The licensee
 of this program is prohibited from giving any competitor of
 Gaussian, Inc. access to this program.  By using this program,
 the user acknowledges that Gaussian, Inc. is engaged in the
 business of creating and licensing software in the field of
 computational chemistry and represents and warrants to the
 licensee that it is not a competitor of Gaussian, Inc. and that
 it will not use this program in any manner prohibited above.
 ---------------------------------------------------------------
  

 Cite this work as:
 Gaussian 16, Revision A.03,
 M. J. Frisch, G. W. Trucks, H. B. Schlegel, G. E. Scuseria, 
 M. A. Robb, J. R. Cheeseman, G. Scalmani, V. Barone, 
 G. A. Petersson, H. Nakatsuji, X. Li, M. Caricato, A. V. Marenich, 
 J. Bloino, B. G. Janesko, R. Gomperts, B. Mennucci, H. P. Hratchian, 
 J. V. Ortiz, A. F. Izmaylov, J. L. Sonnenberg, D. Williams-Young, 
 F. Ding, F. Lipparini, F. Egidi, J. Goings, B. Peng, A. Petrone, 
 T. Henderson, D. Ranasinghe, V. G. Zakrzewski, J. Gao, N. Rega, 
 G. Zheng, W. Liang, M. Hada, M. Ehara, K. Toyota, R. Fukuda, 
 J. Hasegawa, M. Ishida, T. Nakajima, Y. Honda, O. Kitao, H. Nakai, 
 T. Vreven, K. Throssell, J. A. Montgomery, Jr., J. E. Peralta, 
 F. Ogliaro, M. J. Bearpark, J. J. Heyd, E. N. Brothers, K. N. Kudin, 
 V. N. Staroverov, T. A. Keith, R. Kobayashi, J. Normand, 
 K. Raghavachari, A. P. Rendell, J. C. Burant, S. S. Iyengar, 
 J. Tomasi, M. Cossi, J. M. Millam, M. Klene, C. Adamo, R. Cammi, 
 J. W. Ochterski, R. L. Martin, K. Morokuma, O. Farkas, 
 J. B. Foresman, and D. J. Fox, Gaussian, Inc., Wallingford CT, 2016.
 
 ******************************************
 Gaussian 16:  ES64L-G16RevA.03 25-Dec-2016
                 4-Aug-2022 
 ******************************************
 %chk=OCC1dC2CCCC12O.chk
 %NProcShared=20
 Will use up to   20 processors via shared memory.
 -----------------------------
 # opt freq b3lyp/6-31g(2df,p)
 -----------------------------
 1/18=20,19=15,26=3,38=1/1,3;
 2/9=110,12=2,17=6,18=5,40=1/2;
 3/5=1,6=6,7=104,11=2,25=1,30=1,71=1,74=-5/1,2,3;
 4//1;
 5/5=2,38=5/2;
 6/7=2,8=2,9=2,10=2,28=1/1;
 7//1,2,3,16;
 1/18=20,19=15,26=3/3(2);
 2/9=110/2;
 99//99;
 2/9=110/2;
 3/5=1,6=6,7=104,11=2,25=1,30=1,71=1,74=-5/1,2,3;
 4/5=5,16=3,69=1/1;
 5/5=2,38=5/2;
 7//1,2,3,16;
 1/18=20,19=15,26=3/3(-5);
 2/9=110/2;
 6/7=2,8=2,9=2,10=2,19=2,28=1/1;
 99/9=1/99;
 -------------------
 Title Card Required
 -------------------
 Symbolic Z-matrix:
 Charge =  0 Multiplicity = 1
 O                     0.99146   0.00906   0.0079 
 C                     2.41167  -0.04014  -0.03322 
 C                     2.86734   0.23564   1.30719 
 C                     3.06078   1.29612   1.97356 
 C                     3.35516   2.08902   3.16129 
 C                     3.82726   1.18917   4.25597 
 C                     3.83713  -0.23317   3.78926 
 C                     3.14953  -0.4387    2.47342 
 O                     3.60744  -1.7424    2.01544 
 H                     0.67949  -0.18232  -0.88749 
 H                     2.76963   0.73379  -0.72239 
 H                     2.74558  -1.01875  -0.38278 
 H                     2.46086   2.63815   3.48835 
 H                     4.1166    2.8335    2.91711 
 H                     3.18563   1.27609   5.13612 
 H                     4.84511   1.47848   4.5316 
 H                     3.29177  -0.85892   4.50252 
 H                     4.87677  -0.59324   3.77176 
 H                     3.79037  -2.32319   2.77942 
 

 GradGradGradGradGradGradGradGradGradGradGradGradGradGradGradGradGradGrad
 Berny optimization.
 Initialization pass.
                           ----------------------------
                           !    Initial Parameters    !
                           ! (Angstroms and Degrees)  !
 --------------------------                            --------------------------
 ! Name  Definition              Value          Derivative Info.                !
 --------------------------------------------------------------------------------
 ! R1    R(1,2)                  1.4217         estimate D2E/DX2                !
 ! R2    R(1,10)                 0.9673         estimate D2E/DX2                !
 ! R3    R(2,3)                  1.4424         estimate D2E/DX2                !
 ! R4    R(2,11)                 1.0964         estimate D2E/DX2                !
 ! R5    R(2,12)                 1.0915         estimate D2E/DX2                !
 ! R6    R(3,4)                  1.2673         estimate D2E/DX2                !
 ! R7    R(3,8)                  1.3764         estimate D2E/DX2                !
 ! R8    R(4,5)                  1.4581         estimate D2E/DX2                !
 ! R9    R(4,8)                  1.8076         estimate D2E/DX2                !
 ! R10   R(5,6)                  1.4936         estimate D2E/DX2                !
 ! R11   R(5,13)                 1.0992         estimate D2E/DX2                !
 ! R12   R(5,14)                 1.0925         estimate D2E/DX2                !
 ! R13   R(6,7)                  1.497          estimate D2E/DX2                !
 ! R14   R(6,15)                 1.0927         estimate D2E/DX2                !
 ! R15   R(6,16)                 1.0935         estimate D2E/DX2                !
 ! R16   R(7,8)                  1.4988         estimate D2E/DX2                !
 ! R17   R(7,17)                 1.0944         estimate D2E/DX2                !
 ! R18   R(7,18)                 1.1004         estimate D2E/DX2                !
 ! R19   R(8,9)                  1.4557         estimate D2E/DX2                !
 ! R20   R(9,19)                 0.977          estimate D2E/DX2                !
 ! A1    A(2,1,10)             106.7721         estimate D2E/DX2                !
 ! A2    A(1,2,3)              106.3857         estimate D2E/DX2                !
 ! A3    A(1,2,11)             108.6575         estimate D2E/DX2                !
 ! A4    A(1,2,12)             110.2367         estimate D2E/DX2                !
 ! A5    A(3,2,11)             110.2455         estimate D2E/DX2                !
 ! A6    A(3,2,12)             111.8638         estimate D2E/DX2                !
 ! A7    A(11,2,12)            109.3719         estimate D2E/DX2                !
 ! A8    A(2,3,4)              134.1761         estimate D2E/DX2                !
 ! A9    A(2,3,8)              139.3336         estimate D2E/DX2                !
 ! A10   A(3,4,5)              156.0881         estimate D2E/DX2                !
 ! A11   A(5,4,8)              106.6623         estimate D2E/DX2                !
 ! A12   A(4,5,6)              109.4633         estimate D2E/DX2                !
 ! A13   A(4,5,13)             110.4732         estimate D2E/DX2                !
 ! A14   A(4,5,14)             109.2202         estimate D2E/DX2                !
 ! A15   A(6,5,13)             109.8801         estimate D2E/DX2                !
 ! A16   A(6,5,14)             110.7345         estimate D2E/DX2                !
 ! A17   A(13,5,14)            107.0437         estimate D2E/DX2                !
 ! A18   A(5,6,7)              110.2433         estimate D2E/DX2                !
 ! A19   A(5,6,15)             110.9055         estimate D2E/DX2                !
 ! A20   A(5,6,16)             108.6362         estimate D2E/DX2                !
 ! A21   A(7,6,15)             109.3043         estimate D2E/DX2                !
 ! A22   A(7,6,16)             108.895          estimate D2E/DX2                !
 ! A23   A(15,6,16)            108.8151         estimate D2E/DX2                !
 ! A24   A(6,7,8)              113.6388         estimate D2E/DX2                !
 ! A25   A(6,7,17)             109.6813         estimate D2E/DX2                !
 ! A26   A(6,7,18)             108.7898         estimate D2E/DX2                !
 ! A27   A(8,7,17)             105.3761         estimate D2E/DX2                !
 ! A28   A(8,7,18)             112.0001         estimate D2E/DX2                !
 ! A29   A(17,7,18)            107.1025         estimate D2E/DX2                !
 ! A30   A(3,8,7)              140.4202         estimate D2E/DX2                !
 ! A31   A(3,8,9)              103.6915         estimate D2E/DX2                !
 ! A32   A(4,8,7)               97.683          estimate D2E/DX2                !
 ! A33   A(4,8,9)              141.997          estimate D2E/DX2                !
 ! A34   A(7,8,9)              104.756          estimate D2E/DX2                !
 ! A35   A(8,9,19)             110.1994         estimate D2E/DX2                !
 ! D1    D(10,1,2,3)          -179.5541         estimate D2E/DX2                !
 ! D2    D(10,1,2,11)           61.7614         estimate D2E/DX2                !
 ! D3    D(10,1,2,12)          -58.0805         estimate D2E/DX2                !
 ! D4    D(1,2,3,4)            -82.6292         estimate D2E/DX2                !
 ! D5    D(1,2,3,8)             88.4676         estimate D2E/DX2                !
 ! D6    D(11,2,3,4)            35.0076         estimate D2E/DX2                !
 ! D7    D(11,2,3,8)          -153.8956         estimate D2E/DX2                !
 ! D8    D(12,2,3,4)           156.9414         estimate D2E/DX2                !
 ! D9    D(12,2,3,8)           -31.9618         estimate D2E/DX2                !
 ! D10   D(2,3,4,5)            171.7591         estimate D2E/DX2                !
 ! D11   D(2,3,8,7)            165.7335         estimate D2E/DX2                !
 ! D12   D(2,3,8,9)             30.8121         estimate D2E/DX2                !
 ! D13   D(3,4,5,6)             11.0176         estimate D2E/DX2                !
 ! D14   D(3,4,5,13)          -110.1084         estimate D2E/DX2                !
 ! D15   D(3,4,5,14)           132.4081         estimate D2E/DX2                !
 ! D16   D(8,4,5,6)              9.0831         estimate D2E/DX2                !
 ! D17   D(8,4,5,13)          -112.0429         estimate D2E/DX2                !
 ! D18   D(8,4,5,14)           130.4736         estimate D2E/DX2                !
 ! D19   D(5,4,8,7)            -14.139          estimate D2E/DX2                !
 ! D20   D(5,4,8,9)           -140.3012         estimate D2E/DX2                !
 ! D21   D(4,5,6,7)             -0.432          estimate D2E/DX2                !
 ! D22   D(4,5,6,15)          -121.6332         estimate D2E/DX2                !
 ! D23   D(4,5,6,16)           118.8181         estimate D2E/DX2                !
 ! D24   D(13,5,6,7)           121.0524         estimate D2E/DX2                !
 ! D25   D(13,5,6,15)           -0.1489         estimate D2E/DX2                !
 ! D26   D(13,5,6,16)         -119.6975         estimate D2E/DX2                !
 ! D27   D(14,5,6,7)          -120.9038         estimate D2E/DX2                !
 ! D28   D(14,5,6,15)          117.895          estimate D2E/DX2                !
 ! D29   D(14,5,6,16)           -1.6537         estimate D2E/DX2                !
 ! D30   D(5,6,7,8)            -10.7038         estimate D2E/DX2                !
 ! D31   D(5,6,7,17)          -128.3464         estimate D2E/DX2                !
 ! D32   D(5,6,7,18)           114.807          estimate D2E/DX2                !
 ! D33   D(15,6,7,8)           111.4473         estimate D2E/DX2                !
 ! D34   D(15,6,7,17)           -6.1952         estimate D2E/DX2                !
 ! D35   D(15,6,7,18)         -123.0419         estimate D2E/DX2                !
 ! D36   D(16,6,7,8)          -129.7964         estimate D2E/DX2                !
 ! D37   D(16,6,7,17)          112.561          estimate D2E/DX2                !
 ! D38   D(16,6,7,18)           -4.2856         estimate D2E/DX2                !
 ! D39   D(6,7,8,3)             28.7504         estimate D2E/DX2                !
 ! D40   D(6,7,8,4)             14.3334         estimate D2E/DX2                !
 ! D41   D(6,7,8,9)            163.4            estimate D2E/DX2                !
 ! D42   D(17,7,8,3)           148.8595         estimate D2E/DX2                !
 ! D43   D(17,7,8,4)           134.4425         estimate D2E/DX2                !
 ! D44   D(17,7,8,9)           -76.4909         estimate D2E/DX2                !
 ! D45   D(18,7,8,3)           -95.0329         estimate D2E/DX2                !
 ! D46   D(18,7,8,4)          -109.4499         estimate D2E/DX2                !
 ! D47   D(18,7,8,9)            39.6166         estimate D2E/DX2                !
 ! D48   D(3,8,9,19)          -176.9249         estimate D2E/DX2                !
 ! D49   D(4,8,9,19)           155.0534         estimate D2E/DX2                !
 ! D50   D(7,8,9,19)            30.885          estimate D2E/DX2                !
 --------------------------------------------------------------------------------
 Trust Radius=3.00D-01 FncErr=1.00D-07 GrdErr=1.00D-06 EigMax=2.50D+02 EigMin=1.00D-04
 Number of steps in this run=    114 maximum allowed number of steps=    114.
 GradGradGradGradGradGradGradGradGradGradGradGradGradGradGradGradGradGrad

                          Input orientation:                          
 ---------------------------------------------------------------------
 Center     Atomic      Atomic             Coordinates (Angstroms)
 Number     Number       Type             X           Y           Z
 ---------------------------------------------------------------------
      1          8           0        0.991460    0.009060    0.007900
      2          6           0        2.411670   -0.040140   -0.033220
      3          6           0        2.867340    0.235640    1.307190
      4          6           0        3.060780    1.296120    1.973560
      5          6           0        3.355160    2.089020    3.161290
      6          6           0        3.827260    1.189170    4.255970
      7          6           0        3.837130   -0.233170    3.789260
      8          6           0        3.149530   -0.438700    2.473420
      9          8           0        3.607440   -1.742400    2.015440
     10          1           0        0.679490   -0.182320   -0.887490
     11          1           0        2.769630    0.733790   -0.722390
     12          1           0        2.745580   -1.018750   -0.382780
     13          1           0        2.460860    2.638150    3.488350
     14          1           0        4.116600    2.833500    2.917110
     15          1           0        3.185630    1.276090    5.136120
     16          1           0        4.845110    1.478480    4.531600
     17          1           0        3.291770   -0.858920    4.502520
     18          1           0        4.876770   -0.593240    3.771760
     19          1           0        3.790370   -2.323190    2.779420
 ---------------------------------------------------------------------
                    Distance matrix (angstroms):
                    1          2          3          4          5
     1  O    0.000000
     2  C    1.421657   0.000000
     3  C    2.293124   1.442355   0.000000
     4  C    3.130883   2.496818   1.267314   0.000000
     5  C    4.456140   3.953276   2.666584   1.458099   0.000000
     6  C    5.242187   4.681052   3.244375   2.410047   1.493631
     7  C    4.738691   4.084183   2.705725   2.497642   2.453407
     8  C    3.307045   2.643205   1.376393   1.807578   2.627702
     9  O    3.733789   2.919685   2.227557   3.087587   4.007043
    10  H    0.967303   1.936605   3.126979   4.005238   5.358247
    11  H    2.054372   1.096384   2.092103   2.769319   4.154812
    12  H    2.070256   1.091497   2.108155   3.318179   4.752921
    13  H    4.602693   4.424603   3.270281   2.110814   1.099220
    14  H    5.119323   4.457470   3.301722   2.090115   1.092550
    15  H    5.719999   5.390135   3.980521   3.165087   2.142323
    16  H    6.121575   5.391235   3.981588   3.124205   2.114346
    17  H    5.123126   4.692325   3.404165   3.330644   3.239331
    18  H    5.442889   4.567331   3.286177   3.178211   3.143643
    19  H    4.577621   3.876090   3.093066   3.779036   4.450037
                    6          7          8          9         10
     6  C    0.000000
     7  C    1.496986   0.000000
     8  C    2.507342   1.498823   0.000000
     9  O    3.696268   2.340293   1.455699   0.000000
    10  H    6.184224   5.643161   4.178821   4.408372   0.000000
    11  H    5.109797   4.735985   3.425238   3.785387   2.288056
    12  H    5.250042   4.383439   2.942365   2.649138   2.285405
    13  H    2.134440   3.198303   3.312304   4.761652   5.502391
    14  H    2.140113   3.200502   3.440840   4.691600   5.948435
    15  H    1.092661   2.125171   3.167298   4.362092   6.685176
    16  H    1.093476   2.120575   3.284307   4.270475   7.034002
    17  H    2.131246   1.094404   2.077032   2.658148   6.027769
    18  H    2.124362   1.100367   2.166317   2.452841   6.284475
    19  H    3.810280   2.321669   2.013856   0.976957   5.263756
                   11         12         13         14         15
    11  H    0.000000
    12  H    1.785304   0.000000
    13  H    4.631658   5.332882   0.000000
    14  H    4.412377   5.254408   1.762371   0.000000
    15  H    5.898244   5.993179   2.257354   2.866398   0.000000
    16  H    5.697946   5.898755   2.849185   2.230109   1.777718
    17  H    5.487170   4.918336   3.734762   4.102174   2.229570
    18  H    5.137940   4.688628   4.044604   3.612594   2.866326
    19  H    4.759171   3.576683   5.185082   5.168833   4.344486
                   16         17         18         19
    16  H    0.000000
    17  H    2.806626   0.000000
    18  H    2.206894   1.765452   0.000000
    19  H    4.316863   2.315548   2.271064   0.000000
 Stoichiometry    C7H10O2
 Framework group  C1[X(C7H10O2)]
 Deg. of freedom    51
 Full point group                 C1      NOp   1
 Largest Abelian subgroup         C1      NOp   1
 Largest concise Abelian subgroup C1      NOp   1
                         Standard orientation:                         
 ---------------------------------------------------------------------
 Center     Atomic      Atomic             Coordinates (Angstroms)
 Number     Number       Type             X           Y           Z
 ---------------------------------------------------------------------
      1          8           0        2.749422   -0.637137    0.727972
      2          6           0        2.167695   -0.194871   -0.491495
      3          6           0        0.742452   -0.158904   -0.272917
      4          6           0       -0.178757   -1.028483   -0.308869
      5          6           0       -1.528233   -1.549124   -0.124745
      6          6           0       -2.459506   -0.421616    0.179212
      7          6           0       -1.711404    0.874721    0.207870
      8          6           0       -0.221869    0.709624    0.185562
      9          8           0        0.290976    2.020646   -0.184941
     10          1           0        3.706604   -0.656493    0.589756
     11          1           0        2.412621   -0.917115   -1.279171
     12          1           0        2.561990    0.785734   -0.764095
     13          1           0       -1.549094   -2.282249    0.694021
     14          1           0       -1.838421   -2.073200   -1.031824
     15          1           0       -2.955299   -0.573887    1.140934
     16          1           0       -3.219329   -0.374691   -0.605745
     17          1           0       -1.930541    1.406226    1.139107
     18          1           0       -2.068331    1.508242   -0.618001
     19          1           0       -0.305651    2.721287    0.143059
 ---------------------------------------------------------------------
 Rotational constants (GHZ):           2.8382509           1.2498539           0.9419280
 Standard basis: 6-31G(2df,p) (6D, 7F)
 There are   329 symmetry adapted cartesian basis functions of A   symmetry.
 There are   302 symmetry adapted basis functions of A   symmetry.
   302 basis functions,   466 primitive gaussians,   329 cartesian basis functions
    34 alpha electrons       34 beta electrons
       nuclear repulsion energy       452.7737154201 Hartrees.
 NAtoms=   19 NActive=   19 NUniq=   19 SFac= 1.00D+00 NAtFMM=   60 NAOKFM=F Big=F
 Integral buffers will be    131072 words long.
 Raffenetti 2 integral format.
 Two-electron integral symmetry is turned on.
 One-electron integrals computed using PRISM.
 PrsmSu:  requested number of processors reduced to:  13 ShMem   1 Linda.
 NBasis=   302 RedAO= T EigKep=  3.09D-04  NBF=   302
 NBsUse=   302 1.00D-06 EigRej= -1.00D+00 NBFU=   302
 ExpMin= 1.61D-01 ExpMax= 5.48D+03 ExpMxC= 8.25D+02 IAcc=3 IRadAn=         5 AccDes= 0.00D+00
 Harris functional with IExCor=  402 and IRadAn=       5 diagonalized for initial guess.
 HarFok:  IExCor=  402 AccDes= 0.00D+00 IRadAn=         5 IDoV= 1 UseB2=F ITyADJ=14
 ICtDFT=  3500011 ScaDFX=  1.000000  1.000000  1.000000  1.000000
 FoFCou: FMM=F IPFlag=           0 FMFlag=      100000 FMFlg1=           0
         NFxFlg=           0 DoJE=T BraDBF=F KetDBF=T FulRan=T
         wScrn=  0.000000 ICntrl=       500 IOpCl=  0 I1Cent=   200000004 NGrid=           0
         NMat0=    1 NMatS0=      1 NMatT0=    0 NMatD0=    1 NMtDS0=    0 NMtDT0=    0
 Petite list used in FoFCou.
 Requested convergence on RMS density matrix=1.00D-08 within 128 cycles.
 Requested convergence on MAX density matrix=1.00D-06.
 Requested convergence on             energy=1.00D-06.
 No special actions if energy rises.
 Integral accuracy reduced to 1.0D-05 until final iterations.
 Initial convergence to 1.0D-05 achieved.  Increase integral accuracy.
 SCF Done:  E(RB3LYP) =  -422.974754106     A.U. after   17 cycles
            NFock= 17  Conv=0.91D-08     -V/T= 2.0052

 **********************************************************************

            Population analysis using the SCF density.

 **********************************************************************

 Orbital symmetries:
       Occupied  (A) (A) (A) (A) (A) (A) (A) (A) (A) (A) (A) (A)
                 (A) (A) (A) (A) (A) (A) (A) (A) (A) (A) (A) (A)
                 (A) (A) (A) (A) (A) (A) (A) (A) (A) (A)
       Virtual   (A) (A) (A) (A) (A) (A) (A) (A) (A) (A) (A) (A)
                 (A) (A) (A) (A) (A) (A) (A) (A) (A) (A) (A) (A)
                 (A) (A) (A) (A) (A) (A) (A) (A) (A) (A) (A) (A)
                 (A) (A) (A) (A) (A) (A) (A) (A) (A) (A) (A) (A)
                 (A) (A) (A) (A) (A) (A) (A) (A) (A) (A) (A) (A)
                 (A) (A) (A) (A) (A) (A) (A) (A) (A) (A) (A) (A)
                 (A) (A) (A) (A) (A) (A) (A) (A) (A) (A) (A) (A)
                 (A) (A) (A) (A) (A) (A) (A) (A) (A) (A) (A) (A)
                 (A) (A) (A) (A) (A) (A) (A) (A) (A) (A) (A) (A)
                 (A) (A) (A) (A) (A) (A) (A) (A) (A) (A) (A) (A)
                 (A) (A) (A) (A) (A) (A) (A) (A) (A) (A) (A) (A)
                 (A) (A) (A) (A) (A) (A) (A) (A) (A) (A) (A) (A)
                 (A) (A) (A) (A) (A) (A) (A) (A) (A) (A) (A) (A)
                 (A) (A) (A) (A) (A) (A) (A) (A) (A) (A) (A) (A)
                 (A) (A) (A) (A) (A) (A) (A) (A) (A) (A) (A) (A)
                 (A) (A) (A) (A) (A) (A) (A) (A) (A) (A) (A) (A)
                 (A) (A) (A) (A) (A) (A) (A) (A) (A) (A) (A) (A)
                 (A) (A) (A) (A) (A) (A) (A) (A) (A) (A) (A) (A)
                 (A) (A) (A) (A) (A) (A) (A) (A) (A) (A) (A) (A)
                 (A) (A) (A) (A) (A) (A) (A) (A) (A) (A) (A) (A)
                 (A) (A) (A) (A) (A) (A) (A) (A) (A) (A) (A) (A)
                 (A) (A) (A) (A) (A) (A) (A) (A) (A) (A) (A) (A)
                 (A) (A) (A) (A)
 The electronic state is 1-A.
 Alpha  occ. eigenvalues --  -19.12555 -19.12287 -10.24100 -10.21797 -10.20124
 Alpha  occ. eigenvalues --  -10.19527 -10.18639 -10.17954 -10.15749  -1.00966
 Alpha  occ. eigenvalues --   -1.00055  -0.87030  -0.79907  -0.72636  -0.69433
 Alpha  occ. eigenvalues --   -0.61187  -0.58340  -0.51050  -0.49914  -0.48866
 Alpha  occ. eigenvalues --   -0.46569  -0.44902  -0.43973  -0.42178  -0.40197
 Alpha  occ. eigenvalues --   -0.37973  -0.35944  -0.35540  -0.33904  -0.32325
 Alpha  occ. eigenvalues --   -0.30413  -0.26787  -0.25840  -0.11673
 Alpha virt. eigenvalues --   -0.03207   0.02716   0.07358   0.09532   0.09871
 Alpha virt. eigenvalues --    0.12651   0.13594   0.15850   0.16379   0.17462
 Alpha virt. eigenvalues --    0.17713   0.19506   0.21435   0.23519   0.24458
 Alpha virt. eigenvalues --    0.25754   0.28703   0.31193   0.33607   0.39325
 Alpha virt. eigenvalues --    0.39676   0.43036   0.44662   0.45542   0.46226
 Alpha virt. eigenvalues --    0.49868   0.51014   0.52941   0.56054   0.57163
 Alpha virt. eigenvalues --    0.58523   0.58780   0.60929   0.61681   0.62537
 Alpha virt. eigenvalues --    0.64683   0.66777   0.67071   0.68585   0.69771
 Alpha virt. eigenvalues --    0.71060   0.71658   0.72761   0.74655   0.76161
 Alpha virt. eigenvalues --    0.76638   0.78060   0.79614   0.80182   0.82164
 Alpha virt. eigenvalues --    0.82803   0.86005   0.87106   0.87964   0.89242
 Alpha virt. eigenvalues --    0.90435   0.91553   0.92360   0.93343   0.94984
 Alpha virt. eigenvalues --    0.97365   0.98068   0.99890   1.01661   1.04856
 Alpha virt. eigenvalues --    1.08004   1.10640   1.14941   1.18241   1.18300
 Alpha virt. eigenvalues --    1.21630   1.24719   1.25965   1.28280   1.31914
 Alpha virt. eigenvalues --    1.32772   1.35590   1.36760   1.37724   1.39148
 Alpha virt. eigenvalues --    1.41082   1.42727   1.45074   1.46741   1.49599
 Alpha virt. eigenvalues --    1.50665   1.53233   1.54416   1.59165   1.59548
 Alpha virt. eigenvalues --    1.60977   1.62028   1.68491   1.69770   1.70685
 Alpha virt. eigenvalues --    1.77744   1.80333   1.80878   1.86671   1.88016
 Alpha virt. eigenvalues --    1.89399   1.93865   1.95656   1.99920   2.00972
 Alpha virt. eigenvalues --    2.03360   2.04918   2.10239   2.11394   2.15934
 Alpha virt. eigenvalues --    2.17170   2.21058   2.22343   2.26072   2.32960
 Alpha virt. eigenvalues --    2.35131   2.38551   2.38641   2.41279   2.43408
 Alpha virt. eigenvalues --    2.47557   2.49328   2.53591   2.54078   2.56544
 Alpha virt. eigenvalues --    2.58566   2.63340   2.65830   2.66877   2.69982
 Alpha virt. eigenvalues --    2.72356   2.73654   2.77831   2.77972   2.80230
 Alpha virt. eigenvalues --    2.82803   2.84557   2.85577   2.89424   2.90593
 Alpha virt. eigenvalues --    2.94044   2.97176   2.97774   2.98577   3.02901
 Alpha virt. eigenvalues --    3.04359   3.05337   3.07265   3.08870   3.11691
 Alpha virt. eigenvalues --    3.15778   3.19216   3.20438   3.23063   3.25304
 Alpha virt. eigenvalues --    3.29367   3.31035   3.33494   3.35914   3.39853
 Alpha virt. eigenvalues --    3.41090   3.41930   3.44592   3.46445   3.48338
 Alpha virt. eigenvalues --    3.50580   3.52605   3.54121   3.56152   3.57178
 Alpha virt. eigenvalues --    3.61235   3.63672   3.65217   3.68564   3.76085
 Alpha virt. eigenvalues --    3.78660   3.80645   3.87218   3.89550   3.91228
 Alpha virt. eigenvalues --    3.94034   3.96408   4.00117   4.03630   4.10300
 Alpha virt. eigenvalues --    4.13027   4.16590   4.17435   4.21777   4.26551
 Alpha virt. eigenvalues --    4.27582   4.30541   4.34504   4.35591   4.38026
 Alpha virt. eigenvalues --    4.41431   4.42327   4.43875   4.44855   4.45889
 Alpha virt. eigenvalues --    4.49162   4.51445   4.55595   4.56720   4.57055
 Alpha virt. eigenvalues --    4.61655   4.62310   4.64488   4.69202   4.71026
 Alpha virt. eigenvalues --    4.73282   4.73562   4.77327   4.79049   4.79656
 Alpha virt. eigenvalues --    4.81030   4.82742   4.85704   4.86719   4.87838
 Alpha virt. eigenvalues --    4.88695   4.91639   4.94057   4.97219   4.97827
 Alpha virt. eigenvalues --    5.02385   5.09145   5.11512   5.13555   5.14900
 Alpha virt. eigenvalues --    5.18069   5.19159   5.22286   5.24191   5.26995
 Alpha virt. eigenvalues --    5.37476   5.38553   5.42335   5.45836   5.47737
 Alpha virt. eigenvalues --    5.48033   5.51706   5.57205   5.63852   5.65602
 Alpha virt. eigenvalues --    5.75630   5.79833   5.89439   5.92418   5.94291
 Alpha virt. eigenvalues --    5.95751   6.04689   6.07102   6.12277   6.19186
 Alpha virt. eigenvalues --    6.35678   7.05731   7.09365   7.34222  10.07526
 Alpha virt. eigenvalues --   11.03544  11.22233  11.54021  12.19637  12.24715
 Alpha virt. eigenvalues --   12.85273  13.23017  13.32807
          Condensed to atoms (all electrons):
               1          2          3          4          5          6
     1  O    7.889881   0.349843  -0.061452   0.003966   0.000110   0.000000
     2  C    0.349843   5.010150   0.329015  -0.037605   0.004692  -0.000814
     3  C   -0.061452   0.329015   4.656303   0.431790  -0.009306   0.011889
     4  C    0.003966  -0.037605   0.431790   5.401316   0.464624  -0.108855
     5  C    0.000110   0.004692  -0.009306   0.464624   4.915127   0.346361
     6  C    0.000000  -0.000814   0.011889  -0.108855   0.346361   5.035827
     7  C    0.000085   0.003389   0.011268  -0.104331  -0.049127   0.379413
     8  C    0.006170  -0.067181   0.534864  -0.082923  -0.047270  -0.038102
     9  O   -0.000258  -0.000303  -0.056635   0.013509   0.000304   0.004494
    10  H    0.297872  -0.047976   0.008135   0.000247   0.000003  -0.000000
    11  H   -0.028980   0.319806  -0.003154  -0.010763  -0.000092   0.000034
    12  H   -0.030017   0.334452  -0.011269   0.009259  -0.000016   0.000006
    13  H    0.000020  -0.000073  -0.000652  -0.017868   0.352747  -0.017989
    14  H   -0.000004   0.000034  -0.006002  -0.029811   0.380811  -0.056230
    15  H   -0.000000   0.000015  -0.000409   0.006871  -0.020493   0.346724
    16  H   -0.000000   0.000021   0.000259   0.002993  -0.021227   0.346912
    17  H    0.000002  -0.000008  -0.001517   0.010720   0.005098  -0.025781
    18  H   -0.000000  -0.000237   0.000803  -0.010857   0.000814  -0.026791
    19  H   -0.000001  -0.000235   0.012529  -0.004095  -0.000040   0.000595
               7          8          9         10         11         12
     1  O    0.000085   0.006170  -0.000258   0.297872  -0.028980  -0.030017
     2  C    0.003389  -0.067181  -0.000303  -0.047976   0.319806   0.334452
     3  C    0.011268   0.534864  -0.056635   0.008135  -0.003154  -0.011269
     4  C   -0.104331  -0.082923   0.013509   0.000247  -0.010763   0.009259
     5  C   -0.049127  -0.047270   0.000304   0.000003  -0.000092  -0.000016
     6  C    0.379413  -0.038102   0.004494  -0.000000   0.000034   0.000006
     7  C    4.998256   0.427122  -0.053305  -0.000001   0.000123   0.000024
     8  C    0.427122   4.855165   0.272883  -0.000233   0.008236  -0.010400
     9  O   -0.053305   0.272883   8.000201   0.000007  -0.000016   0.007545
    10  H   -0.000001  -0.000233   0.000007   0.466879  -0.004951  -0.004529
    11  H    0.000123   0.008236  -0.000016  -0.004951   0.684859  -0.054437
    12  H    0.000024  -0.010400   0.007545  -0.004529  -0.054437   0.657191
    13  H    0.004089   0.001294  -0.000022  -0.000002   0.000000   0.000001
    14  H    0.001480   0.002603   0.000028   0.000000  -0.000070   0.000001
    15  H   -0.022561   0.000036  -0.000013   0.000000  -0.000000  -0.000000
    16  H   -0.021513   0.003898  -0.000045   0.000000  -0.000001  -0.000000
    17  H    0.339268  -0.026088   0.003620  -0.000000  -0.000003  -0.000015
    18  H    0.382668  -0.037743  -0.006268   0.000000   0.000020   0.000019
    19  H    0.006670  -0.051708   0.273012  -0.000002   0.000029  -0.000303
              13         14         15         16         17         18
     1  O    0.000020  -0.000004  -0.000000  -0.000000   0.000002  -0.000000
     2  C   -0.000073   0.000034   0.000015   0.000021  -0.000008  -0.000237
     3  C   -0.000652  -0.006002  -0.000409   0.000259  -0.001517   0.000803
     4  C   -0.017868  -0.029811   0.006871   0.002993   0.010720  -0.010857
     5  C    0.352747   0.380811  -0.020493  -0.021227   0.005098   0.000814
     6  C   -0.017989  -0.056230   0.346724   0.346912  -0.025781  -0.026791
     7  C    0.004089   0.001480  -0.022561  -0.021513   0.339268   0.382668
     8  C    0.001294   0.002603   0.000036   0.003898  -0.026088  -0.037743
     9  O   -0.000022   0.000028  -0.000013  -0.000045   0.003620  -0.006268
    10  H   -0.000002   0.000000   0.000000   0.000000  -0.000000   0.000000
    11  H    0.000000  -0.000070  -0.000000  -0.000001  -0.000003   0.000020
    12  H    0.000001   0.000001  -0.000000  -0.000000  -0.000015   0.000019
    13  H    0.595024  -0.040647  -0.015562   0.005104  -0.000132  -0.000223
    14  H   -0.040647   0.631481   0.006578  -0.011446  -0.000119  -0.000514
    15  H   -0.015562   0.006578   0.644830  -0.037642  -0.012209   0.004603
    16  H    0.005104  -0.011446  -0.037642   0.645728   0.006438  -0.018594
    17  H   -0.000132  -0.000119  -0.012209   0.006438   0.628979  -0.047929
    18  H   -0.000223  -0.000514   0.004603  -0.018594  -0.047929   0.621004
    19  H    0.000004  -0.000014  -0.000045  -0.000046  -0.000256   0.007649
              19
     1  O   -0.000001
     2  C   -0.000235
     3  C    0.012529
     4  C   -0.004095
     5  C   -0.000040
     6  C    0.000595
     7  C    0.006670
     8  C   -0.051708
     9  O    0.273012
    10  H   -0.000002
    11  H    0.000029
    12  H   -0.000303
    13  H    0.000004
    14  H   -0.000014
    15  H   -0.000045
    16  H   -0.000046
    17  H   -0.000256
    18  H    0.007649
    19  H    0.497260
 Mulliken charges:
               1
     1  O   -0.427238
     2  C   -0.196988
     3  C    0.153541
     4  C    0.061814
     5  C   -0.323121
     6  C   -0.197694
     7  C   -0.303019
     8  C    0.249376
     9  O   -0.458739
    10  H    0.284551
    11  H    0.089359
    12  H    0.102487
    13  H    0.134886
    14  H    0.121842
    15  H    0.099278
    16  H    0.099162
    17  H    0.119932
    18  H    0.131575
    19  H    0.258996
 Sum of Mulliken charges =  -0.00000
 Mulliken charges with hydrogens summed into heavy atoms:
               1
     1  O   -0.142688
     2  C   -0.005142
     3  C    0.153541
     4  C    0.061814
     5  C   -0.066393
     6  C    0.000746
     7  C   -0.051512
     8  C    0.249376
     9  O   -0.199743
 Electronic spatial extent (au):  <R**2>=           1270.3396
 Charge=             -0.0000 electrons
 Dipole moment (field-independent basis, Debye):
    X=             -1.4079    Y=              0.5117    Z=             -0.1928  Tot=              1.5104
 Quadrupole moment (field-independent basis, Debye-Ang):
   XX=            -42.6315   YY=            -52.4135   ZZ=            -54.6006
   XY=             -2.1180   XZ=             -2.4912   YZ=              0.6499
 Traceless Quadrupole moment (field-independent basis, Debye-Ang):
   XX=              7.2504   YY=             -2.5316   ZZ=             -4.7187
   XY=             -2.1180   XZ=             -2.4912   YZ=              0.6499
 Octapole moment (field-independent basis, Debye-Ang**2):
  XXX=             54.1482  YYY=             17.7959  ZZZ=              3.0763  XYY=             -6.5733
  XXY=             -1.7863  XXZ=             -4.0492  XZZ=             -0.6893  YZZ=              2.5432
  YYZ=              7.0566  XYZ=              1.5213
 Hexadecapole moment (field-independent basis, Debye-Ang**3):
 XXXX=           -856.7351 YYYY=           -406.7291 ZZZZ=           -119.9845 XXXY=            -31.6102
 XXXZ=             18.7519 YYYX=            -17.5740 YYYZ=              1.1320 ZZZX=              5.1611
 ZZZY=             -4.2118 XXYY=           -243.3616 XXZZ=           -191.4374 YYZZ=            -94.3341
 XXYZ=             -1.4949 YYXZ=              0.3066 ZZXY=             -0.5227
 N-N= 4.527737154201D+02 E-N=-1.893316430118D+03  KE= 4.207676680082D+02
 PrsmSu:  requested number of processors reduced to:  13 ShMem   1 Linda.
 Calling FoFJK, ICntrl=      2127 FMM=F ISym2X=0 I1Cent= 0 IOpClX= 0 NMat=1 NMatS=1 NMatT=0.
 ***** Axes restored to original set *****
 -------------------------------------------------------------------
 Center     Atomic                   Forces (Hartrees/Bohr)
 Number     Number              X              Y              Z
 -------------------------------------------------------------------
      1        8          -0.012121923   -0.002691462   -0.007284305
      2        6          -0.020589856   -0.011478707   -0.027566137
      3        6          -0.049719872   -0.002520424    0.030241883
      4        6           0.050284748    0.135783453   -0.017452485
      5        6          -0.012030827    0.007052460   -0.027132101
      6        6           0.009719828    0.001420282    0.040241619
      7        6          -0.028851799   -0.004454039    0.021332739
      8        6           0.027458953   -0.112497612   -0.025090499
      9        8           0.017523561   -0.019965764    0.012402025
     10        1          -0.000350289    0.000465288    0.004926070
     11        1           0.007868376    0.001511437    0.002699226
     12        1           0.004234763   -0.003245679   -0.000338690
     13        1           0.000076286    0.000849692   -0.007362132
     14        1           0.000112820    0.006550934    0.002404819
     15        1           0.003520464    0.003351380    0.003688631
     16        1          -0.001527779    0.000958701    0.007823314
     17        1           0.005857159   -0.003753291    0.007637478
     18        1          -0.006796330   -0.005305396   -0.012871592
     19        1           0.005331718    0.007968747   -0.008299863
 -------------------------------------------------------------------
 Cartesian Forces:  Max     0.135783453 RMS     0.028369829

 GradGradGradGradGradGradGradGradGradGradGradGradGradGradGradGradGradGrad
 Berny optimization.
 FormGI is forming the generalized inverse of G from B-inverse, IUseBI=4.
 Internal  Forces:  Max     0.080373177 RMS     0.013391851
 Search for a local minimum.
 Step number   1 out of a maximum of  114
 All quantities printed in internal units (Hartrees-Bohrs-Radians)
 Mixed Optimization -- RFO/linear search
 Second derivative matrix not updated -- first step.
 ITU=  0
     Eigenvalues ---    0.00844   0.00955   0.01110   0.01405   0.01528
     Eigenvalues ---    0.01555   0.02360   0.02425   0.02991   0.03627
     Eigenvalues ---    0.04322   0.05301   0.05621   0.06149   0.07137
     Eigenvalues ---    0.07795   0.08022   0.08156   0.08689   0.09240
     Eigenvalues ---    0.10535   0.11216   0.11958   0.13737   0.16000
     Eigenvalues ---    0.16000   0.16274   0.17467   0.21749   0.22044
     Eigenvalues ---    0.23182   0.24681   0.30782   0.31392   0.32733
     Eigenvalues ---    0.33642   0.33769   0.34085   0.34309   0.34414
     Eigenvalues ---    0.34507   0.34520   0.34640   0.36245   0.37508
     Eigenvalues ---    0.39264   0.42212   0.45987   0.51980   0.53932
     Eigenvalues ---    0.65825
 RFO step:  Lambda=-7.60680645D-02 EMin= 8.43803741D-03
 Linear search not attempted -- first point.
 Maximum step size (   0.300) exceeded in Quadratic search.
    -- Step size scaled by   0.705
 Iteration  1 RMS(Cart)=  0.05880678 RMS(Int)=  0.00374421
 Iteration  2 RMS(Cart)=  0.00347663 RMS(Int)=  0.00119750
 Iteration  3 RMS(Cart)=  0.00004146 RMS(Int)=  0.00119726
 Iteration  4 RMS(Cart)=  0.00000009 RMS(Int)=  0.00119726
 Variable       Old X    -DE/DX   Delta X   Delta X   Delta X     New X
                                 (Linear)    (Quad)   (Total)
    R1        2.68654   0.01231   0.00000   0.01742   0.01742   2.70397
    R2        1.82794  -0.00454   0.00000  -0.00520  -0.00520   1.82274
    R3        2.72566   0.03519   0.00000   0.05293   0.05293   2.77858
    R4        2.07187   0.00194   0.00000   0.00328   0.00328   2.07515
    R5        2.06263   0.00431   0.00000   0.00720   0.00720   2.06983
    R6        2.39488   0.04806   0.00000   0.04966   0.05296   2.44784
    R7        2.60101   0.00989   0.00000   0.01967   0.02072   2.62173
    R8        2.75541   0.00031   0.00000  -0.00108  -0.00135   2.75406
    R9        3.41583   0.08037   0.00000   0.21332   0.20987   3.62570
   R10        2.82255   0.04786   0.00000   0.08753   0.08794   2.91049
   R11        2.07722  -0.00183   0.00000  -0.00311  -0.00311   2.07411
   R12        2.06462   0.00400   0.00000   0.00670   0.00670   2.07132
   R13        2.82889   0.03315   0.00000   0.06281   0.06341   2.89231
   R14        2.06483   0.00117   0.00000   0.00196   0.00196   2.06679
   R15        2.06637   0.00080   0.00000   0.00135   0.00135   2.06772
   R16        2.83237   0.01510   0.00000   0.02535   0.02517   2.85754
   R17        2.06812   0.00420   0.00000   0.00707   0.00707   2.07520
   R18        2.07939  -0.00448   0.00000  -0.00766  -0.00766   2.07174
   R19        2.75087   0.01664   0.00000   0.02601   0.02601   2.77688
   R20        1.84618  -0.01023   0.00000  -0.01210  -0.01210   1.83408
    A1        1.86353   0.00347   0.00000   0.01037   0.01037   1.87389
    A2        1.85678   0.00784   0.00000   0.02023   0.02029   1.87707
    A3        1.89643   0.00425   0.00000   0.02013   0.02028   1.91672
    A4        1.92399  -0.00068   0.00000   0.00288   0.00293   1.92693
    A5        1.92415  -0.00834   0.00000  -0.02758  -0.02783   1.89632
    A6        1.95239  -0.00363   0.00000  -0.01244  -0.01264   1.93975
    A7        1.90890   0.00089   0.00000  -0.00183  -0.00226   1.90664
    A8        2.34181   0.00018   0.00000  -0.01789  -0.01697   2.32485
    A9        2.43183  -0.02258   0.00000  -0.06746  -0.06696   2.36487
   A10        2.72425  -0.02538   0.00000  -0.07208  -0.07326   2.65099
   A11        1.86161  -0.00389   0.00000  -0.01335  -0.01327   1.84834
   A12        1.91050   0.00796   0.00000   0.02027   0.01922   1.92971
   A13        1.92812  -0.00805   0.00000  -0.03431  -0.03414   1.89398
   A14        1.90625   0.00092   0.00000   0.01511   0.01539   1.92165
   A15        1.91777   0.00294   0.00000   0.01264   0.01347   1.93124
   A16        1.93268  -0.00274   0.00000  -0.00341  -0.00381   1.92887
   A17        1.86827  -0.00139   0.00000  -0.01137  -0.01146   1.85680
   A18        1.92411  -0.00571   0.00000  -0.00234  -0.00258   1.92153
   A19        1.93567   0.00694   0.00000   0.02322   0.02281   1.95848
   A20        1.89606  -0.00230   0.00000  -0.01473  -0.01448   1.88158
   A21        1.90772   0.00284   0.00000   0.01760   0.01750   1.92522
   A22        1.90058   0.00272   0.00000  -0.00502  -0.00522   1.89536
   A23        1.89918  -0.00457   0.00000  -0.01969  -0.01951   1.87967
   A24        1.98337   0.00730   0.00000   0.02003   0.01872   2.00210
   A25        1.91430   0.00226   0.00000   0.02314   0.02231   1.93660
   A26        1.89874   0.00044   0.00000  -0.00309  -0.00226   1.89648
   A27        1.83916   0.00029   0.00000   0.01393   0.01371   1.85287
   A28        1.95477  -0.01025   0.00000  -0.04755  -0.04743   1.90734
   A29        1.86929  -0.00023   0.00000  -0.00586  -0.00594   1.86335
   A30        2.45079  -0.00319   0.00000  -0.02457  -0.02838   2.42241
   A31        1.80976   0.00907   0.00000   0.05641   0.06037   1.87013
   A32        1.70489  -0.00478   0.00000  -0.01640  -0.01563   1.68926
   A33        2.47831   0.00027   0.00000  -0.02515  -0.02727   2.45104
   A34        1.82834  -0.00201   0.00000  -0.00509  -0.00614   1.82220
   A35        1.92334   0.00135   0.00000   0.00402   0.00402   1.92736
    D1       -3.13381  -0.00075   0.00000  -0.00044  -0.00036  -3.13418
    D2        1.07794   0.00258   0.00000   0.01050   0.01041   1.08835
    D3       -1.01370  -0.00073   0.00000  -0.00144  -0.00143  -1.01512
    D4       -1.44215  -0.00681   0.00000  -0.05096  -0.05222  -1.49437
    D5        1.54405   0.00496   0.00000   0.04465   0.04603   1.59008
    D6        0.61100  -0.00167   0.00000  -0.02999  -0.03157   0.57943
    D7       -2.68598   0.01010   0.00000   0.06562   0.06668  -2.61930
    D8        2.73914  -0.00888   0.00000  -0.06022  -0.06135   2.67780
    D9       -0.55784   0.00289   0.00000   0.03539   0.03691  -0.52093
   D10        2.99776  -0.01252   0.00000  -0.07327  -0.07065   2.92712
   D11        2.89260   0.01357   0.00000   0.10010   0.10394   2.99653
   D12        0.53777   0.00524   0.00000   0.03933   0.04348   0.58125
   D13        0.19229   0.00676   0.00000   0.04681   0.04600   0.23829
   D14       -1.92175   0.00307   0.00000   0.03983   0.03898  -1.88277
   D15        2.31096   0.00893   0.00000   0.06473   0.06372   2.37468
   D16        0.15853  -0.00657   0.00000  -0.05283  -0.05107   0.10746
   D17       -1.95552  -0.01026   0.00000  -0.05981  -0.05808  -2.01360
   D18        2.27719  -0.00440   0.00000  -0.03491  -0.03334   2.24385
   D19       -0.24677   0.00448   0.00000   0.03991   0.03819  -0.20858
   D20       -2.44872   0.01617   0.00000   0.10524   0.10205  -2.34667
   D21       -0.00754   0.00424   0.00000   0.04204   0.04207   0.03453
   D22       -2.12290  -0.00011   0.00000   0.00607   0.00598  -2.11692
   D23        2.07377   0.00277   0.00000   0.02552   0.02557   2.09934
   D24        2.11276   0.00124   0.00000   0.02055   0.02067   2.13343
   D25       -0.00260  -0.00312   0.00000  -0.01542  -0.01542  -0.01802
   D26       -2.08912  -0.00024   0.00000   0.00403   0.00417  -2.08495
   D27       -2.11017  -0.00032   0.00000   0.01231   0.01254  -2.09763
   D28        2.05766  -0.00467   0.00000  -0.02366  -0.02354   2.03411
   D29       -0.02886  -0.00179   0.00000  -0.00421  -0.00396  -0.03282
   D30       -0.18682  -0.00378   0.00000  -0.02197  -0.02153  -0.20835
   D31       -2.24007  -0.01031   0.00000  -0.06799  -0.06776  -2.30783
   D32        2.00376  -0.01156   0.00000  -0.07219  -0.07194   1.93182
   D33        1.94512   0.00305   0.00000   0.01700   0.01729   1.96241
   D34       -0.10813  -0.00348   0.00000  -0.02903  -0.02894  -0.13706
   D35       -2.14749  -0.00473   0.00000  -0.03322  -0.03312  -2.18060
   D36       -2.26538   0.00078   0.00000   0.00050   0.00072  -2.26466
   D37        1.96456  -0.00575   0.00000  -0.04553  -0.04551   1.91905
   D38       -0.07480  -0.00700   0.00000  -0.04973  -0.04969  -0.12449
   D39        0.50179  -0.01714   0.00000  -0.13711  -0.13712   0.36467
   D40        0.25017  -0.00137   0.00000  -0.01339  -0.01201   0.23815
   D41        2.85187  -0.00596   0.00000  -0.06049  -0.06003   2.79184
   D42        2.59809  -0.00999   0.00000  -0.08787  -0.08823   2.50986
   D43        2.34646   0.00579   0.00000   0.03585   0.03689   2.38335
   D44       -1.33502   0.00119   0.00000  -0.01125  -0.01113  -1.34615
   D45       -1.65864  -0.01526   0.00000  -0.11068  -0.11099  -1.76963
   D46       -1.91026   0.00052   0.00000   0.01304   0.01412  -1.89614
   D47        0.69144  -0.00408   0.00000  -0.03406  -0.03390   0.65754
   D48       -3.08792   0.00169   0.00000  -0.00027  -0.00101  -3.08894
   D49        2.70619  -0.01369   0.00000  -0.08889  -0.08769   2.61850
   D50        0.53904  -0.00093   0.00000  -0.01726  -0.01772   0.52133
         Item               Value     Threshold  Converged?
 Maximum Force            0.080373     0.000450     NO 
 RMS     Force            0.013392     0.000300     NO 
 Maximum Displacement     0.230870     0.001800     NO 
 RMS     Displacement     0.060212     0.001200     NO 
 Predicted change in Energy=-4.298091D-02
 GradGradGradGradGradGradGradGradGradGradGradGradGradGradGradGradGradGrad

                          Input orientation:                          
 ---------------------------------------------------------------------
 Center     Atomic      Atomic             Coordinates (Angstroms)
 Number     Number       Type             X           Y           Z
 ---------------------------------------------------------------------
      1          8           0        0.936775    0.002086   -0.001587
      2          6           0        2.366413   -0.047041   -0.035268
      3          6           0        2.852663    0.263538    1.317162
      4          6           0        3.104195    1.373361    1.935978
      5          6           0        3.398072    2.133418    3.144251
      6          6           0        3.791802    1.188788    4.295236
      7          6           0        3.802231   -0.261192    3.805332
      8          6           0        3.170447   -0.474463    2.448150
      9          8           0        3.717092   -1.758569    1.988182
     10          1           0        0.620505   -0.208599   -0.888122
     11          1           0        2.748844    0.713286   -0.729181
     12          1           0        2.706984   -1.036095   -0.360043
     13          1           0        2.509866    2.720155    3.411637
     14          1           0        4.198864    2.856027    2.949324
     15          1           0        3.130233    1.292522    5.159956
     16          1           0        4.803158    1.455918    4.616254
     17          1           0        3.259625   -0.914846    4.501206
     18          1           0        4.839269   -0.616018    3.781709
     19          1           0        3.912541   -2.334087    2.744853
 ---------------------------------------------------------------------
                    Distance matrix (angstroms):
                    1          2          3          4          5
     1  O    0.000000
     2  C    1.430878   0.000000
     3  C    2.340530   1.470362   0.000000
     4  C    3.214384   2.539228   1.295342   0.000000
     5  C    4.527345   3.990998   2.670614   1.457386   0.000000
     6  C    5.293593   4.723587   3.256838   2.464339   1.540168
     7  C    4.772083   4.105806   2.714408   2.579438   2.516850
     8  C    3.349268   2.645095   1.387360   1.918636   2.708766
     9  O    3.845678   2.974561   2.299221   3.191763   4.072571
    10  H    0.964551   1.949783   3.173125   4.080056   5.427703
    11  H    2.078171   1.098120   2.097754   2.768582   4.176332
    12  H    2.083254   1.095306   2.126801   3.351860   4.775300
    13  H    4.638169   4.422567   3.246429   2.084382   1.097572
    14  H    5.243479   4.549007   3.346222   2.103203   1.096096
    15  H    5.754825   5.419244   3.987847   3.225096   2.200435
    16  H    6.195724   5.461984   4.013752   3.174455   2.144776
    17  H    5.148935   4.704308   3.419407   3.440995   3.339522
    18  H    5.470360   4.583456   3.285455   3.220999   3.169038
    19  H    4.675021   3.917929   3.147904   3.879804   4.514732
                    6          7          8          9         10
     6  C    0.000000
     7  C    1.530542   0.000000
     8  C    2.562072   1.512143   0.000000
     9  O    3.743661   2.356145   1.469462   0.000000
    10  H    6.235144   5.670507   4.207564   4.501597   0.000000
    11  H    5.153506   4.756158   3.418177   3.798899   2.324858
    12  H    5.272434   4.376115   2.901064   2.656397   2.305865
    13  H    2.183848   3.273169   3.401508   4.852070   5.534908
    14  H    2.181023   3.256858   3.521502   4.738184   6.076394
    15  H    1.093698   2.168091   3.236934   4.440012   6.717987
    16  H    1.094190   2.146606   3.330584   4.291763   7.110792
    17  H    2.179659   1.098147   2.101649   2.690062   6.042234
    18  H    2.149005   1.096315   2.140884   2.404464   6.306448
    19  H    3.850834   2.331025   2.024090   0.970553   5.343567
                   11         12         13         14         15
    11  H    0.000000
    12  H    1.788393   0.000000
    13  H    4.607711   5.326709   0.000000
    14  H    4.497253   5.322238   1.756390   0.000000
    15  H    5.929832   6.005995   2.340857   2.910913   0.000000
    16  H    5.774546   5.947067   2.882461   2.259233   1.766632
    17  H    5.501696   4.894063   3.868143   4.184494   2.307199
    18  H    5.146363   4.677308   4.085721   3.627406   2.909105
    19  H    4.765458   3.574707   5.287482   5.202026   4.426853
                   16         17         18         19
    16  H    0.000000
    17  H    2.831299   0.000000
    18  H    2.233984   1.761321   0.000000
    19  H    4.319662   2.350601   2.210353   0.000000
 Stoichiometry    C7H10O2
 Framework group  C1[X(C7H10O2)]
 Deg. of freedom    51
 Full point group                 C1      NOp   1
 Largest Abelian subgroup         C1      NOp   1
 Largest concise Abelian subgroup C1      NOp   1
                         Standard orientation:                         
 ---------------------------------------------------------------------
 Center     Atomic      Atomic             Coordinates (Angstroms)
 Number     Number       Type             X           Y           Z
 ---------------------------------------------------------------------
      1          8           0        2.786940   -0.649646    0.754588
      2          6           0        2.187226   -0.190404   -0.460669
      3          6           0        0.730579   -0.181603   -0.260498
      4          6           0       -0.186995   -1.087545   -0.383929
      5          6           0       -1.544101   -1.578649   -0.181307
      6          6           0       -2.477375   -0.429633    0.243988
      7          6           0       -1.704321    0.890917    0.277066
      8          6           0       -0.202302    0.746781    0.178370
      9          8           0        0.263895    2.069758   -0.259477
     10          1           0        3.742427   -0.647960    0.622680
     11          1           0        2.425153   -0.883601   -1.278432
     12          1           0        2.557011    0.808669   -0.715240
     13          1           0       -1.520152   -2.362362    0.586732
     14          1           0       -1.913240   -2.054406   -1.097178
     15          1           0       -2.949549   -0.617403    1.212476
     16          1           0       -3.272257   -0.349995   -0.503724
     17          1           0       -1.898387    1.436427    1.210170
     18          1           0       -2.061520    1.527076   -0.541235
     19          1           0       -0.332429    2.763484    0.064736
 ---------------------------------------------------------------------
 Rotational constants (GHZ):           2.6838770           1.2250075           0.9183793
 Standard basis: 6-31G(2df,p) (6D, 7F)
 There are   329 symmetry adapted cartesian basis functions of A   symmetry.
 There are   302 symmetry adapted basis functions of A   symmetry.
   302 basis functions,   466 primitive gaussians,   329 cartesian basis functions
    34 alpha electrons       34 beta electrons
       nuclear repulsion energy       446.2632819153 Hartrees.
 NAtoms=   19 NActive=   19 NUniq=   19 SFac= 1.00D+00 NAtFMM=   60 NAOKFM=F Big=F
 Integral buffers will be    131072 words long.
 Raffenetti 2 integral format.
 Two-electron integral symmetry is turned on.
 One-electron integrals computed using PRISM.
 PrsmSu:  requested number of processors reduced to:  13 ShMem   1 Linda.
 NBasis=   302 RedAO= T EigKep=  3.56D-04  NBF=   302
 NBsUse=   302 1.00D-06 EigRej= -1.00D+00 NBFU=   302
 Initial guess from the checkpoint file:  "OCC1dC2CCCC12O.chk"
 B after Tr=     0.000000   -0.000000    0.000000
         Rot=    0.999998   -0.000897   -0.001892   -0.000734 Ang=  -0.25 deg.
 ExpMin= 1.61D-01 ExpMax= 5.48D+03 ExpMxC= 8.25D+02 IAcc=2 IRadAn=         4 AccDes= 0.00D+00
 Harris functional with IExCor=  402 and IRadAn=       4 diagonalized for initial guess.
 HarFok:  IExCor=  402 AccDes= 0.00D+00 IRadAn=         4 IDoV= 1 UseB2=F ITyADJ=14
 ICtDFT=  3500011 ScaDFX=  1.000000  1.000000  1.000000  1.000000
 FoFCou: FMM=F IPFlag=           0 FMFlag=      100000 FMFlg1=           0
         NFxFlg=           0 DoJE=T BraDBF=F KetDBF=T FulRan=T
         wScrn=  0.000000 ICntrl=       500 IOpCl=  0 I1Cent=   200000004 NGrid=           0
         NMat0=    1 NMatS0=      1 NMatT0=    0 NMatD0=    1 NMtDS0=    0 NMtDT0=    0
 Petite list used in FoFCou.
 Requested convergence on RMS density matrix=1.00D-08 within 128 cycles.
 Requested convergence on MAX density matrix=1.00D-06.
 Requested convergence on             energy=1.00D-06.
 No special actions if energy rises.
 Integral accuracy reduced to 1.0D-05 until final iterations.
 Initial convergence to 1.0D-05 achieved.  Increase integral accuracy.
 SCF Done:  E(RB3LYP) =  -423.019294675     A.U. after   14 cycles
            NFock= 14  Conv=0.69D-08     -V/T= 2.0065
 PrsmSu:  requested number of processors reduced to:  13 ShMem   1 Linda.
 Calling FoFJK, ICntrl=      2127 FMM=F ISym2X=0 I1Cent= 0 IOpClX= 0 NMat=1 NMatS=1 NMatT=0.
 ***** Axes restored to original set *****
 -------------------------------------------------------------------
 Center     Atomic                   Forces (Hartrees/Bohr)
 Number     Number              X              Y              Z
 -------------------------------------------------------------------
      1        8          -0.002330740   -0.001017908   -0.001798214
      2        6          -0.014392984   -0.006766822   -0.013663001
      3        6          -0.039927949    0.006263183    0.042264403
      4        6           0.036979569    0.088351934   -0.031626408
      5        6          -0.005513901   -0.009289098   -0.009695629
      6        6           0.003021979   -0.000367812    0.017730175
      7        6          -0.026401891    0.009883381    0.010773597
      8        6           0.039022437   -0.098831543   -0.023003123
      9        8           0.000451530    0.003367323    0.006652048
     10        1           0.000705541   -0.000027117    0.002105048
     11        1           0.003905679    0.000198192    0.001886639
     12        1           0.002530637   -0.000981563    0.000731205
     13        1          -0.000357658    0.000561160   -0.003196502
     14        1          -0.000522936    0.002403419    0.001843670
     15        1           0.000741874    0.002334652    0.000228934
     16        1          -0.001631960   -0.000103820    0.005970524
     17        1           0.003861607    0.000309230    0.004847858
     18        1          -0.003344255   -0.003389089   -0.008473165
     19        1           0.003203420    0.007102299   -0.003578059
 -------------------------------------------------------------------
 Cartesian Forces:  Max     0.098831543 RMS     0.022031080

 GradGradGradGradGradGradGradGradGradGradGradGradGradGradGradGradGradGrad
 Berny optimization.
 Using GEDIIS/GDIIS optimizer.
 FormGI is forming the generalized inverse of G from B-inverse, IUseBI=4.
 Internal  Forces:  Max     0.056353374 RMS     0.008636166
 Search for a local minimum.
 Step number   2 out of a maximum of  114
 All quantities printed in internal units (Hartrees-Bohrs-Radians)
 Mixed Optimization -- RFO/linear search
 Update second derivatives using D2CorX and points    1    2
 DE= -4.45D-02 DEPred=-4.30D-02 R= 1.04D+00
 TightC=F SS=  1.41D+00  RLast= 4.72D-01 DXNew= 5.0454D-01 1.4156D+00
 Trust test= 1.04D+00 RLast= 4.72D-01 DXMaxT set to 5.05D-01
 ITU=  1  0
 Use linear search instead of GDIIS.
 Linear search step of   0.569 exceeds DXMaxT=   0.505 but not scaled.
 Quartic linear search produced a step of  1.89931.
 Iteration  1 RMS(Cart)=  0.11177468 RMS(Int)=  0.01886693
 Iteration  2 RMS(Cart)=  0.02153103 RMS(Int)=  0.00693842
 Iteration  3 RMS(Cart)=  0.00054595 RMS(Int)=  0.00692342
 Iteration  4 RMS(Cart)=  0.00001246 RMS(Int)=  0.00692342
 Iteration  5 RMS(Cart)=  0.00000013 RMS(Int)=  0.00692342
 Variable       Old X    -DE/DX   Delta X   Delta X   Delta X     New X
                                 (Linear)    (Quad)   (Total)
    R1        2.70397   0.00160   0.03310   0.00000   0.03310   2.73706
    R2        1.82274  -0.00216  -0.00988   0.00000  -0.00988   1.81286
    R3        2.77858   0.01486   0.10052   0.00000   0.10052   2.87910
    R4        2.07515   0.00030   0.00623   0.00000   0.00623   2.08137
    R5        2.06983   0.00146   0.01367   0.00000   0.01367   2.08350
    R6        2.44784   0.01787   0.10059   0.00000   0.12065   2.56849
    R7        2.62173  -0.00488   0.03936   0.00000   0.05089   2.67262
    R8        2.75406  -0.00254  -0.00256   0.00000  -0.00437   2.74969
    R9        3.62570   0.05635   0.39861   0.00000   0.37513   4.00083
   R10        2.91049   0.01895   0.16703   0.00000   0.16877   3.07926
   R11        2.07411  -0.00019  -0.00591   0.00000  -0.00591   2.06820
   R12        2.07132   0.00087   0.01273   0.00000   0.01273   2.08405
   R13        2.89231   0.01108   0.12044   0.00000   0.12410   3.01641
   R14        2.06679  -0.00005   0.00372   0.00000   0.00372   2.07051
   R15        2.06772   0.00022   0.00256   0.00000   0.00256   2.07028
   R16        2.85754   0.00410   0.04781   0.00000   0.04787   2.90541
   R17        2.07520   0.00098   0.01343   0.00000   0.01343   2.08863
   R18        2.07174  -0.00188  -0.01454   0.00000  -0.01454   2.05719
   R19        2.77688  -0.00875   0.04940   0.00000   0.04940   2.82628
   R20        1.83408  -0.00636  -0.02299   0.00000  -0.02299   1.81109
    A1        1.87389  -0.00002   0.01969   0.00000   0.01969   1.89358
    A2        1.87707   0.00254   0.03854   0.00000   0.03878   1.91585
    A3        1.91672   0.00285   0.03852   0.00000   0.03929   1.95600
    A4        1.92693   0.00063   0.00557   0.00000   0.00581   1.93274
    A5        1.89632  -0.00380  -0.05285   0.00000  -0.05408   1.84224
    A6        1.93975  -0.00261  -0.02401   0.00000  -0.02501   1.91475
    A7        1.90664   0.00040  -0.00429   0.00000  -0.00666   1.89998
    A8        2.32485  -0.00492  -0.03222   0.00000  -0.02951   2.29534
    A9        2.36487  -0.02168  -0.12718   0.00000  -0.11967   2.24520
   A10        2.65099  -0.02823  -0.13914   0.00000  -0.14473   2.50627
   A11        1.84834  -0.00830  -0.02520   0.00000  -0.02157   1.82677
   A12        1.92971   0.00913   0.03650   0.00000   0.02919   1.95890
   A13        1.89398  -0.00592  -0.06485   0.00000  -0.06289   1.83109
   A14        1.92165  -0.00056   0.02924   0.00000   0.03101   1.95265
   A15        1.93124   0.00065   0.02559   0.00000   0.02863   1.95987
   A16        1.92887  -0.00390  -0.00723   0.00000  -0.00709   1.92178
   A17        1.85680   0.00017  -0.02177   0.00000  -0.02233   1.83447
   A18        1.92153  -0.00296  -0.00490   0.00000  -0.00609   1.91543
   A19        1.95848   0.00398   0.04333   0.00000   0.04041   1.99889
   A20        1.88158  -0.00177  -0.02751   0.00000  -0.02549   1.85609
   A21        1.92522   0.00199   0.03323   0.00000   0.03227   1.95749
   A22        1.89536   0.00105  -0.00991   0.00000  -0.01057   1.88479
   A23        1.87967  -0.00242  -0.03706   0.00000  -0.03611   1.84356
   A24        2.00210   0.00679   0.03556   0.00000   0.02916   2.03126
   A25        1.93660   0.00005   0.04237   0.00000   0.03759   1.97419
   A26        1.89648  -0.00099  -0.00429   0.00000   0.00015   1.89663
   A27        1.85287  -0.00118   0.02604   0.00000   0.02566   1.87853
   A28        1.90734  -0.00574  -0.09008   0.00000  -0.09034   1.81701
   A29        1.86335   0.00062  -0.01128   0.00000  -0.01156   1.85179
   A30        2.42241  -0.01118  -0.05391   0.00000  -0.08083   2.34158
   A31        1.87013   0.00851   0.11466   0.00000   0.13996   2.01009
   A32        1.68926  -0.00493  -0.02969   0.00000  -0.02624   1.66302
   A33        2.45104  -0.00456  -0.05180   0.00000  -0.06027   2.39078
   A34        1.82220   0.00507  -0.01166   0.00000  -0.01592   1.80628
   A35        1.92736  -0.00328   0.00764   0.00000   0.00764   1.93500
    D1       -3.13418   0.00020  -0.00069   0.00000  -0.00029  -3.13446
    D2        1.08835   0.00171   0.01977   0.00000   0.01924   1.10759
    D3       -1.01512  -0.00102  -0.00271   0.00000  -0.00258  -1.01770
    D4       -1.49437  -0.00629  -0.09919   0.00000  -0.10529  -1.59967
    D5        1.59008   0.00496   0.08743   0.00000   0.09419   1.68428
    D6        0.57943  -0.00356  -0.05997   0.00000  -0.06787   0.51156
    D7       -2.61930   0.00769   0.12665   0.00000   0.13162  -2.48769
    D8        2.67780  -0.00712  -0.11652   0.00000  -0.12181   2.55598
    D9       -0.52093   0.00413   0.07010   0.00000   0.07767  -0.44326
   D10        2.92712  -0.00822  -0.13418   0.00000  -0.12150   2.80561
   D11        2.99653   0.01438   0.19741   0.00000   0.21378  -3.07287
   D12        0.58125   0.00461   0.08258   0.00000   0.10426   0.68551
   D13        0.23829   0.00547   0.08736   0.00000   0.07951   0.31780
   D14       -1.88277   0.00280   0.07404   0.00000   0.06766  -1.81511
   D15        2.37468   0.00629   0.12103   0.00000   0.11369   2.48837
   D16        0.10746  -0.00320  -0.09699   0.00000  -0.08949   0.01798
   D17       -2.01360  -0.00587  -0.11031   0.00000  -0.10134  -2.11494
   D18        2.24385  -0.00238  -0.06333   0.00000  -0.05531   2.18854
   D19       -0.20858   0.00151   0.07253   0.00000   0.06625  -0.14234
   D20       -2.34667   0.00391   0.19383   0.00000   0.17508  -2.17158
   D21        0.03453   0.00298   0.07990   0.00000   0.07951   0.11404
   D22       -2.11692  -0.00023   0.01136   0.00000   0.01137  -2.10555
   D23        2.09934   0.00154   0.04856   0.00000   0.04920   2.14854
   D24        2.13343   0.00197   0.03925   0.00000   0.03856   2.17199
   D25       -0.01802  -0.00124  -0.02928   0.00000  -0.02959  -0.04760
   D26       -2.08495   0.00053   0.00792   0.00000   0.00825  -2.07670
   D27       -2.09763   0.00015   0.02382   0.00000   0.02409  -2.07354
   D28        2.03411  -0.00306  -0.04471   0.00000  -0.04406   1.99005
   D29       -0.03282  -0.00129  -0.00751   0.00000  -0.00623  -0.03904
   D30       -0.20835  -0.00450  -0.04090   0.00000  -0.03696  -0.24531
   D31       -2.30783  -0.00783  -0.12870   0.00000  -0.12618  -2.43401
   D32        1.93182  -0.00800  -0.13664   0.00000  -0.13421   1.79761
   D33        1.96241  -0.00011   0.03284   0.00000   0.03488   1.99729
   D34       -0.13706  -0.00344  -0.05496   0.00000  -0.05434  -0.19140
   D35       -2.18060  -0.00362  -0.06290   0.00000  -0.06237  -2.24297
   D36       -2.26466  -0.00127   0.00136   0.00000   0.00299  -2.26166
   D37        1.91905  -0.00460  -0.08644   0.00000  -0.08623   1.83282
   D38       -0.12449  -0.00478  -0.09438   0.00000  -0.09426  -0.21875
   D39        0.36467  -0.01461  -0.26044   0.00000  -0.25695   0.10772
   D40        0.23815   0.00165  -0.02281   0.00000  -0.01846   0.21969
   D41        2.79184  -0.00392  -0.11402   0.00000  -0.11101   2.68082
   D42        2.50986  -0.01104  -0.16757   0.00000  -0.16587   2.34399
   D43        2.38335   0.00521   0.07006   0.00000   0.07262   2.45597
   D44       -1.34615  -0.00036  -0.02115   0.00000  -0.01994  -1.36609
   D45       -1.76963  -0.01370  -0.21081   0.00000  -0.20907  -1.97871
   D46       -1.89614   0.00255   0.02682   0.00000   0.02941  -1.86673
   D47        0.65754  -0.00301  -0.06439   0.00000  -0.06314   0.59440
   D48       -3.08894  -0.00221  -0.00193   0.00000  -0.00908  -3.09801
   D49        2.61850  -0.00654  -0.16655   0.00000  -0.15617   2.46234
   D50        0.52133  -0.00065  -0.03365   0.00000  -0.03689   0.48444
         Item               Value     Threshold  Converged?
 Maximum Force            0.056353     0.000450     NO 
 RMS     Force            0.008636     0.000300     NO 
 Maximum Displacement     0.478320     0.001800     NO 
 RMS     Displacement     0.121460     0.001200     NO 
 Predicted change in Energy=-3.438805D-02
 GradGradGradGradGradGradGradGradGradGradGradGradGradGradGradGradGradGrad

                          Input orientation:                          
 ---------------------------------------------------------------------
 Center     Atomic      Atomic             Coordinates (Angstroms)
 Number     Number       Type             X           Y           Z
 ---------------------------------------------------------------------
      1          8           0        0.825914    0.003713   -0.002847
      2          6           0        2.272797   -0.055721   -0.031689
      3          6           0        2.831096    0.312660    1.337187
      4          6           0        3.223179    1.504827    1.859107
      5          6           0        3.487493    2.207433    3.105588
      6          6           0        3.705526    1.185005    4.355506
      7          6           0        3.734108   -0.319466    3.822920
      8          6           0        3.233638   -0.545462    2.386853
      9          8           0        3.956482   -1.781836    1.955923
     10          1           0        0.494108   -0.237205   -0.870124
     11          1           0        2.703185    0.676475   -0.732955
     12          1           0        2.616532   -1.064496   -0.314205
     13          1           0        2.621334    2.860706    3.249829
     14          1           0        4.350142    2.888937    3.018257
     15          1           0        2.997079    1.317825    5.180703
     16          1           0        4.691818    1.414810    4.773400
     17          1           0        3.192203   -1.023010    4.480912
     18          1           0        4.767290   -0.661719    3.800786
     19          1           0        4.165657   -2.335286    2.709877
 ---------------------------------------------------------------------
                    Distance matrix (angstroms):
                    1          2          3          4          5
     1  O    0.000000
     2  C    1.448391   0.000000
     3  C    2.431439   1.523557   0.000000
     4  C    3.386311   2.629381   1.359188   0.000000
     5  C    4.647877   4.054610   2.673624   1.455071   0.000000
     6  C    5.355638   4.779079   3.261267   2.562606   1.629476
     7  C    4.816485   4.130739   2.719169   2.728673   2.638296
     8  C    3.436481   2.648096   1.414289   2.117147   2.856476
     9  O    4.101880   3.124879   2.456876   3.368866   4.178031
    10  H    0.959325   1.974752   3.261301   4.234525   5.544627
    11  H    2.123633   1.101416   2.105757   2.770442   4.206350
    12  H    2.108157   1.102540   2.160947   3.419463   4.812388
    13  H    4.686774   4.404019   3.192920   2.033404   1.094442
    14  H    5.465508   4.721075   3.430846   2.128247   1.102832
    15  H    5.771485   5.438773   3.976245   3.334530   2.310414
    16  H    6.304676   5.577006   4.060120   3.264675   2.204596
    17  H    5.172773   4.705797   3.434737   3.642085   3.523418
    18  H    5.517686   4.612764   3.281399   3.293678   3.217641
    19  H    4.897313   4.036772   3.267560   4.044570   4.610075
                    6          7          8          9         10
     6  C    0.000000
     7  C    1.596214   0.000000
     8  C    2.663229   1.537476   0.000000
     9  O    3.824019   2.381943   1.495601   0.000000
    10  H    6.296276   5.703422   4.267077   4.728685   0.000000
    11  H    5.211115   4.776055   3.392302   3.852805   2.394504
    12  H    5.296448   4.349695   2.818853   2.731945   2.344811
    13  H    2.281658   3.417629   3.566739   5.001000   5.576392
    14  H    2.259900   3.364645   3.666109   4.806209   6.305654
    15  H    1.095668   2.251113   3.366511   4.574665   6.730192
    16  H    1.095544   2.197347   3.415342   4.324053   7.224907
    17  H    2.270365   1.105255   2.148221   2.745089   6.044071
    18  H    2.201238   1.088619   2.089212   2.305556   6.344895
    19  H    3.913089   2.342782   2.043642   0.958389   5.540634
                   11         12         13         14         15
    11  H    0.000000
    12  H    1.792718   0.000000
    13  H    4.543141   5.301846   0.000000
    14  H    4.656076   5.453470   1.744477   0.000000
    15  H    5.955590   6.001190   2.499988   2.995889   0.000000
    16  H    5.900825   6.028058   2.949370   2.317395   1.745693
    17  H    5.505615   4.829727   4.113964   4.333995   2.450977
    18  H    5.158109   4.660594   4.161268   3.659716   2.992727
    19  H    4.802356   3.627640   5.447459   5.236568   4.562431
                   16         17         18         19
    16  H    0.000000
    17  H    2.877040   0.000000
    18  H    2.294264   1.753283   0.000000
    19  H    4.312562   2.409616   2.086353   0.000000
 Stoichiometry    C7H10O2
 Framework group  C1[X(C7H10O2)]
 Deg. of freedom    51
 Full point group                 C1      NOp   1
 Largest Abelian subgroup         C1      NOp   1
 Largest concise Abelian subgroup C1      NOp   1
                         Standard orientation:                         
 ---------------------------------------------------------------------
 Center     Atomic      Atomic             Coordinates (Angstroms)
 Number     Number       Type             X           Y           Z
 ---------------------------------------------------------------------
      1          8           0        2.857225   -0.667866    0.805963
      2          6           0        2.224844   -0.169177   -0.397882
      3          6           0        0.710067   -0.214487   -0.240965
      4          6           0       -0.200349   -1.172183   -0.559323
      5          6           0       -1.553667   -1.636101   -0.293724
      6          6           0       -2.478822   -0.480989    0.388182
      7          6           0       -1.680260    0.900751    0.419690
      8          6           0       -0.168769    0.822610    0.149276
      9          8           0        0.157345    2.173961   -0.402380
     10          1           0        3.808562   -0.625295    0.689979
     11          1           0        2.449882   -0.797282   -1.274215
     12          1           0        2.546083    0.864345   -0.608197
     13          1           0       -1.430152   -2.507144    0.357300
     14          1           0       -2.041085   -2.024186   -1.203697
     15          1           0       -2.886071   -0.745361    1.370396
     16          1           0       -3.347540   -0.354866   -0.267286
     17          1           0       -1.823442    1.463259    1.360259
     18          1           0       -2.059319    1.540510   -0.375366
     19          1           0       -0.451758    2.834720   -0.069364
 ---------------------------------------------------------------------
 Rotational constants (GHZ):           2.3953555           1.1830154           0.8817822
 Standard basis: 6-31G(2df,p) (6D, 7F)
 There are   329 symmetry adapted cartesian basis functions of A   symmetry.
 There are   302 symmetry adapted basis functions of A   symmetry.
   302 basis functions,   466 primitive gaussians,   329 cartesian basis functions
    34 alpha electrons       34 beta electrons
       nuclear repulsion energy       434.6463258964 Hartrees.
 NAtoms=   19 NActive=   19 NUniq=   19 SFac= 1.00D+00 NAtFMM=   60 NAOKFM=F Big=F
 Integral buffers will be    131072 words long.
 Raffenetti 2 integral format.
 Two-electron integral symmetry is turned on.
 One-electron integrals computed using PRISM.
 PrsmSu:  requested number of processors reduced to:  13 ShMem   1 Linda.
 NBasis=   302 RedAO= T EigKep=  4.49D-04  NBF=   302
 NBsUse=   302 1.00D-06 EigRej= -1.00D+00 NBFU=   302
 Initial guess from the checkpoint file:  "OCC1dC2CCCC12O.chk"
 B after Tr=    -0.000000    0.000000   -0.000000
         Rot=    0.999961   -0.003861   -0.004943   -0.006164 Ang=  -1.01 deg.
 ExpMin= 1.61D-01 ExpMax= 5.48D+03 ExpMxC= 8.25D+02 IAcc=2 IRadAn=         4 AccDes= 0.00D+00
 Harris functional with IExCor=  402 and IRadAn=       4 diagonalized for initial guess.
 HarFok:  IExCor=  402 AccDes= 0.00D+00 IRadAn=         4 IDoV= 1 UseB2=F ITyADJ=14
 ICtDFT=  3500011 ScaDFX=  1.000000  1.000000  1.000000  1.000000
 FoFCou: FMM=F IPFlag=           0 FMFlag=      100000 FMFlg1=           0
         NFxFlg=           0 DoJE=T BraDBF=F KetDBF=T FulRan=T
         wScrn=  0.000000 ICntrl=       500 IOpCl=  0 I1Cent=   200000004 NGrid=           0
         NMat0=    1 NMatS0=      1 NMatT0=    0 NMatD0=    1 NMtDS0=    0 NMtDT0=    0
 Petite list used in FoFCou.
 Requested convergence on RMS density matrix=1.00D-08 within 128 cycles.
 Requested convergence on MAX density matrix=1.00D-06.
 Requested convergence on             energy=1.00D-06.
 No special actions if energy rises.
 Integral accuracy reduced to 1.0D-05 until final iterations.
 Initial convergence to 1.0D-05 achieved.  Increase integral accuracy.
 SCF Done:  E(RB3LYP) =  -423.054084249     A.U. after   14 cycles
            NFock= 14  Conv=0.95D-08     -V/T= 2.0085
 PrsmSu:  requested number of processors reduced to:  13 ShMem   1 Linda.
 Calling FoFJK, ICntrl=      2127 FMM=F ISym2X=0 I1Cent= 0 IOpClX= 0 NMat=1 NMatS=1 NMatT=0.
 ***** Axes restored to original set *****
 -------------------------------------------------------------------
 Center     Atomic                   Forces (Hartrees/Bohr)
 Number     Number              X              Y              Z
 -------------------------------------------------------------------
      1        8           0.014681069    0.002642824    0.008417147
      2        6          -0.002293576    0.002872362    0.004924238
      3        6          -0.013382275    0.009048347    0.046188236
      4        6           0.005750764    0.009720128   -0.043762406
      5        6           0.002106551   -0.030853397    0.015118492
      6        6           0.001111446   -0.004371471   -0.013568373
      7        6          -0.019858023    0.027721985   -0.002792166
      8        6           0.048430802   -0.057582529   -0.010494039
      9        8          -0.029323301    0.035325922   -0.010993766
     10        1           0.002464917   -0.001325992   -0.003354688
     11        1          -0.003447287   -0.001557490   -0.000634023
     12        1          -0.000705922    0.003034560    0.002281545
     13        1          -0.003111650    0.000445238    0.003083280
     14        1          -0.002639344   -0.004437298    0.000509944
     15        1          -0.003256067    0.000667060   -0.005777950
[...]
 984856,-0.00853577,-0.09963038,-0.24395530,-0.05736524,0.12988394,0.36
 096509,-0.00216132,-0.00291243,-0.00289246,-0.00719748,-0.02733447,-0.
 00328873,-0.03181532,-0.05711047,-0.08903849,0.07377013,0.08933360,0.3
 0608438,0.00148547,0.00167454,0.00196746,0.00720504,-0.00369062,-0.005
 63643,0.00445687,-0.01930492,-0.00934100,-0.06460973,-0.00326032,-0.01
 867307,0.50071147,-0.00076322,-0.00049001,-0.00124587,0.00031362,-0.00
 280867,0.00350406,-0.01733969,-0.02734930,-0.02554130,0.00014349,-0.05
 379596,-0.00603417,-0.01043854,0.52790300,-0.00054355,-0.00070266,-0.0
 0080152,-0.00129303,-0.00017458,0.00216782,-0.00268288,0.00423682,-0.0
 1418206,-0.03897598,-0.05304632,-0.17379565,-0.00855311,0.02107036,0.4
 0906867,-0.00048704,-0.00009320,-0.00009501,0.00027787,0.00007237,0.00
 029518,-0.00156020,0.00417135,-0.00247222,0.00874692,0.00069617,-0.008
 51972,-0.08924774,-0.01630621,0.01806027,0.57477384,-0.00010108,-0.000
 14491,-0.00031810,-0.00131778,-0.00024334,0.00087541,0.00033801,-0.001
 58154,-0.00077629,0.00593233,0.00846072,0.00493331,-0.01935701,-0.1200
 7886,0.03701649,0.00621966,0.43734722,-0.00026364,-0.00034143,-0.00009
 943,-0.00089071,0.00020449,0.00054612,0.00306629,0.00511535,0.00316943
 ,0.00133974,0.01276801,-0.03991959,0.02008074,0.04167358,-0.11310832,0
 .03408520,0.04450288,0.54133436,0.00021341,0.00001362,0.00117544,0.006
 11092,0.00092743,-0.00245749,0.00158365,-0.00216242,-0.01578678,-0.003
 91154,-0.00128208,0.00421132,0.00581120,-0.00796042,-0.00395146,-0.086
 20504,0.02935553,0.00964135,0.52262748,0.00019593,0.00053120,-0.000021
 25,0.00206741,-0.00443234,0.00099933,0.00893851,0.00714642,0.01649724,
 -0.00045001,0.00123566,-0.00263770,0.00567946,-0.03476633,0.00464973,0
 .03129761,-0.16571809,-0.03180545,0.01164927,0.52467477,0.00004520,0.0
 0012954,-0.00021436,-0.00183225,0.00192832,0.00172336,-0.00954537,0.00
 754036,-0.01636428,0.00047349,-0.00485214,-0.00075077,-0.00900572,0.02
 446669,0.00711150,0.00824943,-0.03293346,-0.08907023,-0.01294407,-0.03
 919576,0.48778684,0.00082917,0.00106025,0.00027204,-0.00292349,0.00924
 219,-0.01304414,-0.11007968,0.08108669,-0.08846253,0.01176838,-0.01411
 453,0.00942710,-0.00890415,-0.00168905,0.00132735,0.00348108,-0.000045
 34,0.00925155,-0.08872493,-0.00216421,-0.04007537,0.27256741,-0.003149
 65,-0.00648665,0.00012741,0.00599755,0.01316659,0.00336172,0.08598315,
 -0.16837755,0.11989016,-0.02665506,-0.05280037,0.00404760,0.00794406,0
 .00109066,-0.00353778,-0.01024854,-0.00847716,-0.03305407,-0.00213855,
 -0.08548359,-0.02118423,-0.11879883,0.64814098,0.00128372,-0.00013811,
 0.00296599,-0.00843976,0.02407740,-0.02942604,-0.07443795,0.06441999,-
 0.20649720,0.00131165,0.04458440,0.01361156,0.00129699,-0.01005643,-0.
 00092479,0.00194457,-0.01606945,-0.01030567,-0.04135860,-0.00790359,-0
 .18234484,0.15750402,-0.03145412,0.56961737,-0.00083727,0.00082559,-0.
 00151310,-0.00187034,0.00090647,0.00255463,0.01034509,0.01268620,0.013
 07943,0.00149711,0.01040462,-0.00971750,-0.00062940,-0.00075331,-0.000
 68599,0.00108296,0.00060938,-0.00198082,0.00952083,-0.01087610,-0.0040
 7880,-0.06084221,0.04180363,-0.01463039,0.14427843,0.00250866,0.003872
 22,-0.00005683,-0.00843995,-0.00194752,-0.00286103,0.00388942,-0.07260
 620,-0.00555266,0.01669064,0.00555565,0.01226354,-0.00589955,0.0023153
 1,0.00209911,-0.00292484,0.00101677,-0.00533299,0.00532822,-0.02252150
 ,-0.01240457,0.02007162,-0.28930639,-0.10437783,-0.16062000,0.53885627
 ,-0.00030864,0.00123375,-0.00056209,-0.00040153,0.00053961,-0.00028518
 ,-0.00608140,0.02410286,0.01448245,0.00283561,-0.00312412,0.00000396,-
 0.00095377,0.00183392,-0.00132477,-0.00603636,0.00159767,-0.00552285,0
 .00336180,-0.04209139,-0.01533629,-0.02112687,-0.05252980,-0.13237937,
 0.17922323,-0.07851821,0.40646905,-0.08558569,-0.06739388,-0.11658308,
 -0.01789799,-0.01414616,-0.03488503,-0.00546976,-0.00315492,0.00291774
 ,-0.00142902,-0.00038272,-0.00116993,0.00064826,-0.00043424,-0.0000799
 9,-0.00000966,-0.00004865,-0.00002138,0.00024518,0.00009894,-0.0000468
 6,0.00015762,-0.00105777,0.00005763,-0.00017026,0.00055338,0.00037129,
 0.10691807,-0.07383327,-0.06440008,-0.12667900,-0.00868321,-0.00864378
 ,-0.02031988,-0.00261676,-0.00129586,0.00170286,-0.00070516,-0.0002650
 5,-0.00013801,0.00038354,-0.00007194,-0.00021723,-0.00004990,-0.000093
 25,-0.00004346,0.00013651,-0.00006493,-0.00011428,-0.00024770,0.000217
 81,0.00036551,-0.00006812,-0.00038164,-0.00012368,0.08468401,0.0733808
 1,-0.16366187,-0.15490541,-0.40934554,0.01190212,0.00807682,0.00568822
 ,-0.00079223,-0.00057070,-0.00039617,0.00022248,0.00106558,0.00056253,
 -0.00003359,-0.00004381,0.00013773,0.00001469,0.00003110,0.00000534,0.
 00006413,-0.00004576,0.00004033,0.00028425,-0.00056241,0.00041489,0.00
 009776,0.00015099,0.00009448,0.14968923,0.14543614,0.40219129,-0.00369
 768,-0.03490840,0.01924294,-0.06342465,0.05011524,-0.02891383,-0.00179
 765,0.01036712,-0.00637891,0.00104740,0.00093686,0.00087722,-0.0004332
 7,-0.00036741,0.00024220,0.00000596,0.00014785,0.00028188,-0.00012692,
 0.00062469,-0.00033787,-0.00052055,-0.00001671,-0.00240284,0.00008440,
 -0.00076898,-0.00053041,0.00138643,0.00038905,0.00101223,0.07001548,-0
 .01186484,-0.01355257,0.00868913,0.05088161,-0.22366057,0.10420578,-0.
 00252750,0.00699281,-0.00502772,0.00025456,0.00036037,-0.00113827,-0.0
 0031245,0.00003482,0.00003757,-0.00001572,0.00025904,0.00003667,0.0003
 7883,0.00056694,-0.00053843,-0.00104817,-0.00209691,-0.00145996,0.0001
 1519,0.00053672,0.00041308,-0.00017918,-0.00017678,0.00064098,-0.04278
 559,0.24530311,0.00498147,0.00778939,0.00026581,-0.02720880,0.09939196
 ,-0.11185511,-0.01040759,0.02420909,-0.01896756,0.00347350,0.00096805,
 0.00258360,-0.00030635,-0.00008198,0.00044406,-0.00006391,0.00005584,0
 .00041327,-0.00017803,0.00129489,-0.00048936,-0.00223204,-0.00156084,-
 0.00430445,0.00028774,-0.00123601,0.00016717,0.00042655,-0.00093000,0.
 00007552,0.02693962,-0.11540479,0.12270652,-0.03533378,0.00349967,0.01
 998698,-0.12758430,0.08441816,0.07029032,0.00950493,-0.00814382,-0.008
 79514,0.00062591,0.00116880,-0.00035638,-0.00071723,-0.00003944,0.0001
 4610,-0.00008468,0.00007789,0.00015787,-0.00060958,-0.00023550,0.00036
 290,0.00042688,-0.00082338,-0.00058632,0.00045684,0.00090035,0.0000673
 5,0.00122639,0.00044457,0.00125161,-0.00235948,0.00724021,0.00449662,0
 .15496010,-0.02013991,0.01168016,0.01354302,0.08964355,-0.13720050,-0.
 07562662,0.00192884,-0.00312724,-0.00599584,-0.00073613,0.00117733,-0.
 00083596,-0.00041823,-0.00012380,-0.00024367,-0.00003260,0.00004443,0.
 00002234,0.00001192,0.00000545,0.00013931,0.00004255,-0.00338932,0.000
 16066,-0.00033872,0.00177866,0.00125286,0.00138185,0.00165559,0.000701
 00,0.01646248,-0.01460885,-0.01457346,-0.08809929,0.14217896,0.0104553
 4,-0.00032157,-0.00062619,0.07435689,-0.07236310,-0.11804446,0.0140409
 1,-0.01847753,-0.01606530,-0.00006030,0.00129442,-0.00293244,-0.001514
 49,-0.00044925,-0.00011960,0.00002286,0.00006023,0.00023811,-0.0010302
 2,-0.00013929,0.00059456,0.00077397,-0.00513489,-0.00032025,0.00026465
 ,0.00336978,0.00098181,-0.00062238,0.00093423,0.00056253,-0.00952968,0
 .00962282,0.00952127,-0.08661570,0.08180143,0.12649589,-0.00008741,-0.
 00003500,-0.00013340,-0.00019532,-0.00019254,0.00027432,-0.00236339,0.
 00017798,-0.00180327,0.00188043,-0.01005443,-0.00532557,-0.07033125,0.
 08738848,0.02045864,0.00241248,-0.01027230,-0.00104859,0.00038651,-0.0
 0123044,0.00168407,0.00073315,-0.00038660,0.00008762,-0.00014863,0.000
 77498,-0.00010173,-0.00005494,-0.00001688,0.00000516,0.00000682,0.0000
 1777,-0.00002237,0.00000774,0.00003762,0.00003098,0.08153483,-0.000158
 55,-0.00008203,-0.00013530,-0.00002936,-0.00017184,0.00024410,0.000216
 41,0.00186491,-0.00195313,-0.00084433,-0.00933175,-0.00802555,0.089220
 84,-0.25208771,-0.03770822,0.00760347,-0.01851430,-0.00341523,-0.00192
 104,-0.00125608,0.00392071,0.00139180,-0.00058319,0.00109313,-0.000446
 79,0.00094003,-0.00013720,-0.00003420,-0.00001202,0.00002658,-0.000003
 35,0.00001234,0.00000628,-0.00000740,-0.00002000,-0.00002364,-0.094352
 13,0.27760697,-0.00052909,-0.00031285,-0.00058529,-0.00050406,-0.00028
 044,0.00158752,-0.00416656,-0.00503790,-0.00154523,0.01309354,-0.02215
 371,-0.00843924,0.02268997,-0.04585194,-0.05165081,-0.00860303,0.02205
 838,0.00433724,0.00189873,0.00254198,-0.00358208,-0.00059375,0.0027461
 2,-0.00356402,0.00009072,-0.00095749,0.00062377,-0.00015679,-0.0000684
 7,-0.00003181,-0.00002923,0.00007653,-0.00005587,0.00003347,-0.0000031
 2,0.00000796,-0.02191243,0.04590558,0.06094487,0.00003540,0.00008924,0
 .00006505,0.00062034,-0.00057703,-0.00046566,-0.00095138,0.00119110,-0
 .00127492,-0.00884831,-0.00365910,-0.00225508,-0.28146707,-0.03307823,
 0.00519455,-0.00784701,-0.00009367,0.00071568,0.00116132,0.00005540,0.
 00028871,-0.00076858,0.00119387,-0.00003883,0.00016917,-0.00043173,-0.
 00021810,0.00002468,0.00002696,-0.00000150,-0.00004671,-0.00003214,-0.
 00004176,-0.00012643,-0.00008072,-0.00019900,-0.01478495,-0.00062541,-
 0.00054991,0.31118760,0.00017034,0.00012733,0.00013605,0.00045813,-0.0
 0044021,-0.00052375,0.00039227,-0.00028833,-0.00183024,-0.01065024,-0.
 00546100,-0.00549647,-0.03472936,-0.04179275,0.00768462,-0.02108905,-0
 .00328111,0.00060857,-0.00144454,0.00117553,-0.00019115,-0.00079013,-0
 .00023262,0.00038300,0.00000117,0.00052275,-0.00010229,0.00002927,0.00
 002721,0.00001111,-0.00000252,0.00000854,-0.00000784,-0.00008147,-0.00
 004650,-0.00017655,0.02887013,0.00200940,0.00152289,0.03820615,0.04924
 609,0.00012127,0.00029232,0.00028542,0.00165329,-0.00081936,-0.0008933
 6,0.00147611,-0.00555368,-0.00073770,-0.02553508,-0.00125772,0.0004758
 8,-0.00582333,0.00454833,-0.04072542,0.02436219,0.00308168,-0.00230805
 ,0.00039211,-0.00097284,-0.00039093,-0.00205228,0.00304661,-0.00123342
 ,0.00000644,-0.00259844,-0.00006553,0.00011876,0.00006609,-0.00001925,
 -0.00012440,0.00001793,-0.00015777,-0.00026433,-0.00016506,-0.00046587
 ,0.00840208,0.00067153,0.00026932,-0.00307197,-0.00414042,0.04790676,0
 .00013841,0.00003441,-0.00002449,-0.00023293,-0.00000048,0.00005825,0.
 00048081,0.00019641,0.00047070,0.00071519,-0.00009783,-0.00063245,-0.0
 0859489,-0.00145236,0.00162426,-0.29991702,0.00602008,0.03047168,-0.00
 931458,0.00134931,0.00121465,0.00003944,0.00004732,-0.00089294,0.00020
 242,0.00009161,0.00025219,-0.00000728,0.00000821,-0.00000737,0.0000144
 8,-0.00000210,0.00001388,0.00003723,0.00001579,0.00003181,0.00060062,-
 0.00042126,-0.00002199,0.00102478,-0.00132293,0.00117897,0.32653265,0.
 00000187,0.00000665,0.00004132,0.00000107,0.00012162,-0.00007061,-0.00
 020237,0.00085381,-0.00034589,0.00062585,-0.00059697,-0.00156494,-0.02
 347426,-0.00141987,0.00410085,0.00295430,-0.04550336,-0.00185338,0.032
 99583,-0.00451351,-0.00438852,0.00087871,0.00046667,0.00162951,-0.0006
 6955,0.00038990,-0.00000707,-0.00000049,0.00000149,0.00000885,-0.00002
 394,-0.00001613,-0.00001811,0.00000131,0.00001073,0.00004555,-0.000061
 34,0.00072338,-0.00069596,-0.00123537,-0.00233765,0.00410782,-0.006626
 30,0.05579228,-0.00001721,0.00001371,0.00001210,-0.00019197,-0.0000184
 8,-0.00000660,-0.00051798,-0.00009043,-0.00004853,0.00002910,0.0007902
 1,0.00131562,0.02367426,0.00023049,-0.00376348,0.02956279,-0.00214515,
 -0.05289646,0.00891380,-0.00020246,-0.00198256,0.00148596,-0.00092928,
 0.00088741,-0.00005885,-0.00006337,-0.00020709,-0.00001882,-0.00001571
 ,0.00001566,0.00000849,0.00000029,0.00001368,0.00003317,0.00003926,0.0
 0007241,-0.00048186,-0.00039221,0.00094773,0.00127286,0.00273027,-0.00
 302698,-0.03540825,-0.00001858,0.05449422,0.00003408,0.00000330,-0.000
 02872,0.00003726,0.00003905,0.00016434,0.00059263,-0.00012751,-0.00014
 420,0.00002025,-0.00150333,0.00131806,0.00345595,0.00250400,0.00950218
 ,-0.09767896,-0.02550534,-0.09988094,0.00273522,0.00325485,0.01039480,
 -0.00062985,0.00228657,0.00002162,0.00074084,0.00053397,0.00066336,0.0
 0000437,0.00001054,-0.00001678,-0.00000791,-0.00000171,-0.00002295,-0.
 00001422,-0.00001325,-0.00003075,0.00007301,0.00016945,-0.00052819,0.0
 0067235,0.00059730,-0.00019889,-0.01343055,-0.00736317,-0.02808258,0.1
 0247278,0.00006759,0.00014611,0.00010180,0.00047117,0.00000968,-0.0002
 5340,-0.00015062,-0.00004161,-0.00006023,-0.00235061,-0.00219375,0.002
 88601,0.01091017,0.00705188,0.01910385,-0.02328079,-0.05950767,-0.0490
 2833,-0.01390747,-0.00739036,-0.02853720,0.00347192,-0.00679953,0.0018
 4160,-0.00097878,-0.00071742,-0.00254961,0.00002879,0.00001792,-0.0000
 0856,-0.00006139,-0.00003952,-0.00005391,-0.00006068,-0.00004409,-0.00
 001742,0.00047391,0.00017898,-0.00075608,-0.00004356,0.00099447,-0.000
 74199,0.00020573,-0.00009343,0.00102905,0.02616002,0.06559855,-0.00029
 376,-0.00021632,-0.00015119,-0.00021483,0.00017031,0.00041518,0.000251
 86,0.00141706,0.00053130,0.00215267,0.00247913,-0.00381874,-0.00976696
 ,-0.00616675,-0.01774647,-0.09892883,-0.05239208,-0.24250463,-0.003096
 39,-0.00156378,-0.00758557,0.00093673,-0.00012065,0.00148024,-0.000408
 28,-0.00094131,-0.00046272,-0.00000355,-0.00001766,0.00000124,0.000038
 66,0.00004662,0.00002954,0.00001588,-0.00003040,0.00000086,-0.00025610
 ,0.00030651,0.00040980,0.00044524,-0.00058319,0.00079208,0.00158889,0.
 00119821,0.00377084,0.10689681,0.05632238,0.26431832,-0.00004465,-0.00
 002456,0.00000518,-0.00044425,0.00046541,-0.00008959,-0.00087320,-0.00
 070440,-0.00073832,0.00066534,0.00005762,0.00023107,0.00034044,0.00169
 846,-0.00030000,0.00234704,0.00653560,-0.00597350,-0.07977838,-0.06825
 885,0.05894992,0.00308282,0.00783362,-0.00973768,-0.00008853,0.0014142
 5,0.00073271,-0.00000567,-0.00000618,0.00001545,-0.00010847,-0.0000810
 7,-0.00015515,0.00003202,0.00001850,0.00011039,0.00024694,0.00034476,-
 0.00011744,0.00007695,0.00057808,-0.00018162,0.00075774,-0.00007843,-0
 .00056757,-0.00002363,-0.00040131,0.00006580,0.08657116,0.00008175,0.0
 0007829,-0.00001650,-0.00023447,0.00000633,-0.00007038,0.00011289,0.00
 104095,-0.00043860,-0.00123032,0.00017653,-0.00233147,0.00296141,-0.00
 463483,-0.00259308,-0.01090482,-0.01964316,0.01921927,-0.06720163,-0.1
 6649052,0.10511644,0.00383695,-0.00024065,-0.00231556,-0.00029555,0.00
 243579,-0.00116059,-0.00000307,-0.00002022,0.00000185,-0.00000791,-0.0
 0001753,0.00003185,-0.00002840,0.00005701,0.00004379,-0.00043247,-0.00
 139472,0.00136520,-0.00011168,-0.00017962,0.00008450,0.00036963,0.0016
 3572,0.00020594,-0.00032287,0.00036076,-0.00042536,0.07299857,0.185032
 61,-0.00033645,-0.00034330,-0.00004769,-0.00058292,0.00116342,-0.00008
 649,-0.00043586,-0.00094838,-0.00195856,-0.00079522,-0.00011147,-0.000
 89180,0.00091028,-0.00208202,-0.00144872,-0.00462408,-0.00849720,0.008
 20257,0.05897338,0.10496107,-0.13679504,0.01172039,0.02310245,-0.02322
 623,-0.00210630,0.00032006,0.00353656,-0.00005996,0.00003253,-0.000003
 07,-0.00018256,-0.00027962,-0.00025588,0.00000889,-0.00009900,0.000067
 06,-0.00004691,-0.00060864,0.00055796,-0.00002810,-0.00011381,0.000049
 33,-0.00026774,0.00067455,0.00034206,-0.00033819,0.00044626,0.00013566
 ,-0.06342722,-0.11570121,0.15230891,-0.00003204,-0.00009756,0.00012517
 ,0.00088879,0.00016472,-0.00043684,-0.00019732,-0.00307917,-0.00001187
 ,-0.00012282,0.00071401,-0.00046321,0.00143412,-0.00011581,0.00026341,
 -0.00929139,0.00137394,0.00110049,-0.28290407,0.02007381,-0.00366087,-
 0.01255813,0.00316708,-0.00572550,0.00187853,0.00005152,0.00020145,0.0
 0001069,0.00004555,-0.00000640,-0.00001150,-0.00000004,-0.00005538,-0.
 00017593,-0.00005176,-0.00028449,-0.00003352,-0.00013808,-0.00003154,-
 0.00010437,0.00083932,-0.00019926,0.00104140,0.00198164,0.00038926,0.0
 0101312,-0.00024994,0.00050082,-0.01316376,0.00064584,0.00000758,0.313
 49451,-0.00008100,0.00000467,0.00001557,0.00027642,-0.00011364,-0.0000
 8074,0.00003726,0.00007559,0.00001869,0.00018714,0.00089935,0.00072677
 ,0.00125527,0.00127269,-0.00165424,0.03122033,-0.00349881,0.00027049,0
 .01882026,-0.04647030,-0.00049590,-0.00470638,-0.00064893,0.00187584,0
 .00090036,0.00045199,-0.00079956,0.00001314,0.00000611,0.00000457,0.00
 002691,0.00000679,0.00002751,-0.00005198,-0.00004156,-0.00006061,-0.00
 071134,0.00002831,0.00003770,-0.00094111,0.00000273,0.00021369,0.00176
 542,-0.00579078,-0.00121143,-0.00060838,0.00192533,0.00032680,-0.02255
 590,0.00177770,-0.00066812,-0.02447221,0.05064314,-0.00010463,-0.00007
 929,0.00032562,0.00214026,0.00037366,-0.00097681,0.00022846,-0.0017804
 0,-0.00275021,-0.00219709,0.00091998,0.00011782,-0.00002231,-0.0005284
 1,-0.00074486,0.01272189,-0.00146572,-0.00050487,-0.00899730,-0.000275
 25,-0.04325413,-0.03502273,0.00362752,-0.00548213,0.00233956,0.0029020
 9,0.00066609,0.00005916,0.00008051,-0.00000066,-0.00005839,0.00006397,
 -0.00009178,-0.00027484,-0.00015736,-0.00046996,0.00002833,-0.00005035
 ,-0.00001071,0.00020015,-0.00006256,0.00050036,0.00040530,-0.00300247,
 0.00006122,0.00024966,0.00040569,0.00048702,0.01983585,-0.00147499,0.0
 0048158,0.00847915,0.00158167,0.05053956,-0.00025865,-0.00000646,-0.00
 002618,-0.00012521,-0.00054679,-0.00039619,0.00586000,-0.00708866,0.00
 452524,0.00157275,0.00582085,-0.00154787,-0.00061410,-0.00131012,0.000
 24702,-0.00079940,0.00013090,-0.00013289,0.00117932,-0.00207006,-0.000
 13601,-0.00713439,0.00701826,-0.00525701,-0.10566998,0.12627642,-0.151
 95019,0.00000858,0.00009824,-0.00003937,-0.00002620,-0.00003766,0.0000
 7495,-0.00027241,0.00036749,-0.00020078,0.00011689,0.00003518,-0.00006
 243,-0.00002777,-0.00003194,-0.00026007,-0.00008790,0.00029462,-0.0000
 2459,-0.00006675,-0.00030416,0.00007536,0.00041011,-0.00023382,0.00161
 099,-0.00116632,-0.00037420,-0.00001047,0.10710143,-0.00038566,-0.0000
 8486,-0.00012166,0.00035922,0.00002717,-0.00053083,0.00175319,-0.00337
 265,-0.00689877,-0.00188453,0.00008035,0.00136910,0.00085599,-0.000248
 33,-0.00012163,0.00071041,-0.00084262,0.00045265,-0.00159926,0.0037715
 7,0.00159426,0.02252168,-0.03815985,0.03334400,0.10679432,-0.17119138,
 0.15016977,0.00004589,0.00011860,-0.00001891,-0.00012399,0.00008736,0.
 00009206,-0.00017960,0.00001355,-0.00000839,0.00000461,0.00008932,-0.0
 0013642,0.00014701,-0.00005426,0.00011901,-0.00018065,0.00026947,0.000
 04788,-0.00011349,0.00054370,0.00019048,0.00016584,0.00001956,-0.00124
 757,-0.00085287,-0.00053038,-0.00107828,-0.12803810,0.20946367,0.00008
 201,0.00024920,-0.00005721,-0.00024051,-0.00009410,0.00000549,-0.00292
 360,-0.00247108,-0.00024070,0.00133337,-0.00233361,0.00101254,-0.00098
 958,0.00075451,0.00140669,0.00002409,0.00038444,-0.00200632,0.00116829
 ,-0.00408973,0.00090385,0.00962635,-0.00988151,0.01103093,-0.16276414,
 0.19379516,-0.27087945,0.00000741,0.00004951,0.00000674,-0.00015514,-0
 .00000259,-0.00004265,0.00004156,0.00007062,0.00050160,0.00016101,0.00
 027504,-0.00022110,-0.00003741,0.00015176,-0.00025487,-0.00005533,0.00
 015886,-0.00000125,0.00006135,-0.00012991,-0.00010276,0.00134174,0.000
 45888,-0.00096821,-0.00019197,-0.00012869,0.00110686,0.15351050,-0.177
 21674,0.25879981\\0.00001695,-0.00000950,-0.00000526,-0.00000622,-0.00
 001196,0.00000238,0.00000805,0.00004259,-0.00000407,-0.00000512,-0.000
 01019,-0.00001121,-0.00000837,0.00000578,-0.00000737,-0.00001240,0.000
 00491,0.00001548,-0.00000796,-0.00000519,-0.00002792,0.00002261,-0.000
 02744,0.00002218,-0.00000821,0.00000379,0.00000856,-0.00001214,0.00001
 178,-0.00000256,-0.00000532,-0.00000044,-0.00000485,0.00000343,0.00000
 394,0.00000107,-0.00000107,0.00000023,0.00000128,0.00000151,0.00000022
 ,0.00000132,0.00000469,0.00000126,0.00000298,0.00000960,0.00000161,-0.
 00000674,0.00000218,-0.00000672,0.00000339,-0.00000122,-0.00000023,0.0
 0000772,-0.00000100,-0.00000444,0.00000363\\\@


 HE THAT RISETH LATE MUST TROT ALL DAY.

                  -- BENJAMIN FRANKLIN
 Job cpu time:       0 days  1 hours 57 minutes 13.6 seconds.
 Elapsed time:       0 days  0 hours 29 minutes 18.8 seconds.
 File lengths (MBytes):  RWF=    137 Int=      0 D2E=      0 Chk=      9 Scr=      1
 Normal termination of Gaussian 16 at Thu Aug  4 08:41:15 2022.
### All Done ###
