### Starting Gaussian ###
 Entering Gaussian System, Link 0=g16
 Initial command:
 /cluster/software/gaussian/gaussian-16-A.03/avx2/g16/l1.exe "/local/scratch/ks29c/Gau-7996.inp" -scrdir="/local/scratch/ks29c/"
 Entering Link 1 = /cluster/software/gaussian/gaussian-16-A.03/avx2/g16/l1.exe PID=      7997.
  
 Copyright (c) 1988,1990,1992,1993,1995,1998,2003,2009,2016,
            Gaussian, Inc.  All Rights Reserved.
  
 This is part of the Gaussian(R) 16 program.  It is based on
 the Gaussian(R) 09 system (copyright 2009, Gaussian, Inc.),
 the Gaussian(R) 03 system (copyright 2003, Gaussian, Inc.),
 the Gaussian(R) 98 system (copyright 1998, Gaussian, Inc.),
 the Gaussian(R) 94 system (copyright 1995, Gaussian, Inc.),
 the Gaussian 92(TM) system (copyright 1992, Gaussian, Inc.),
 the Gaussian 90(TM) system (copyright 1990, Gaussian, Inc.),
 the Gaussian 88(TM) system (copyright 1988, Gaussian, Inc.),
 the Gaussian 86(TM) system (copyright 1986, Carnegie Mellon
 University), and the Gaussian 82(TM) system (copyright 1983,
 Carnegie Mellon University). Gaussian is a federally registered
 trademark of Gaussian, Inc.
  
 This software contains proprietary and confidential information,
 including trade secrets, belonging to Gaussian, Inc.
  
 This software is provided under written license and may be
 used, copied, transmitted, or stored only in accord with that
 written license.
  
 The following legend is applicable only to US Government
 contracts under FAR:
  
                    RESTRICTED RIGHTS LEGEND
  
 Use, reproduction and disclosure by the US Government is
 subject to restrictions as set forth in subparagraphs (a)
 and (c) of the Commercial Computer Software - Restricted
 Rights clause in FAR 52.227-19.
  
 Gaussian, Inc.
 340 Quinnipiac St., Bldg. 40, Wallingford CT 06492
  
  
 ---------------------------------------------------------------
 Warning -- This program may not be used in any manner that
 competes with the business of Gaussian, Inc. or will provide
 assistance to any competitor of Gaussian, Inc.  The licensee
 of this program is prohibited from giving any competitor of
 Gaussian, Inc. access to this program.  By using this program,
 the user acknowledges that Gaussian, Inc. is engaged in the
 business of creating and licensing software in the field of
 computational chemistry and represents and warrants to the
 licensee that it is not a competitor of Gaussian, Inc. and that
 it will not use this program in any manner prohibited above.
 ---------------------------------------------------------------
  

 Cite this work as:
 Gaussian 16, Revision A.03,
 M. J. Frisch, G. W. Trucks, H. B. Schlegel, G. E. Scuseria, 
 M. A. Robb, J. R. Cheeseman, G. Scalmani, V. Barone, 
 G. A. Petersson, H. Nakatsuji, X. Li, M. Caricato, A. V. Marenich, 
 J. Bloino, B. G. Janesko, R. Gomperts, B. Mennucci, H. P. Hratchian, 
 J. V. Ortiz, A. F. Izmaylov, J. L. Sonnenberg, D. Williams-Young, 
 F. Ding, F. Lipparini, F. Egidi, J. Goings, B. Peng, A. Petrone, 
 T. Henderson, D. Ranasinghe, V. G. Zakrzewski, J. Gao, N. Rega, 
 G. Zheng, W. Liang, M. Hada, M. Ehara, K. Toyota, R. Fukuda, 
 J. Hasegawa, M. Ishida, T. Nakajima, Y. Honda, O. Kitao, H. Nakai, 
 T. Vreven, K. Throssell, J. A. Montgomery, Jr., J. E. Peralta, 
 F. Ogliaro, M. J. Bearpark, J. J. Heyd, E. N. Brothers, K. N. Kudin, 
 V. N. Staroverov, T. A. Keith, R. Kobayashi, J. Normand, 
 K. Raghavachari, A. P. Rendell, J. C. Burant, S. S. Iyengar, 
 J. Tomasi, M. Cossi, J. M. Millam, M. Klene, C. Adamo, R. Cammi, 
 J. W. Ochterski, R. L. Martin, K. Morokuma, O. Farkas, 
 J. B. Foresman, and D. J. Fox, Gaussian, Inc., Wallingford CT, 2016.
 
 ******************************************
 Gaussian 16:  ES64L-G16RevA.03 25-Dec-2016
                 4-Aug-2022 
 ******************************************
 %chk=OCc1cnncc1O.chk
 %NProcShared=20
 Will use up to   20 processors via shared memory.
 -----------------------------
 # opt freq b3lyp/6-31g(2df,p)
 -----------------------------
 1/18=20,19=15,26=3,38=1/1,3;
 2/9=110,12=2,17=6,18=5,40=1/2;
 3/5=1,6=6,7=104,11=2,25=1,30=1,71=1,74=-5/1,2,3;
 4//1;
 5/5=2,38=5/2;
 6/7=2,8=2,9=2,10=2,28=1/1;
 7//1,2,3,16;
 1/18=20,19=15,26=3/3(2);
 2/9=110/2;
 99//99;
 2/9=110/2;
 3/5=1,6=6,7=104,11=2,25=1,30=1,71=1,74=-5/1,2,3;
 4/5=5,16=3,69=1/1;
 5/5=2,38=5/2;
 7//1,2,3,16;
 1/18=20,19=15,26=3/3(-5);
 2/9=110/2;
 6/7=2,8=2,9=2,10=2,19=2,28=1/1;
 99/9=1/99;
 -------------------
 Title Card Required
 -------------------
 Symbolic Z-matrix:
 Charge =  0 Multiplicity = 1
 O                     1.07414   0.10757  -0.06078 
 C                     2.49359   0.05211  -0.05669 
 C                     2.98024   0.16892  -1.4641 
 C                     3.15636   1.41448  -2.04939 
 N                     3.53385   1.58419  -3.33815 
 N                     3.77133   0.49621  -4.11146 
 C                     3.63613  -0.73438  -3.57388 
 C                     3.23383  -0.93454  -2.26364 
 O                     3.10217  -2.18764  -1.73442 
 H                     0.78212  -0.10405   0.84128 
 H                     2.8209   -0.88451   0.40669 
 H                     2.87189   0.87534   0.55789 
 H                     3.00918   2.3347   -1.49609 
 H                     3.88255  -1.54906  -4.2404 
 H                     3.19133  -2.85087  -2.43829 
 

 GradGradGradGradGradGradGradGradGradGradGradGradGradGradGradGradGradGrad
 Berny optimization.
 Initialization pass.
                           ----------------------------
                           !    Initial Parameters    !
                           ! (Angstroms and Degrees)  !
 --------------------------                            --------------------------
 ! Name  Definition              Value          Derivative Info.                !
 --------------------------------------------------------------------------------
 ! R1    R(1,2)                  1.4205         estimate D2E/DX2                !
 ! R2    R(1,10)                 0.9715         estimate D2E/DX2                !
 ! R3    R(2,3)                  1.4937         estimate D2E/DX2                !
 ! R4    R(2,11)                 1.095          estimate D2E/DX2                !
 ! R5    R(2,12)                 1.0948         estimate D2E/DX2                !
 ! R6    R(3,4)                  1.3874         estimate D2E/DX2                !
 ! R7    R(3,8)                  1.3861         estimate D2E/DX2                !
 ! R8    R(4,5)                  1.3536         estimate D2E/DX2                !
 ! R9    R(4,13)                 1.0838         estimate D2E/DX2                !
 ! R10   R(5,6)                  1.3558         estimate D2E/DX2                !
 ! R11   R(6,7)                  1.3497         estimate D2E/DX2                !
 ! R12   R(7,8)                  1.3851         estimate D2E/DX2                !
 ! R13   R(7,14)                 1.0811         estimate D2E/DX2                !
 ! R14   R(8,9)                  1.3666         estimate D2E/DX2                !
 ! R15   R(9,15)                 0.9712         estimate D2E/DX2                !
 ! A1    A(2,1,10)             106.8092         estimate D2E/DX2                !
 ! A2    A(1,2,3)              108.6494         estimate D2E/DX2                !
 ! A3    A(1,2,11)             109.4683         estimate D2E/DX2                !
 ! A4    A(1,2,12)             108.5145         estimate D2E/DX2                !
 ! A5    A(3,2,11)             111.6054         estimate D2E/DX2                !
 ! A6    A(3,2,12)             110.9498         estimate D2E/DX2                !
 ! A7    A(11,2,12)            107.5981         estimate D2E/DX2                !
 ! A8    A(2,3,4)              120.5988         estimate D2E/DX2                !
 ! A9    A(2,3,8)              122.7415         estimate D2E/DX2                !
 ! A10   A(4,3,8)              116.6239         estimate D2E/DX2                !
 ! A11   A(3,4,5)              123.3396         estimate D2E/DX2                !
 ! A12   A(3,4,13)             121.9814         estimate D2E/DX2                !
 ! A13   A(5,4,13)             114.6761         estimate D2E/DX2                !
 ! A14   A(4,5,6)              119.4263         estimate D2E/DX2                !
 ! A15   A(5,6,7)              119.14           estimate D2E/DX2                !
 ! A16   A(6,7,8)              122.5212         estimate D2E/DX2                !
 ! A17   A(6,7,14)             114.7526         estimate D2E/DX2                !
 ! A18   A(8,7,14)             122.7183         estimate D2E/DX2                !
 ! A19   A(3,8,7)              118.9299         estimate D2E/DX2                !
 ! A20   A(3,8,9)              119.2728         estimate D2E/DX2                !
 ! A21   A(7,8,9)              121.7884         estimate D2E/DX2                !
 ! A22   A(8,9,15)             109.6739         estimate D2E/DX2                !
 ! D1    D(10,1,2,3)           171.6374         estimate D2E/DX2                !
 ! D2    D(10,1,2,11)           49.5315         estimate D2E/DX2                !
 ! D3    D(10,1,2,12)          -67.6334         estimate D2E/DX2                !
 ! D4    D(1,2,3,4)             84.9213         estimate D2E/DX2                !
 ! D5    D(1,2,3,8)            -92.8255         estimate D2E/DX2                !
 ! D6    D(11,2,3,4)          -154.2817         estimate D2E/DX2                !
 ! D7    D(11,2,3,8)            27.9714         estimate D2E/DX2                !
 ! D8    D(12,2,3,4)           -34.2931         estimate D2E/DX2                !
 ! D9    D(12,2,3,8)           147.9601         estimate D2E/DX2                !
 ! D10   D(2,3,4,5)           -176.8041         estimate D2E/DX2                !
 ! D11   D(2,3,4,13)             3.8483         estimate D2E/DX2                !
 ! D12   D(8,3,4,5)              1.0759         estimate D2E/DX2                !
 ! D13   D(8,3,4,13)          -178.2716         estimate D2E/DX2                !
 ! D14   D(2,3,8,7)            177.6518         estimate D2E/DX2                !
 ! D15   D(2,3,8,9)             -3.4087         estimate D2E/DX2                !
 ! D16   D(4,3,8,7)             -0.1787         estimate D2E/DX2                !
 ! D17   D(4,3,8,9)            178.7607         estimate D2E/DX2                !
 ! D18   D(3,4,5,6)             -0.733          estimate D2E/DX2                !
 ! D19   D(13,4,5,6)           178.658          estimate D2E/DX2                !
 ! D20   D(4,5,6,7)             -0.5394         estimate D2E/DX2                !
 ! D21   D(5,6,7,8)              1.4467         estimate D2E/DX2                !
 ! D22   D(5,6,7,14)          -177.5538         estimate D2E/DX2                !
 ! D23   D(6,7,8,3)             -1.0717         estimate D2E/DX2                !
 ! D24   D(6,7,8,9)           -179.9833         estimate D2E/DX2                !
 ! D25   D(14,7,8,3)           177.8494         estimate D2E/DX2                !
 ! D26   D(14,7,8,9)            -1.0622         estimate D2E/DX2                !
 ! D27   D(3,8,9,15)           172.2518         estimate D2E/DX2                !
 ! D28   D(7,8,9,15)            -8.8402         estimate D2E/DX2                !
 --------------------------------------------------------------------------------
 Trust Radius=3.00D-01 FncErr=1.00D-07 GrdErr=1.00D-06 EigMax=2.50D+02 EigMin=1.00D-04
 Number of steps in this run=     75 maximum allowed number of steps=    100.
 GradGradGradGradGradGradGradGradGradGradGradGradGradGradGradGradGradGrad

                          Input orientation:                          
 ---------------------------------------------------------------------
 Center     Atomic      Atomic             Coordinates (Angstroms)
 Number     Number       Type             X           Y           Z
 ---------------------------------------------------------------------
      1          8           0        1.074140    0.107570   -0.060780
      2          6           0        2.493590    0.052110   -0.056690
      3          6           0        2.980240    0.168920   -1.464100
      4          6           0        3.156360    1.414480   -2.049390
      5          7           0        3.533850    1.584190   -3.338150
      6          7           0        3.771330    0.496210   -4.111460
      7          6           0        3.636130   -0.734380   -3.573880
      8          6           0        3.233830   -0.934540   -2.263640
      9          8           0        3.102170   -2.187640   -1.734420
     10          1           0        0.782120   -0.104050    0.841280
     11          1           0        2.820900   -0.884510    0.406690
     12          1           0        2.871890    0.875340    0.557890
     13          1           0        3.009180    2.334700   -1.496090
     14          1           0        3.882550   -1.549060   -4.240400
     15          1           0        3.191330   -2.850870   -2.438290
 ---------------------------------------------------------------------
                    Distance matrix (angstroms):
                    1          2          3          4          5
     1  O    0.000000
     2  C    1.420539   0.000000
     3  C    2.367760   1.493746   0.000000
     4  C    3.161997   2.503232   1.387445   0.000000
     5  N    4.355655   3.767942   2.412786   1.353589   0.000000
     6  N    4.881996   4.274460   2.782347   2.339560   1.355768
     7  C    4.428831   3.780819   2.386905   2.678031   2.332766
     8  C    3.256201   2.528253   1.386072   2.360042   2.754739
     9  O    3.490267   2.863848   2.375145   3.616270   4.121286
    10  H    0.971479   1.939037   3.197033   4.037192   5.281080
    11  H    2.062504   1.095039   2.152896   3.380860   4.541652
    12  H    2.050397   1.094773   2.144577   2.677593   4.014945
    13  H    3.280945   2.747348   2.166210   1.083793   2.057117
    14  H    5.301020   4.690030   3.387250   3.756387   3.279162
    15  H    4.345965   3.819182   3.180053   4.283185   4.538373
                    6          7          8          9         10
     6  N    0.000000
     7  C    1.349675   0.000000
     8  C    2.397997   1.385149   0.000000
     9  O    3.647073   2.404307   1.366626   0.000000
    10  H    5.815954   5.294934   4.042416   4.044528   0.000000
    11  H    4.819065   4.065966   2.702531   2.522224   2.225895
    12  H    4.770279   4.499643   3.371602   3.832696   2.325221
    13  H    3.286499   3.758927   3.365640   4.529570   4.046059
    14  H    2.052346   1.081053   2.169344   2.701243   6.125699
    15  H    3.786666   2.442732   1.924741   0.971214   4.909673
                   11         12         13         14         15
    11  H    0.000000
    12  H    1.767069   0.000000
    13  H    3.744240   2.523374   0.000000
    14  H    4.812917   5.470168   4.835039   0.000000
    15  H    3.478175   4.792054   5.273619   2.328110   0.000000
 Stoichiometry    C5H6N2O2
 Framework group  C1[X(C5H6N2O2)]
 Deg. of freedom    39
 Full point group                 C1      NOp   1
 Largest Abelian subgroup         C1      NOp   1
 Largest concise Abelian subgroup C1      NOp   1
                         Standard orientation:                         
 ---------------------------------------------------------------------
 Center     Atomic      Atomic             Coordinates (Angstroms)
 Number     Number       Type             X           Y           Z
 ---------------------------------------------------------------------
      1          8           0       -2.508824   -0.501036    0.758638
      2          6           0       -1.869693   -0.306867   -0.495053
      3          6           0       -0.392422   -0.268303   -0.277202
      4          6           0        0.344749   -1.442580   -0.225659
      5          7           0        1.673397   -1.476224    0.030787
      6          7           0        2.341631   -0.314715    0.236859
      7          6           0        1.666945    0.852343    0.170540
      8          6           0        0.304574    0.912136   -0.072374
      9          8           0       -0.363653    2.102512   -0.136766
     10          1           0       -3.461970   -0.388103    0.608541
     11          1           0       -2.234341    0.619554   -0.950999
     12          1           0       -2.146178   -1.133147   -1.157883
     13          1           0       -0.107004   -2.412081   -0.400574
     14          1           0        2.275843    1.735449    0.304864
     15          1           0        0.223353    2.822719    0.146043
 ---------------------------------------------------------------------
 Rotational constants (GHZ):           2.6772758           1.4706665           1.0181252
 Standard basis: 6-31G(2df,p) (6D, 7F)
 There are   309 symmetry adapted cartesian basis functions of A   symmetry.
 There are   282 symmetry adapted basis functions of A   symmetry.
   282 basis functions,   438 primitive gaussians,   309 cartesian basis functions
    33 alpha electrons       33 beta electrons
       nuclear repulsion energy       433.6737097062 Hartrees.
 NAtoms=   15 NActive=   15 NUniq=   15 SFac= 1.00D+00 NAtFMM=   60 NAOKFM=F Big=F
 Integral buffers will be    131072 words long.
 Raffenetti 2 integral format.
 Two-electron integral symmetry is turned on.
 One-electron integrals computed using PRISM.
 PrsmSu:  requested number of processors reduced to:  13 ShMem   1 Linda.
 NBasis=   282 RedAO= T EigKep=  1.18D-04  NBF=   282
 NBsUse=   282 1.00D-06 EigRej= -1.00D+00 NBFU=   282
 ExpMin= 1.61D-01 ExpMax= 5.48D+03 ExpMxC= 8.25D+02 IAcc=3 IRadAn=         5 AccDes= 0.00D+00
 Harris functional with IExCor=  402 and IRadAn=       5 diagonalized for initial guess.
 HarFok:  IExCor=  402 AccDes= 0.00D+00 IRadAn=         5 IDoV= 1 UseB2=F ITyADJ=14
 ICtDFT=  3500011 ScaDFX=  1.000000  1.000000  1.000000  1.000000
 FoFCou: FMM=F IPFlag=           0 FMFlag=      100000 FMFlg1=           0
         NFxFlg=           0 DoJE=T BraDBF=F KetDBF=T FulRan=T
         wScrn=  0.000000 ICntrl=       500 IOpCl=  0 I1Cent=   200000004 NGrid=           0
         NMat0=    1 NMatS0=      1 NMatT0=    0 NMatD0=    1 NMtDS0=    0 NMtDT0=    0
 Petite list used in FoFCou.
 Requested convergence on RMS density matrix=1.00D-08 within 128 cycles.
 Requested convergence on MAX density matrix=1.00D-06.
 Requested convergence on             energy=1.00D-06.
 No special actions if energy rises.
 Integral accuracy reduced to 1.0D-05 until final iterations.
 Initial convergence to 1.0D-05 achieved.  Increase integral accuracy.
 SCF Done:  E(RB3LYP) =  -454.061376271     A.U. after   14 cycles
            NFock= 14  Conv=0.40D-08     -V/T= 2.0070

 **********************************************************************

            Population analysis using the SCF density.

 **********************************************************************

 Orbital symmetries:
       Occupied  (A) (A) (A) (A) (A) (A) (A) (A) (A) (A) (A) (A)
                 (A) (A) (A) (A) (A) (A) (A) (A) (A) (A) (A) (A)
                 (A) (A) (A) (A) (A) (A) (A) (A) (A)
       Virtual   (A) (A) (A) (A) (A) (A) (A) (A) (A) (A) (A) (A)
                 (A) (A) (A) (A) (A) (A) (A) (A) (A) (A) (A) (A)
                 (A) (A) (A) (A) (A) (A) (A) (A) (A) (A) (A) (A)
                 (A) (A) (A) (A) (A) (A) (A) (A) (A) (A) (A) (A)
                 (A) (A) (A) (A) (A) (A) (A) (A) (A) (A) (A) (A)
                 (A) (A) (A) (A) (A) (A) (A) (A) (A) (A) (A) (A)
                 (A) (A) (A) (A) (A) (A) (A) (A) (A) (A) (A) (A)
                 (A) (A) (A) (A) (A) (A) (A) (A) (A) (A) (A) (A)
                 (A) (A) (A) (A) (A) (A) (A) (A) (A) (A) (A) (A)
                 (A) (A) (A) (A) (A) (A) (A) (A) (A) (A) (A) (A)
                 (A) (A) (A) (A) (A) (A) (A) (A) (A) (A) (A) (A)
                 (A) (A) (A) (A) (A) (A) (A) (A) (A) (A) (A) (A)
                 (A) (A) (A) (A) (A) (A) (A) (A) (A) (A) (A) (A)
                 (A) (A) (A) (A) (A) (A) (A) (A) (A) (A) (A) (A)
                 (A) (A) (A) (A) (A) (A) (A) (A) (A) (A) (A) (A)
                 (A) (A) (A) (A) (A) (A) (A) (A) (A) (A) (A) (A)
                 (A) (A) (A) (A) (A) (A) (A) (A) (A) (A) (A) (A)
                 (A) (A) (A) (A) (A) (A) (A) (A) (A) (A) (A) (A)
                 (A) (A) (A) (A) (A) (A) (A) (A) (A) (A) (A) (A)
                 (A) (A) (A) (A) (A) (A) (A) (A) (A) (A) (A) (A)
                 (A) (A) (A) (A) (A) (A) (A) (A) (A)
 The electronic state is 1-A.
 Alpha  occ. eigenvalues --  -19.19898 -19.14439 -14.36447 -14.35308 -10.27420
 Alpha  occ. eigenvalues --  -10.24414 -10.22882 -10.22838 -10.21407  -1.08516
 Alpha  occ. eigenvalues --   -1.02577  -0.99557  -0.83088  -0.81563  -0.71372
 Alpha  occ. eigenvalues --   -0.66589  -0.62527  -0.57551  -0.53041  -0.52150
 Alpha  occ. eigenvalues --   -0.49023  -0.45578  -0.44054  -0.43530  -0.42013
 Alpha  occ. eigenvalues --   -0.40711  -0.38529  -0.34924  -0.30561  -0.29195
 Alpha  occ. eigenvalues --   -0.27679  -0.26482  -0.23338
 Alpha virt. eigenvalues --   -0.04700  -0.02148   0.04695   0.06975   0.11380
 Alpha virt. eigenvalues --    0.12170   0.13068   0.15368   0.16499   0.20006
 Alpha virt. eigenvalues --    0.21049   0.22288   0.26560   0.27140   0.32760
 Alpha virt. eigenvalues --    0.33751   0.37569   0.42408   0.42826   0.44863
 Alpha virt. eigenvalues --    0.45813   0.46267   0.49692   0.51270   0.52994
 Alpha virt. eigenvalues --    0.55201   0.56337   0.57776   0.59002   0.59958
 Alpha virt. eigenvalues --    0.61812   0.64546   0.65393   0.66735   0.66875
 Alpha virt. eigenvalues --    0.68593   0.70398   0.70641   0.73514   0.73798
 Alpha virt. eigenvalues --    0.74659   0.77423   0.78613   0.81703   0.82798
 Alpha virt. eigenvalues --    0.85429   0.85681   0.86126   0.87249   0.89623
 Alpha virt. eigenvalues --    0.90075   0.90233   0.91820   0.92554   0.95301
 Alpha virt. eigenvalues --    0.96455   0.97775   1.00679   1.01162   1.04442
 Alpha virt. eigenvalues --    1.06069   1.07764   1.09718   1.12067   1.16151
 Alpha virt. eigenvalues --    1.19880   1.23756   1.25066   1.30161   1.31589
 Alpha virt. eigenvalues --    1.33666   1.36471   1.37513   1.40285   1.42473
 Alpha virt. eigenvalues --    1.44276   1.45859   1.49161   1.50519   1.51185
 Alpha virt. eigenvalues --    1.55251   1.55547   1.56561   1.59578   1.61535
 Alpha virt. eigenvalues --    1.63844   1.64708   1.67284   1.70090   1.75493
 Alpha virt. eigenvalues --    1.78789   1.79542   1.82349   1.87013   1.94145
 Alpha virt. eigenvalues --    1.97163   2.01166   2.01841   2.07316   2.08786
 Alpha virt. eigenvalues --    2.11535   2.17051   2.18257   2.25239   2.27282
 Alpha virt. eigenvalues --    2.28809   2.33519   2.38947   2.44994   2.45911
 Alpha virt. eigenvalues --    2.50073   2.52977   2.60863   2.62502   2.65909
 Alpha virt. eigenvalues --    2.70317   2.74063   2.79037   2.81462   2.84024
 Alpha virt. eigenvalues --    2.85804   2.87046   2.90196   2.92111   2.93448
 Alpha virt. eigenvalues --    2.95775   2.98018   3.01370   3.04328   3.04883
 Alpha virt. eigenvalues --    3.08567   3.11801   3.13496   3.15630   3.18387
 Alpha virt. eigenvalues --    3.20864   3.22452   3.24087   3.27826   3.29315
 Alpha virt. eigenvalues --    3.32978   3.34628   3.37366   3.40380   3.41974
 Alpha virt. eigenvalues --    3.45217   3.46279   3.50369   3.55797   3.61189
 Alpha virt. eigenvalues --    3.62283   3.65865   3.69754   3.71915   3.73064
 Alpha virt. eigenvalues --    3.74276   3.79365   3.81415   3.85938   3.91511
 Alpha virt. eigenvalues --    3.94443   3.95400   4.00529   4.05867   4.09122
 Alpha virt. eigenvalues --    4.11825   4.12517   4.17245   4.18378   4.18923
 Alpha virt. eigenvalues --    4.22181   4.26016   4.28083   4.29011   4.32893
 Alpha virt. eigenvalues --    4.34633   4.35693   4.38884   4.40162   4.40539
 Alpha virt. eigenvalues --    4.42707   4.43972   4.44608   4.46705   4.47504
 Alpha virt. eigenvalues --    4.49181   4.50443   4.55892   4.60031   4.61866
 Alpha virt. eigenvalues --    4.62954   4.63387   4.64335   4.65971   4.67048
 Alpha virt. eigenvalues --    4.70600   4.74254   4.75989   4.79960   4.82779
 Alpha virt. eigenvalues --    4.83801   4.90499   4.95912   5.01754   5.03354
 Alpha virt. eigenvalues --    5.04974   5.09722   5.11566   5.13402   5.19224
 Alpha virt. eigenvalues --    5.19703   5.21480   5.22905   5.28152   5.28363
 Alpha virt. eigenvalues --    5.38388   5.40784   5.44276   5.45880   5.47944
 Alpha virt. eigenvalues --    5.56187   5.57509   5.61508   5.68482   5.74845
 Alpha virt. eigenvalues --    5.79794   5.81882   5.85308   5.90807   5.94458
 Alpha virt. eigenvalues --    5.96861   6.04672   6.14401   6.23484   6.48676
 Alpha virt. eigenvalues --    7.02726   7.11762   7.33401   8.09612   9.99965
 Alpha virt. eigenvalues --   10.63112  11.27430  11.34180  11.43898  11.68640
 Alpha virt. eigenvalues --   12.20299  13.20993  13.44624  21.45185
          Condensed to atoms (all electrons):
               1          2          3          4          5          6
     1  O    7.892989   0.345210  -0.058005   0.003036   0.000018  -0.000000
     2  C    0.345210   4.965364   0.341915  -0.070692   0.005858  -0.000746
     3  C   -0.058005   0.341915   4.735169   0.512056   0.051806  -0.077184
     4  C    0.003036  -0.070692   0.512056   4.819937   0.485123  -0.061363
     5  N    0.000018   0.005858   0.051806   0.485123   6.401719   0.454648
     6  N   -0.000000  -0.000746  -0.077184  -0.061363   0.454648   6.374335
     7  C    0.000159   0.009485   0.017662  -0.037160  -0.066801   0.477232
     8  C    0.008543  -0.050610   0.348975   0.015678  -0.084789   0.050185
     9  O   -0.000794  -0.005240  -0.039737   0.002462   0.000022   0.002976
    10  H    0.299002  -0.046995   0.006443  -0.000043   0.000003  -0.000000
    11  H   -0.031585   0.349262  -0.003075   0.006282  -0.000136  -0.000003
    12  H   -0.035867   0.348509  -0.021793  -0.013678   0.000091  -0.000009
    13  H    0.000265  -0.010413  -0.045361   0.364710  -0.027618   0.005122
    14  H    0.000001  -0.000130   0.004182  -0.000069   0.005266  -0.022930
    15  H   -0.000009  -0.000507   0.007681   0.000000   0.000028   0.000355
               7          8          9         10         11         12
     1  O    0.000159   0.008543  -0.000794   0.299002  -0.031585  -0.035867
     2  C    0.009485  -0.050610  -0.005240  -0.046995   0.349262   0.348509
     3  C    0.017662   0.348975  -0.039737   0.006443  -0.003075  -0.021793
     4  C   -0.037160   0.015678   0.002462  -0.000043   0.006282  -0.013678
     5  N   -0.066801  -0.084789   0.000022   0.000003  -0.000136   0.000091
     6  N    0.477232   0.050185   0.002976  -0.000000  -0.000003  -0.000009
     7  C    4.932564   0.441948  -0.051023   0.000006  -0.000035  -0.000061
     8  C    0.441948   4.665135   0.428301  -0.000035  -0.019204   0.007905
     9  O   -0.051023   0.428301   7.773226  -0.000022   0.008308   0.000111
    10  H    0.000006  -0.000035  -0.000022   0.458309  -0.005979  -0.001767
    11  H   -0.000035  -0.019204   0.008308  -0.005979   0.643292  -0.056603
    12  H   -0.000061   0.007905   0.000111  -0.001767  -0.056603   0.672839
    13  H   -0.000523   0.006056   0.000004  -0.000052  -0.000036   0.004444
    14  H    0.357742  -0.052759  -0.003711  -0.000000  -0.000004   0.000003
    15  H   -0.000743  -0.073315   0.322993  -0.000001  -0.000297  -0.000002
              13         14         15
     1  O    0.000265   0.000001  -0.000009
     2  C   -0.010413  -0.000130  -0.000507
     3  C   -0.045361   0.004182   0.007681
     4  C    0.364710  -0.000069   0.000000
     5  N   -0.027618   0.005266   0.000028
     6  N    0.005122  -0.022930   0.000355
     7  C   -0.000523   0.357742  -0.000743
     8  C    0.006056  -0.052759  -0.073315
     9  O    0.000004  -0.003711   0.322993
    10  H   -0.000052  -0.000000  -0.000001
    11  H   -0.000036  -0.000004  -0.000297
    12  H    0.004444   0.000003  -0.000002
    13  H    0.574572   0.000027   0.000006
    14  H    0.000027   0.592997   0.006387
    15  H    0.000006   0.006387   0.427597
 Mulliken charges:
               1
     1  O   -0.422963
     2  C   -0.180270
     3  C    0.219266
     4  C   -0.026278
     5  N   -0.225240
     6  N   -0.202617
     7  C   -0.080451
     8  C    0.307986
     9  O   -0.437875
    10  H    0.291133
    11  H    0.109812
    12  H    0.095878
    13  H    0.128795
    14  H    0.112998
    15  H    0.309825
 Sum of Mulliken charges =  -0.00000
 Mulliken charges with hydrogens summed into heavy atoms:
               1
     1  O   -0.131831
     2  C    0.025421
     3  C    0.219266
     4  C    0.102517
     5  N   -0.225240
     6  N   -0.202617
     7  C    0.032547
     8  C    0.307986
     9  O   -0.128050
 Electronic spatial extent (au):  <R**2>=           1116.2534
 Charge=             -0.0000 electrons
 Dipole moment (field-independent basis, Debye):
    X=             -3.3496    Y=              3.1819    Z=             -1.2489  Tot=              4.7859
 Quadrupole moment (field-independent basis, Debye-Ang):
   XX=            -52.2952   YY=            -45.2754   ZZ=            -52.6003
   XY=              8.9428   XZ=              1.7904   YZ=              3.0128
 Traceless Quadrupole moment (field-independent basis, Debye-Ang):
   XX=             -2.2382   YY=              4.7815   ZZ=             -2.5433
   XY=              8.9428   XZ=              1.7904   YZ=              3.0128
 Octapole moment (field-independent basis, Debye-Ang**2):
  XXX=            -74.4331  YYY=             31.8304  ZZZ=              2.0929  XYY=             -1.1494
  XXY=             16.1450  XXZ=             -3.4011  XZZ=             -2.5002  YZZ=              2.5645
  YYZ=              2.6714  XYZ=             -0.3201
 Hexadecapole moment (field-independent basis, Debye-Ang**3):
 XXXX=           -747.8932 YYYY=           -373.4398 ZZZZ=            -94.1529 XXXY=             44.0143
 XXXZ=            -22.9898 YYYX=             43.7587 YYYZ=             14.0016 ZZZX=             -5.8755
 ZZZY=             -1.7554 XXYY=           -227.0967 XXZZ=           -158.3068 YYZZ=            -92.6055
 XXYZ=              4.2782 YYXZ=              1.0821 ZZXY=             -0.2950
 N-N= 4.336737097062D+02 E-N=-1.928486852171D+03  KE= 4.508987570897D+02
 PrsmSu:  requested number of processors reduced to:  13 ShMem   1 Linda.
 Calling FoFJK, ICntrl=      2127 FMM=F ISym2X=0 I1Cent= 0 IOpClX= 0 NMat=1 NMatS=1 NMatT=0.
 ***** Axes restored to original set *****
 -------------------------------------------------------------------
 Center     Atomic                   Forces (Hartrees/Bohr)
 Number     Number              X              Y              Z
 -------------------------------------------------------------------
      1        8          -0.009273632   -0.002767295    0.004648042
      2        6          -0.004765409   -0.003280065    0.011936880
      3        6          -0.001233391    0.002875888    0.006794259
      4        6           0.009045370   -0.005781810   -0.028452776
      5        7           0.000350879   -0.013347427   -0.000604919
      6        7          -0.005520533    0.003743744    0.021659706
      7        6           0.003260240    0.028664063   -0.010428474
      8        6          -0.001980390   -0.018470839    0.007267583
      9        8          -0.001060743    0.003089242   -0.005628424
     10        1           0.001312428    0.002177221   -0.008544136
     11        1           0.004638965   -0.001371178   -0.002321444
     12        1           0.006664740    0.003084075   -0.001053824
     13        1          -0.001482996    0.000097092    0.001505467
     14        1          -0.000624034   -0.004577795   -0.001709726
     15        1           0.000668507    0.005865083    0.004931786
 -------------------------------------------------------------------
 Cartesian Forces:  Max     0.028664063 RMS     0.008940218

 GradGradGradGradGradGradGradGradGradGradGradGradGradGradGradGradGradGrad
 Berny optimization.
 FormGI is forming the generalized inverse of G from B-inverse, IUseBI=4.
 Internal  Forces:  Max     0.023784125 RMS     0.005606467
 Search for a local minimum.
 Step number   1 out of a maximum of   75
 All quantities printed in internal units (Hartrees-Bohrs-Radians)
 Mixed Optimization -- RFO/linear search
 Second derivative matrix not updated -- first step.
 ITU=  0
     Eigenvalues ---    0.00849   0.01420   0.01663   0.02133   0.02154
     Eigenvalues ---    0.02254   0.02268   0.02274   0.02299   0.02309
     Eigenvalues ---    0.06511   0.07334   0.11492   0.13901   0.15998
     Eigenvalues ---    0.15999   0.16000   0.16000   0.22006   0.22876
     Eigenvalues ---    0.23794   0.24979   0.24995   0.24996   0.33042
     Eigenvalues ---    0.34237   0.34267   0.35540   0.35867   0.42379
     Eigenvalues ---    0.44824   0.45710   0.47991   0.51630   0.52378
     Eigenvalues ---    0.52764   0.53076   0.53130   0.54537
 RFO step:  Lambda=-5.96209820D-03 EMin= 8.48682181D-03
 Linear search not attempted -- first point.
 Iteration  1 RMS(Cart)=  0.02515555 RMS(Int)=  0.00060132
 Iteration  2 RMS(Cart)=  0.00056816 RMS(Int)=  0.00034326
 Iteration  3 RMS(Cart)=  0.00000022 RMS(Int)=  0.00034326
 Variable       Old X    -DE/DX   Delta X   Delta X   Delta X     New X
                                 (Linear)    (Quad)   (Total)
    R1        2.68443   0.00794   0.00000   0.01848   0.01848   2.70291
    R2        1.83583  -0.00880   0.00000  -0.01640  -0.01640   1.81943
    R3        2.82277   0.00503   0.00000   0.01495   0.01495   2.83772
    R4        2.06932   0.00158   0.00000   0.00453   0.00453   2.07385
    R5        2.06882   0.00403   0.00000   0.01156   0.01156   2.08038
    R6        2.62189   0.00398   0.00000   0.00902   0.00907   2.63096
    R7        2.61930  -0.00101   0.00000   0.00043   0.00050   2.61980
    R8        2.55791  -0.01508   0.00000  -0.02890  -0.02892   2.52899
    R9        2.04807   0.00105   0.00000   0.00291   0.00291   2.05099
   R10        2.56203  -0.02378   0.00000  -0.04596  -0.04603   2.51600
   R11        2.55052  -0.01494   0.00000  -0.02759  -0.02764   2.52288
   R12        2.61755   0.00788   0.00000   0.01770   0.01772   2.63528
   R13        2.04289   0.00436   0.00000   0.01196   0.01196   2.05486
   R14        2.58255  -0.00844   0.00000  -0.01617  -0.01617   2.56638
   R15        1.83533  -0.00752   0.00000  -0.01399  -0.01399   1.82134
    A1        1.86417   0.00258   0.00000   0.01553   0.01553   1.87970
    A2        1.89629  -0.00468   0.00000  -0.01893  -0.01875   1.87754
    A3        1.91058   0.00482   0.00000   0.03538   0.03476   1.94534
    A4        1.89394   0.00641   0.00000   0.05159   0.05111   1.94504
    A5        1.94788  -0.00301   0.00000  -0.03277  -0.03298   1.91490
    A6        1.93644  -0.00387   0.00000  -0.03509  -0.03522   1.90122
    A7        1.87794   0.00082   0.00000   0.00351   0.00160   1.87954
    A8        2.10485   0.00645   0.00000   0.02187   0.02180   2.12665
    A9        2.14224   0.00171   0.00000   0.00332   0.00325   2.14549
   A10        2.03547  -0.00816   0.00000  -0.02531  -0.02517   2.01030
   A11        2.15268   0.00970   0.00000   0.04134   0.04136   2.19404
   A12        2.12898  -0.00641   0.00000  -0.03005  -0.03008   2.09889
   A13        2.00148  -0.00328   0.00000  -0.01119  -0.01123   1.99025
   A14        2.08438  -0.00247   0.00000  -0.02140  -0.02154   2.06285
   A15        2.07938   0.00460   0.00000   0.00820   0.00803   2.08741
   A16        2.13840   0.00471   0.00000   0.02227   0.02218   2.16058
   A17        2.00281  -0.00042   0.00000   0.00067   0.00061   2.00342
   A18        2.14184  -0.00428   0.00000  -0.02260  -0.02266   2.11918
   A19        2.07572  -0.00836   0.00000  -0.02474  -0.02463   2.05109
   A20        2.08170   0.00125   0.00000   0.00095   0.00088   2.08259
   A21        2.12561   0.00711   0.00000   0.02388   0.02382   2.14943
   A22        1.91417  -0.00195   0.00000  -0.01177  -0.01177   1.90241
    D1        2.99564   0.00006   0.00000   0.00091   0.00093   2.99657
    D2        0.86449   0.00372   0.00000   0.03114   0.03220   0.89669
    D3       -1.18043  -0.00359   0.00000  -0.02217  -0.02326  -1.20368
    D4        1.48216   0.00056   0.00000   0.01577   0.01574   1.49790
    D5       -1.62011   0.00084   0.00000   0.02024   0.02017  -1.59994
    D6       -2.69272   0.00157   0.00000   0.02671   0.02645  -2.66627
    D7        0.48819   0.00184   0.00000   0.03118   0.03088   0.51907
    D8       -0.59853  -0.00204   0.00000  -0.01461  -0.01426  -0.61279
    D9        2.58239  -0.00177   0.00000  -0.01014  -0.00984   2.57255
   D10       -3.08581  -0.00030   0.00000  -0.01090  -0.01104  -3.09686
   D11        0.06717  -0.00067   0.00000  -0.02188  -0.02187   0.04529
   D12        0.01878  -0.00037   0.00000  -0.01455  -0.01462   0.00416
   D13       -3.11143  -0.00074   0.00000  -0.02553  -0.02545  -3.13688
   D14        3.10061   0.00028   0.00000   0.00647   0.00642   3.10703
   D15       -0.05949   0.00052   0.00000   0.01237   0.01223  -0.04726
   D16       -0.00312   0.00024   0.00000   0.00980   0.00962   0.00650
   D17        3.11996   0.00048   0.00000   0.01570   0.01543   3.13540
   D18       -0.01279   0.00010   0.00000   0.00605   0.00613  -0.00666
   D19        3.11817   0.00042   0.00000   0.01615   0.01623   3.13440
   D20       -0.00941   0.00016   0.00000   0.00720   0.00724  -0.00217
   D21        0.02525  -0.00027   0.00000  -0.01174  -0.01177   0.01347
   D22       -3.09890  -0.00081   0.00000  -0.03275  -0.03312  -3.13202
   D23       -0.01870   0.00020   0.00000   0.00329   0.00309  -0.01561
   D24       -3.14130   0.00003   0.00000  -0.00249  -0.00268   3.13920
   D25        3.10406   0.00084   0.00000   0.02625   0.02607   3.13013
   D26       -0.01854   0.00066   0.00000   0.02047   0.02030   0.00176
   D27        3.00636   0.00103   0.00000   0.03621   0.03617   3.04253
   D28       -0.15429   0.00110   0.00000   0.04174   0.04178  -0.11251
         Item               Value     Threshold  Converged?
 Maximum Force            0.023784     0.000450     NO 
 RMS     Force            0.005606     0.000300     NO 
 Maximum Displacement     0.075130     0.001800     NO 
 RMS     Displacement     0.025133     0.001200     NO 
 Predicted change in Energy=-3.076919D-03
 GradGradGradGradGradGradGradGradGradGradGradGradGradGradGradGradGradGrad

                          Input orientation:                          
 ---------------------------------------------------------------------
 Center     Atomic      Atomic             Coordinates (Angstroms)
 Number     Number       Type             X           Y           Z
 ---------------------------------------------------------------------
      1          8           0        1.063564    0.090018   -0.065989
      2          6           0        2.493065    0.052054   -0.035997
      3          6           0        2.979398    0.161886   -1.452467
      4          6           0        3.164931    1.394817   -2.071983
      5          7           0        3.547125    1.581798   -3.340827
      6          7           0        3.782553    0.507766   -4.091610
      7          6           0        3.635461   -0.710137   -3.564884
      8          6           0        3.226854   -0.943235   -2.252096
      9          8           0        3.078862   -2.188291   -1.730280
     10          1           0        0.746740   -0.111503    0.820575
     11          1           0        2.860657   -0.880680    0.410375
     12          1           0        2.905678    0.888289    0.549169
     13          1           0        2.998390    2.314587   -1.520405
     14          1           0        3.856822   -1.530216   -4.243758
     15          1           0        3.199509   -2.838682   -2.431254
 ---------------------------------------------------------------------
                    Distance matrix (angstroms):
                    1          2          3          4          5
     1  O    0.000000
     2  C    1.430320   0.000000
     3  C    2.365989   1.501656   0.000000
     4  C    3.184690   2.529754   1.392243   0.000000
     5  N    4.372419   3.791182   2.429891   1.338283   0.000000
     6  N    4.875760   4.280006   2.780246   2.290679   1.331408
     7  C    4.415560   3.786694   2.377636   2.623163   2.304554
     8  C    3.244456   2.537743   1.386338   2.345797   2.768339
     9  O    3.467273   2.869303   2.368630   3.600394   4.126343
    10  H    0.962800   1.951952   3.197847   4.059992   5.294024
    11  H    2.097313   1.097435   2.138042   3.381208   4.539444
    12  H    2.099772   1.100890   2.130644   2.682204   4.003059
    13  H    3.287489   2.752794   2.153857   1.085335   2.037652
    14  H    5.280266   4.697730   3.379999   3.708253   3.255123
    15  H    4.328282   3.820036   3.163840   4.248857   4.526456
                    6          7          8          9         10
     6  N    0.000000
     7  C    1.335051   0.000000
     8  C    2.407907   1.394528   0.000000
     9  O    3.652367   2.420851   1.358072   0.000000
    10  H    5.807686   5.285388   4.035350   4.032209   0.000000
    11  H    4.800577   4.053652   2.688264   2.517908   2.286601
    12  H    4.738200   4.473588   3.362250   3.832914   2.394632
    13  H    3.238921   3.706037   3.346785   4.508485   4.054137
    14  H    2.045002   1.087382   2.169822   2.712169   6.110060
    15  H    3.780931   2.450690   1.904092   0.963809   4.901834
                   11         12         13         14         15
    11  H    0.000000
    12  H    1.774977   0.000000
    13  H    3.735855   2.515165   0.000000
    14  H    4.803665   5.452156   4.789162   0.000000
    15  H    3.467484   4.781169   5.237011   2.330090   0.000000
 Stoichiometry    C5H6N2O2
 Framework group  C1[X(C5H6N2O2)]
 Deg. of freedom    39
 Full point group                 C1      NOp   1
 Largest Abelian subgroup         C1      NOp   1
 Largest concise Abelian subgroup C1      NOp   1
                         Standard orientation:                         
 ---------------------------------------------------------------------
 Center     Atomic      Atomic             Coordinates (Angstroms)
 Number     Number       Type             X           Y           Z
 ---------------------------------------------------------------------
      1          8           0       -2.501864   -0.522551    0.763938
      2          6           0       -1.876822   -0.342112   -0.509867
      3          6           0       -0.394315   -0.271324   -0.281543
      4          6           0        0.394079   -1.416833   -0.213831
      5          7           0        1.708938   -1.446625    0.033674
      6          7           0        2.338767   -0.289828    0.228052
      7          6           0        1.651519    0.853229    0.169116
      8          6           0        0.279972    0.921978   -0.073454
      9          8           0       -0.406868    2.092292   -0.128012
     10          1           0       -3.452552   -0.436600    0.638290
     11          1           0       -2.220449    0.578266   -0.998937
     12          1           0       -2.094153   -1.182153   -1.187406
     13          1           0       -0.048870   -2.395519   -0.368493
     14          1           0        2.244359    1.750437    0.330235
     15          1           0        0.180995    2.813186    0.124291
 ---------------------------------------------------------------------
 Rotational constants (GHZ):           2.7018416           1.4650971           1.0204714
 Standard basis: 6-31G(2df,p) (6D, 7F)
 There are   309 symmetry adapted cartesian basis functions of A   symmetry.
 There are   282 symmetry adapted basis functions of A   symmetry.
   282 basis functions,   438 primitive gaussians,   309 cartesian basis functions
    33 alpha electrons       33 beta electrons
       nuclear repulsion energy       434.5102527539 Hartrees.
 NAtoms=   15 NActive=   15 NUniq=   15 SFac= 1.00D+00 NAtFMM=   60 NAOKFM=F Big=F
 Integral buffers will be    131072 words long.
 Raffenetti 2 integral format.
 Two-electron integral symmetry is turned on.
 One-electron integrals computed using PRISM.
 PrsmSu:  requested number of processors reduced to:  13 ShMem   1 Linda.
 NBasis=   282 RedAO= T EigKep=  1.14D-04  NBF=   282
 NBsUse=   282 1.00D-06 EigRej= -1.00D+00 NBFU=   282
 Initial guess from the checkpoint file:  "OCc1cnncc1O.chk"
 B after Tr=    -0.000000   -0.000000    0.000000
         Rot=    0.999970    0.000625    0.000324   -0.007771 Ang=   0.89 deg.
 ExpMin= 1.61D-01 ExpMax= 5.48D+03 ExpMxC= 8.25D+02 IAcc=2 IRadAn=         4 AccDes= 0.00D+00
 Harris functional with IExCor=  402 and IRadAn=       4 diagonalized for initial guess.
 HarFok:  IExCor=  402 AccDes= 0.00D+00 IRadAn=         4 IDoV= 1 UseB2=F ITyADJ=14
 ICtDFT=  3500011 ScaDFX=  1.000000  1.000000  1.000000  1.000000
 FoFCou: FMM=F IPFlag=           0 FMFlag=      100000 FMFlg1=           0
         NFxFlg=           0 DoJE=T BraDBF=F KetDBF=T FulRan=T
         wScrn=  0.000000 ICntrl=       500 IOpCl=  0 I1Cent=   200000004 NGrid=           0
         NMat0=    1 NMatS0=      1 NMatT0=    0 NMatD0=    1 NMtDS0=    0 NMtDT0=    0
 Petite list used in FoFCou.
 Requested convergence on RMS density matrix=1.00D-08 within 128 cycles.
 Requested convergence on MAX density matrix=1.00D-06.
 Requested convergence on             energy=1.00D-06.
 No special actions if energy rises.
 Integral accuracy reduced to 1.0D-05 until final iterations.
 Initial convergence to 1.0D-05 achieved.  Increase integral accuracy.
 SCF Done:  E(RB3LYP) =  -454.064538211     A.U. after   12 cycles
            NFock= 12  Conv=0.60D-08     -V/T= 2.0068
 PrsmSu:  requested number of processors reduced to:  13 ShMem   1 Linda.
 Calling FoFJK, ICntrl=      2127 FMM=F ISym2X=0 I1Cent= 0 IOpClX= 0 NMat=1 NMatS=1 NMatT=0.
 ***** Axes restored to original set *****
 -------------------------------------------------------------------
 Center     Atomic                   Forces (Hartrees/Bohr)
 Number     Number              X              Y              Z
 -------------------------------------------------------------------
      1        8           0.003929548   -0.000346486    0.000378641
      2        6          -0.002535238    0.000098534    0.001503520
      3        6          -0.000216492    0.002432350    0.000479196
      4        6           0.001675939    0.002944871   -0.005176346
      5        7          -0.000321950   -0.003836676    0.002400868
      6        7          -0.000695464   -0.003002108    0.003282841
      7        6           0.001359116    0.006930591   -0.006254094
      8        6          -0.001225532   -0.006769190    0.004180230
      9        8          -0.000355187    0.003607776   -0.003349619
     10        1           0.000184908    0.000144628    0.000015534
     11        1          -0.000471163   -0.000077578   -0.000297514
     12        1          -0.001123659    0.000293415    0.000053645
     13        1          -0.000863819    0.000178846    0.001920264
     14        1          -0.000273214   -0.001677683    0.000410664
     15        1           0.000932208   -0.000921292    0.000452169
 -------------------------------------------------------------------
 Cartesian Forces:  Max     0.006930591 RMS     0.002577922

 GradGradGradGradGradGradGradGradGradGradGradGradGradGradGradGradGradGrad
 Berny optimization.
 Using GEDIIS/GDIIS optimizer.
 FormGI is forming the generalized inverse of G from B-inverse, IUseBI=4.
 Internal  Forces:  Max     0.005160987 RMS     0.001375810
 Search for a local minimum.
 Step number   2 out of a maximum of   75
 All quantities printed in internal units (Hartrees-Bohrs-Radians)
 Mixed Optimization -- RFO/linear search
 Update second derivatives using D2CorX and points    1    2
 DE= -3.16D-03 DEPred=-3.08D-03 R= 1.03D+00
 TightC=F SS=  1.41D+00  RLast= 1.76D-01 DXNew= 5.0454D-01 5.2895D-01
 Trust test= 1.03D+00 RLast= 1.76D-01 DXMaxT set to 5.05D-01
 ITU=  1  0
 Use linear search instead of GDIIS.
     Eigenvalues ---    0.00846   0.01420   0.01652   0.02088   0.02157
     Eigenvalues ---    0.02251   0.02264   0.02275   0.02295   0.02315
     Eigenvalues ---    0.06683   0.07725   0.11500   0.13824   0.15554
     Eigenvalues ---    0.16000   0.16000   0.16158   0.22078   0.23266
     Eigenvalues ---    0.24122   0.24935   0.24989   0.25905   0.32644
     Eigenvalues ---    0.34241   0.34285   0.35422   0.35743   0.41490
     Eigenvalues ---    0.43777   0.44678   0.48049   0.49989   0.52410
     Eigenvalues ---    0.52763   0.53086   0.53307   0.55728
 RFO step:  Lambda=-4.89075562D-04 EMin= 8.45543767D-03
 Quartic linear search produced a step of  0.05489.
 Iteration  1 RMS(Cart)=  0.01470348 RMS(Int)=  0.00023182
 Iteration  2 RMS(Cart)=  0.00024404 RMS(Int)=  0.00001993
 Iteration  3 RMS(Cart)=  0.00000011 RMS(Int)=  0.00001993
 Variable       Old X    -DE/DX   Delta X   Delta X   Delta X     New X
                                 (Linear)    (Quad)   (Total)
    R1        2.70291  -0.00413   0.00101  -0.00984  -0.00883   2.69409
    R2        1.81943  -0.00008  -0.00090  -0.00052  -0.00142   1.81801
    R3        2.83772   0.00156   0.00082   0.00529   0.00611   2.84383
    R4        2.07385  -0.00021   0.00025  -0.00055  -0.00031   2.07355
    R5        2.08038  -0.00017   0.00063  -0.00027   0.00037   2.08075
    R6        2.63096   0.00082   0.00050   0.00232   0.00282   2.63378
    R7        2.61980   0.00334   0.00003   0.00796   0.00799   2.62779
    R8        2.52899  -0.00300  -0.00159  -0.00671  -0.00830   2.52069
    R9        2.05099   0.00126   0.00016   0.00380   0.00396   2.05494
   R10        2.51600  -0.00120  -0.00253  -0.00394  -0.00647   2.50952
   R11        2.52288  -0.00516  -0.00152  -0.01080  -0.01232   2.51056
   R12        2.63528   0.00296   0.00097   0.00712   0.00810   2.64337
   R13        2.05486   0.00095   0.00066   0.00306   0.00372   2.05857
   R14        2.56638  -0.00364  -0.00089  -0.00779  -0.00868   2.55771
   R15        1.82134   0.00041  -0.00077   0.00050  -0.00027   1.82106
    A1        1.87970  -0.00030   0.00085  -0.00167  -0.00082   1.87888
    A2        1.87754   0.00044  -0.00103   0.00078  -0.00024   1.87730
    A3        1.94534  -0.00044   0.00191  -0.00414  -0.00228   1.94307
    A4        1.94504  -0.00080   0.00280  -0.00619  -0.00341   1.94163
    A5        1.91490  -0.00010  -0.00181  -0.00039  -0.00221   1.91269
    A6        1.90122   0.00050  -0.00193   0.00453   0.00259   1.90381
    A7        1.87954   0.00043   0.00009   0.00558   0.00557   1.88510
    A8        2.12665   0.00027   0.00120   0.00052   0.00172   2.12836
    A9        2.14549   0.00033   0.00018   0.00038   0.00055   2.14604
   A10        2.01030  -0.00059  -0.00138  -0.00066  -0.00205   2.00824
   A11        2.19404  -0.00109   0.00227  -0.00379  -0.00153   2.19252
   A12        2.09889  -0.00117  -0.00165  -0.00958  -0.01123   2.08766
   A13        1.99025   0.00226  -0.00062   0.01336   0.01275   2.00300
   A14        2.06285   0.00212  -0.00118   0.00640   0.00520   2.06805
   A15        2.08741   0.00079   0.00044   0.00122   0.00164   2.08906
   A16        2.16058  -0.00023   0.00122  -0.00041   0.00079   2.16137
   A17        2.00342   0.00161   0.00003   0.01028   0.01031   2.01373
   A18        2.11918  -0.00138  -0.00124  -0.00986  -0.01110   2.10808
   A19        2.05109  -0.00100  -0.00135  -0.00263  -0.00399   2.04710
   A20        2.08259   0.00186   0.00005   0.00679   0.00684   2.08943
   A21        2.14943  -0.00086   0.00131  -0.00418  -0.00287   2.14656
   A22        1.90241   0.00151  -0.00065   0.00967   0.00903   1.91143
    D1        2.99657  -0.00009   0.00005   0.00445   0.00451   3.00107
    D2        0.89669   0.00002   0.00177   0.00690   0.00873   0.90542
    D3       -1.20368   0.00033  -0.00128   0.00687   0.00553  -1.19815
    D4        1.49790   0.00023   0.00086   0.02788   0.02874   1.52664
    D5       -1.59994   0.00013   0.00111   0.02087   0.02197  -1.57798
    D6       -2.66627  -0.00010   0.00145   0.02309   0.02453  -2.64174
    D7        0.51907  -0.00019   0.00169   0.01608   0.01776   0.53683
    D8       -0.61279   0.00065  -0.00078   0.03226   0.03150  -0.58129
    D9        2.57255   0.00055  -0.00054   0.02525   0.02473   2.59728
   D10       -3.09686  -0.00035  -0.00061  -0.01641  -0.01701  -3.11387
   D11        0.04529  -0.00025  -0.00120  -0.01207  -0.01328   0.03202
   D12        0.00416  -0.00024  -0.00080  -0.00989  -0.01068  -0.00653
   D13       -3.13688  -0.00014  -0.00140  -0.00555  -0.00695   3.13936
   D14        3.10703   0.00017   0.00035   0.00878   0.00913   3.11616
   D15       -0.04726   0.00013   0.00067   0.00724   0.00790  -0.03936
   D16        0.00650   0.00006   0.00053   0.00218   0.00270   0.00920
   D17        3.13540   0.00002   0.00085   0.00064   0.00147   3.13687
   D18       -0.00666   0.00019   0.00034   0.00864   0.00900   0.00234
   D19        3.13440   0.00009   0.00089   0.00453   0.00542   3.13982
   D20       -0.00217   0.00002   0.00040   0.00059   0.00099  -0.00118
   D21        0.01347  -0.00018  -0.00065  -0.00801  -0.00868   0.00480
   D22       -3.13202  -0.00012  -0.00182  -0.00492  -0.00676  -3.13878
   D23       -0.01561   0.00014   0.00017   0.00640   0.00655  -0.00907
   D24        3.13920   0.00016  -0.00015   0.00791   0.00775  -3.13624
   D25        3.13013   0.00007   0.00143   0.00306   0.00448   3.13461
   D26        0.00176   0.00009   0.00111   0.00458   0.00568   0.00744
   D27        3.04253   0.00091   0.00199   0.04365   0.04564   3.08817
   D28       -0.11251   0.00087   0.00229   0.04204   0.04434  -0.06818
         Item               Value     Threshold  Converged?
 Maximum Force            0.005161     0.000450     NO 
 RMS     Force            0.001376     0.000300     NO 
 Maximum Displacement     0.037776     0.001800     NO 
 RMS     Displacement     0.014659     0.001200     NO 
 Predicted change in Energy=-2.575208D-04
 GradGradGradGradGradGradGradGradGradGradGradGradGradGradGradGradGradGrad

                          Input orientation:                          
 ---------------------------------------------------------------------
 Center     Atomic      Atomic             Coordinates (Angstroms)
 Number     Number       Type             X           Y           Z
 ---------------------------------------------------------------------
      1          8           0        1.065192    0.071997   -0.060375
      2          6           0        2.490509    0.058888   -0.032509
      3          6           0        2.973450    0.165316   -1.453822
      4          6           0        3.169713    1.397073   -2.075721
      5          7           0        3.565409    1.576345   -3.336890
      6          7           0        3.796606    0.504917   -4.086642
      7          6           0        3.632002   -0.707890   -3.569917
      8          6           0        3.215231   -0.944664   -2.255795
      9          8           0        3.058872   -2.188274   -1.745019
     10          1           0        0.754220   -0.123305    0.828831
     11          1           0        2.872411   -0.866126    0.417502
     12          1           0        2.886110    0.907738    0.546577
     13          1           0        2.999643    2.314320   -1.516942
     14          1           0        3.843589   -1.535871   -4.245464
     15          1           0        3.216653   -2.841992   -2.435243
 ---------------------------------------------------------------------
                    Distance matrix (angstroms):
                    1          2          3          4          5
     1  O    0.000000
     2  C    1.425650   0.000000
     3  C    2.364709   1.504889   0.000000
     4  C    3.201008   2.535108   1.393737   0.000000
     5  N    4.387448   3.791705   2.426389   1.333889   0.000000
     6  N    4.884554   4.282619   2.779326   2.287518   1.327983
     7  C    4.417422   3.795288   2.382023   2.622442   2.297056
     8  C    3.236686   2.544669   1.390566   2.349091   2.765299
     9  O    3.452768   2.881920   2.373074   3.602272   4.118616
    10  H    0.962047   1.946741   3.196684   4.072171   5.305170
    11  H    2.091526   1.097273   2.139144   3.380328   4.532259
    12  H    2.093465   1.101084   2.135513   2.682597   3.998724
    13  H    3.300258   2.747678   2.150090   1.087429   2.043749
    14  H    5.274437   4.703516   3.382963   3.709993   3.254040
    15  H    4.331294   3.836081   3.172734   4.254542   4.522865
                    6          7          8          9         10
     6  N    0.000000
     7  C    1.328534   0.000000
     8  C    2.406508   1.398812   0.000000
     9  O    3.644274   2.418732   1.353480   0.000000
    10  H    5.814865   5.288889   4.030648   4.024950   0.000000
    11  H    4.798042   4.062207   2.696333   2.541523   2.282041
    12  H    4.738986   4.484655   3.375352   3.855716   2.384885
    13  H    3.242291   3.707876   3.348636   4.508757   4.060369
    14  H    2.047498   1.089350   2.168672   2.700673   6.106390
    15  H    3.776939   2.452426   1.905796   0.963665   4.910093
                   11         12         13         14         15
    11  H    0.000000
    12  H    1.778606   0.000000
    13  H    3.724714   2.499894   0.000000
    14  H    4.809885   5.463665   4.793855   0.000000
    15  H    3.487220   4.802185   5.241940   2.318599   0.000000
 Stoichiometry    C5H6N2O2
 Framework group  C1[X(C5H6N2O2)]
 Deg. of freedom    39
 Full point group                 C1      NOp   1
 Largest Abelian subgroup         C1      NOp   1
 Largest concise Abelian subgroup C1      NOp   1
                         Standard orientation:                         
 ---------------------------------------------------------------------
 Center     Atomic      Atomic             Coordinates (Angstroms)
 Number     Number       Type             X           Y           Z
 ---------------------------------------------------------------------
      1          8           0       -2.510268   -0.500049    0.759361
      2          6           0       -1.879182   -0.357797   -0.511062
      3          6           0       -0.395012   -0.280100   -0.274645
      4          6           0        0.400788   -1.421934   -0.201025
      5          7           0        1.713568   -1.440097    0.034642
      6          7           0        2.339732   -0.283951    0.221150
      7          6           0        1.653309    0.852281    0.168219
      8          6           0        0.276886    0.920314   -0.071587
      9          8           0       -0.404497    2.088412   -0.127885
     10          1           0       -3.459525   -0.421926    0.623930
     11          1           0       -2.217800    0.550353   -1.025464
     12          1           0       -2.095293   -1.218722   -1.162592
     13          1           0       -0.049490   -2.401035   -0.346320
     14          1           0        2.236786    1.758143    0.328384
     15          1           0        0.189598    2.818041    0.080308
 ---------------------------------------------------------------------
 Rotational constants (GHZ):           2.7137416           1.4614070           1.0191186
 Standard basis: 6-31G(2df,p) (6D, 7F)
 There are   309 symmetry adapted cartesian basis functions of A   symmetry.
 There are   282 symmetry adapted basis functions of A   symmetry.
   282 basis functions,   438 primitive gaussians,   309 cartesian basis functions
    33 alpha electrons       33 beta electrons
       nuclear repulsion energy       434.6208216060 Hartrees.
 NAtoms=   15 NActive=   15 NUniq=   15 SFac= 1.00D+00 NAtFMM=   60 NAOKFM=F Big=F
 Integral buffers will be    131072 words long.
 Raffenetti 2 integral format.
 Two-electron integral symmetry is turned on.
 One-electron integrals computed using PRISM.
 PrsmSu:  requested number of processors reduced to:  13 ShMem   1 Linda.
 NBasis=   282 RedAO= T EigKep=  1.13D-04  NBF=   282
 NBsUse=   282 1.00D-06 EigRej= -1.00D+00 NBFU=   282
 Initial guess from the checkpoint file:  "OCc1cnncc1O.chk"
 B after Tr=     0.000000    0.000000   -0.000000
         Rot=    0.999996    0.002935    0.000293   -0.000057 Ang=   0.34 deg.
 ExpMin= 1.61D-01 ExpMax= 5.48D+03 ExpMxC= 8.25D+02 IAcc=2 IRadAn=         4 AccDes= 0.00D+00
 Harris functional with IExCor=  402 and IRadAn=       4 diagonalized for initial guess.
 HarFok:  IExCor=  402 AccDes= 0.00D+00 IRadAn=         4 IDoV= 1 UseB2=F ITyADJ=14
 ICtDFT=  3500011 ScaDFX=  1.000000  1.000000  1.000000  1.000000
 FoFCou: FMM=F IPFlag=           0 FMFlag=      100000 FMFlg1=           0
         NFxFlg=           0 DoJE=T BraDBF=F KetDBF=T FulRan=T
         wScrn=  0.000000 ICntrl=       500 IOpCl=  0 I1Cent=   200000004 NGrid=           0
         NMat0=    1 NMatS0=      1 NMatT0=    0 NMatD0=    1 NMtDS0=    0 NMtDT0=    0
 Petite list used in FoFCou.
 Requested convergence on RMS density matrix=1.00D-08 within 128 cycles.
 Requested convergence on MAX density matrix=1.00D-06.
 Requested convergence on             energy=1.00D-06.
 No special actions if energy rises.
 Integral accuracy reduced to 1.0D-05 until final iterations.
 Initial convergence to 1.0D-05 achieved.  Increase integral accuracy.
 SCF Done:  E(RB3LYP) =  -454.064850383     A.U. after   12 cycles
            NFock= 12  Conv=0.34D-08     -V/T= 2.0068
 PrsmSu:  requested number of processors reduced to:  13 ShMem   1 Linda.
 Calling FoFJK, ICntrl=      2127 FMM=F ISym2X=0 I1Cent= 0 IOpClX= 0 NMat=1 NMatS=1 NMatT=0.
 ***** Axes restored to original set *****
 -------------------------------------------------------------------
 Center     Atomic                   Forces (Hartrees/Bohr)
 Number     Number              X              Y              Z
 -------------------------------------------------------------------
      1        8           0.001300918   -0.000250307   -0.000084142
      2        6          -0.000972155    0.000238249   -0.000760537
      3        6           0.000385504   -0.000653502   -0.000213583
      4        6           0.000533997    0.001007655   -0.000332705
      5        7          -0.000430044    0.001614731    0.001202505
      6        7           0.000333871   -0.001987928   -0.000776207
      7        6           0.000130780    0.000850321   -0.001646006
      8        6          -0.000572445   -0.001434530    0.002331630
      9        8          -0.000666719    0.001693985   -0.000655684
     10        1          -0.000389154   -0.000014863    0.000583532
     11        1           0.000202078   -0.000061144    0.000035782
     12        1          -0.000289635   -0.000115700   -0.000195672
     13        1          -0.000097108   -0.000230146    0.000188581
     14        1          -0.000137681   -0.000285050    0.000466772
     15        1           0.000667794   -0.000371773   -0.000144265
 -------------------------------------------------------------------
 Cartesian Forces:  Max     0.002331630 RMS     0.000829849

 GradGradGradGradGradGradGradGradGradGradGradGradGradGradGradGradGradGrad
 Berny optimization.
 Using GEDIIS/GDIIS optimizer.
 FormGI is forming the generalized inverse of G from B-inverse, IUseBI=4.
 Internal  Forces:  Max     0.002096859 RMS     0.000458246
 Search for a local minimum.
 Step number   3 out of a maximum of   75
 All quantities printed in internal units (Hartrees-Bohrs-Radians)
 Mixed Optimization -- En-DIIS/RFO-DIIS
 Update second derivatives using D2CorX and points    1    2    3
 DE= -3.12D-04 DEPred=-2.58D-04 R= 1.21D+00
 TightC=F SS=  1.41D+00  RLast= 1.03D-01 DXNew= 8.4853D-01 3.0842D-01
 Trust test= 1.21D+00 RLast= 1.03D-01 DXMaxT set to 5.05D-01
 ITU=  1  1  0
 Use linear search instead of GDIIS.
     Eigenvalues ---    0.00726   0.01410   0.01633   0.01796   0.02156
     Eigenvalues ---    0.02258   0.02275   0.02277   0.02304   0.02325
     Eigenvalues ---    0.06699   0.07776   0.11464   0.13822   0.14734
     Eigenvalues ---    0.16000   0.16009   0.16336   0.22039   0.23353
     Eigenvalues ---    0.24159   0.24733   0.24990   0.25885   0.33245
     Eigenvalues ---    0.34239   0.34334   0.35641   0.35859   0.42012
     Eigenvalues ---    0.44273   0.44761   0.49353   0.49894   0.52756
     Eigenvalues ---    0.53058   0.53251   0.53865   0.57937
 RFO step:  Lambda=-9.93185073D-05 EMin= 7.25737636D-03
 Quartic linear search produced a step of  0.29050.
 Iteration  1 RMS(Cart)=  0.01703529 RMS(Int)=  0.00022383
 Iteration  2 RMS(Cart)=  0.00024216 RMS(Int)=  0.00000274
 Iteration  3 RMS(Cart)=  0.00000008 RMS(Int)=  0.00000274
 Variable       Old X    -DE/DX   Delta X   Delta X   Delta X     New X
                                 (Linear)    (Quad)   (Total)
    R1        2.69409  -0.00092  -0.00256  -0.00117  -0.00374   2.69035
    R2        1.81801   0.00067  -0.00041   0.00121   0.00080   1.81880
    R3        2.84383  -0.00034   0.00177  -0.00147   0.00030   2.84413
    R4        2.07355   0.00014  -0.00009   0.00069   0.00060   2.07415
    R5        2.08075  -0.00030   0.00011  -0.00076  -0.00065   2.08010
    R6        2.63378   0.00064   0.00082   0.00164   0.00246   2.63624
    R7        2.62779  -0.00067   0.00232  -0.00278  -0.00046   2.62733
    R8        2.52069  -0.00013  -0.00241  -0.00027  -0.00268   2.51801
    R9        2.05494  -0.00008   0.00115  -0.00064   0.00051   2.05546
   R10        2.50952   0.00210  -0.00188   0.00427   0.00239   2.51191
   R11        2.51056  -0.00035  -0.00358  -0.00030  -0.00388   2.50669
   R12        2.64337   0.00084   0.00235   0.00183   0.00418   2.64755
   R13        2.05857  -0.00010   0.00108  -0.00037   0.00071   2.05928
   R14        2.55771  -0.00152  -0.00252  -0.00329  -0.00582   2.55189
   R15        1.82106   0.00047  -0.00008   0.00068   0.00060   1.82166
    A1        1.87888   0.00033  -0.00024   0.00324   0.00301   1.88188
    A2        1.87730   0.00075  -0.00007   0.00391   0.00384   1.88114
    A3        1.94307  -0.00022  -0.00066   0.00017  -0.00049   1.94258
    A4        1.94163  -0.00021  -0.00099   0.00123   0.00024   1.94187
    A5        1.91269  -0.00024  -0.00064  -0.00238  -0.00303   1.90966
    A6        1.90381  -0.00018   0.00075  -0.00227  -0.00152   1.90229
    A7        1.88510   0.00009   0.00162  -0.00079   0.00082   1.88592
    A8        2.12836   0.00008   0.00050   0.00121   0.00170   2.13006
    A9        2.14604  -0.00062   0.00016  -0.00281  -0.00266   2.14339
   A10        2.00824   0.00054  -0.00060   0.00169   0.00109   2.00933
   A11        2.19252  -0.00018  -0.00044   0.00051   0.00007   2.19259
   A12        2.08766  -0.00022  -0.00326  -0.00166  -0.00492   2.08274
   A13        2.00300   0.00040   0.00370   0.00116   0.00486   2.00786
   A14        2.06805  -0.00028   0.00151  -0.00213  -0.00062   2.06742
   A15        2.08906  -0.00005   0.00048   0.00038   0.00085   2.08991
   A16        2.16137   0.00002   0.00023   0.00068   0.00091   2.16227
   A17        2.01373   0.00056   0.00300   0.00336   0.00636   2.02010
   A18        2.10808  -0.00058  -0.00322  -0.00404  -0.00727   2.10082
   A19        2.04710  -0.00005  -0.00116  -0.00112  -0.00228   2.04482
   A20        2.08943   0.00021   0.00199   0.00061   0.00260   2.09203
   A21        2.14656  -0.00016  -0.00083   0.00055  -0.00029   2.14628
   A22        1.91143   0.00011   0.00262  -0.00057   0.00205   1.91349
    D1        3.00107   0.00004   0.00131   0.00467   0.00598   3.00705
    D2        0.90542  -0.00001   0.00254   0.00501   0.00754   0.91296
    D3       -1.19815   0.00016   0.00161   0.00506   0.00667  -1.19149
    D4        1.52664   0.00025   0.00835   0.02920   0.03755   1.56419
    D5       -1.57798   0.00019   0.00638   0.02614   0.03252  -1.54546
    D6       -2.64174   0.00030   0.00713   0.03039   0.03751  -2.60423
    D7        0.53683   0.00024   0.00516   0.02733   0.03249   0.56932
    D8       -0.58129   0.00016   0.00915   0.02671   0.03586  -0.54543
    D9        2.59728   0.00010   0.00718   0.02365   0.03084   2.62812
   D10       -3.11387  -0.00002  -0.00494  -0.00038  -0.00533  -3.11920
   D11        0.03202  -0.00004  -0.00386  -0.00259  -0.00645   0.02556
   D12       -0.00653   0.00001  -0.00310   0.00236  -0.00074  -0.00727
   D13        3.13936  -0.00001  -0.00202   0.00015  -0.00187   3.13749
   D14        3.11616   0.00002   0.00265   0.00074   0.00339   3.11955
   D15       -0.03936   0.00007   0.00230   0.00369   0.00598  -0.03338
   D16        0.00920  -0.00003   0.00078  -0.00212  -0.00133   0.00787
   D17        3.13687   0.00002   0.00043   0.00082   0.00126   3.13813
   D18        0.00234  -0.00002   0.00262  -0.00207   0.00055   0.00290
   D19        3.13982   0.00001   0.00157   0.00004   0.00162   3.14144
   D20       -0.00118   0.00003   0.00029   0.00153   0.00182   0.00064
   D21        0.00480  -0.00004  -0.00252  -0.00158  -0.00411   0.00069
   D22       -3.13878  -0.00001  -0.00196  -0.00069  -0.00265  -3.14143
   D23       -0.00907   0.00004   0.00190   0.00192   0.00382  -0.00525
   D24       -3.13624  -0.00000   0.00225  -0.00113   0.00112  -3.13512
   D25        3.13461   0.00001   0.00130   0.00098   0.00228   3.13690
   D26        0.00744  -0.00004   0.00165  -0.00207  -0.00042   0.00702
   D27        3.08817   0.00051   0.01326   0.02573   0.03899   3.12717
   D28       -0.06818   0.00056   0.01288   0.02884   0.04172  -0.02645
         Item               Value     Threshold  Converged?
 Maximum Force            0.002097     0.000450     NO 
 RMS     Force            0.000458     0.000300     NO 
 Maximum Displacement     0.058640     0.001800     NO 
 RMS     Displacement     0.017028     0.001200     NO 
 Predicted change in Energy=-6.766092D-05
 GradGradGradGradGradGradGradGradGradGradGradGradGradGradGradGradGradGrad

                          Input orientation:                          
 ---------------------------------------------------------------------
 Center     Atomic      Atomic             Coordinates (Angstroms)
 Number     Number       Type             X           Y           Z
 ---------------------------------------------------------------------
      1          8           0        1.064728    0.040966   -0.059124
      2          6           0        2.487998    0.064065   -0.034324
      3          6           0        2.970816    0.169455   -1.455926
      4          6           0        3.180309    1.400876   -2.077089
      5          7           0        3.581920    1.577149   -3.335311
      6          7           0        3.806095    0.502627   -4.085006
      7          6           0        3.626803   -0.707184   -3.571425
      8          6           0        3.204728   -0.942943   -2.256458
      9          8           0        3.035094   -2.183335   -1.750259
     10          1           0        0.757565   -0.148461    0.833129
     11          1           0        2.893690   -0.847955    0.422119
     12          1           0        2.863303    0.927226    0.536403
     13          1           0        3.013617    2.316690   -1.514424
     14          1           0        3.829450   -1.541205   -4.242876
     15          1           0        3.223495   -2.839499   -2.430858
 ---------------------------------------------------------------------
                    Distance matrix (angstroms):
                    1          2          3          4          5
     1  O    0.000000
     2  C    1.423673   0.000000
     3  C    2.366587   1.505049   0.000000
     4  C    3.224472   2.537568   1.395038   0.000000
     5  N    4.407892   3.792440   2.426342   1.332473   0.000000
     6  N    4.892438   4.282259   2.778626   2.286961   1.329246
     7  C    4.411373   3.795101   2.382049   2.622273   2.296942
     8  C    3.221172   2.542764   1.390323   2.350800   2.767139
     9  O    3.419034   2.880027   2.372001   3.602010   4.117359
    10  H    0.962470   1.947316   3.199894   4.091394   5.322650
    11  H    2.089708   1.097591   2.137317   3.374231   4.524717
    12  H    2.091646   1.100741   2.134280   2.674917   3.991112
    13  H    3.330914   2.746142   2.148458   1.087701   2.045854
    14  H    5.258396   4.699818   3.380932   3.710506   3.257157
    15  H    4.310739   3.836016   3.173034   4.255327   4.522531
                    6          7          8          9         10
     6  N    0.000000
     7  C    1.326482   0.000000
     8  C    2.407261   1.401024   0.000000
     9  O    3.641412   2.417807   1.350402   0.000000
    10  H    5.822843   5.286284   4.020617   4.000218   0.000000
    11  H    4.792779   4.062717   2.698248   2.553911   2.285006
    12  H    4.735670   4.486478   3.378488   3.864444   2.383125
    13  H    3.244494   3.708243   3.348485   4.506252   4.083840
    14  H    2.050053   1.089726   2.166576   2.693784   6.094427
    15  H    3.774313   2.451595   1.904650   0.963982   4.896541
                   11         12         13         14         15
    11  H    0.000000
    12  H    1.779115   0.000000
    13  H    3.712083   2.481753   0.000000
    14  H    4.808162   5.465171   4.795142   0.000000
    15  H    3.494925   4.808596   5.241201   2.310013   0.000000
 Stoichiometry    C5H6N2O2
 Framework group  C1[X(C5H6N2O2)]
 Deg. of freedom    39
 Full point group                 C1      NOp   1
 Largest Abelian subgroup         C1      NOp   1
 Largest concise Abelian subgroup C1      NOp   1
                         Standard orientation:                         
 ---------------------------------------------------------------------
 Center     Atomic      Atomic             Coordinates (Angstroms)
 Number     Number       Type             X           Y           Z
 ---------------------------------------------------------------------
      1          8           0       -2.513273   -0.484608    0.758052
      2          6           0       -1.873333   -0.387300   -0.509959
      3          6           0       -0.390497   -0.292590   -0.270384
      4          6           0        0.420629   -1.424964   -0.193352
      5          7           0        1.732624   -1.425531    0.039354
      6          7           0        2.344284   -0.259307    0.220156
      7          6           0        1.644328    0.866188    0.166512
      8          6           0        0.264948    0.917604   -0.073356
      9          8           0       -0.428303    2.075028   -0.131304
     10          1           0       -3.462914   -0.422350    0.614338
     11          1           0       -2.211443    0.500201   -1.060169
     12          1           0       -2.080148   -1.272672   -1.130424
     13          1           0       -0.022596   -2.408385   -0.333093
     14          1           0        2.210759    1.783773    0.323661
     15          1           0        0.164139    2.816300    0.038370
 ---------------------------------------------------------------------
 Rotational constants (GHZ):           2.7307530           1.4575678           1.0191005
 Standard basis: 6-31G(2df,p) (6D, 7F)
 There are   309 symmetry adapted cartesian basis functions of A   symmetry.
 There are   282 symmetry adapted basis functions of A   symmetry.
   282 basis functions,   438 primitive gaussians,   309 cartesian basis functions
    33 alpha electrons       33 beta electrons
       nuclear repulsion energy       434.7280426342 Hartrees.
 NAtoms=   15 NActive=   15 NUniq=   15 SFac= 1.00D+00 NAtFMM=   60 NAOKFM=F Big=F
 Integral buffers will be    131072 words long.
 Raffenetti 2 integral format.
 Two-electron integral symmetry is turned on.
 One-electron integrals computed using PRISM.
 PrsmSu:  requested number of processors reduced to:  13 ShMem   1 Linda.
 NBasis=   282 RedAO= T EigKep=  1.13D-04  NBF=   282
 NBsUse=   282 1.00D-06 EigRej= -1.00D+00 NBFU=   282
 Initial guess from the checkpoint file:  "OCc1cnncc1O.chk"
 B after Tr=    -0.000000   -0.000000   -0.000000
         Rot=    0.999984    0.003885    0.000423   -0.004007 Ang=   0.64 deg.
 ExpMin= 1.61D-01 ExpMax= 5.48D+03 ExpMxC= 8.25D+02 IAcc=2 IRadAn=         4 AccDes= 0.00D+00
 Harris functional with IExCor=  402 and IRadAn=       4 diagonalized for initial guess.
 HarFok:  IExCor=  402 AccDes= 0.00D+00 IRadAn=         4 IDoV= 1 UseB2=F ITyADJ=14
 ICtDFT=  3500011 ScaDFX=  1.000000  1.000000  1.000000  1.000000
 FoFCou: FMM=F IPFlag=           0 FMFlag=      100000 FMFlg1=           0
         NFxFlg=           0 DoJE=T BraDBF=F KetDBF=T FulRan=T
         wScrn=  0.000000 ICntrl=       500 IOpCl=  0 I1Cent=   200000004 NGrid=           0
         NMat0=    1 NMatS0=      1 NMatT0=    0 NMatD0=    1 NMtDS0=    0 NMtDT0=    0
 Petite list used in FoFCou.
 Requested convergence on RMS density matrix=1.00D-08 within 128 cycles.
 Requested convergence on MAX density matrix=1.00D-06.
 Requested convergence on             energy=1.00D-06.
 No special actions if energy rises.
 Integral accuracy reduced to 1.0D-05 until final iterations.
 Initial convergence to 1.0D-05 achieved.  Increase integral accuracy.
 SCF Done:  E(RB3LYP) =  -454.064944796     A.U. after   10 cycles
            NFock= 10  Conv=0.83D-08     -V/T= 2.0068
 PrsmSu:  requested number of processors reduced to:  13 ShMem   1 Linda.
 Calling FoFJK, ICntrl=      2127 FMM=F ISym2X=0 I1Cent= 0 IOpClX= 0 NMat=1 NMatS=1 NMatT=0.
 ***** Axes restored to original set *****
 -------------------------------------------------------------------
 Center     Atomic                   Forces (Hartrees/Bohr)
 Number     Number              X              Y              Z
 -------------------------------------------------------------------
      1        8           0.000048352   -0.000241805   -0.000142790
      2        6          -0.000106990    0.000202504   -0.000690712
      3        6           0.000160585   -0.000501917   -0.000174764
      4        6          -0.000126296   -0.000153826    0.000938207
      5        7          -0.000097507    0.001591800    0.000562172
      6        7           0.000325122   -0.000970679   -0.001430156
      7        6          -0.000224521   -0.000770807    0.000420922
      8        6          -0.000174179    0.000932994    0.000262943
      9        8          -0.000455683   -0.000166634    0.000191035
     10        1           0.000005924    0.000001689    0.000176429
     11        1           0.000245403   -0.000000152    0.000202632
     12        1          -0.000108195   -0.000031851    0.000029137
     13        1           0.000173159   -0.000051607   -0.000279142
     14        1           0.000067907    0.000275649    0.000011097
     15        1           0.000266919   -0.000115358   -0.000077011
 -------------------------------------------------------------------
 Cartesian Forces:  Max     0.001591800 RMS     0.000478025

 GradGradGradGradGradGradGradGradGradGradGradGradGradGradGradGradGradGrad
 Berny optimization.
 Using GEDIIS/GDIIS optimizer.
 FormGI is forming the generalized inverse of G from B-inverse, IUseBI=4.
 Internal  Forces:  Max     0.001647464 RMS     0.000285583
 Search for a local minimum.
 Step number   4 out of a maximum of   75
 All quantities printed in internal units (Hartrees-Bohrs-Radians)
 Mixed Optimization -- En-DIIS/RFO-DIIS
 Swapping is turned off.
 Update second derivatives using D2CorX and points    1    2    3    4
 DE= -9.44D-05 DEPred=-6.77D-05 R= 1.40D+00
 TightC=F SS=  1.41D+00  RLast= 1.05D-01 DXNew= 8.4853D-01 3.1536D-01
 Trust test= 1.40D+00 RLast= 1.05D-01 DXMaxT set to 5.05D-01
 ITU=  1  1  1  0
     Eigenvalues ---    0.00359   0.01417   0.01642   0.01850   0.02164
     Eigenvalues ---    0.02258   0.02275   0.02285   0.02310   0.02342
     Eigenvalues ---    0.06673   0.07803   0.11606   0.13842   0.15989
[...]
 ! D22   D(5,6,7,14)          -179.8104         -DE/DX =    0.0                 !
 ! D23   D(6,7,8,3)              0.0102         -DE/DX =    0.0                 !
 ! D24   D(6,7,8,9)           -179.142          -DE/DX =    0.0                 !
 ! D25   D(14,7,8,3)           179.871          -DE/DX =    0.0                 !
 ! D26   D(14,7,8,9)             0.7188         -DE/DX =    0.0                 !
 ! D27   D(3,8,9,15)          -179.2621         -DE/DX =    0.0                 !
 ! D28   D(7,8,9,15)            -0.1303         -DE/DX =    0.0                 !
 --------------------------------------------------------------------------------
 GradGradGradGradGradGradGradGradGradGradGradGradGradGradGradGradGradGrad


 ----------------------------------------------------------------------

 Electric dipole moment (input orientation):
 (Debye = 10**-18 statcoulomb cm , SI units = C m)
                  (au)            (Debye)         (10**-30 SI)
   Tot        0.189989D+01      0.482903D+01      0.161079D+02
   x         -0.108640D+00     -0.276136D+00     -0.921091D+00
   y         -0.134166D+01     -0.341015D+01     -0.113750D+02
   z          0.134079D+01      0.340796D+01      0.113677D+02

 Dipole polarizability, Alpha (input orientation).
 (esu units = cm**3 , SI units = C**2 m**2 J**-1)
 Alpha(0;0):
               (au)            (10**-24 esu)      (10**-40 SI)
   iso        0.704999D+02      0.104470D+02      0.116239D+02
   aniso      0.457648D+02      0.678164D+01      0.754559D+01
   xx         0.467979D+02      0.693474D+01      0.771594D+01
   yx         0.336406D+01      0.498503D+00      0.554659D+00
   yy         0.826778D+02      0.122516D+02      0.136317D+02
   zx        -0.162233D+02     -0.240405D+01     -0.267486D+01
   zy         0.147645D+01      0.218787D+00      0.243433D+00
   zz         0.820240D+02      0.121547D+02      0.135239D+02

 ----------------------------------------------------------------------

 Dipole orientation:
     8          2.05418123         -0.40014632          0.03957501
     6          4.66069483         -0.00639386         -0.48499752
     6          5.43269146         -1.80164166         -2.54736805
     6          5.85819167         -1.01756175         -5.02595166
     7          6.52635824         -2.51005281         -6.94392619
     7          6.81280637         -4.96887940         -6.50383601
     6          6.43920093         -5.86891341         -4.19165268
     6          5.74306266         -4.37616042         -2.12101803
     8          5.40193127         -5.31879215          0.22430343
     1          1.66782620          0.43358191          1.60865537
     1          5.82364301         -0.36172366          1.19950141
     1          5.02364651          1.94419232         -1.10858073
     1          5.65174874          0.96932614         -5.50788895
     1          6.71344597         -7.89716460         -3.97066231
     1          5.70592337         -7.11547668          0.21108726

 Electric dipole moment (dipole orientation):
 (Debye = 10**-18 statcoulomb cm , SI units = C m)
                  (au)            (Debye)         (10**-30 SI)
   Tot        0.189989D+01      0.482903D+01      0.161079D+02
   x          0.000000D+00      0.000000D+00      0.000000D+00
   y          0.000000D+00      0.000000D+00      0.000000D+00
   z          0.189989D+01      0.482903D+01      0.161079D+02

 Dipole polarizability, Alpha (dipole orientation).
 (esu units = cm**3 , SI units = C**2 m**2 J**-1)
 Alpha(0;0):
               (au)            (10**-24 esu)      (10**-40 SI)
   iso        0.704999D+02      0.104470D+02      0.116239D+02
   aniso      0.457648D+02      0.678164D+01      0.754559D+01
   xx         0.449184D+02      0.665622D+01      0.740605D+01
   yx        -0.817830D+01     -0.121190D+01     -0.134842D+01
   yy         0.842370D+02      0.124826D+02      0.138888D+02
   zx        -0.118036D+02     -0.174911D+01     -0.194615D+01
   zy         0.472905D+00      0.700773D-01      0.779715D-01
   zz         0.823443D+02      0.122022D+02      0.135767D+02

 ----------------------------------------------------------------------
 1\1\GINC-LEWIS4-Z10PH-HPC3-NODE401\Freq\RB3LYP\6-31G(2df,p)\C5H6N2O2\K
 S29C\04-Aug-2022\0\\#N Geom=AllCheck Guess=TCheck SCRF=Check GenChk RB
 3LYP/6-31G(2df,p) Freq\\Title Card Required\\0,1\O,1.0887574473,-0.190
 3644487,-0.0725934879\C,2.476361547,0.1204582016,-0.0424816617\C,2.968
 9983392,0.2092189606,-1.4601893599\C,3.2589101984,1.4237288338,-2.0799
 418577\N,3.6885456132,1.5732029575,-3.3337284275\N,3.8573231704,0.4844
 070764,-4.0795533321\C,3.6013080503,-0.7119913097,-3.5637042892\C,3.15
 22762959,-0.9180648992,-2.25365497\O,2.9129436578,-2.1432050139,-1.740
 3662183\H,0.8267745759,-0.4596746159,0.8132504195\H,3.0440665367,-0.65
 66548929,0.4890047511\H,2.6624923001,1.0793694801,0.4645422579\H,3.139
 566971,2.350435029,-1.5236839531\H,3.7648761847,-1.5575221414,-4.23081
 89265\H,3.0964091121,-2.8148732172,-2.4075109446\\Version=ES64L-G16Rev
 A.03\State=1-A\HF=-454.0652023\RMSD=3.154e-09\RMSF=1.715e-05\ZeroPoint
 =0.1132547\Thermal=0.1213162\Dipole=-0.1086404,-1.3416567,1.340794\Dip
 oleDeriv=-0.8747589,-0.091489,0.1906443,-0.0901604,-0.4432775,-0.00163
 15,0.0938335,-0.0461771,-0.3631986,0.797559,0.0988522,-0.1800563,0.080
 7956,0.4062804,0.0386675,-0.1075333,0.0491552,0.5151032,-0.0398527,0.0
 110332,-0.0715946,-0.036963,-0.3514869,0.0378667,-0.0127121,-0.1216464
 ,-0.0021221,0.0874788,-0.012446,-0.026682,0.0336274,0.3863662,-0.01503
 96,-0.0298116,0.0952363,0.1726117,-0.23419,0.0369878,0.029503,-0.03534
 91,-0.4243606,0.0714662,0.0157237,-0.1682615,-0.2907028,-0.2381439,0.0
 077479,0.00942,0.0402987,0.1271905,-0.0562752,0.0204735,0.0524716,-0.2
 720143,0.0298941,-0.1450264,-0.0258821,-0.0405873,-0.0278665,0.111606,
 -0.0170139,0.4421369,0.1481886,0.2127752,0.2292804,-0.0307798,0.144312
 5,1.1855665,-0.2906141,-0.0117863,-0.5154132,0.1208437,-0.3479481,-0.1
 860759,-0.0138056,-0.1308333,-1.2505433,0.253719,-0.0054201,0.4123884,
 -0.2690659,0.2666481,-0.0040898,0.0024451,-0.0076405,0.3036174,0.02195
 04,0.0116108,0.0388717,0.1161151,-0.0911986,0.0410496,0.0212565,0.0657
 748,-0.0486906,0.1146191,-0.0243015,0.0398065,-0.0608104,-0.0445971,-0
 .0447883,0.019543,-0.0650862,-0.1380006,-0.1138185,-0.0106203,-0.05036
 22,-0.0323494,0.08149,0.0199983,0.0142295,0.0196343,-0.0140565,-0.0766
 892,0.0152221,-0.0888865,0.0106108,0.088881,0.0089542,0.0166547,0.0146
 15,-0.0903337,-0.0785002,0.0164291,-0.0649192,0.0327308,0.3059633,0.03
 00117,0.0451044,0.0075615,0.3795955,-0.0173264,0.0459064,-0.0744005,0.
 1740596\Polar=46.7979271,3.3640629,82.677814,-16.2233215,1.4764462,82.
 0239809\Quadrupole=-2.9963412,2.4789304,0.5174107,-2.1749683,0.6243778
 ,6.6310347\PG=C01 [X(C5H6N2O2)]\NImag=0\\0.36710273,0.10096725,0.10089
 069,-0.10210442,-0.13942558,0.52932982,-0.21228159,-0.04233029,0.01687
 207,0.44857833,-0.02676158,-0.07010510,0.00923068,-0.02162002,0.585380
 22,-0.04088702,-0.00297651,-0.08922121,0.01959319,0.00389363,0.5323649
 2,-0.02331549,-0.00922246,0.03935301,-0.07676873,0.00132027,0.03034032
 ,0.22708799,-0.00754466,0.00243129,0.01118002,0.00015245,-0.09281417,0
 .00099521,0.03638486,0.68519397,0.01527147,0.00470729,-0.00045443,0.03
 439215,-0.00053354,-0.20001540,-0.15234416,0.01261107,0.61554639,-0.00
 044465,0.00010848,0.00083636,0.00055753,-0.00989916,0.00599154,-0.0817
 9492,-0.02717100,0.03707613,0.20910964,0.00322913,-0.00009991,-0.00222
 148,-0.00292589,0.00454887,0.00790684,-0.04865312,-0.27950569,0.098651
 38,0.02314925,0.72720687,-0.00079195,0.00032203,-0.00136678,0.00702414
 ,0.02775149,-0.01772716,0.03292389,0.03276577,-0.15473328,-0.15419733,
 0.05254688,0.62662949,0.00035213,0.00072171,-0.00205179,0.00867627,-0.
 00293061,0.00299805,0.01616722,-0.02886064,0.01737648,-0.09536816,-0.0
 1076412,0.07696568,0.14323029,-0.00020284,0.00020587,0.00045152,-0.001
 00171,-0.00543685,0.00139567,-0.01237543,0.02957050,0.03429656,-0.0204
 0662,-0.14029766,0.04833934,0.00963847,0.44681034,0.00226949,0.0004698
 8,-0.00175193,-0.00019904,0.00280087,0.00660304,0.02154324,0.09043377,
 -0.02361466,0.07496318,0.01575423,-0.28825655,-0.12791644,0.04660360,0
 .49443176,-0.00062987,-0.00035073,0.00155445,-0.00399312,0.00055263,-0
 .00277837,-0.00918367,0.00145424,-0.00463692,0.01735535,0.01201932,0.0
 2448615,-0.08490986,0.01682163,0.02009790,0.13137869,-0.00095864,-0.00
 004171,0.00094446,0.00101261,-0.00257476,-0.00236392,-0.00303678,-0.07
 270602,-0.00037622,0.03271814,0.02620836,-0.10016094,0.01610486,-0.218
 57288,-0.07998956,0.02867932,0.56229452,0.00008855,0.00000999,0.000018
 56,-0.00158723,-0.00012718,-0.00051492,-0.00701863,-0.01834952,0.00458
 763,0.02950428,-0.03455794,-0.07036480,0.01977489,-0.08272950,-0.15767
 589,-0.09746044,0.01452698,0.39383189,0.00113964,0.00046163,-0.0025826
 9,0.00696817,0.00031122,0.00401261,0.00618360,0.01967086,0.00912585,-0
 .01918307,-0.00356579,0.01220777,0.02725678,-0.01359036,-0.01460322,-0
 .07521209,-0.03540838,0.04199033,0.18971071,0.00032053,0.00064961,0.00
 030731,-0.00057371,-0.00462477,-0.00258545,0.01042405,0.04647318,-0.02
 319385,-0.01597716,-0.01978539,0.04719252,0.00777585,-0.10873623,-0.05
 084401,-0.04648519,-0.28698435,0.09100068,0.02319541,0.72108415,-0.000
 73168,-0.00020979,0.00072315,0.00218300,-0.00465032,-0.00003911,0.0089
 5058,-0.05085636,-0.02594654,0.00863379,0.00905727,-0.04146390,-0.0098
 4549,0.01368535,0.05599329,0.03968275,0.05795816,-0.16518197,-0.159189
 79,0.05195599,0.62555687,-0.00003780,-0.00060646,-0.00063517,0.0061292
 4,0.00997800,0.00680080,-0.08275396,0.01381253,0.03458613,0.00797755,0
 .00347934,-0.02211951,-0.01522437,0.01500097,0.01620291,0.01564302,-0.
 03618122,0.01224105,-0.09637443,0.01062043,0.06890926,0.21517597,-0.00
 410196,-0.00488288,0.00128850,0.00504489,0.01115679,-0.00903581,0.0331
 1317,-0.23789807,-0.13102269,-0.00872477,-0.06145838,0.01430921,0.0112
 1748,-0.00501234,-0.03272632,-0.01536669,0.01939292,0.04542316,-0.0159
 5951,-0.12745572,0.03763278,0.02821519,0.73645985,0.00054415,0.0016042
 1,-0.00033239,0.00460395,-0.02622160,-0.01803948,0.03707487,-0.0728021
 2,-0.20223168,-0.02427083,-0.02382246,0.07220474,0.01576838,-0.0450249
 8,-0.06797127,0.01665406,0.11030469,-0.00557215,0.06331732,-0.04293010
 ,-0.27216595,-0.15512481,0.02226582,0.63985442,0.00060253,0.00133795,0
 .00126501,-0.00455172,0.00035435,-0.00118572,0.00841189,0.00191749,-0.
 00297984,0.00695128,0.00141760,0.00429364,-0.00397705,-0.00183966,-0.0
 0245458,0.00602902,0.00327367,0.00450813,0.00547592,-0.01927998,0.0089
 1872,-0.05963340,-0.03153783,0.03570758,0.06969702,0.00297430,0.002322
 37,-0.00188257,-0.00386459,-0.00064726,0.00698912,-0.00836333,-0.06124
 601,0.00979359,0.00320849,0.00781035,-0.00930199,-0.00224627,-0.005686
 08,0.00604941,0.00068866,0.00608725,-0.00132942,-0.00735177,-0.0261293
 9,0.01447733,-0.04678120,-0.28550935,0.09891784,-0.00802070,0.61039959
 ,-0.00054575,-0.00149628,0.00061213,-0.00108102,0.00011107,-0.00239794
 ,-0.00433755,-0.02000248,0.01960180,0.00441754,-0.00398689,-0.00740530
 ,-0.00263163,0.00577288,0.00477068,0.00401712,-0.01115914,-0.00699978,
 0.01138500,0.05269626,-0.01524544,0.03300646,0.05243213,-0.13785077,-0
 .12002357,0.12555243,0.41558198,-0.06798002,-0.03419074,0.07881027,-0.
 01913794,-0.01331632,0.04275852,-0.00765074,-0.00208781,-0.00077063,-0
 .00047840,0.00039713,0.00058671,0.00061136,-0.00003872,0.00040166,-0.0
 0042133,-0.00027423,-0.00007042,0.00066838,0.00003959,-0.00015917,-0.0
 0010921,-0.00094353,0.00072208,-0.00013556,0.00060180,-0.00055097,0.09
 209665,-0.04767303,-0.04260950,0.12675713,-0.00057294,-0.00356560,0.00
 824416,-0.00045174,0.00012079,-0.00033577,0.00008050,0.00009695,0.0001
 5826,0.00006111,-0.00008918,-0.00032881,0.00001222,0.00034807,-0.00000
 042,-0.00009740,-0.00043112,0.00048914,-0.00008270,0.00058614,-0.00095
 515,-0.00030232,-0.00045234,0.00043856,0.04910702,0.04474897,0.1328113
 5,0.13755715,-0.44721557,-0.00980086,-0.00270275,0.00059157,0.00194689
 ,0.00036910,-0.00056945,0.00017966,-0.00062085,0.00074509,-0.00009505,
 -0.00029016,-0.00037538,0.00013505,0.00031869,0.00006873,-0.00023945,0
 .00002664,0.00024486,0.00019143,0.00089103,-0.00007465,-0.00021299,-0.
 00035066,0.00033314,-0.12169758,-0.13409773,0.44495967,-0.03935390,0.0
 1871843,-0.01641150,-0.10038200,0.08228518,-0.05368057,0.00707990,-0.0
 0715178,0.00555024,-0.00007249,0.00004784,0.00141213,-0.00117042,0.000
 12140,0.00015462,0.00033275,-0.00048572,0.00046306,-0.00034883,-0.0002
 1891,-0.00075092,-0.00015259,0.00010502,0.00047987,0.00034509,0.000323
 31,0.00000153,0.00197153,0.00025261,-0.00180032,0.12683184,-0.00671347
 ,0.01137957,-0.00609812,0.08727567,-0.18413172,0.08584239,-0.00097051,
 -0.00014163,0.00208096,0.00045732,0.00006715,0.00061308,-0.00024667,0.
 00021675,0.00009821,-0.00008373,0.00002893,0.00004934,0.00021295,-0.00
 005835,0.00032816,-0.00067137,-0.00105905,-0.00054417,-0.00020456,0.00
 054657,-0.00083553,0.00117841,0.00150003,-0.00060151,-0.09331340,0.191
 50992,-0.00211737,0.00005334,0.00401152,-0.05729299,0.08286252,-0.1088
 9417,-0.01264873,0.02415155,-0.01756454,0.00033048,-0.00222352,-0.0043
 9631,0.00173348,0.00089537,-0.00027809,-0.00062462,0.00068572,-0.00039
 695,0.00063180,-0.00004338,0.00146208,0.00110011,0.00353894,-0.0006472
 1,-0.00098212,-0.00221919,0.00113583,0.00026928,-0.00123917,0.00116638
 ,0.06305118,-0.09484502,0.11572370,-0.02441251,-0.03533915,-0.01553596
 ,-0.05049970,-0.02078071,-0.01248124,0.00272101,0.00830814,0.00521437,
 -0.00019687,0.00054834,-0.00012693,-0.00009924,-0.00010742,-0.00001126
 ,0.00013559,0.00013413,0.00001565,-0.00028070,0.00051680,0.00031631,0.
 00035239,-0.00045317,0.00156648,0.00000580,0.00010031,0.00040561,0.000
 65658,-0.00037684,-0.00143142,0.00474665,0.01252366,0.00669685,0.06690
 959,-0.01355331,-0.00058010,-0.00093157,-0.02115955,-0.23774109,-0.096
 59072,0.00142242,0.00169874,0.00162416,-0.00053468,-0.00004244,0.00218
 067,0.00036473,0.00052022,-0.00078618,-0.00005600,0.00044870,0.0003063
 1,-0.00030677,-0.00018480,0.00013610,-0.00067010,-0.00062637,0.0007785
 7,0.00029114,0.00053207,-0.00049310,-0.00045261,-0.00021075,-0.0005301
 0,-0.00066196,-0.02031732,-0.01158223,0.03519242,0.25582748,-0.0035433
 7,-0.00020268,0.00557841,-0.01323848,-0.09271101,-0.10385456,-0.001046
 87,-0.02878287,-0.01758321,-0.00048637,-0.00305002,0.00153485,-0.00004
 763,0.00024130,0.00003064,-0.00005485,0.00047394,0.00013861,0.00018697
 ,-0.00183427,-0.00004825,0.00167128,0.00280666,-0.00532949,-0.00008364
 ,0.00028555,0.00052821,-0.00022028,0.00087976,0.00007586,0.00135424,0.
 01390436,0.00839578,0.01532894,0.10648268,0.11096598,-0.00025438,-0.00
 027050,0.00052058,-0.00285278,0.00027128,-0.00163602,0.00686473,-0.005
 90706,-0.00216917,-0.04619851,0.02235544,0.01656690,-0.00649386,0.0103
 9787,0.00619308,0.00958333,-0.00036576,0.00513964,-0.00014154,-0.00052
 549,0.00038679,0.00624426,-0.00143231,0.00285150,0.00007318,-0.0003808
 8,-0.00034580,-0.00015380,-0.00007992,0.00001197,0.00024345,0.00025747
 ,-0.00018541,0.00013563,0.00013672,-0.00002361,0.03488281,0.00015955,0
 .00038311,0.00022791,0.00054299,0.00010555,-0.00227746,0.00311741,-0.0
 1971368,-0.01525961,0.02294186,-0.26278979,-0.11564250,0.00107857,0.00
 675639,-0.00067854,-0.00122059,0.00370834,0.00207975,-0.00043065,0.000
 00088,0.00127030,-0.00182308,-0.00240891,0.00341827,0.00029140,-0.0013
 3316,-0.00112341,-0.00007622,-0.00006469,0.00004369,0.00003959,0.00041
 785,0.00017906,-0.00013679,0.00057304,0.00141055,-0.02461701,0.2747148
 6,-0.00034224,-0.00037107,0.00000519,-0.00093579,0.00171667,0.00150792
 ,0.00029618,0.01179075,0.00767000,0.01621056,-0.11433145,-0.11512993,0
 .00438360,-0.02840579,-0.02435057,0.00490417,-0.00060744,-0.00361763,0
 .00041527,0.00151502,-0.00084825,0.00268193,0.00234621,-0.00056730,-0.
 00020404,0.00067345,0.00075477,-0.00001649,0.00007667,0.00000675,0.000
 11358,-0.00002984,-0.00011971,-0.00018456,-0.00052186,0.00001697,-0.02
 665448,0.12628869,0.13478225,-0.00019480,-0.00013734,0.00008999,-0.000
 20219,0.00066416,-0.00004242,0.00410993,-0.00103017,0.00324442,0.00037
 726,-0.00068574,0.00059521,0.01092943,-0.00234667,0.00316758,-0.005652
 98,-0.00582631,-0.00746556,-0.04503081,0.03218971,0.03386533,0.0039351
 1,0.00803129,0.00645896,-0.00178001,0.00060785,-0.00142891,-0.00002380
 ,0.00004470,-0.00000304,0.00003321,0.00000283,-0.00009140,-0.00016340,
 0.00001988,0.00017680,-0.00151332,0.00015663,-0.00059815,0.03526460,0.
 00017206,0.00008194,-0.00010104,-0.00021827,0.00023010,0.00050586,-0.0
 0062139,0.00155015,0.00116133,-0.00056484,-0.00077036,0.00144144,-0.00
 165331,-0.00181735,0.00199424,0.00316767,-0.03572634,-0.01539084,0.031
 70633,-0.19959963,-0.12923273,-0.00223103,0.00053919,0.00563302,0.0004
 8248,0.00486308,-0.00019384,0.00001333,-0.00003423,-0.00001808,0.00004
 892,0.00003320,-0.00011745,-0.00002608,0.00000622,0.00008503,0.0002774
 0,0.00000269,-0.00050992,-0.03116544,0.23074510,0.00014124,0.00016754,
 0.00005657,-0.00045459,-0.00163102,-0.00003626,0.00341578,0.00192503,-
 0.00453333,0.00065869,0.00171550,-0.00104496,0.00335543,0.00432842,0.0
 0305645,-0.00578236,0.01131709,0.01193381,0.03396125,-0.13069890,-0.16
 519128,0.00438301,-0.02476673,-0.01257884,-0.00143100,-0.00052326,0.00
 204159,-0.00000178,-0.00003239,0.00000898,-0.00003485,0.00004364,-0.00
 002657,0.00013834,0.00001921,-0.00050150,-0.00058250,-0.00006526,-0.00
 001298,-0.03821081,0.13659987,0.16791223,-0.00029203,0.00013224,0.0000
 1979,-0.00023977,-0.00042869,0.00019634,0.00284126,-0.00194744,0.00106
 350,0.00140848,-0.00004872,0.00017350,0.00001949,-0.00007093,0.0001908
 9,-0.00045483,0.00061433,-0.00012330,-0.00083174,-0.00202194,-0.001169
 49,-0.00117176,-0.00720727,-0.00635356,-0.02751398,0.06850402,0.077711
 92,0.00008632,0.00007873,0.00000435,-0.00010418,0.00029541,0.00012947,
 -0.00001081,-0.00003232,0.00002688,-0.00041919,-0.00002366,-0.00006953
 ,-0.00008823,0.00061216,0.00044413,0.02677097,-0.00031333,-0.00002525,
 0.00027283,0.00023836,0.00021978,0.00005698,-0.00208740,-0.00301336,0.
 00579534,0.00061419,-0.00118894,-0.00251525,-0.00026116,0.00156852,0.0
 0114920,0.00016724,-0.00191104,-0.00091141,0.00115222,0.00578192,-0.00
 204138,0.00794070,-0.04182383,-0.03062185,0.05181897,-0.25155769,-0.19
 771265,0.00004290,0.00005644,0.00000555,-0.00011053,0.00000810,-0.0000
 9653,-0.00010364,0.00009639,0.00001102,-0.00011724,-0.00035249,0.00036
 992,-0.00052537,-0.00010377,0.00160126,-0.05845592,0.29224521,-0.00006
 244,-0.00020952,0.00000696,-0.00007850,0.00021049,-0.00032724,0.001551
 18,0.00457108,-0.00015929,0.00015231,-0.00081749,0.00077479,0.00023207
 ,0.00044041,-0.00061154,-0.00019408,-0.00187252,-0.00025515,-0.0006190
 2,0.00743554,0.00215043,-0.00389487,0.01461712,0.01130202,0.07486440,-
 0.24713162,-0.27546090,-0.00006119,-0.00005423,0.00003402,0.00009770,-
 0.00000594,0.00042825,0.00008882,-0.00009195,0.00005172,-0.00007348,0.
 00012856,-0.00009750,0.00024201,-0.00185688,-0.00108391,-0.07224490,0.
 22463697,0.26324732\\0.00003909,0.00001359,0.00001051,-0.00005756,-0.0
 0001384,-0.00001083,0.00001325,-0.00000552,-0.00002851,-0.00000708,-0.
 00000269,0.00002090,-0.00000045,0.00003414,0.00001180,0.00000297,-0.00
 003845,-0.00001907,0.00000743,0.00001630,-0.00001404,-0.00002130,-0.00
 001773,0.00003284,0.00001316,0.00001629,-0.00000723,-0.00000346,-0.000
 00229,-0.00000116,0.00001004,0.00000187,0.00000661,0.00000563,0.000000
 66,0.00000382,0.00000208,-0.00000083,-0.00000442,0.00000064,-0.0000003
 7,0.00000168,-0.00000446,-0.00000114,-0.00000290\\\@


 Until you make peace with who you are,
 you'll never be content with what you have.
                           -- Doris Mortman
 Job cpu time:       0 days  1 hours 27 minutes 55.3 seconds.
 Elapsed time:       0 days  0 hours 21 minutes 59.5 seconds.
 File lengths (MBytes):  RWF=    104 Int=      0 D2E=      0 Chk=      8 Scr=      1
 Normal termination of Gaussian 16 at Thu Aug  4 16:35:15 2022.
### All Done ###
