### Starting Gaussian ###
 Entering Gaussian System, Link 0=g16
 Initial command:
 /cluster/software/gaussian/gaussian-16-A.03/avx2/g16/l1.exe "/local/scratch/ks29c/Gau-17184.inp" -scrdir="/local/scratch/ks29c/"
 Entering Link 1 = /cluster/software/gaussian/gaussian-16-A.03/avx2/g16/l1.exe PID=     17185.
  
 Copyright (c) 1988,1990,1992,1993,1995,1998,2003,2009,2016,
            Gaussian, Inc.  All Rights Reserved.
  
 This is part of the Gaussian(R) 16 program.  It is based on
 the Gaussian(R) 09 system (copyright 2009, Gaussian, Inc.),
 the Gaussian(R) 03 system (copyright 2003, Gaussian, Inc.),
 the Gaussian(R) 98 system (copyright 1998, Gaussian, Inc.),
 the Gaussian(R) 94 system (copyright 1995, Gaussian, Inc.),
 the Gaussian 92(TM) system (copyright 1992, Gaussian, Inc.),
 the Gaussian 90(TM) system (copyright 1990, Gaussian, Inc.),
 the Gaussian 88(TM) system (copyright 1988, Gaussian, Inc.),
 the Gaussian 86(TM) system (copyright 1986, Carnegie Mellon
 University), and the Gaussian 82(TM) system (copyright 1983,
 Carnegie Mellon University). Gaussian is a federally registered
 trademark of Gaussian, Inc.
  
 This software contains proprietary and confidential information,
 including trade secrets, belonging to Gaussian, Inc.
  
 This software is provided under written license and may be
 used, copied, transmitted, or stored only in accord with that
 written license.
  
 The following legend is applicable only to US Government
 contracts under FAR:
  
                    RESTRICTED RIGHTS LEGEND
  
 Use, reproduction and disclosure by the US Government is
 subject to restrictions as set forth in subparagraphs (a)
 and (c) of the Commercial Computer Software - Restricted
 Rights clause in FAR 52.227-19.
  
 Gaussian, Inc.
 340 Quinnipiac St., Bldg. 40, Wallingford CT 06492
  
  
 ---------------------------------------------------------------
 Warning -- This program may not be used in any manner that
 competes with the business of Gaussian, Inc. or will provide
 assistance to any competitor of Gaussian, Inc.  The licensee
 of this program is prohibited from giving any competitor of
 Gaussian, Inc. access to this program.  By using this program,
 the user acknowledges that Gaussian, Inc. is engaged in the
 business of creating and licensing software in the field of
 computational chemistry and represents and warrants to the
 licensee that it is not a competitor of Gaussian, Inc. and that
 it will not use this program in any manner prohibited above.
 ---------------------------------------------------------------
  

 Cite this work as:
 Gaussian 16, Revision A.03,
 M. J. Frisch, G. W. Trucks, H. B. Schlegel, G. E. Scuseria, 
 M. A. Robb, J. R. Cheeseman, G. Scalmani, V. Barone, 
 G. A. Petersson, H. Nakatsuji, X. Li, M. Caricato, A. V. Marenich, 
 J. Bloino, B. G. Janesko, R. Gomperts, B. Mennucci, H. P. Hratchian, 
 J. V. Ortiz, A. F. Izmaylov, J. L. Sonnenberg, D. Williams-Young, 
 F. Ding, F. Lipparini, F. Egidi, J. Goings, B. Peng, A. Petrone, 
 T. Henderson, D. Ranasinghe, V. G. Zakrzewski, J. Gao, N. Rega, 
 G. Zheng, W. Liang, M. Hada, M. Ehara, K. Toyota, R. Fukuda, 
 J. Hasegawa, M. Ishida, T. Nakajima, Y. Honda, O. Kitao, H. Nakai, 
 T. Vreven, K. Throssell, J. A. Montgomery, Jr., J. E. Peralta, 
 F. Ogliaro, M. J. Bearpark, J. J. Heyd, E. N. Brothers, K. N. Kudin, 
 V. N. Staroverov, T. A. Keith, R. Kobayashi, J. Normand, 
 K. Raghavachari, A. P. Rendell, J. C. Burant, S. S. Iyengar, 
 J. Tomasi, M. Cossi, J. M. Millam, M. Klene, C. Adamo, R. Cammi, 
 J. W. Ochterski, R. L. Martin, K. Morokuma, O. Farkas, 
 J. B. Foresman, and D. J. Fox, Gaussian, Inc., Wallingford CT, 2016.
 
 ******************************************
 Gaussian 16:  ES64L-G16RevA.03 25-Dec-2016
                 4-Aug-2022 
 ******************************************
 %chk=OCCC1dCdCCC1.chk
 %NProcShared=20
 Will use up to   20 processors via shared memory.
 -----------------------------
 # opt freq b3lyp/6-31g(2df,p)
 -----------------------------
 1/18=20,19=15,26=3,38=1/1,3;
 2/9=110,12=2,17=6,18=5,40=1/2;
 3/5=1,6=6,7=104,11=2,25=1,30=1,71=1,74=-5/1,2,3;
 4//1;
 5/5=2,38=5/2;
 6/7=2,8=2,9=2,10=2,28=1/1;
 7//1,2,3,16;
 1/18=20,19=15,26=3/3(2);
 2/9=110/2;
 99//99;
 2/9=110/2;
 3/5=1,6=6,7=104,11=2,25=1,30=1,71=1,74=-5/1,2,3;
 4/5=5,16=3,69=1/1;
 5/5=2,38=5/2;
 7//1,2,3,16;
 1/18=20,19=15,26=3/3(-5);
 2/9=110/2;
 6/7=2,8=2,9=2,10=2,19=2,28=1/1;
 99/9=1/99;
 -------------------
 Title Card Required
 -------------------
 Symbolic Z-matrix:
 Charge =  0 Multiplicity = 1
 O                     0.94734  -0.03642  -0.05289 
 C                     2.3739   -0.04636  -0.12704 
 C                     2.80007   0.89151  -1.25871 
 C                     4.26539   0.81408  -1.66632 
 C                     4.7249    1.00725  -2.86997 
 C                     5.52375   2.04101  -3.0407 
 C                     5.3558    2.85161  -1.76636 
 C                     5.2097    1.63731  -0.78629 
 H                     0.68023  -0.6959    0.60963 
 H                     2.70454  -1.07059  -0.31914 
 H                     2.76064   0.274     0.84791 
 H                     2.54036   1.91919  -0.95801 
 H                     2.17925   0.68808  -2.13693 
 H                     6.52805   1.96728  -3.44796 
 H                     4.40913   3.39995  -1.92156 
 H                     6.13433   3.59718  -1.58885 
 H                     4.85741   1.81343   0.23087 
 H                     6.12201   1.01705  -0.71693 
 

 GradGradGradGradGradGradGradGradGradGradGradGradGradGradGradGradGradGrad
 Berny optimization.
 Initialization pass.
                           ----------------------------
                           !    Initial Parameters    !
                           ! (Angstroms and Degrees)  !
 --------------------------                            --------------------------
 ! Name  Definition              Value          Derivative Info.                !
 --------------------------------------------------------------------------------
 ! R1    R(1,2)                  1.4285         estimate D2E/DX2                !
 ! R2    R(1,9)                  0.9722         estimate D2E/DX2                !
 ! R3    R(2,3)                  1.5303         estimate D2E/DX2                !
 ! R4    R(2,10)                 1.0933         estimate D2E/DX2                !
 ! R5    R(2,11)                 1.0967         estimate D2E/DX2                !
 ! R6    R(3,4)                  1.5229         estimate D2E/DX2                !
 ! R7    R(3,12)                 1.1018         estimate D2E/DX2                !
 ! R8    R(3,13)                 1.0946         estimate D2E/DX2                !
 ! R9    R(4,5)                  1.3028         estimate D2E/DX2                !
 ! R10   R(4,8)                  1.531          estimate D2E/DX2                !
 ! R11   R(5,6)                  1.3176         estimate D2E/DX2                !
 ! R12   R(6,7)                  1.5196         estimate D2E/DX2                !
 ! R13   R(6,14)                 1.0862         estimate D2E/DX2                !
 ! R14   R(7,8)                  1.5673         estimate D2E/DX2                !
 ! R15   R(7,15)                 1.105          estimate D2E/DX2                !
 ! R16   R(7,16)                 1.0925         estimate D2E/DX2                !
 ! R17   R(8,17)                 1.0908         estimate D2E/DX2                !
 ! R18   R(8,18)                 1.1054         estimate D2E/DX2                !
 ! A1    A(2,1,9)              107.7594         estimate D2E/DX2                !
 ! A2    A(1,2,3)              108.1932         estimate D2E/DX2                !
 ! A3    A(1,2,10)             108.521          estimate D2E/DX2                !
 ! A4    A(1,2,11)             107.6969         estimate D2E/DX2                !
 ! A5    A(3,2,10)             111.0995         estimate D2E/DX2                !
 ! A6    A(3,2,11)             112.3447         estimate D2E/DX2                !
 ! A7    A(10,2,11)            108.8578         estimate D2E/DX2                !
 ! A8    A(2,3,4)              115.7672         estimate D2E/DX2                !
 ! A9    A(2,3,12)             107.7077         estimate D2E/DX2                !
 ! A10   A(2,3,13)             108.7524         estimate D2E/DX2                !
 ! A11   A(4,3,12)             110.3199         estimate D2E/DX2                !
 ! A12   A(4,3,13)             108.7557         estimate D2E/DX2                !
 ! A13   A(12,3,13)            104.9887         estimate D2E/DX2                !
 ! A14   A(3,4,5)              125.3885         estimate D2E/DX2                !
 ! A15   A(3,4,8)              114.3484         estimate D2E/DX2                !
 ! A16   A(5,4,8)              103.5205         estimate D2E/DX2                !
 ! A17   A(4,5,6)              116.738          estimate D2E/DX2                !
 ! A18   A(5,6,7)              104.0548         estimate D2E/DX2                !
 ! A19   A(5,6,14)             123.7727         estimate D2E/DX2                !
 ! A20   A(7,6,14)             116.9237         estimate D2E/DX2                !
 ! A21   A(6,7,8)               96.9737         estimate D2E/DX2                !
 ! A22   A(6,7,15)             103.9819         estimate D2E/DX2                !
 ! A23   A(6,7,16)             114.9319         estimate D2E/DX2                !
 ! A24   A(8,7,15)             113.1071         estimate D2E/DX2                !
 ! A25   A(8,7,16)             119.5761         estimate D2E/DX2                !
 ! A26   A(15,7,16)            107.139          estimate D2E/DX2                !
 ! A27   A(4,8,7)               96.5839         estimate D2E/DX2                !
 ! A28   A(4,8,17)             115.0648         estimate D2E/DX2                !
 ! A29   A(4,8,18)             104.0881         estimate D2E/DX2                !
 ! A30   A(7,8,17)             119.2186         estimate D2E/DX2                !
 ! A31   A(7,8,18)             113.3941         estimate D2E/DX2                !
 ! A32   A(17,8,18)            107.377          estimate D2E/DX2                !
 ! D1    D(9,1,2,3)            174.7427         estimate D2E/DX2                !
 ! D2    D(9,1,2,10)            54.0969         estimate D2E/DX2                !
 ! D3    D(9,1,2,11)           -63.5939         estimate D2E/DX2                !
 ! D4    D(1,2,3,4)           -168.841          estimate D2E/DX2                !
 ! D5    D(1,2,3,12)            67.1788         estimate D2E/DX2                !
 ! D6    D(1,2,3,13)           -46.094          estimate D2E/DX2                !
 ! D7    D(10,2,3,4)           -49.8149         estimate D2E/DX2                !
 ! D8    D(10,2,3,12)         -173.795          estimate D2E/DX2                !
 ! D9    D(10,2,3,13)           72.9321         estimate D2E/DX2                !
 ! D10   D(11,2,3,4)            72.4055         estimate D2E/DX2                !
 ! D11   D(11,2,3,12)          -51.5747         estimate D2E/DX2                !
 ! D12   D(11,2,3,13)         -164.8476         estimate D2E/DX2                !
 ! D13   D(2,3,4,5)            147.6993         estimate D2E/DX2                !
 ! D14   D(2,3,4,8)            -82.789          estimate D2E/DX2                !
 ! D15   D(12,3,4,5)           -89.6913         estimate D2E/DX2                !
 ! D16   D(12,3,4,8)            39.8204         estimate D2E/DX2                !
 ! D17   D(13,3,4,5)            24.9541         estimate D2E/DX2                !
 ! D18   D(13,3,4,8)           154.4658         estimate D2E/DX2                !
 ! D19   D(3,4,5,6)            115.8642         estimate D2E/DX2                !
 ! D20   D(8,4,5,6)            -17.8407         estimate D2E/DX2                !
 ! D21   D(3,4,8,7)           -100.8521         estimate D2E/DX2                !
 ! D22   D(3,4,8,17)            25.7639         estimate D2E/DX2                !
 ! D23   D(3,4,8,18)           142.9771         estimate D2E/DX2                !
 ! D24   D(5,4,8,7)             38.8409         estimate D2E/DX2                !
 ! D25   D(5,4,8,17)           165.4569         estimate D2E/DX2                !
 ! D26   D(5,4,8,18)           -77.33           estimate D2E/DX2                !
 ! D27   D(4,5,6,7)            -13.0582         estimate D2E/DX2                !
 ! D28   D(4,5,6,14)           123.7407         estimate D2E/DX2                !
 ! D29   D(5,6,7,8)             36.4099         estimate D2E/DX2                !
 ! D30   D(5,6,7,15)           -79.5603         estimate D2E/DX2                !
 ! D31   D(5,6,7,16)           163.6546         estimate D2E/DX2                !
 ! D32   D(14,6,7,8)          -103.9312         estimate D2E/DX2                !
 ! D33   D(14,6,7,15)          140.0986         estimate D2E/DX2                !
 ! D34   D(14,6,7,16)           23.3135         estimate D2E/DX2                !
 ! D35   D(6,7,8,4)            -43.5538         estimate D2E/DX2                !
 ! D36   D(6,7,8,17)          -167.1394         estimate D2E/DX2                !
 ! D37   D(6,7,8,18)            64.9222         estimate D2E/DX2                !
 ! D38   D(15,7,8,4)            64.918          estimate D2E/DX2                !
 ! D39   D(15,7,8,17)          -58.6676         estimate D2E/DX2                !
 ! D40   D(15,7,8,18)          173.394          estimate D2E/DX2                !
 ! D41   D(16,7,8,4)          -167.4526         estimate D2E/DX2                !
 ! D42   D(16,7,8,17)           68.9618         estimate D2E/DX2                !
 ! D43   D(16,7,8,18)          -58.9766         estimate D2E/DX2                !
 --------------------------------------------------------------------------------
 Trust Radius=3.00D-01 FncErr=1.00D-07 GrdErr=1.00D-06 EigMax=2.50D+02 EigMin=1.00D-04
 Number of steps in this run=    103 maximum allowed number of steps=    108.
 GradGradGradGradGradGradGradGradGradGradGradGradGradGradGradGradGradGrad

                          Input orientation:                          
 ---------------------------------------------------------------------
 Center     Atomic      Atomic             Coordinates (Angstroms)
 Number     Number       Type             X           Y           Z
 ---------------------------------------------------------------------
      1          8           0        0.947340   -0.036420   -0.052890
      2          6           0        2.373900   -0.046360   -0.127040
      3          6           0        2.800070    0.891510   -1.258710
      4          6           0        4.265390    0.814080   -1.666320
      5          6           0        4.724900    1.007250   -2.869970
      6          6           0        5.523750    2.041010   -3.040700
      7          6           0        5.355800    2.851610   -1.766360
      8          6           0        5.209700    1.637310   -0.786290
      9          1           0        0.680230   -0.695900    0.609630
     10          1           0        2.704540   -1.070590   -0.319140
     11          1           0        2.760640    0.274000    0.847910
     12          1           0        2.540360    1.919190   -0.958010
     13          1           0        2.179250    0.688080   -2.136930
     14          1           0        6.528050    1.967280   -3.447960
     15          1           0        4.409130    3.399950   -1.921560
     16          1           0        6.134330    3.597180   -1.588850
     17          1           0        4.857410    1.813430    0.230870
     18          1           0        6.122010    1.017050   -0.716930
 ---------------------------------------------------------------------
                    Distance matrix (angstroms):
                    1          2          3          4          5
     1  O    0.000000
     2  C    1.428520   0.000000
     3  C    2.397429   1.530326   0.000000
     4  C    3.786286   2.586015   1.522926   0.000000
     5  C    4.826505   3.763105   2.512872   1.302781   0.000000
     6  C    5.846901   4.771591   3.451850   2.231087   1.317562
     7  C    5.541770   4.469600   3.260591   2.313121   2.240012
     8  C    4.637560   3.363200   2.566265   1.530974   2.230186
     9  H    0.972211   1.957831   3.241032   4.507035   5.600687
    10  H    2.056246   1.093285   2.177557   2.793408   3.860830
    11  H    2.048379   1.096689   2.195614   2.979482   4.268326
    12  H    2.679807   2.140469   1.101815   2.167648   3.042933
    13  H    2.526999   2.148709   1.094565   2.142272   2.668249
    14  H    6.832689   5.686846   4.455102   3.102216   2.122988
    15  H    5.223462   4.386287   3.052985   2.602409   2.593107
    16  H    6.516678   5.436277   4.306615   3.353294   3.214887
    17  H    4.334872   3.123258   2.702116   2.224526   3.206664
    18  H    5.322402   3.940449   3.368170   2.095132   2.566631
                    6          7          8          9         10
     6  C    0.000000
     7  C    1.519612   0.000000
     8  C    2.311702   1.567293   0.000000
     9  H    6.653967   6.331754   5.282855   0.000000
    10  H    5.003687   4.950483   3.718438   2.258503   0.000000
    11  H    5.087081   4.495924   3.244552   2.307724   1.781313
    12  H    3.640474   3.074010   2.689669   3.571593   3.061682
    13  H    3.719261   3.861173   3.450926   3.421411   2.583256
    14  H    1.086239   2.232485   2.988547   7.599577   5.799776
    15  H    2.083643   1.104965   2.244248   6.089959   5.045702
    16  H    2.214123   1.092471   2.310873   7.280869   5.929899
    17  H    3.346487   2.305458   1.090752   4.887640   3.640732
    18  H    2.608892   2.248108   1.105370   5.857212   4.024373
                   11         12         13         14         15
    11  H    0.000000
    12  H    2.452860   0.000000
    13  H    3.068998   1.742379   0.000000
    14  H    5.959453   4.701472   4.718815   0.000000
    15  H    4.489883   2.571649   3.517526   2.978634   0.000000
    16  H    5.325703   4.016246   4.940234   2.503573   1.768025
    17  H    2.673393   2.606404   3.747723   4.043328   2.711265
    18  H    3.781489   3.701377   4.203567   2.919988   3.172271
                   16         17         18
    16  H    0.000000
    17  H    2.850205   0.000000
    18  H    2.723503   1.769678   0.000000
 Stoichiometry    C7H10O
 Framework group  C1[X(C7H10O)]
 Deg. of freedom    48
 Full point group                 C1      NOp   1
 Largest Abelian subgroup         C1      NOp   1
 Largest concise Abelian subgroup C1      NOp   1
                         Standard orientation:                         
 ---------------------------------------------------------------------
 Center     Atomic      Atomic             Coordinates (Angstroms)
 Number     Number       Type             X           Y           Z
 ---------------------------------------------------------------------
      1          8           0        3.305789   -0.108965    0.391245
      2          6           0        2.152663    0.214776   -0.387320
      3          6           0        0.917718   -0.315377    0.344627
      4          6           0       -0.380524   -0.301296   -0.451410
      5          6           0       -1.347376   -1.166443   -0.333284
      6          6           0       -2.503177   -0.707922    0.102435
      7          6           0       -2.174529    0.678190    0.631495
      8          6           0       -1.105198    1.047306   -0.453260
      9          1           0        4.090927    0.154958   -0.117770
     10          1           0        2.256501   -0.249836   -1.371508
     11          1           0        2.128657    1.304270   -0.510412
     12          1           0        0.803323    0.266125    1.273478
     13          1           0        1.117069   -1.339772    0.674694
     14          1           0       -3.439177   -0.819164   -0.437422
     15          1           0       -1.734383    0.486646    1.626749
     16          1           0       -3.037920    1.330542    0.781445
     17          1           0       -0.464893    1.916170   -0.295700
     18          1           0       -1.523880    1.126374   -1.473209
 ---------------------------------------------------------------------
 Rotational constants (GHZ):           6.1605184           1.0256347           0.9695912
 Standard basis: 6-31G(2df,p) (6D, 7F)
 There are   298 symmetry adapted cartesian basis functions of A   symmetry.
 There are   274 symmetry adapted basis functions of A   symmetry.
   274 basis functions,   422 primitive gaussians,   298 cartesian basis functions
    30 alpha electrons       30 beta electrons
       nuclear repulsion energy       353.5347612050 Hartrees.
 NAtoms=   18 NActive=   18 NUniq=   18 SFac= 1.00D+00 NAtFMM=   60 NAOKFM=F Big=F
 Integral buffers will be    131072 words long.
 Raffenetti 2 integral format.
 Two-electron integral symmetry is turned on.
 One-electron integrals computed using PRISM.
 PrsmSu:  requested number of processors reduced to:  13 ShMem   1 Linda.
 NBasis=   274 RedAO= T EigKep=  4.21D-04  NBF=   274
 NBsUse=   274 1.00D-06 EigRej= -1.00D+00 NBFU=   274
 ExpMin= 1.61D-01 ExpMax= 5.48D+03 ExpMxC= 8.25D+02 IAcc=3 IRadAn=         5 AccDes= 0.00D+00
 Harris functional with IExCor=  402 and IRadAn=       5 diagonalized for initial guess.
 HarFok:  IExCor=  402 AccDes= 0.00D+00 IRadAn=         5 IDoV= 1 UseB2=F ITyADJ=14
 ICtDFT=  3500011 ScaDFX=  1.000000  1.000000  1.000000  1.000000
 FoFCou: FMM=F IPFlag=           0 FMFlag=      100000 FMFlg1=           0
         NFxFlg=           0 DoJE=T BraDBF=F KetDBF=T FulRan=T
         wScrn=  0.000000 ICntrl=       500 IOpCl=  0 I1Cent=   200000004 NGrid=           0
         NMat0=    1 NMatS0=      1 NMatT0=    0 NMatD0=    1 NMtDS0=    0 NMtDT0=    0
 Petite list used in FoFCou.
 Requested convergence on RMS density matrix=1.00D-08 within 128 cycles.
 Requested convergence on MAX density matrix=1.00D-06.
 Requested convergence on             energy=1.00D-06.
 No special actions if energy rises.
 Integral accuracy reduced to 1.0D-05 until final iterations.
 Initial convergence to 1.0D-05 achieved.  Increase integral accuracy.
 SCF Done:  E(RB3LYP) =  -347.823327791     A.U. after   14 cycles
            NFock= 14  Conv=0.34D-08     -V/T= 2.0072

 **********************************************************************

            Population analysis using the SCF density.

 **********************************************************************

 Orbital symmetries:
       Occupied  (A) (A) (A) (A) (A) (A) (A) (A) (A) (A) (A) (A)
                 (A) (A) (A) (A) (A) (A) (A) (A) (A) (A) (A) (A)
                 (A) (A) (A) (A) (A) (A)
       Virtual   (A) (A) (A) (A) (A) (A) (A) (A) (A) (A) (A) (A)
                 (A) (A) (A) (A) (A) (A) (A) (A) (A) (A) (A) (A)
                 (A) (A) (A) (A) (A) (A) (A) (A) (A) (A) (A) (A)
                 (A) (A) (A) (A) (A) (A) (A) (A) (A) (A) (A) (A)
                 (A) (A) (A) (A) (A) (A) (A) (A) (A) (A) (A) (A)
                 (A) (A) (A) (A) (A) (A) (A) (A) (A) (A) (A) (A)
                 (A) (A) (A) (A) (A) (A) (A) (A) (A) (A) (A) (A)
                 (A) (A) (A) (A) (A) (A) (A) (A) (A) (A) (A) (A)
                 (A) (A) (A) (A) (A) (A) (A) (A) (A) (A) (A) (A)
                 (A) (A) (A) (A) (A) (A) (A) (A) (A) (A) (A) (A)
                 (A) (A) (A) (A) (A) (A) (A) (A) (A) (A) (A) (A)
                 (A) (A) (A) (A) (A) (A) (A) (A) (A) (A) (A) (A)
                 (A) (A) (A) (A) (A) (A) (A) (A) (A) (A) (A) (A)
                 (A) (A) (A) (A) (A) (A) (A) (A) (A) (A) (A) (A)
                 (A) (A) (A) (A) (A) (A) (A) (A) (A) (A) (A) (A)
                 (A) (A) (A) (A) (A) (A) (A) (A) (A) (A) (A) (A)
                 (A) (A) (A) (A) (A) (A) (A) (A) (A) (A) (A) (A)
                 (A) (A) (A) (A) (A) (A) (A) (A) (A) (A) (A) (A)
                 (A) (A) (A) (A) (A) (A) (A) (A) (A) (A) (A) (A)
                 (A) (A) (A) (A) (A) (A) (A) (A) (A) (A) (A) (A)
                 (A) (A) (A) (A)
 The electronic state is 1-A.
 Alpha  occ. eigenvalues --  -19.12984 -10.22626 -10.19847 -10.19795 -10.19599
 Alpha  occ. eigenvalues --  -10.18780 -10.18776 -10.16561  -1.00759  -0.87582
 Alpha  occ. eigenvalues --   -0.76453  -0.69905  -0.68865  -0.61805  -0.57078
 Alpha  occ. eigenvalues --   -0.51439  -0.48644  -0.46549  -0.45229  -0.44978
 Alpha  occ. eigenvalues --   -0.41028  -0.39000  -0.38039  -0.37213  -0.35321
 Alpha  occ. eigenvalues --   -0.33079  -0.32527  -0.26346  -0.24744  -0.21489
 Alpha virt. eigenvalues --   -0.07373   0.02353   0.07468   0.09797   0.12217
 Alpha virt. eigenvalues --    0.13000   0.14822   0.15476   0.16299   0.17971
 Alpha virt. eigenvalues --    0.19065   0.19595   0.20898   0.22895   0.23473
 Alpha virt. eigenvalues --    0.24148   0.24975   0.31188   0.33634   0.41935
 Alpha virt. eigenvalues --    0.42878   0.46171   0.46891   0.47830   0.48628
 Alpha virt. eigenvalues --    0.50338   0.51913   0.52638   0.53263   0.56531
 Alpha virt. eigenvalues --    0.58056   0.58833   0.60270   0.61397   0.62576
 Alpha virt. eigenvalues --    0.64686   0.66684   0.67607   0.70836   0.71783
 Alpha virt. eigenvalues --    0.72857   0.73606   0.74597   0.76036   0.76397
 Alpha virt. eigenvalues --    0.76948   0.78951   0.80609   0.81026   0.81840
 Alpha virt. eigenvalues --    0.84222   0.86770   0.88765   0.90097   0.92192
 Alpha virt. eigenvalues --    0.92483   0.94323   0.95852   0.97595   0.99714
 Alpha virt. eigenvalues --    1.05386   1.06868   1.09708   1.14764   1.16473
 Alpha virt. eigenvalues --    1.17475   1.20335   1.22766   1.25029   1.29018
 Alpha virt. eigenvalues --    1.31949   1.35492   1.39957   1.41693   1.43715
 Alpha virt. eigenvalues --    1.44133   1.47086   1.48207   1.51107   1.52587
 Alpha virt. eigenvalues --    1.53660   1.57045   1.57967   1.60291   1.61054
 Alpha virt. eigenvalues --    1.63100   1.64299   1.68174   1.69407   1.69764
 Alpha virt. eigenvalues --    1.74486   1.77051   1.82750   1.84089   1.87855
 Alpha virt. eigenvalues --    1.89232   1.91270   1.97527   1.99863   2.04501
 Alpha virt. eigenvalues --    2.05339   2.11395   2.16038   2.23021   2.23804
 Alpha virt. eigenvalues --    2.27460   2.30261   2.34543   2.38305   2.41418
 Alpha virt. eigenvalues --    2.44646   2.47569   2.49196   2.51288   2.54425
 Alpha virt. eigenvalues --    2.55545   2.60597   2.61326   2.63386   2.67690
 Alpha virt. eigenvalues --    2.70326   2.74037   2.75422   2.76681   2.80223
 Alpha virt. eigenvalues --    2.81755   2.83976   2.87817   2.88831   2.90243
 Alpha virt. eigenvalues --    2.92442   2.95323   2.95828   2.98445   2.99331
 Alpha virt. eigenvalues --    3.00468   3.03264   3.06007   3.07570   3.10503
 Alpha virt. eigenvalues --    3.12202   3.13898   3.16286   3.18780   3.23263
 Alpha virt. eigenvalues --    3.26905   3.27774   3.29423   3.30627   3.35240
 Alpha virt. eigenvalues --    3.39144   3.40403   3.41551   3.42726   3.46475
 Alpha virt. eigenvalues --    3.47819   3.52281   3.53468   3.55511   3.56859
 Alpha virt. eigenvalues --    3.61991   3.65627   3.66958   3.71385   3.73578
 Alpha virt. eigenvalues --    3.77434   3.82578   3.84406   3.86104   3.91353
 Alpha virt. eigenvalues --    3.93393   4.00525   4.04608   4.12513   4.15042
 Alpha virt. eigenvalues --    4.16517   4.19663   4.21959   4.26235   4.26649
 Alpha virt. eigenvalues --    4.32986   4.39343   4.40428   4.42627   4.45303
 Alpha virt. eigenvalues --    4.49013   4.50174   4.51214   4.52491   4.53954
 Alpha virt. eigenvalues --    4.55080   4.56874   4.59302   4.59548   4.62575
 Alpha virt. eigenvalues --    4.64062   4.66601   4.67086   4.69122   4.71821
 Alpha virt. eigenvalues --    4.74107   4.74996   4.77526   4.80114   4.81636
 Alpha virt. eigenvalues --    4.85174   4.86074   4.89700   4.89815   4.93543
 Alpha virt. eigenvalues --    4.98809   5.02846   5.09251   5.12888   5.16217
 Alpha virt. eigenvalues --    5.18493   5.21100   5.23794   5.26054   5.27481
 Alpha virt. eigenvalues --    5.32935   5.35723   5.44683   5.46322   5.47256
 Alpha virt. eigenvalues --    5.48258   5.52832   5.59460   5.70755   5.82155
 Alpha virt. eigenvalues --    5.84201   5.93711   5.99610   6.16152   6.43711
 Alpha virt. eigenvalues --    7.03557  10.27199  11.16252  11.26021  11.61041
 Alpha virt. eigenvalues --   12.18742  12.34586  12.47809  13.18484
          Condensed to atoms (all electrons):
               1          2          3          4          5          6
     1  O    7.883520   0.335379  -0.033092   0.001265  -0.000043   0.000001
     2  C    0.335379   4.762920   0.390306  -0.021697   0.001056  -0.000251
     3  C   -0.033092   0.390306   4.951944   0.373427  -0.039455   0.007502
     4  C    0.001265  -0.021697   0.373427   4.627657   0.655149  -0.083612
     5  C   -0.000043   0.001056  -0.039455   0.655149   5.088156   0.620429
     6  C    0.000001  -0.000251   0.007502  -0.083612   0.620429   4.928783
     7  C    0.000000   0.000111   0.000127  -0.044527  -0.113062   0.428375
     8  C    0.000034  -0.003110  -0.059002   0.415678  -0.108901  -0.089657
     9  H    0.299624  -0.047321   0.006108  -0.000358   0.000001  -0.000000
    10  H   -0.030916   0.364293  -0.039167   0.004855   0.000392  -0.000000
    11  H   -0.031536   0.354625  -0.031494   0.001676  -0.000117   0.000014
    12  H    0.002997  -0.035355   0.360654  -0.029541  -0.004618   0.000822
    13  H    0.004458  -0.034013   0.351029  -0.022906  -0.004345  -0.000053
    14  H   -0.000000   0.000004   0.000001   0.004457  -0.024768   0.356008
    15  H    0.000000   0.000021   0.002286   0.000144  -0.005134  -0.025570
    16  H   -0.000000  -0.000001  -0.000069   0.005383   0.012032  -0.032813
    17  H   -0.000025  -0.001318  -0.003870  -0.029988   0.011278   0.007791
    18  H   -0.000000   0.000246   0.003169  -0.025615   0.001805   0.003666
               7          8          9         10         11         12
     1  O    0.000000   0.000034   0.299624  -0.030916  -0.031536   0.002997
     2  C    0.000111  -0.003110  -0.047321   0.364293   0.354625  -0.035355
     3  C    0.000127  -0.059002   0.006108  -0.039167  -0.031494   0.360654
     4  C   -0.044527   0.415678  -0.000358   0.004855   0.001676  -0.029541
     5  C   -0.113062  -0.108901   0.000001   0.000392  -0.000117  -0.004618
     6  C    0.428375  -0.089657  -0.000000  -0.000000   0.000014   0.000822
     7  C    4.953189   0.410998  -0.000000   0.000003   0.000038   0.000056
     8  C    0.410998   5.036457   0.000006   0.000233   0.000853   0.000235
     9  H   -0.000000   0.000006   0.464017  -0.005043  -0.002518  -0.000206
    10  H    0.000003   0.000233  -0.005043   0.668207  -0.057224   0.006608
    11  H    0.000038   0.000853  -0.002518  -0.057224   0.678973  -0.008938
    12  H    0.000056   0.000235  -0.000206   0.006608  -0.008938   0.617892
    13  H    0.000311   0.006035   0.000061  -0.004329   0.006641  -0.036384
    14  H   -0.062066   0.004025   0.000000  -0.000001  -0.000000  -0.000018
    15  H    0.358079  -0.031487  -0.000000  -0.000000  -0.000001   0.002698
    16  H    0.345447  -0.026452   0.000000  -0.000000  -0.000001  -0.000285
    17  H   -0.030062   0.338777  -0.000003  -0.000120   0.002926   0.000775
    18  H   -0.028058   0.344211  -0.000000  -0.000004  -0.000139   0.000172
              13         14         15         16         17         18
     1  O    0.004458  -0.000000   0.000000  -0.000000  -0.000025  -0.000000
     2  C   -0.034013   0.000004   0.000021  -0.000001  -0.001318   0.000246
     3  C    0.351029   0.000001   0.002286  -0.000069  -0.003870   0.003169
     4  C   -0.022906   0.004457   0.000144   0.005383  -0.029988  -0.025615
     5  C   -0.004345  -0.024768  -0.005134   0.012032   0.011278   0.001805
     6  C   -0.000053   0.356008  -0.025570  -0.032813   0.007791   0.003666
     7  C    0.000311  -0.062066   0.358079   0.345447  -0.030062  -0.028058
     8  C    0.006035   0.004025  -0.031487  -0.026452   0.338777   0.344211
     9  H    0.000061   0.000000  -0.000000   0.000000  -0.000003  -0.000000
    10  H   -0.004329  -0.000001  -0.000000  -0.000000  -0.000120  -0.000004
    11  H    0.006641  -0.000000  -0.000001  -0.000001   0.002926  -0.000139
    12  H   -0.036384  -0.000018   0.002698  -0.000285   0.000775   0.000172
    13  H    0.614175  -0.000019  -0.000502   0.000005  -0.000025  -0.000269
    14  H   -0.000019   0.609270   0.004522  -0.000992  -0.000142   0.002108
    15  H   -0.000502   0.004522   0.605929  -0.039134  -0.000984   0.004646
    16  H    0.000005  -0.000992  -0.039134   0.646032   0.000309  -0.001744
    17  H   -0.000025  -0.000142  -0.000984   0.000309   0.649741  -0.036608
    18  H   -0.000269   0.002108   0.004646  -0.001744  -0.036608   0.616386
 Mulliken charges:
               1
     1  O   -0.431665
     2  C   -0.065895
     3  C   -0.240406
     4  C    0.168553
     5  C   -0.089852
     6  C   -0.121435
     7  C   -0.218958
     8  C   -0.238933
     9  H    0.285633
    10  H    0.092213
    11  H    0.086222
    12  H    0.122435
    13  H    0.120129
    14  H    0.107611
    15  H    0.124487
    16  H    0.092283
    17  H    0.091548
    18  H    0.116029
 Sum of Mulliken charges =  -0.00000
 Mulliken charges with hydrogens summed into heavy atoms:
               1
     1  O   -0.146032
     2  C    0.112540
     3  C    0.002159
     4  C    0.168553
     5  C   -0.089852
     6  C   -0.013824
     7  C   -0.002188
     8  C   -0.031356
 Electronic spatial extent (au):  <R**2>=           1219.8976
 Charge=             -0.0000 electrons
 Dipole moment (field-independent basis, Debye):
    X=              0.2120    Y=              1.9781    Z=             -0.9478  Tot=              2.2037
 Quadrupole moment (field-independent basis, Debye-Ang):
   XX=            -43.6413   YY=            -50.5981   ZZ=            -48.7113
   XY=              0.2241   XZ=             -4.3395   YZ=             -0.2704
 Traceless Quadrupole moment (field-independent basis, Debye-Ang):
   XX=              4.0090   YY=             -2.9478   ZZ=             -1.0611
   XY=              0.2241   XZ=             -4.3395   YZ=             -0.2704
 Octapole moment (field-independent basis, Debye-Ang**2):
  XXX=             38.6215  YYY=              6.2723  ZZZ=              2.6199  XYY=              9.8813
  XXY=             12.3739  XXZ=            -19.0295  XZZ=              4.3474  YZZ=              1.6108
  YYZ=              1.2091  XYZ=             -0.5161
 Hexadecapole moment (field-independent basis, Debye-Ang**3):
 XXXX=          -1026.5984 YYYY=           -225.3997 ZZZZ=           -133.3196 XXXY=             22.9572
 XXXZ=            -46.7846 YYYX=             -9.6931 YYYZ=             -2.1646 ZZZX=              3.0955
 ZZZY=             -1.6213 XXYY=           -247.9224 XXZZ=           -232.5415 YYZZ=            -61.0088
 XXYZ=              4.2754 YYXZ=              1.6924 ZZXY=             -3.5129
 N-N= 3.535347612050D+02 E-N=-1.516044675874D+03  KE= 3.453487376621D+02
 PrsmSu:  requested number of processors reduced to:  13 ShMem   1 Linda.
 Calling FoFJK, ICntrl=      2127 FMM=F ISym2X=0 I1Cent= 0 IOpClX= 0 NMat=1 NMatS=1 NMatT=0.
 ***** Axes restored to original set *****
 -------------------------------------------------------------------
 Center     Atomic                   Forces (Hartrees/Bohr)
 Number     Number              X              Y              Z
 -------------------------------------------------------------------
      1        8          -0.004384889   -0.003387252    0.003300037
      2        6          -0.013495349   -0.002911132    0.002195805
      3        6          -0.003814991   -0.020892803   -0.005713237
      4        6          -0.051360587    0.025581370    0.036034176
      5        6           0.001591570   -0.012518906   -0.033385057
      6        6           0.039157664   -0.009963365    0.001151655
      7        6          -0.003853158    0.016919634   -0.014482742
      8        6           0.008842896   -0.022520628    0.010344175
      9        1           0.003010401    0.007556828   -0.006894016
     10        1           0.006881870   -0.002100404   -0.001705881
     11        1           0.008684519    0.001024218   -0.000649754
     12        1           0.006897924   -0.000511082   -0.000381084
     13        1          -0.002051362   -0.003879746    0.001555634
     14        1          -0.004476094    0.006812747   -0.018798877
     15        1           0.002518210   -0.000580401    0.016542546
     16        1           0.003300152   -0.000482173    0.004994924
     17        1          -0.001806152    0.005330413    0.003241048
     18        1           0.004357376    0.016522682    0.002650647
 -------------------------------------------------------------------
 Cartesian Forces:  Max     0.051360587 RMS     0.014151862

 GradGradGradGradGradGradGradGradGradGradGradGradGradGradGradGradGradGrad
 Berny optimization.
 FormGI is forming the generalized inverse of G from B-inverse, IUseBI=4.
 Internal  Forces:  Max     0.039363760 RMS     0.008180273
 Search for a local minimum.
 Step number   1 out of a maximum of  103
 All quantities printed in internal units (Hartrees-Bohrs-Radians)
 Mixed Optimization -- RFO/linear search
 Second derivative matrix not updated -- first step.
 ITU=  0
     Eigenvalues ---    0.00365   0.00463   0.00715   0.01315   0.01640
     Eigenvalues ---    0.02323   0.03217   0.03682   0.04227   0.04341
     Eigenvalues ---    0.05263   0.05335   0.05459   0.05549   0.05589
     Eigenvalues ---    0.07814   0.08052   0.08550   0.09583   0.09815
     Eigenvalues ---    0.11396   0.12746   0.13175   0.13648   0.16000
     Eigenvalues ---    0.17209   0.20828   0.21599   0.21945   0.21988
     Eigenvalues ---    0.25474   0.27632   0.29368   0.29393   0.30086
     Eigenvalues ---    0.33095   0.33139   0.33482   0.34051   0.34290
     Eigenvalues ---    0.34436   0.34529   0.34726   0.35251   0.41203
     Eigenvalues ---    0.52928   0.57850   0.62623
 RFO step:  Lambda=-3.39989359D-02 EMin= 3.64791265D-03
 Linear search not attempted -- first point.
 Iteration  1 RMS(Cart)=  0.09779390 RMS(Int)=  0.00444485
 Iteration  2 RMS(Cart)=  0.00580554 RMS(Int)=  0.00200966
 Iteration  3 RMS(Cart)=  0.00001119 RMS(Int)=  0.00200963
 Iteration  4 RMS(Cart)=  0.00000002 RMS(Int)=  0.00200963
 Variable       Old X    -DE/DX   Delta X   Delta X   Delta X     New X
                                 (Linear)    (Quad)   (Total)
    R1        2.69951   0.00122   0.00000   0.00273   0.00273   2.70224
    R2        1.83721  -0.01065   0.00000  -0.01891  -0.01891   1.81830
    R3        2.89190  -0.00308   0.00000  -0.00940  -0.00940   2.88250
    R4        2.06601   0.00435   0.00000   0.01149   0.01149   2.07750
    R5        2.07244   0.00278   0.00000   0.00743   0.00743   2.07987
    R6        2.87791  -0.00516   0.00000  -0.01540  -0.01540   2.86251
    R7        2.08213  -0.00221   0.00000  -0.00598  -0.00598   2.07615
    R8        2.06843   0.00064   0.00000   0.00169   0.00169   2.07012
    R9        2.46190   0.03936   0.00000   0.05962   0.06027   2.52217
   R10        2.89312   0.02275   0.00000   0.06807   0.06908   2.96220
   R11        2.48983   0.01947   0.00000   0.03305   0.03317   2.52300
   R12        2.87165   0.02150   0.00000   0.06224   0.06214   2.93379
   R13        2.05269   0.00245   0.00000   0.00633   0.00633   2.05903
   R14        2.96175   0.01042   0.00000   0.02526   0.02372   2.98547
   R15        2.08808  -0.00477   0.00000  -0.01305  -0.01305   2.07503
   R16        2.06447   0.00283   0.00000   0.00747   0.00747   2.07194
   R17        2.06122   0.00447   0.00000   0.01171   0.01171   2.07294
   R18        2.08885  -0.00551   0.00000  -0.01509  -0.01509   2.07375
    A1        1.88076  -0.00012   0.00000  -0.00062  -0.00062   1.88014
    A2        1.88833  -0.00610   0.00000  -0.01905  -0.01881   1.86951
    A3        1.89405   0.00614   0.00000   0.04340   0.04312   1.93717
    A4        1.87967   0.00682   0.00000   0.04409   0.04368   1.92334
    A5        1.93905  -0.00187   0.00000  -0.01947  -0.01967   1.91939
    A6        1.96078  -0.00403   0.00000  -0.03392  -0.03411   1.92668
    A7        1.89993  -0.00032   0.00000  -0.01009  -0.01179   1.88813
    A8        2.02052  -0.00023   0.00000  -0.00484  -0.00498   2.01554
    A9        1.87985   0.00382   0.00000   0.01630   0.01593   1.89579
   A10        1.89809  -0.00396   0.00000  -0.01790  -0.01791   1.88017
   A11        1.92545  -0.00581   0.00000  -0.04463  -0.04454   1.88090
   A12        1.89814   0.00438   0.00000   0.03111   0.03127   1.92942
   A13        1.83240   0.00199   0.00000   0.02266   0.02302   1.85542
   A14        2.18844   0.00037   0.00000   0.03534   0.02783   2.21627
   A15        1.99576   0.02020   0.00000   0.11196   0.10635   2.10210
   A16        1.80677  -0.01183   0.00000  -0.01896  -0.02251   1.78426
   A17        2.03746   0.00561   0.00000   0.01953   0.02370   2.06116
   A18        1.81610  -0.00633   0.00000  -0.01247  -0.01531   1.80079
   A19        2.16024   0.00214   0.00000   0.04473   0.03660   2.19684
   A20        2.04070   0.01159   0.00000   0.09673   0.09165   2.13235
   A21        1.69251   0.00584   0.00000   0.01046   0.01091   1.70342
   A22        1.81483   0.00826   0.00000   0.08366   0.08546   1.90029
   A23        2.00594  -0.00257   0.00000   0.01962   0.01849   2.02443
   A24        1.97409  -0.01054   0.00000  -0.08546  -0.08743   1.88666
   A25        2.08700  -0.00205   0.00000  -0.01460  -0.01492   2.07208
   A26        1.86993   0.00240   0.00000   0.00186  -0.00269   1.86724
   A27        1.68571   0.00580   0.00000   0.00932   0.01082   1.69653
   A28        2.00826  -0.00305   0.00000   0.01608   0.01453   2.02279
   A29        1.81668   0.00842   0.00000   0.08493   0.08649   1.90317
   A30        2.08076  -0.00145   0.00000  -0.01074  -0.01150   2.06925
   A31        1.97910  -0.01110   0.00000  -0.08954  -0.09140   1.88771
   A32        1.87408   0.00259   0.00000   0.00435   0.00011   1.87419
    D1        3.04984   0.00100   0.00000   0.01169   0.01175   3.06159
    D2        0.94417   0.00325   0.00000   0.02106   0.02192   0.96608
    D3       -1.10992  -0.00339   0.00000  -0.01434  -0.01526  -1.12519
    D4       -2.94683  -0.00325   0.00000  -0.04396  -0.04396  -2.99079
    D5        1.17249   0.00153   0.00000   0.00531   0.00541   1.17790
    D6       -0.80449  -0.00077   0.00000  -0.02053  -0.02049  -0.82498
    D7       -0.86943  -0.00064   0.00000  -0.01423  -0.01453  -0.88396
    D8       -3.03330   0.00413   0.00000   0.03504   0.03485  -2.99845
    D9        1.27291   0.00184   0.00000   0.00920   0.00894   1.28185
   D10        1.26371  -0.00530   0.00000  -0.06576  -0.06560   1.19811
   D11       -0.90015  -0.00052   0.00000  -0.01648  -0.01623  -0.91638
   D12       -2.87713  -0.00282   0.00000  -0.04233  -0.04213  -2.91926
   D13        2.57784  -0.00400   0.00000  -0.07270  -0.07518   2.50266
   D14       -1.44494   0.00250   0.00000   0.08142   0.08354  -1.36140
   D15       -1.56541  -0.00376   0.00000  -0.09065  -0.09261  -1.65801
   D16        0.69500   0.00273   0.00000   0.06348   0.06611   0.76111
   D17        0.43553  -0.00208   0.00000  -0.07026  -0.07271   0.36282
   D18        2.69594   0.00442   0.00000   0.08387   0.08601   2.78194
   D19        2.02221   0.01895   0.00000   0.20186   0.19769   2.21990
   D20       -0.31138   0.00081   0.00000   0.01110   0.01251  -0.29887
   D21       -1.76020  -0.00810   0.00000  -0.14439  -0.14481  -1.90501
   D22        0.44967  -0.00747   0.00000  -0.14323  -0.14408   0.30559
   D23        2.49542  -0.00039   0.00000  -0.07389  -0.07344   2.42198
   D24        0.67790  -0.00092   0.00000  -0.01141  -0.01232   0.66558
   D25        2.88777  -0.00029   0.00000  -0.01025  -0.01159   2.87618
   D26       -1.34966   0.00679   0.00000   0.05909   0.05905  -1.29062
   D27       -0.22791   0.00254   0.00000   0.00212   0.00105  -0.22686
   D28        2.15968   0.01571   0.00000   0.19107   0.18933   2.34901
   D29        0.63547  -0.00038   0.00000  -0.00357  -0.00333   0.63215
   D30       -1.38859   0.00672   0.00000   0.06215   0.06356  -1.32503
   D31        2.85631  -0.00021   0.00000  -0.00426  -0.00436   2.85195
   D32       -1.81394  -0.00831   0.00000  -0.15445  -0.15661  -1.97056
   D33        2.44518  -0.00120   0.00000  -0.08872  -0.08972   2.35546
   D34        0.40690  -0.00814   0.00000  -0.15514  -0.15764   0.24925
   D35       -0.76016  -0.00565   0.00000   0.00205   0.00082  -0.75933
   D36       -2.91713  -0.00542   0.00000  -0.01962  -0.01953  -2.93666
   D37        1.13311   0.00371   0.00000   0.07808   0.07635   1.20946
   D38        1.13303   0.00361   0.00000   0.07773   0.07583   1.20886
   D39       -1.02394   0.00383   0.00000   0.05607   0.05548  -0.96847
   D40        3.02630   0.01297   0.00000   0.15377   0.15136  -3.10553
   D41       -2.92260  -0.00579   0.00000  -0.02307  -0.02289  -2.94548
   D42        1.20361  -0.00556   0.00000  -0.04474  -0.04324   1.16037
   D43       -1.02934   0.00357   0.00000   0.05296   0.05264  -0.97669
         Item               Value     Threshold  Converged?
 Maximum Force            0.039364     0.000450     NO 
 RMS     Force            0.008180     0.000300     NO 
 Maximum Displacement     0.323325     0.001800     NO 
 RMS     Displacement     0.095451     0.001200     NO 
 Predicted change in Energy=-2.326575D-02
 GradGradGradGradGradGradGradGradGradGradGradGradGradGradGradGradGradGrad

                          Input orientation:                          
 ---------------------------------------------------------------------
 Center     Atomic      Atomic             Coordinates (Angstroms)
 Number     Number       Type             X           Y           Z
 ---------------------------------------------------------------------
      1          8           0        0.912472   -0.127501   -0.054247
      2          6           0        2.339956   -0.084574   -0.126644
      3          6           0        2.703497    0.871515   -1.258205
      4          6           0        4.169662    0.904946   -1.637406
      5          6           0        4.678986    1.044224   -2.863189
      6          6           0        5.583850    2.005460   -3.062616
      7          6           0        5.470659    2.870083   -1.778152
      8          6           0        5.199597    1.694465   -0.758175
      9          1           0        0.672339   -0.782861    0.608080
     10          1           0        2.754139   -1.082339   -0.330422
     11          1           0        2.758249    0.272785    0.826610
     12          1           0        2.409524    1.888941   -0.965879
     13          1           0        2.087782    0.610773   -2.125925
     14          1           0        6.520629    1.897139   -3.608435
     15          1           0        4.561847    3.483096   -1.841450
     16          1           0        6.305426    3.553958   -1.584175
     17          1           0        4.868922    1.946649    0.256891
     18          1           0        6.119266    1.102901   -0.665911
 ---------------------------------------------------------------------
                    Distance matrix (angstroms):
                    1          2          3          4          5
     1  O    0.000000
     2  C    1.429963   0.000000
     3  C    2.378091   1.525352   0.000000
     4  C    3.765849   2.570870   1.514777   0.000000
     5  C    4.842491   3.772787   2.551149   1.334674   0.000000
     6  C    5.951603   4.848817   3.583038   2.289603   1.335112
     7  C    5.721400   4.610724   3.452796   2.360967   2.266675
     8  C    4.711105   3.426567   2.675406   1.567531   2.263832
     9  H    0.962204   1.951505   3.216455   4.485774   5.607243
    10  H    2.092779   1.099367   2.163537   2.767889   3.826515
    11  H    2.083994   1.100622   2.169777   2.909139   4.230717
    12  H    2.671755   2.145674   1.098649   2.125390   3.076328
    13  H    2.493643   2.131718   1.095458   2.158567   2.728695
    14  H    6.941386   5.790344   4.598476   3.224352   2.162060
    15  H    5.435848   4.539342   3.257912   2.615779   2.646841
    16  H    6.706547   5.575685   4.502849   3.403174   3.252684
    17  H    4.477991   3.266288   2.853156   2.272108   3.253514
    18  H    5.385046   3.998011   3.474454   2.187223   2.627904
                    6          7          8          9         10
     6  C    0.000000
     7  C    1.552493   0.000000
     8  C    2.356866   1.579843   0.000000
     9  H    6.735851   6.485520   5.338527   0.000000
    10  H    5.000665   5.009694   3.724765   2.303121   0.000000
    11  H    5.110016   4.570329   3.239274   2.348014   1.781881
    12  H    3.806078   3.315565   2.804545   3.554390   3.057952
    13  H    3.878793   4.082803   3.567705   3.379420   2.556265
    14  H    1.089590   2.323574   3.148045   7.691807   5.814559
    15  H    2.172359   1.098058   2.186187   6.271113   5.137529
    16  H    2.259272   1.096426   2.315783   7.439466   5.973172
    17  H    3.396132   2.314350   1.096951   5.018453   3.740590
    18  H    2.616386   2.186481   1.097383   5.903234   4.026401
                   11         12         13         14         15
    11  H    0.000000
    12  H    2.438563   0.000000
    13  H    3.046511   1.755830   0.000000
    14  H    6.038514   4.887162   4.847958   0.000000
    15  H    4.547264   2.817880   3.801600   3.078038   0.000000
    16  H    5.400041   4.281662   5.171494   2.624689   1.763882
    17  H    2.753423   2.747206   3.898348   4.203729   2.618778
    18  H    3.770032   3.803949   4.315865   3.074142   3.077787
                   16         17         18
    16  H    0.000000
    17  H    2.834874   0.000000
    18  H    2.624032   1.768286   0.000000
 Stoichiometry    C7H10O
 Framework group  C1[X(C7H10O)]
 Deg. of freedom    48
 Full point group                 C1      NOp   1
 Largest Abelian subgroup         C1      NOp   1
 Largest concise Abelian subgroup C1      NOp   1
                         Standard orientation:                         
 ---------------------------------------------------------------------
 Center     Atomic      Atomic             Coordinates (Angstroms)
 Number     Number       Type             X           Y           Z
 ---------------------------------------------------------------------
      1          8           0        3.361067   -0.105571    0.343458
      2          6           0        2.182828    0.232721   -0.392819
      3          6           0        0.994514   -0.337405    0.375012
      4          6           0       -0.338642   -0.266115   -0.340643
      5          6           0       -1.317207   -1.173127   -0.307540
      6          6           0       -2.545235   -0.761627    0.016711
      7          6           0       -2.303310    0.664616    0.580217
      8          6           0       -1.136916    1.081604   -0.400369
      9          1           0        4.120961    0.186451   -0.169497
     10          1           0        2.215190   -0.193917   -1.405509
     11          1           0        2.092070    1.325847   -0.483414
     12          1           0        0.895432    0.208022    1.323548
     13          1           0        1.234106   -1.373145    0.639335
     14          1           0       -3.466358   -1.033670   -0.497808
     15          1           0       -1.884781    0.580650    1.591905
     16          1           0       -3.187278    1.309310    0.651780
     17          1           0       -0.562610    1.988947   -0.176304
     18          1           0       -1.561464    1.202071   -1.405105
 ---------------------------------------------------------------------
 Rotational constants (GHZ):           6.1912012           0.9909830           0.9281719
 Standard basis: 6-31G(2df,p) (6D, 7F)
 There are   298 symmetry adapted cartesian basis functions of A   symmetry.
 There are   274 symmetry adapted basis functions of A   symmetry.
   274 basis functions,   422 primitive gaussians,   298 cartesian basis functions
    30 alpha electrons       30 beta electrons
       nuclear repulsion energy       349.0654806332 Hartrees.
 NAtoms=   18 NActive=   18 NUniq=   18 SFac= 1.00D+00 NAtFMM=   60 NAOKFM=F Big=F
 Integral buffers will be    131072 words long.
 Raffenetti 2 integral format.
 Two-electron integral symmetry is turned on.
 One-electron integrals computed using PRISM.
 PrsmSu:  requested number of processors reduced to:  13 ShMem   1 Linda.
 NBasis=   274 RedAO= T EigKep=  4.78D-04  NBF=   274
 NBsUse=   274 1.00D-06 EigRej= -1.00D+00 NBFU=   274
 Initial guess from the checkpoint file:  "OCCC1dCdCCC1.chk"
 B after Tr=    -0.000000   -0.000000   -0.000000
         Rot=    0.999957   -0.007496    0.001037   -0.005446 Ang=  -1.07 deg.
 ExpMin= 1.61D-01 ExpMax= 5.48D+03 ExpMxC= 8.25D+02 IAcc=2 IRadAn=         4 AccDes= 0.00D+00
 Harris functional with IExCor=  402 and IRadAn=       4 diagonalized for initial guess.
 HarFok:  IExCor=  402 AccDes= 0.00D+00 IRadAn=         4 IDoV= 1 UseB2=F ITyADJ=14
 ICtDFT=  3500011 ScaDFX=  1.000000  1.000000  1.000000  1.000000
 FoFCou: FMM=F IPFlag=           0 FMFlag=      100000 FMFlg1=           0
         NFxFlg=           0 DoJE=T BraDBF=F KetDBF=T FulRan=T
         wScrn=  0.000000 ICntrl=       500 IOpCl=  0 I1Cent=   200000004 NGrid=           0
         NMat0=    1 NMatS0=      1 NMatT0=    0 NMatD0=    1 NMtDS0=    0 NMtDT0=    0
 Petite list used in FoFCou.
 Requested convergence on RMS density matrix=1.00D-08 within 128 cycles.
 Requested convergence on MAX density matrix=1.00D-06.
 Requested convergence on             energy=1.00D-06.
 No special actions if energy rises.
 Integral accuracy reduced to 1.0D-05 until final iterations.
 Initial convergence to 1.0D-05 achieved.  Increase integral accuracy.
 SCF Done:  E(RB3LYP) =  -347.844752572     A.U. after   13 cycles
            NFock= 13  Conv=0.81D-08     -V/T= 2.0080
 PrsmSu:  requested number of processors reduced to:  13 ShMem   1 Linda.
 Calling FoFJK, ICntrl=      2127 FMM=F ISym2X=0 I1Cent= 0 IOpClX= 0 NMat=1 NMatS=1 NMatT=0.
 ***** Axes restored to original set *****
 -------------------------------------------------------------------
 Center     Atomic                   Forces (Hartrees/Bohr)
 Number     Number              X              Y              Z
 -------------------------------------------------------------------
      1        8           0.004982722   -0.000302963    0.000170971
      2        6          -0.007432897   -0.000249616    0.002014484
      3        6           0.005715016   -0.009898093   -0.004656052
      4        6          -0.010886116    0.026625503    0.007146624
      5        6          -0.000450115   -0.008157053   -0.011129321
      6        6           0.009134821   -0.009798588    0.016865652
      7        6          -0.004286246    0.007164296   -0.012666031
      8        6           0.001241760   -0.016811000    0.001008414
      9        1          -0.000264782    0.000757965   -0.000195014
     10        1           0.000658526   -0.000201912   -0.000214022
     11        1           0.002332842   -0.001011250   -0.000113211
     12        1           0.000876999    0.000707676    0.001161165
     13        1           0.002102571   -0.000857624   -0.000216941
     14        1          -0.006242366    0.006350156   -0.006740226
     15        1           0.002236116    0.002242831    0.002940859
     16        1           0.002490868   -0.003424530    0.002880218
     17        1          -0.002244826    0.004077666   -0.001327245
     18        1           0.000035106    0.002786539    0.003069677
 -------------------------------------------------------------------
 Cartesian Forces:  Max     0.026625503 RMS     0.006818659

 GradGradGradGradGradGradGradGradGradGradGradGradGradGradGradGradGradGrad
 Berny optimization.
 Using GEDIIS/GDIIS optimizer.
 FormGI is forming the generalized inverse of G from B-inverse, IUseBI=4.
 Internal  Forces:  Max     0.008950452 RMS     0.002344005
 Search for a local minimum.
 Step number   2 out of a maximum of  103
 All quantities printed in internal units (Hartrees-Bohrs-Radians)
 Mixed Optimization -- RFO/linear search
 Update second derivatives using D2CorX and points    1    2
 DE= -2.14D-02 DEPred=-2.33D-02 R= 9.21D-01
 TightC=F SS=  1.41D+00  RLast= 6.00D-01 DXNew= 5.0454D-01 1.8009D+00
 Trust test= 9.21D-01 RLast= 6.00D-01 DXMaxT set to 5.05D-01
 ITU=  1  0
 Use linear search instead of GDIIS.
     Eigenvalues ---    0.00365   0.00463   0.00723   0.01314   0.01492
     Eigenvalues ---    0.01949   0.02621   0.03767   0.04212   0.04370
     Eigenvalues ---    0.05349   0.05392   0.05867   0.05938   0.06182
     Eigenvalues ---    0.07520   0.07690   0.08384   0.09730   0.09820
     Eigenvalues ---    0.11076   0.13225   0.13546   0.13559   0.16002
     Eigenvalues ---    0.18927   0.21117   0.21921   0.21958   0.22311
     Eigenvalues ---    0.25384   0.27786   0.29248   0.29437   0.31702
     Eigenvalues ---    0.33053   0.33133   0.33517   0.34044   0.34301
     Eigenvalues ---    0.34430   0.34526   0.34720   0.35414   0.41395
     Eigenvalues ---    0.52861   0.56610   0.61833
 RFO step:  Lambda=-1.04071098D-02 EMin= 3.64807398D-03
 Quartic linear search produced a step of  0.42005.
 Iteration  1 RMS(Cart)=  0.10482892 RMS(Int)=  0.00907921
 Iteration  2 RMS(Cart)=  0.01210196 RMS(Int)=  0.00273493
 Iteration  3 RMS(Cart)=  0.00011563 RMS(Int)=  0.00273312
 Iteration  4 RMS(Cart)=  0.00000015 RMS(Int)=  0.00273312
 Variable       Old X    -DE/DX   Delta X   Delta X   Delta X     New X
                                 (Linear)    (Quad)   (Total)
    R1        2.70224  -0.00472   0.00114  -0.01607  -0.01493   2.68731
    R2        1.81830  -0.00058  -0.00794   0.00629  -0.00165   1.81665
    R3        2.88250   0.00180  -0.00395   0.01181   0.00787   2.89036
    R4        2.07750   0.00047   0.00483  -0.00299   0.00184   2.07934
    R5        2.07987   0.00046   0.00312  -0.00133   0.00180   2.08167
    R6        2.86251  -0.00895  -0.00647  -0.03203  -0.03850   2.82402
    R7        2.07615   0.00073  -0.00251   0.00531   0.00279   2.07894
    R8        2.07012  -0.00081   0.00071  -0.00375  -0.00304   2.06708
    R9        2.52217   0.00538   0.02532  -0.01621   0.00968   2.53185
   R10        2.96220  -0.00257   0.02902  -0.04276  -0.01291   2.94929
   R11        2.52300   0.00037   0.01393  -0.01383   0.00041   2.52341
   R12        2.93379  -0.00237   0.02610  -0.03295  -0.00666   2.92712
   R13        2.05903  -0.00262   0.00266  -0.01228  -0.00962   2.04941
   R14        2.98547   0.00319   0.00996   0.01265   0.02087   3.00635
   R15        2.07503  -0.00077  -0.00548   0.00241  -0.00308   2.07195
   R16        2.07194   0.00027   0.00314  -0.00208   0.00106   2.07300
   R17        2.07294   0.00039   0.00492  -0.00341   0.00151   2.07445
   R18        2.07375  -0.00121  -0.00634   0.00150  -0.00484   2.06892
    A1        1.88014   0.00078  -0.00026   0.00640   0.00614   1.88628
    A2        1.86951  -0.00006  -0.00790   0.01080   0.00300   1.87251
    A3        1.93717   0.00062   0.01811  -0.01013   0.00787   1.94505
    A4        1.92334   0.00083   0.01835  -0.00649   0.01168   1.93502
    A5        1.91939  -0.00042  -0.00826   0.00245  -0.00592   1.91347
    A6        1.92668  -0.00040  -0.01433   0.01032  -0.00413   1.92254
    A7        1.88813  -0.00057  -0.00495  -0.00671  -0.01247   1.87567
    A8        2.01554  -0.00148  -0.00209  -0.01038  -0.01260   2.00294
    A9        1.89579   0.00036   0.00669  -0.00759  -0.00123   1.89455
   A10        1.88017   0.00096  -0.00752   0.01840   0.01084   1.89101
   A11        1.88090  -0.00034  -0.01871   0.00792  -0.01085   1.87005
   A12        1.92942  -0.00005   0.01314  -0.01591  -0.00265   1.92677
   A13        1.85542   0.00072   0.00967   0.00902   0.01879   1.87421
   A14        2.21627  -0.00124   0.01169   0.02564   0.02481   2.24108
   A15        2.10210   0.00344   0.04467   0.00928   0.04314   2.14525
   A16        1.78426   0.00094  -0.00946   0.04512   0.03041   1.81467
   A17        2.06116  -0.00399   0.00996  -0.04417  -0.02812   2.03304
   A18        1.80079   0.00327  -0.00643   0.04407   0.03287   1.83366
   A19        2.19684  -0.00152   0.01537   0.01937   0.02296   2.21980
   A20        2.13235   0.00172   0.03850   0.00288   0.03130   2.16365
   A21        1.70342  -0.00140   0.00458  -0.00163   0.00321   1.70664
   A22        1.90029   0.00234   0.03590  -0.00084   0.03674   1.93703
   A23        2.02443   0.00121   0.00777  -0.00018   0.00568   2.03011
   A24        1.88666  -0.00063  -0.03672   0.03091  -0.00732   1.87935
   A25        2.07208  -0.00146  -0.00627  -0.03013  -0.03614   2.03593
   A26        1.86724   0.00010  -0.00113   0.00487   0.00114   1.86838
   A27        1.69653   0.00036   0.00455   0.00134   0.00688   1.70341
   A28        2.02279   0.00021   0.00610  -0.00477  -0.00080   2.02199
   A29        1.90317   0.00185   0.03633  -0.00348   0.03440   1.93756
   A30        2.06925  -0.00199  -0.00483  -0.02946  -0.03424   2.03501
   A31        1.88771  -0.00069  -0.03839   0.03400  -0.00610   1.88161
   A32        1.87419   0.00044   0.00005   0.00528   0.00313   1.87732
    D1        3.06159   0.00018   0.00494   0.00544   0.01039   3.07198
    D2        0.96608   0.00037   0.00921   0.00159   0.01115   0.97724
    D3       -1.12519   0.00014  -0.00641   0.02073   0.01395  -1.11124
    D4       -2.99079  -0.00076  -0.01847  -0.03485  -0.05329  -3.04409
    D5        1.17790   0.00041   0.00227  -0.03231  -0.02999   1.14792
    D6       -0.82498  -0.00111  -0.00861  -0.04856  -0.05719  -0.88217
    D7       -0.88396  -0.00028  -0.00610  -0.03914  -0.04537  -0.92933
    D8       -2.99845   0.00089   0.01464  -0.03660  -0.02206  -3.02051
    D9        1.28185  -0.00063   0.00376  -0.05285  -0.04927   1.23259
   D10        1.19811  -0.00150  -0.02756  -0.03945  -0.06689   1.13122
   D11       -0.91638  -0.00032  -0.00682  -0.03691  -0.04358  -0.95996
   D12       -2.91926  -0.00184  -0.01770  -0.05316  -0.07078  -2.99005
   D13        2.50266  -0.00298  -0.03158  -0.09520  -0.12833   2.37433
   D14       -1.36140   0.00311   0.03509   0.06308   0.09950  -1.26190
   D15       -1.65801  -0.00376  -0.03890  -0.10597  -0.14610  -1.80412
   D16        0.76111   0.00233   0.02777   0.05231   0.08172   0.84283
   D17        0.36282  -0.00312  -0.03054  -0.09921  -0.13128   0.23154
   D18        2.78194   0.00297   0.03613   0.05907   0.09655   2.87849
   D19        2.21990   0.00586   0.08304   0.12994   0.20995   2.42985
   D20       -0.29887  -0.00040   0.00525   0.00409   0.01033  -0.28855
   D21       -1.90501  -0.00294  -0.06083  -0.14860  -0.21054  -2.11555
   D22        0.30559  -0.00502  -0.06052  -0.18627  -0.24803   0.05756
   D23        2.42198  -0.00285  -0.03085  -0.18538  -0.21685   2.20513
   D24        0.66558   0.00077  -0.00518  -0.02712  -0.03296   0.63261
   D25        2.87618  -0.00132  -0.00487  -0.06480  -0.07045   2.80573
   D26       -1.29062   0.00085   0.02480  -0.06391  -0.03927  -1.32989
   D27       -0.22686  -0.00096   0.00044   0.01308   0.01305  -0.21381
   D28        2.34901   0.00570   0.07953   0.12505   0.20351   2.55251
   D29        0.63215   0.00080  -0.00140  -0.03508  -0.03633   0.59582
   D30       -1.32503   0.00142   0.02670  -0.06798  -0.04050  -1.36553
   D31        2.85195  -0.00135  -0.00183  -0.07357  -0.07559   2.77637
   D32       -1.97056  -0.00416  -0.06579  -0.14781  -0.21542  -2.18597
   D33        2.35546  -0.00354  -0.03769  -0.18071  -0.21959   2.13587
   D34        0.24925  -0.00631  -0.06622  -0.18630  -0.25468  -0.00542
   D35       -0.75933  -0.00072   0.00035   0.05217   0.04992  -0.70942
   D36       -2.93666  -0.00020  -0.00820   0.07282   0.06356  -2.87310
   D37        1.20946   0.00126   0.03207   0.05829   0.08849   1.29795
   D38        1.20886   0.00108   0.03185   0.05930   0.08918   1.29804
   D39       -0.96847   0.00160   0.02330   0.07995   0.10282  -0.86565
   D40       -3.10553   0.00305   0.06358   0.06542   0.12775  -2.97778
   D41       -2.94548  -0.00038  -0.00961   0.07024   0.05969  -2.88579
   D42        1.16037   0.00014  -0.01816   0.09089   0.07333   1.23371
   D43       -0.97669   0.00159   0.02211   0.07636   0.09827  -0.87843
         Item               Value     Threshold  Converged?
 Maximum Force            0.008950     0.000450     NO 
 RMS     Force            0.002344     0.000300     NO 
 Maximum Displacement     0.385020     0.001800     NO 
 RMS     Displacement     0.111136     0.001200     NO 
 Predicted change in Energy=-8.627691D-03
 GradGradGradGradGradGradGradGradGradGradGradGradGradGradGradGradGradGrad

                          Input orientation:                          
 ---------------------------------------------------------------------
 Center     Atomic      Atomic             Coordinates (Angstroms)
 Number     Number       Type             X           Y           Z
 ---------------------------------------------------------------------
      1          8           0        0.947179   -0.214765   -0.011828
      2          6           0        2.359078   -0.108831   -0.144435
      3          6           0        2.636250    0.885410   -1.273184
      4          6           0        4.077083    1.025361   -1.644208
      5          6           0        4.620229    1.076701   -2.867894
      6          6           0        5.608569    1.957144   -3.044276
      7          6           0        5.571724    2.860855   -1.786800
      8          6           0        5.119195    1.753040   -0.738520
      9          1           0        0.759332   -0.884160    0.652085
     10          1           0        2.814300   -1.080620   -0.387649
     11          1           0        2.815870    0.244802    0.793514
     12          1           0        2.284364    1.879120   -0.958546
     13          1           0        2.045062    0.590255   -2.144899
     14          1           0        6.474425    1.850240   -3.688488
     15          1           0        4.765591    3.600572   -1.858381
     16          1           0        6.492689    3.410132   -1.555502
     17          1           0        4.743863    2.114739    0.227586
     18          1           0        5.981998    1.109666   -0.537825
 ---------------------------------------------------------------------
                    Distance matrix (angstroms):
                    1          2          3          4          5
     1  O    0.000000
     2  C    1.422064   0.000000
     3  C    2.377891   1.529515   0.000000
     4  C    3.741507   2.547008   1.494404   0.000000
     5  C    4.828694   3.733030   2.552619   1.339795   0.000000
     6  C    5.970049   4.820428   3.622163   2.274612   1.335330
     7  C    5.830642   4.673060   3.575359   2.371354   2.292883
     8  C    4.669695   3.381973   2.683964   1.560700   2.289243
     9  H    0.961331   1.948016   3.218829   4.463934   5.580480
    10  H    2.092149   1.100342   2.163596   2.758390   3.750603
    11  H    2.086093   1.101573   2.171148   2.853493   4.165774
    12  H    2.658701   2.149490   1.100127   2.100685   3.121819
    13  H    2.530493   2.142238   1.093850   2.137550   2.718609
    14  H    6.952159   5.773590   4.636397   3.256801   2.170203
    15  H    5.704982   4.742213   3.499807   2.674251   2.722162
    16  H    6.802609   5.609006   4.618013   3.395608   3.267014
    17  H    4.460798   3.281746   2.864540   2.266043   3.267231
    18  H    5.232608   3.842530   3.432939   2.204516   2.699022
                    6          7          8          9         10
     6  C    0.000000
     7  C    1.548966   0.000000
     8  C    2.365937   1.590890   0.000000
     9  H    6.726901   6.567528   5.281762   0.000000
    10  H    4.908525   5.009614   3.669506   2.311393   0.000000
    11  H    5.045782   4.593092   3.150748   2.350299   1.775356
    12  H    3.925137   3.529384   2.846151   3.543384   3.060525
    13  H    3.921205   4.209657   3.574950   3.413227   2.543910
    14  H    1.084501   2.335086   3.247831   7.679831   5.734282
    15  H    2.194952   1.096429   2.189178   6.516546   5.280543
    16  H    2.260374   1.096987   2.302151   7.495717   5.921256
    17  H    3.387866   2.302128   1.097752   5.005006   3.783126
    18  H    2.672071   2.189732   1.094823   5.715546   3.854116
                   11         12         13         14         15
    11  H    0.000000
    12  H    2.454223   0.000000
    13  H    3.057410   1.768014   0.000000
    14  H    6.004231   5.001003   4.856901   0.000000
    15  H    4.700548   3.151125   4.067601   3.055007   0.000000
    16  H    5.390379   4.517782   5.299102   2.642579   1.763766
    17  H    2.744831   2.740723   3.903366   4.289573   2.561138
    18  H    3.541866   3.800206   4.283916   3.273776   3.070525
                   16         17         18
    16  H    0.000000
    17  H    2.813510   0.000000
    18  H    2.566830   1.768899   0.000000
 Stoichiometry    C7H10O
 Framework group  C1[X(C7H10O)]
 Deg. of freedom    48
 Full point group                 C1      NOp   1
 Largest Abelian subgroup         C1      NOp   1
 Largest concise Abelian subgroup C1      NOp   1
                         Standard orientation:                         
 ---------------------------------------------------------------------
 Center     Atomic      Atomic             Coordinates (Angstroms)
 Number     Number       Type             X           Y           Z
 ---------------------------------------------------------------------
      1          8           0        3.379995   -0.075865    0.279502
      2          6           0        2.167218    0.219860   -0.401663
      3          6           0        1.024135   -0.360055    0.432888
      4          6           0       -0.326363   -0.257757   -0.198724
      5          6           0       -1.286863   -1.189467   -0.265130
      6          6           0       -2.539307   -0.768397   -0.072283
      7          6           0       -2.399065    0.670644    0.483406
      8          6           0       -1.099876    1.091123   -0.332827
      9          1           0        4.110512    0.228311   -0.266371
     10          1           0        2.152511   -0.224498   -1.408183
     11          1           0        2.037941    1.307565   -0.518494
     12          1           0        0.977441    0.183614    1.388149
     13          1           0        1.259869   -1.403381    0.661819
     14          1           0       -3.439247   -1.152260   -0.540150
     15          1           0       -2.133914    0.656647    1.547199
     16          1           0       -3.277134    1.319900    0.379288
     17          1           0       -0.567473    1.985056    0.017159
     18          1           0       -1.399736    1.270266   -1.370434
 ---------------------------------------------------------------------
 Rotational constants (GHZ):           6.3210164           0.9864944           0.9163776
 Standard basis: 6-31G(2df,p) (6D, 7F)
 There are   298 symmetry adapted cartesian basis functions of A   symmetry.
 There are   274 symmetry adapted basis functions of A   symmetry.
   274 basis functions,   422 primitive gaussians,   298 cartesian basis functions
    30 alpha electrons       30 beta electrons
       nuclear repulsion energy       348.6113358871 Hartrees.
 NAtoms=   18 NActive=   18 NUniq=   18 SFac= 1.00D+00 NAtFMM=   60 NAOKFM=F Big=F
 Integral buffers will be    131072 words long.
 Raffenetti 2 integral format.
 Two-electron integral symmetry is turned on.
 One-electron integrals computed using PRISM.
 PrsmSu:  requested number of processors reduced to:  13 ShMem   1 Linda.
 NBasis=   274 RedAO= T EigKep=  4.78D-04  NBF=   274
 NBsUse=   274 1.00D-06 EigRej= -1.00D+00 NBFU=   274
 Initial guess from the checkpoint file:  "OCCC1dCdCCC1.chk"
 B after Tr=     0.000000   -0.000000   -0.000000
         Rot=    0.999990    0.002854    0.002544   -0.002243 Ang=   0.51 deg.
 ExpMin= 1.61D-01 ExpMax= 5.48D+03 ExpMxC= 8.25D+02 IAcc=2 IRadAn=         4 AccDes= 0.00D+00
 Harris functional with IExCor=  402 and IRadAn=       4 diagonalized for initial guess.
 HarFok:  IExCor=  402 AccDes= 0.00D+00 IRadAn=         4 IDoV= 1 UseB2=F ITyADJ=14
 ICtDFT=  3500011 ScaDFX=  1.000000  1.000000  1.000000  1.000000
 FoFCou: FMM=F IPFlag=           0 FMFlag=      100000 FMFlg1=           0
         NFxFlg=           0 DoJE=T BraDBF=F KetDBF=T FulRan=T
         wScrn=  0.000000 ICntrl=       500 IOpCl=  0 I1Cent=   200000004 NGrid=           0
         NMat0=    1 NMatS0=      1 NMatT0=    0 NMatD0=    1 NMtDS0=    0 NMtDT0=    0
 Petite list used in FoFCou.
 Requested convergence on RMS density matrix=1.00D-08 within 128 cycles.
 Requested convergence on MAX density matrix=1.00D-06.
 Requested convergence on             energy=1.00D-06.
 No special actions if energy rises.
 Integral accuracy reduced to 1.0D-05 until final iterations.
 Initial convergence to 1.0D-05 achieved.  Increase integral accuracy.
 SCF Done:  E(RB3LYP) =  -347.854408278     A.U. after   13 cycles
            NFock= 13  Conv=0.79D-08     -V/T= 2.0079
 PrsmSu:  requested number of processors reduced to:  13 ShMem   1 Linda.
 Calling FoFJK, ICntrl=      2127 FMM=F ISym2X=0 I1Cent= 0 IOpClX= 0 NMat=1 NMatS=1 NMatT=0.
 ***** Axes restored to original set *****
 -------------------------------------------------------------------
 Center     Atomic                   Forces (Hartrees/Bohr)
 Number     Number              X              Y              Z
 -------------------------------------------------------------------
      1        8           0.002082320    0.000411280   -0.000242400
      2        6          -0.002744642   -0.000116039    0.001153882
      3        6           0.002331925   -0.003029812   -0.000580802
      4        6           0.003048924    0.016617819    0.008393382
      5        6          -0.004358333   -0.012636657   -0.014498603
      6        6           0.003611749    0.001532901    0.015139685
      7        6          -0.002434678    0.002087868   -0.007102448
      8        6          -0.001529426   -0.008624174   -0.001840084
      9        1          -0.000210147    0.000000855    0.000270656
     10        1          -0.000116630   -0.000265361   -0.000592820
     11        1           0.001157666   -0.000131645   -0.000335990
     12        1          -0.001720350   -0.000543573    0.001309341
     13        1           0.000870965   -0.000155089   -0.000194999
     14        1          -0.001249150    0.003687223   -0.002614709
     15        1           0.001284416    0.002191158    0.000858577
     16        1           0.001549611   -0.003191881    0.000202630
     17        1          -0.002070436    0.001648031   -0.001820615
     18        1           0.000496217    0.000517096    0.002495316
 -------------------------------------------------------------------
 Cartesian Forces:  Max     0.016617819 RMS     0.004763486

 GradGradGradGradGradGradGradGradGradGradGradGradGradGradGradGradGradGrad
 Berny optimization.
 Using GEDIIS/GDIIS optimizer.
 FormGI is forming the generalized inverse of G from B-inverse, IUseBI=4.
 Internal  Forces:  Max     0.009806963 RMS     0.002042551
 Search for a local minimum.
 Step number   3 out of a maximum of  103
 All quantities printed in internal units (Hartrees-Bohrs-Radians)
 Mixed Optimization -- RFO/linear search
 Update second derivatives using D2CorX and points    2    3
 DE= -9.66D-03 DEPred=-8.63D-03 R= 1.12D+00
 TightC=F SS=  1.41D+00  RLast= 7.76D-01 DXNew= 8.4853D-01 2.3292D+00
 Trust test= 1.12D+00 RLast= 7.76D-01 DXMaxT set to 8.49D-01
 ITU=  1  1  0
 Use linear search instead of GDIIS.
     Eigenvalues ---    0.00362   0.00454   0.00628   0.01218   0.01314
     Eigenvalues ---    0.01495   0.02229   0.03872   0.04089   0.04511
     Eigenvalues ---    0.05350   0.05366   0.05889   0.06038   0.06049
     Eigenvalues ---    0.07286   0.07505   0.08211   0.09678   0.09886
     Eigenvalues ---    0.11002   0.13165   0.13573   0.14844   0.16001
     Eigenvalues ---    0.20701   0.21809   0.21950   0.22015   0.23351
     Eigenvalues ---    0.25625   0.28031   0.29418   0.29904   0.31717
     Eigenvalues ---    0.33102   0.33156   0.33511   0.34044   0.34293
     Eigenvalues ---    0.34429   0.34532   0.34731   0.35382   0.41174
     Eigenvalues ---    0.52852   0.57367   0.61646
 RFO step:  Lambda=-4.42309853D-03 EMin= 3.62289486D-03
 Quartic linear search produced a step of  1.02902.
 Iteration  1 RMS(Cart)=  0.12415336 RMS(Int)=  0.02288969
 Iteration  2 RMS(Cart)=  0.03627452 RMS(Int)=  0.00427169
 Iteration  3 RMS(Cart)=  0.00103738 RMS(Int)=  0.00421115
 Iteration  4 RMS(Cart)=  0.00000104 RMS(Int)=  0.00421115
 Iteration  5 RMS(Cart)=  0.00000000 RMS(Int)=  0.00421115
 Variable       Old X    -DE/DX   Delta X   Delta X   Delta X     New X
                                 (Linear)    (Quad)   (Total)
    R1        2.68731  -0.00189  -0.01536   0.00140  -0.01396   2.67335
    R2        1.81665   0.00023  -0.00170   0.00142  -0.00028   1.81638
    R3        2.89036   0.00022   0.00809  -0.00414   0.00396   2.89432
    R4        2.07934   0.00032   0.00190   0.00082   0.00272   2.08206
    R5        2.08167   0.00015   0.00185  -0.00016   0.00169   2.08336
    R6        2.82402  -0.00104  -0.03962   0.01899  -0.02062   2.80339
    R7        2.07894   0.00043   0.00287   0.00040   0.00327   2.08221
    R8        2.06708  -0.00027  -0.00313   0.00058  -0.00254   2.06453
    R9        2.53185   0.00730   0.00996   0.01380   0.02469   2.55653
   R10        2.94929  -0.00556  -0.01328  -0.02689  -0.03927   2.91003
   R11        2.52341   0.00541   0.00042   0.01619   0.01715   2.54056
   R12        2.92712  -0.00540  -0.00686  -0.02301  -0.02989   2.89724
   R13        2.04941   0.00019  -0.00990   0.00766  -0.00223   2.04718
   R14        3.00635   0.00010   0.02148  -0.00798   0.01140   3.01774
   R15        2.07195   0.00048  -0.00317   0.00443   0.00126   2.07321
   R16        2.07300  -0.00025   0.00109  -0.00190  -0.00081   2.07220
   R17        2.07445  -0.00035   0.00156  -0.00260  -0.00104   2.07341
   R18        2.06892   0.00054  -0.00498   0.00593   0.00095   2.06987
    A1        1.88628   0.00031   0.00632  -0.00063   0.00569   1.89197
    A2        1.87251   0.00011   0.00309  -0.00052   0.00259   1.87510
    A3        1.94505   0.00019   0.00810   0.00101   0.00912   1.95417
    A4        1.93502   0.00042   0.01201   0.00222   0.01424   1.94926
    A5        1.91347  -0.00031  -0.00609  -0.00248  -0.00867   1.90480
    A6        1.92254  -0.00053  -0.00425  -0.00677  -0.01113   1.91141
    A7        1.87567   0.00009  -0.01283   0.00626  -0.00683   1.86884
    A8        2.00294  -0.00169  -0.01296  -0.00755  -0.02064   1.98229
    A9        1.89455  -0.00096  -0.00127  -0.01602  -0.01737   1.87718
   A10        1.89101   0.00074   0.01115  -0.00607   0.00502   1.89603
   A11        1.87005   0.00185  -0.01117   0.03430   0.02282   1.89287
   A12        1.92677   0.00012  -0.00272   0.00123  -0.00153   1.92524
   A13        1.87421  -0.00001   0.01934  -0.00595   0.01329   1.88750
   A14        2.24108  -0.00120   0.02553   0.00064   0.00514   2.24622
   A15        2.14525  -0.00197   0.04439  -0.02240   0.00193   2.14717
   A16        1.81467   0.00406   0.03129   0.03749   0.06022   1.87489
   A17        2.03304  -0.00981  -0.02894  -0.05641  -0.07612   1.95692
   A18        1.83366   0.00535   0.03382   0.03987   0.06686   1.90052
   A19        2.21980  -0.00163   0.02363  -0.00436   0.00404   2.22384
[...]
 9,0.2571846,-0.0462303,0.0156001,-0.1879308,0.0071156,-0.1478072,0.020
 0908,-0.1636873,-0.2914717,-0.1675903,-0.0831852,0.1715095,0.0357393,-
 0.0389489,-0.0304158,0.0635264,0.2520663,0.0346034,0.0024725,0.0238837
 ,0.1666232,0.0728593,0.0122492,0.0816745,0.2692036,-0.0446199,0.021848
 7,0.046057,0.0395742,-0.1131169,-0.0437766,0.050895,-0.081353,-0.03862
 6,-0.1194092,-0.0257872,-0.0826467,-0.0419403,-0.0117062,-0.00138,-0.0
 922915,0.0244286,-0.144319,-0.000612,0.024475,0.0439118,0.06859,-0.052
 6875,-0.0677158,0.0316943,-0.067707,0.0129321,-0.0277587,-0.0007005,-0
 .0218664,-0.0060593,0.0383853,-0.0230592,-0.0812692,0.0046503,-0.04490
 54,-0.0338834,-0.0101252,0.0590065,-0.0082868,0.0713076,0.0089959,0.10
 02748,-0.0402267,-0.0960723,0.0332717,0.0682292,-0.0189745,-0.0066573,
 -0.1246245,0.0145679,-0.0165506,0.0351291,0.0419559,-0.1440229,-0.0750
 001,-0.0265661,-0.0434477,0.0374731,0.0342325,-0.09826,-0.041476,0.061
 2787,0.0162788,0.0708823,0.0757883,0.0627533,-0.0216474,-0.1074334,0.0
 639124,-0.0353658,-0.0323803,0.0101971,0.0279432,-0.0807874,0.0653947,
 0.009899,0.0511243,-0.0467727,0.0159885,-0.0533931\Polar=91.9359234,18
 .2937692,71.8221055,-17.3132049,0.3595619,79.4761534\Quadrupole=-0.940
 6036,3.3843994,-2.4437958,3.0131084,-0.5950993,-3.7530099\PG=C01 [X(C7
 H10O1)]\NImag=0\\0.34392786,0.05108547,0.48498140,-0.09182087,-0.23530
 017,0.18487790,-0.22145948,-0.02586333,0.04670300,0.49249562,0.0184039
 3,-0.08779647,0.00657937,-0.02487098,0.52078101,0.02662062,0.01697787,
 -0.07846434,0.03011340,0.05141801,0.54170689,-0.01499877,-0.03831527,0
 .02730907,-0.06391160,0.01989893,-0.01663498,0.52653669,-0.00843312,-0
 .00888833,0.00888981,-0.00348527,-0.13456621,0.04098792,-0.01207590,0.
 46703436,0.00844873,0.01466831,-0.00691136,-0.00151523,0.03879538,-0.0
 9768947,0.02532597,0.08473407,0.54670724,0.00284668,0.00244351,-0.0018
 7263,-0.00805787,-0.01597467,0.01440965,-0.20429518,-0.01989982,0.0230
 3761,0.53091030,-0.00212617,-0.00596857,0.00405097,-0.02639767,-0.0022
 4992,0.00424819,-0.03042770,-0.08102502,-0.00204326,0.08582238,0.26188
 142,0.00093307,0.00437675,-0.00213058,0.02323073,0.00494678,-0.0102963
 1,0.02632418,0.01107589,-0.09076351,-0.14185413,0.06410892,0.54633328,
 -0.00106698,-0.00209547,0.00163754,-0.00180429,0.00549777,-0.00278954,
 -0.01203046,0.00373252,0.03168853,-0.10345884,0.03273462,0.11848872,0.
 42039052,0.00033082,0.00152625,-0.00023002,0.00062272,-0.00411041,0.00
 104939,-0.00112141,0.00409457,0.00815983,0.03597064,-0.04464177,-0.041
 74905,0.16296189,0.21290976,0.00053857,-0.00005664,0.00016989,-0.00424
 406,-0.00306301,0.00332193,0.01561618,-0.01994103,-0.00217669,0.098333
 80,-0.03199703,-0.30657288,-0.18996247,0.04174430,0.37713047,0.0007924
 1,0.00055842,-0.00072916,-0.00036525,-0.00148817,0.00129653,0.00007698
 ,0.00117911,0.00287593,-0.03621729,-0.00998833,0.03176807,-0.28034453,
 -0.14774733,0.05556323,0.59293205,0.00018669,0.00055123,-0.00048060,0.
 00109822,-0.00114075,0.00020100,0.00011729,0.01091364,-0.00553639,-0.0
 2167734,-0.01086913,0.00450552,-0.16610032,-0.17204431,0.04563192,0.14
 394830,0.37697751,-0.00023786,-0.00027783,0.00012732,-0.00040080,0.000
 28425,-0.00012553,0.00053150,-0.00140303,-0.00473357,0.01570839,-0.001
 23417,-0.03111295,0.06330282,0.04326325,-0.03752960,-0.23024530,0.0731
 5280,0.40737609,-0.00033319,-0.00066180,0.00061692,-0.00119315,0.00093
 024,-0.00074908,0.00078963,-0.00417494,-0.00153547,-0.04034205,-0.0348
 6735,0.00004705,-0.00144289,-0.01925116,0.01758516,-0.07199610,-0.0034
 5678,-0.01534643,0.55913615,0.00016850,0.00042653,-0.00009516,0.000782
 19,-0.00059596,-0.00011955,-0.00092640,0.00199828,-0.00256394,-0.01012
 244,-0.01514889,0.01402575,-0.03161183,-0.02826438,-0.02503471,0.00161
 480,-0.11211131,-0.04619773,0.00450550,0.52054209,-0.00019747,-0.00012
 351,0.00015389,0.00054414,0.00092098,-0.00049407,-0.00332369,-0.000086
 59,-0.00267091,0.00603436,0.00131082,0.00309418,-0.00604460,-0.0114860
 8,0.00562941,-0.00337824,-0.06408400,-0.12648243,0.05183660,0.00266213
 ,0.36052709,-0.00003397,-0.00019193,0.00037905,-0.00011908,0.00042973,
 -0.00141776,-0.01576244,-0.01058289,-0.01498961,-0.10624190,-0.0207234
 0,-0.03308540,-0.00068750,-0.02576140,-0.01017790,-0.00713760,0.014796
 55,0.02905669,-0.08258927,-0.01483383,0.02059405,0.46336083,0.00040250
 ,0.00037382,-0.00033483,0.00164080,0.00087077,0.00009538,-0.00745091,0
 .00458328,-0.00737547,-0.03993941,-0.10677542,-0.03508725,0.00119374,0
 .01725395,-0.01642289,0.00529761,-0.00456155,-0.02101312,-0.01379899,-
 0.08007974,0.01872167,-0.10073216,0.45298807,0.00028028,-0.00008762,-0
 .00029172,-0.00071331,-0.00067928,-0.00019943,0.00584508,-0.00040018,0
 .01156185,-0.03180578,-0.02545643,-0.09000189,-0.00373292,-0.01975327,
 -0.03614250,0.01446340,-0.00048171,-0.04356030,0.02325139,0.02041635,-
 0.10032088,0.00852843,0.04944627,0.52133791,-0.04276548,-0.00546608,0.
 01208676,-0.01099382,-0.04053138,0.02297764,-0.00728320,-0.00029712,0.
 00132133,0.00052465,-0.00142161,0.00138188,-0.00028023,0.00021495,-0.0
 0033465,0.00003022,0.00021094,-0.00004256,-0.00014120,0.00008070,-0.00
 000777,0.00002584,0.00005375,-0.00007368,0.05895758,-0.05327705,-0.403
 10148,0.21620876,0.00660820,-0.00450369,-0.00010337,-0.00220525,0.0010
 8012,-0.00058972,0.00016244,0.00012135,0.00061205,-0.00010970,-0.00029
 865,-0.00029414,-0.00016885,0.00007404,0.00015851,0.00003288,-0.000041
 44,0.00001000,-0.00003496,-0.00000182,0.00008666,0.04629449,0.40422002
 ,0.03629613,0.20464214,-0.11368398,-0.00106055,0.01079383,-0.00709575,
 0.00368155,-0.00020330,-0.00082947,-0.00014501,0.00100760,0.00006906,-
 0.00002794,-0.00018515,-0.00010878,0.00002432,0.00001931,0.00012106,0.
 00017700,-0.00007786,-0.00006395,0.00001293,-0.00007403,-0.00003517,-0
 .03672177,-0.21513090,0.11971320,-0.02804916,0.02455383,0.02455268,-0.
 06788628,0.04900611,0.03267623,0.00188577,-0.00067387,-0.00210426,0.00
 040996,-0.00035549,-0.00061441,0.00003110,-0.00006844,-0.00038103,-0.0
 0011731,0.00006923,0.00010214,0.00005578,-0.00001916,0.00000339,0.0000
 5549,-0.00005272,0.00008291,0.00130808,0.00132226,-0.00127601,0.084765
 22,-0.00102996,0.00971100,0.00353115,0.05312033,-0.20288066,-0.1053627
 0,0.00503471,-0.02455106,-0.01257099,0.00248656,-0.00064730,-0.0016119
 7,-0.00030958,0.00134451,0.00028454,-0.00017083,-0.00004034,-0.0000236
 4,0.00002121,0.00011896,-0.00005661,-0.00007631,-0.00033657,-0.0001189
 6,0.00080548,0.00160029,0.00020236,-0.06042240,0.21892496,0.01161040,-
 0.00293519,-0.00214561,0.03333632,-0.10754181,-0.12555069,-0.00403397,
 0.01652471,0.00823714,-0.00146773,0.00053613,0.00126397,-0.00030725,-0
 .00025221,0.00003138,0.00005475,-0.00012065,-0.00008582,-0.00003592,-0
 .00000516,0.00010143,-0.00000399,0.00003442,0.00010058,0.00054175,-0.0
 0045685,0.00038366,-0.04491378,0.11368919,0.13174998,-0.04047805,-0.00
 565744,-0.01893702,-0.11745077,-0.01124742,-0.10504435,0.00284181,0.00
 112678,0.00110050,0.00030019,0.00057997,0.00009452,0.00031722,-0.00022
 990,-0.00014169,-0.00020488,-0.00007821,0.00012466,0.00011132,0.000016
 77,0.00013764,0.00000111,0.00000071,-0.00017017,0.00046009,0.00127653,
 -0.00081255,0.00719896,0.00094394,0.00472050,0.14658655,-0.00602013,0.
 00372737,-0.00022074,-0.00974251,-0.05600688,-0.02112827,0.01355882,0.
 00030873,0.02510830,0.00184372,0.00091051,-0.00049128,-0.00027489,0.00
 023279,0.00031386,0.00013623,0.00009136,0.00000736,-0.00014772,-0.0000
 2950,0.00001699,-0.00010081,-0.00007501,0.00002663,-0.00039691,0.00014
 602,-0.00064422,-0.01317409,-0.00126577,-0.02291583,0.01448962,0.05469
 851,0.00788354,0.00099343,0.01574939,-0.10725949,-0.01904062,-0.214388
 74,-0.00863904,-0.00081179,-0.01647096,-0.00229647,-0.00077041,0.00024
 834,0.00092092,0.00020987,-0.00006576,-0.00019839,-0.00023773,-0.00013
 570,0.00025480,0.00005754,0.00006747,0.00036427,0.00024095,-0.00008498
 ,-0.00073352,-0.00030511,0.00096958,-0.00984144,-0.00145433,-0.0140551
 4,0.11841191,0.01720945,0.22719320,0.00054981,-0.00033786,-0.00036403,
 0.00065340,-0.00050057,-0.00076583,-0.08383801,0.06895505,0.04562961,-
 0.00865189,0.02420536,0.01443629,-0.00470905,-0.00023402,0.00479089,0.
 00086978,-0.00067747,0.00054468,-0.00005645,-0.00056452,-0.00037514,0.
 00061355,0.00028680,0.00096651,0.00003402,0.00002609,-0.00016603,0.000
 29268,-0.00059501,0.00051435,-0.00011914,0.00024951,0.00020638,0.08772
 101,0.00021808,0.00359227,-0.00067254,0.01125186,-0.02871413,-0.014904
 83,0.06854294,-0.18539826,-0.10801851,-0.00321941,0.00555902,0.0033147
 7,-0.00056843,-0.00051447,0.00164314,-0.00022902,-0.00013822,0.0002791
 0,0.00026094,-0.00008408,-0.00014757,-0.00051318,0.00002693,-0.0002747
 0,0.00029562,0.00061782,-0.00013010,-0.00077318,-0.00391920,0.00413868
 ,-0.00007819,0.00171002,-0.00008368,-0.07575619,0.20933317,-0.00095354
 ,-0.00189936,0.00063089,-0.00636175,0.01752825,0.00836877,0.04436204,-
 0.10995346,-0.12386664,0.00602610,-0.00682871,-0.00868070,0.00270502,-
 0.00030843,0.00199303,0.00084931,0.00113491,-0.00063122,-0.00018448,0.
 00007672,-0.00045506,-0.00098976,-0.00005422,-0.00081193,-0.00042341,-
 0.00002570,0.00018527,0.00110391,0.00345147,-0.00123142,-0.00016156,-0
 .00084418,0.00148255,-0.05582441,0.11526625,0.13345576,0.00088789,-0.0
 0009537,0.00022547,0.00023356,0.00067785,0.00027499,-0.13024123,-0.016
 55138,-0.11791098,-0.02221485,-0.00892008,-0.02718178,0.00398298,0.002
 27732,0.00308771,0.00108044,-0.00068171,-0.00151054,-0.00098057,0.0000
 0992,-0.00143668,-0.00285205,-0.00051099,0.00240445,0.00012902,0.00013
 591,0.00004348,0.00003471,0.00013751,-0.00014135,0.00042509,-0.0003414
 6,0.00050008,0.00709139,0.00102798,0.01007467,0.14288532,0.00037639,0.
 00169795,-0.00260054,0.01688734,-0.00038073,0.02713854,-0.01637786,-0.
 05103843,-0.03511592,-0.00782936,-0.00206094,-0.00376635,0.00093428,-0
 .00118742,-0.00027652,-0.00031099,-0.00066632,0.00001224,-0.00027835,0
 .00013042,0.00026000,-0.00175651,0.00133634,-0.00013402,0.00039193,0.0
 0012094,-0.00027679,0.00046313,0.00179774,-0.00060378,-0.00115856,-0.0
 0427452,0.00374353,-0.01396538,-0.00258306,-0.01809371,0.02325101,0.05
 681023,0.00045074,-0.00126855,0.00190271,-0.01256684,-0.00059124,-0.01
 911228,-0.11824938,-0.03291938,-0.21935101,0.00546317,0.00137389,0.011
 10575,0.00024689,-0.00026032,-0.00056709,-0.00078617,-0.00064999,0.000
 40938,0.00010382,0.00027505,0.00100131,0.00158105,0.00179813,-0.001348
 50,-0.00001015,-0.00015482,0.00039265,0.00054704,-0.00031422,0.0013791
 4,0.00062819,0.00372015,-0.00080596,-0.00842040,-0.00087385,-0.0115147
 8,0.13114929,0.02964012,0.23684431,-0.00003047,0.00013150,-0.00003904,
 0.00034636,-0.00032747,-0.00002744,0.00026437,0.00224473,0.00003330,-0
 .00224405,-0.00291534,0.00631187,-0.01833944,-0.00427822,0.01357821,-0
 .19507258,0.03848898,0.13452142,0.00381059,-0.00531856,-0.00102086,0.0
 0213701,-0.00049791,-0.00135607,0.00005342,-0.00001779,-0.00002355,-0.
 00000552,0.00003354,-0.00001065,-0.00004186,0.00001076,-0.00000888,-0.
 00034438,-0.00017669,0.00012121,0.00006369,-0.00019975,-0.00024995,0.2
 0841490,-0.00021922,-0.00055918,0.00032798,-0.00091180,0.00101357,-0.0
 0019224,0.00044378,-0.00287019,0.00237480,-0.00848920,-0.00029556,-0.0
 0529249,-0.00523894,0.01756455,0.01694282,0.02947779,-0.06232274,-0.04
 365737,0.01423259,0.00232198,-0.01463316,-0.00139680,-0.00323104,-0.00
 212432,-0.00013206,0.00000169,0.00005246,0.00003420,-0.00006921,-0.000
 00372,0.00008147,-0.00004600,0.00008304,-0.00011054,0.00010158,0.00000
 014,-0.00002157,0.00023551,0.00016971,-0.02797635,0.04811058,0.0002566
 8,0.00055267,-0.00030542,0.00081791,-0.00095629,0.00015993,-0.00039000
 ,0.00307495,-0.00141504,0.00700907,-0.00176364,0.00560399,-0.01013513,
 -0.01231238,-0.00242499,0.13909004,-0.03114816,-0.16475766,0.01228503,
 -0.00334721,-0.00128136,0.00274148,-0.00056385,-0.00091018,0.00011342,
 -0.00002383,-0.00005048,-0.00000593,0.00009947,-0.00000051,-0.00007500
 ,-0.00000868,-0.00002858,-0.00017623,-0.00012969,0.00006555,0.00016332
 ,-0.00017081,-0.00021887,-0.15179522,0.04616720,0.16773232,0.00003348,
 0.00007214,-0.00007138,0.00016952,-0.00003176,0.00013090,-0.00046125,0
 .00067370,-0.00047062,0.00153463,-0.00044492,0.00053980,-0.00137109,-0
 .00124084,-0.00148465,0.00004630,-0.00296326,0.00303687,-0.08472605,0.
 09178426,-0.02688362,0.00451704,-0.01582673,0.00508118,0.00001272,-0.0
 0000460,-0.00001668,-0.00000100,0.00001233,-0.00001088,0.00000725,0.00
 003305,-0.00004700,-0.00010463,-0.00002948,0.00009318,-0.00011426,0.00
 004555,0.00017837,0.00037021,0.00015018,0.00027125,0.09320365,-0.00008
 939,0.00001728,0.00002663,0.00016378,0.00003141,-0.00001861,-0.0001407
 8,0.00014444,-0.00017297,0.00215772,0.00162081,0.00028973,-0.00262763,
 -0.00102705,-0.00685101,0.00447692,-0.01729866,0.00423729,0.09316420,-
 0.24121284,0.05480263,0.00532076,-0.00962871,0.00483525,0.00002015,-0.
 00000220,-0.00001845,-0.00000742,0.00004290,-0.00002546,-0.00001851,0.
 00001166,-0.00000312,-0.00003445,0.00003477,0.00019201,0.00009470,-0.0
 0004685,-0.00003424,-0.00015223,-0.00139580,-0.00072157,-0.09933261,0.
 26375026,0.00006691,0.00003044,0.00001133,-0.00010547,-0.00012538,-0.0
 0000392,0.00047389,0.00000630,0.00013943,-0.00063651,-0.00082195,-0.00
 036031,-0.00141741,0.00130929,-0.00408680,0.00907893,-0.02245681,0.007
 51144,-0.02495256,0.05014893,-0.05124336,-0.00547957,0.02174528,-0.007
 24550,-0.00000030,-0.00000738,0.00001186,-0.00000782,0.00002253,-0.000
 01989,-0.00001985,-0.00004751,0.00007600,0.00009566,0.00002023,0.00007
 790,0.00022379,-0.00010506,-0.00023105,-0.00045820,-0.00049639,-0.0017
 4953,0.02472178,-0.05774435,0.05942901,-0.00015262,-0.00010895,0.00012
 572,-0.00001884,0.00012631,-0.00014399,0.00010747,-0.00054667,-0.00029
 428,-0.00211724,-0.00163088,0.00012993,0.00070045,-0.00031161,-0.00036
 707,-0.00251398,-0.00030181,0.00049264,-0.28288951,-0.03597077,-0.0556
 6183,-0.00761946,0.00056776,-0.00501325,0.00000222,0.00000545,0.000005
 26,-0.00001304,0.00001047,-0.00001150,-0.00000345,-0.00000084,0.000017
 75,0.00008931,0.00000783,-0.00000861,-0.00010084,-0.00007716,0.0000348
 6,0.00074192,-0.00083101,-0.00016702,-0.01356001,-0.00191922,-0.003615
 63,0.30729943,-0.00017201,-0.00023525,0.00019058,-0.00032490,0.0003156
 1,-0.00027764,0.00017805,-0.00128366,0.00005780,-0.00437538,-0.0023050
 7,-0.00055905,0.00017820,-0.00152123,0.00189062,-0.02084728,-0.0045621
 0,-0.00616368,-0.03664579,-0.04971013,-0.00737838,-0.00868882,-0.00181
 860,-0.00577550,-0.00003711,0.00001645,0.00003509,0.00002261,-0.000002
 01,-0.00002492,0.00001699,-0.00000706,0.00003304,0.00000162,0.00002745
 ,-0.00002871,-0.00019306,-0.00005394,0.00001066,0.00083310,0.00046822,
 0.00060738,0.02830167,0.00432715,0.00697253,0.04170863,0.05593494,-0.0
 0016859,-0.00024606,0.00018382,-0.00029160,0.00045297,-0.00026227,0.00
 055835,-0.00011662,0.00166668,0.00318176,-0.00207850,-0.00692729,-0.00
 263777,-0.00349435,0.00490037,-0.02140456,0.00091550,-0.00425943,-0.05
 756787,-0.01012605,-0.06652748,0.01928640,0.00342674,0.00644040,-0.000
 05034,0.00002736,0.00000210,0.00006204,0.00002032,-0.00001742,0.000054
 90,-0.00003493,0.00006206,-0.00035561,0.00008846,0.00000386,0.00026620
 ,0.00022459,-0.00000213,0.00073012,0.00074372,0.00059396,-0.00623521,-
 0.00026382,-0.00092473,0.06405786,0.01039357,0.06453541,-0.00001535,0.
 00000278,-0.00005972,0.00011075,0.00005089,-0.00004983,0.00056022,-0.0
 0037780,0.00030438,0.00929307,-0.01343821,-0.00955048,0.00127430,0.002
 52333,-0.00298268,-0.00191400,-0.00245080,-0.00054194,-0.00554775,0.00
 918295,0.00520845,-0.11071576,0.07860700,0.07471993,-0.00000820,0.0000
 1690,0.00001332,0.00001751,-0.00001255,0.00001995,-0.00001569,0.000011
 09,-0.00003053,-0.00041675,-0.00019598,-0.00023823,0.00004165,0.000277
 86,0.00008547,0.00019734,0.00047467,0.00063966,0.00069399,-0.00008078,
 -0.00025895,-0.00059152,0.00000647,0.00094555,0.11708538,0.00000935,-0
 .00002001,0.00013741,-0.00021926,0.00015574,-0.00019156,0.00089227,0.0
 0001425,0.00027348,0.01125661,-0.01086040,-0.00693055,0.00144813,0.002
 80245,-0.00399568,-0.00465035,-0.00296583,-0.00068010,-0.00630945,0.00
 979026,0.00922264,0.07838983,-0.15634378,-0.09642968,-0.00004384,-0.00
 002517,-0.00002396,0.00009746,0.00014478,0.00004823,0.00010179,-0.0001
 4469,0.00007502,-0.00093386,0.00035022,0.00025935,-0.00008861,0.000493
 99,0.00020044,0.00015064,0.00082943,0.00077666,0.00029788,0.00080834,-
 0.00070211,-0.00047465,-0.00002577,0.00054680,-0.08860131,0.16568937,-
 0.00005475,-0.00005894,0.00004771,-0.00009135,0.00019348,0.00024351,0.
 00098585,0.00040973,-0.00009727,0.00714959,-0.01130852,-0.01126964,-0.
 00048766,0.00081262,-0.00107888,0.00285715,-0.00170925,-0.00491770,0.0
 0492212,-0.01365730,-0.00705539,0.07644272,-0.09430366,-0.13251906,-0.
 00002552,-0.00000317,0.00000414,0.00000449,0.00011260,-0.00008120,-0.0
 0000383,-0.00003724,-0.00001780,-0.00074633,0.00029412,0.00062835,-0.0
 0007816,0.00036291,0.00012784,-0.00074120,-0.00017414,-0.00125386,-0.0
 0027561,0.00008591,0.00050494,0.00032198,0.00009906,-0.00052795,-0.080
 85887,0.10684942,0.14614033,0.00034539,-0.00005415,0.00025763,-0.00074
 879,-0.00004934,-0.00087716,-0.00024079,-0.00081310,-0.00094543,-0.011
 97829,0.01031481,-0.01139991,-0.00116127,-0.00465735,0.00098246,0.0000
 5533,-0.00052849,0.00090362,0.00833472,-0.00877808,0.01397126,-0.13695
 184,0.09075914,-0.09275838,-0.00006572,-0.00006295,-0.00000389,0.00001
 706,0.00001057,0.00013901,0.00006426,-0.00013343,0.00049512,0.00032536
 ,-0.00006550,-0.00018970,-0.00035196,-0.00067357,-0.00018600,-0.000321
 53,0.00043281,-0.00064331,-0.00025050,-0.00099522,0.00229131,0.0006397
 0,0.00003701,-0.00043162,-0.01004918,0.00867737,-0.00932063,0.15233805
 ,0.00018532,-0.00003579,-0.00000805,-0.00035969,-0.00022231,0.00018247
 ,0.00037468,-0.00055052,-0.00018478,-0.01061655,0.01275488,-0.01176817
 ,0.00025562,-0.00411911,-0.00051853,-0.00108804,0.00011346,-0.00074414
 ,0.00644475,-0.00805026,0.01006805,0.08645616,-0.11458091,0.07690452,-
 0.00004189,-0.00002428,0.00001199,-0.00002206,0.00002697,-0.00008577,-
 0.00016633,0.00001247,0.00006092,-0.00001458,-0.00000184,0.00012738,-0
 .00020798,-0.00033089,-0.00012153,-0.00003293,0.00014260,-0.00013222,-
 0.00149657,-0.00017689,0.00225138,-0.00025288,0.00043501,-0.00047972,0
 .01400350,-0.01069317,0.01203238,-0.09342051,0.12530057,0.00004741,0.0
 0001226,0.00007817,-0.00013505,0.00008431,-0.00011824,0.00025738,0.000
 13200,-0.00133645,-0.00627524,0.00766609,-0.00960250,-0.00144777,-0.00
 651727,-0.00242252,-0.00117983,0.00134433,0.00278661,-0.01070809,0.013
 56221,-0.01397989,-0.09284306,0.07972048,-0.12596873,0.00000090,-0.000
 00835,0.00001500,0.00000986,0.00009979,-0.00005958,0.00009320,-0.00002
 987,0.00020503,0.00000962,0.00019072,0.00029982,-0.00015394,-0.0002384
 3,-0.00001142,0.00043495,-0.00028801,0.00024073,0.00144231,0.00138415,
 -0.00189683,0.00009718,-0.00008245,0.00106003,0.01263454,-0.00943580,0
 .01112193,0.09771563,-0.08759617,0.13958884\\0.00001257,-0.00000231,-0
 .00000003,-0.00000839,0.00000450,0.00000575,0.00000227,0.00000442,-0.0
 0000911,-0.00000798,0.00000557,-0.00000073,0.00001369,0.00000858,0.000
 00548,-0.00000432,-0.00001350,-0.00000631,-0.00000168,0.00000745,0.000
 00058,-0.00000070,-0.00000326,0.00000369,-0.00000327,-0.00000323,0.000
 00047,-0.00000314,-0.00000214,0.00000176,-0.00000143,-0.00000323,0.000
 00190,-0.00000090,-0.00000109,0.00000161,0.00000146,0.00000134,-0.0000
 0085,0.00000092,0.00000245,-0.00000193,0.00000113,-0.00000200,0.000000
 12,0.00000067,-0.00000284,-0.00000083,-0.00000030,-0.00000018,0.000000
 06,-0.00000061,-0.00000054,-0.00000163\\\@


 Money is a good servant but a bad master.
                        -- French Proverb
 Job cpu time:       0 days  1 hours 35 minutes 41.2 seconds.
 Elapsed time:       0 days  0 hours 23 minutes 58.6 seconds.
 File lengths (MBytes):  RWF=    109 Int=      0 D2E=      0 Chk=      7 Scr=      1
 Normal termination of Gaussian 16 at Thu Aug  4 04:33:14 2022.
### All Done ###
