### Starting Gaussian ###
 Entering Gaussian System, Link 0=g16
 Initial command:
 /cluster/software/gaussian/gaussian-16-A.03/avx2/g16/l1.exe "/local/scratch/yxie/Gau-12056.inp" -scrdir="/local/scratch/yxie/"
 Entering Link 1 = /cluster/software/gaussian/gaussian-16-A.03/avx2/g16/l1.exe PID=     12058.
  
 Copyright (c) 1988,1990,1992,1993,1995,1998,2003,2009,2016,
            Gaussian, Inc.  All Rights Reserved.
  
 This is part of the Gaussian(R) 16 program.  It is based on
 the Gaussian(R) 09 system (copyright 2009, Gaussian, Inc.),
 the Gaussian(R) 03 system (copyright 2003, Gaussian, Inc.),
 the Gaussian(R) 98 system (copyright 1998, Gaussian, Inc.),
 the Gaussian(R) 94 system (copyright 1995, Gaussian, Inc.),
 the Gaussian 92(TM) system (copyright 1992, Gaussian, Inc.),
 the Gaussian 90(TM) system (copyright 1990, Gaussian, Inc.),
 the Gaussian 88(TM) system (copyright 1988, Gaussian, Inc.),
 the Gaussian 86(TM) system (copyright 1986, Carnegie Mellon
 University), and the Gaussian 82(TM) system (copyright 1983,
 Carnegie Mellon University). Gaussian is a federally registered
 trademark of Gaussian, Inc.
  
 This software contains proprietary and confidential information,
 including trade secrets, belonging to Gaussian, Inc.
  
 This software is provided under written license and may be
 used, copied, transmitted, or stored only in accord with that
 written license.
  
 The following legend is applicable only to US Government
 contracts under FAR:
  
                    RESTRICTED RIGHTS LEGEND
  
 Use, reproduction and disclosure by the US Government is
 subject to restrictions as set forth in subparagraphs (a)
 and (c) of the Commercial Computer Software - Restricted
 Rights clause in FAR 52.227-19.
  
 Gaussian, Inc.
 340 Quinnipiac St., Bldg. 40, Wallingford CT 06492
  
  
 ---------------------------------------------------------------
 Warning -- This program may not be used in any manner that
 competes with the business of Gaussian, Inc. or will provide
 assistance to any competitor of Gaussian, Inc.  The licensee
 of this program is prohibited from giving any competitor of
 Gaussian, Inc. access to this program.  By using this program,
 the user acknowledges that Gaussian, Inc. is engaged in the
 business of creating and licensing software in the field of
 computational chemistry and represents and warrants to the
 licensee that it is not a competitor of Gaussian, Inc. and that
 it will not use this program in any manner prohibited above.
 ---------------------------------------------------------------
  

 Cite this work as:
 Gaussian 16, Revision A.03,
 M. J. Frisch, G. W. Trucks, H. B. Schlegel, G. E. Scuseria, 
 M. A. Robb, J. R. Cheeseman, G. Scalmani, V. Barone, 
 G. A. Petersson, H. Nakatsuji, X. Li, M. Caricato, A. V. Marenich, 
 J. Bloino, B. G. Janesko, R. Gomperts, B. Mennucci, H. P. Hratchian, 
 J. V. Ortiz, A. F. Izmaylov, J. L. Sonnenberg, D. Williams-Young, 
 F. Ding, F. Lipparini, F. Egidi, J. Goings, B. Peng, A. Petrone, 
 T. Henderson, D. Ranasinghe, V. G. Zakrzewski, J. Gao, N. Rega, 
 G. Zheng, W. Liang, M. Hada, M. Ehara, K. Toyota, R. Fukuda, 
 J. Hasegawa, M. Ishida, T. Nakajima, Y. Honda, O. Kitao, H. Nakai, 
 T. Vreven, K. Throssell, J. A. Montgomery, Jr., J. E. Peralta, 
 F. Ogliaro, M. J. Bearpark, J. J. Heyd, E. N. Brothers, K. N. Kudin, 
 V. N. Staroverov, T. A. Keith, R. Kobayashi, J. Normand, 
 K. Raghavachari, A. P. Rendell, J. C. Burant, S. S. Iyengar, 
 J. Tomasi, M. Cossi, J. M. Millam, M. Klene, C. Adamo, R. Cammi, 
 J. W. Ochterski, R. L. Martin, K. Morokuma, O. Farkas, 
 J. B. Foresman, and D. J. Fox, Gaussian, Inc., Wallingford CT, 2016.
 
 ******************************************
 Gaussian 16:  ES64L-G16RevA.03 25-Dec-2016
                 3-Aug-2022 
 ******************************************
 %chk=OdC1CdNNdCNdCC1.chk
 %NProcShared=20
 Will use up to   20 processors via shared memory.
 -----------------------------
 # opt freq b3lyp/6-31g(2df,p)
 -----------------------------
 1/18=20,19=15,26=3,38=1/1,3;
 2/9=110,12=2,17=6,18=5,40=1/2;
 3/5=1,6=6,7=104,11=2,25=1,30=1,71=1,74=-5/1,2,3;
 4//1;
 5/5=2,38=5/2;
 6/7=2,8=2,9=2,10=2,28=1/1;
 7//1,2,3,16;
 1/18=20,19=15,26=3/3(2);
 2/9=110/2;
 99//99;
 2/9=110/2;
 3/5=1,6=6,7=104,11=2,25=1,30=1,71=1,74=-5/1,2,3;
 4/5=5,16=3,69=1/1;
 5/5=2,38=5/2;
 7//1,2,3,16;
 1/18=20,19=15,26=3/3(-5);
 2/9=110/2;
 6/7=2,8=2,9=2,10=2,19=2,28=1/1;
 99/9=1/99;
 -------------------
 Title Card Required
 -------------------
 Symbolic Z-matrix:
 Charge =  0 Multiplicity = 1
 O                     2.13939   0.3779   -0.09254 
 C                     3.06238  -0.42086  -0.21874 
 C                     2.77229  -1.83961   0.09725 
 N                     3.88781  -2.10951   0.41573 
 N                     4.63671  -3.11192   0.8143 
 C                     5.74503  -2.47149   0.92014 
 N                     6.42452  -2.54716  -0.23371 
 C                     6.18165  -1.32639  -0.71901 
 C                     4.81887  -0.10582  -0.35377 
 H                     1.76757  -2.33426   0.05797 
 H                     6.00229  -1.39289   1.3288 
 H                     7.27774  -1.0715   -0.70228 
 H                     4.80147   0.63991  -1.14299 
 H                     5.00366   0.42104   0.61141 
 

 GradGradGradGradGradGradGradGradGradGradGradGradGradGradGradGradGradGrad
 Berny optimization.
 Initialization pass.
                           ----------------------------
                           !    Initial Parameters    !
                           ! (Angstroms and Degrees)  !
 --------------------------                            --------------------------
 ! Name  Definition              Value          Derivative Info.                !
 --------------------------------------------------------------------------------
 ! R1    R(1,2)                  1.2271         estimate D2E/DX2                !
 ! R2    R(2,3)                  1.4822         estimate D2E/DX2                !
 ! R3    R(2,9)                  1.7896         estimate D2E/DX2                !
 ! R4    R(3,4)                  1.1911         estimate D2E/DX2                !
 ! R5    R(3,10)                 1.1206         estimate D2E/DX2                !
 ! R6    R(4,5)                  1.3132         estimate D2E/DX2                !
 ! R7    R(5,6)                  1.2844         estimate D2E/DX2                !
 ! R8    R(6,7)                  1.3412         estimate D2E/DX2                !
 ! R9    R(6,11)                 1.1818         estimate D2E/DX2                !
 ! R10   R(7,8)                  1.336          estimate D2E/DX2                !
 ! R11   R(8,12)                 1.1255         estimate D2E/DX2                !
 ! R12   R(9,13)                 1.0859         estimate D2E/DX2                !
 ! R13   R(9,14)                 1.115          estimate D2E/DX2                !
 ! A1    A(1,2,3)              116.9958         estimate D2E/DX2                !
 ! A2    A(1,2,9)              129.1536         estimate D2E/DX2                !
 ! A3    A(3,2,9)              112.1285         estimate D2E/DX2                !
 ! A4    A(2,3,4)               95.1985         estimate D2E/DX2                !
 ! A5    A(2,3,10)             126.1958         estimate D2E/DX2                !
 ! A6    A(4,3,10)             138.5109         estimate D2E/DX2                !
 ! A7    A(3,4,5)              142.0203         estimate D2E/DX2                !
 ! A8    A(4,5,6)               97.8452         estimate D2E/DX2                !
 ! A9    A(5,6,7)              109.7639         estimate D2E/DX2                !
 ! A10   A(5,6,11)             132.1775         estimate D2E/DX2                !
 ! A11   A(7,6,11)             103.8102         estimate D2E/DX2                !
 ! A12   A(6,7,8)               99.7216         estimate D2E/DX2                !
 ! A13   A(7,8,12)              91.4038         estimate D2E/DX2                !
 ! A14   A(2,9,13)              99.2066         estimate D2E/DX2                !
 ! A15   A(2,9,14)             100.4003         estimate D2E/DX2                !
 ! A16   A(13,9,14)            107.8946         estimate D2E/DX2                !
 ! D1    D(1,2,3,4)           -151.9733         estimate D2E/DX2                !
 ! D2    D(1,2,3,10)            25.0348         estimate D2E/DX2                !
 ! D3    D(9,2,3,4)             14.4637         estimate D2E/DX2                !
 ! D4    D(9,2,3,10)          -168.5282         estimate D2E/DX2                !
 ! D5    D(1,2,9,13)           -50.6526         estimate D2E/DX2                !
 ! D6    D(1,2,9,14)            59.604          estimate D2E/DX2                !
 ! D7    D(3,2,9,13)           144.9801         estimate D2E/DX2                !
 ! D8    D(3,2,9,14)          -104.7634         estimate D2E/DX2                !
 ! D9    D(2,3,4,5)           -177.6415         estimate D2E/DX2                !
 ! D10   D(10,3,4,5)             6.004          estimate D2E/DX2                !
 ! D11   D(3,4,5,6)            179.7357         estimate D2E/DX2                !
 ! D12   D(4,5,6,7)            -91.5194         estimate D2E/DX2                !
 ! D13   D(4,5,6,11)            40.3797         estimate D2E/DX2                !
 ! D14   D(5,6,7,8)            103.1941         estimate D2E/DX2                !
 ! D15   D(11,6,7,8)           -42.194          estimate D2E/DX2                !
 ! D16   D(6,7,8,12)           118.0734         estimate D2E/DX2                !
 --------------------------------------------------------------------------------
 Trust Radius=3.00D-01 FncErr=1.00D-07 GrdErr=1.00D-06 EigMax=2.50D+02 EigMin=1.00D-04
 Number of steps in this run=     55 maximum allowed number of steps=    100.
 GradGradGradGradGradGradGradGradGradGradGradGradGradGradGradGradGradGrad

                          Input orientation:                          
 ---------------------------------------------------------------------
 Center     Atomic      Atomic             Coordinates (Angstroms)
 Number     Number       Type             X           Y           Z
 ---------------------------------------------------------------------
      1          8           0        2.139390    0.377900   -0.092540
      2          6           0        3.062380   -0.420860   -0.218740
      3          6           0        2.772290   -1.839610    0.097250
      4          7           0        3.887810   -2.109510    0.415730
      5          7           0        4.636710   -3.111920    0.814300
      6          6           0        5.745030   -2.471490    0.920140
      7          7           0        6.424520   -2.547160   -0.233710
      8          6           0        6.181650   -1.326390   -0.719010
      9          6           0        4.818870   -0.105820   -0.353770
     10          1           0        1.767570   -2.334260    0.057970
     11          1           0        6.002290   -1.392890    1.328800
     12          1           0        7.277740   -1.071500   -0.702280
     13          1           0        4.801470    0.639910   -1.142990
     14          1           0        5.003660    0.421040    0.611410
 ---------------------------------------------------------------------
                    Distance matrix (angstroms):
                    1          2          3          4          5
     1  O    0.000000
     2  C    1.227133   0.000000
     3  C    2.313857   1.482179   0.000000
     4  N    3.082616   1.983791   1.191075   0.000000
     5  N    4.386093   3.284432   2.368332   1.313216   0.000000
     6  C    4.705867   3.563529   3.148588   1.958245   1.284417
     7  N    5.190207   3.978110   3.734829   2.654846   2.147916
     8  C    4.431358   3.286351   3.543079   2.676306   2.815315
     9  C    2.735295   1.789620   2.719915   2.339610   3.230202
    10  H    2.741663   2.326844   1.120573   2.161926   3.067369
    11  H    4.480837   3.461617   3.485567   2.412108   2.254902
    12  H    5.373563   4.292599   4.639862   3.717396   3.665838
    13  H    2.873807   2.236941   3.435664   3.289938   4.234898
    14  H    2.949822   2.272996   3.217749   2.772561   3.557755
                    6          7          8          9         10
     6  C    0.000000
     7  N    1.341194   0.000000
     8  C    2.046632   1.335957   0.000000
     9  C    2.842009   2.924494   1.865572   0.000000
    10  H    4.072144   4.670930   4.593866   3.800777   0.000000
    11  H    1.181763   1.987978   2.056725   2.426535   4.520403
    12  H    2.634657   1.767799   1.125461   2.664590   5.703904
    13  H    3.850665   3.690325   2.439465   1.085949   4.415036
    14  H    3.001945   3.397541   2.492226   1.115034   4.286053
                   11         12         13         14
    11  H    0.000000
    12  H    2.419783   0.000000
    13  H    3.418185   3.042213   0.000000
    14  H    2.191404   3.020744   1.779524   0.000000
 Stoichiometry    C5H5N3O
 Framework group  C1[X(C5H5N3O)]
 Deg. of freedom    36
 Full point group                 C1      NOp   1
 Largest Abelian subgroup         C1      NOp   1
 Largest concise Abelian subgroup C1      NOp   1
                         Standard orientation:                         
 ---------------------------------------------------------------------
 Center     Atomic      Atomic             Coordinates (Angstroms)
 Number     Number       Type             X           Y           Z
 ---------------------------------------------------------------------
      1          8           0       -2.885974    0.345330    0.158334
      2          6           0       -1.693005    0.232724   -0.106238
      3          6           0       -1.187757   -1.136265   -0.365941
      4          7           0       -0.075896   -0.911676   -0.002642
      5          7           0        1.106485   -1.470276    0.117678
      6          6           0        1.728464   -0.459926    0.609675
      7          7           0        2.275590    0.261586   -0.379707
      8          6           0        1.407007    1.275572   -0.426384
      9          6           0       -0.364504    1.405434    0.143917
     10          1           0       -1.792452   -2.007035   -0.728967
     11          1           0        1.416278    0.350885    1.410730
     12          1           0        2.212210    2.014070   -0.156325
     13          1           0       -0.814087    2.278699   -0.319298
     14          1           0       -0.418641    1.538065    1.249711
 ---------------------------------------------------------------------
 Rotational constants (GHZ):           3.6695019           1.3958076           1.0774514
 Standard basis: 6-31G(2df,p) (6D, 7F)
 There are   304 symmetry adapted cartesian basis functions of A   symmetry.
 There are   277 symmetry adapted basis functions of A   symmetry.
   277 basis functions,   431 primitive gaussians,   304 cartesian basis functions
    32 alpha electrons       32 beta electrons
       nuclear repulsion energy       417.3421707943 Hartrees.
 NAtoms=   14 NActive=   14 NUniq=   14 SFac= 1.00D+00 NAtFMM=   60 NAOKFM=F Big=F
 Integral buffers will be    131072 words long.
 Raffenetti 2 integral format.
 Two-electron integral symmetry is turned on.
 One-electron integrals computed using PRISM.
 PrsmSu:  requested number of processors reduced to:  13 ShMem   1 Linda.
 NBasis=   277 RedAO= T EigKep=  2.35D-04  NBF=   277
 NBsUse=   277 1.00D-06 EigRej= -1.00D+00 NBFU=   277
 ExpMin= 1.61D-01 ExpMax= 5.48D+03 ExpMxC= 8.25D+02 IAcc=3 IRadAn=         5 AccDes= 0.00D+00
 Harris functional with IExCor=  402 and IRadAn=       5 diagonalized for initial guess.
 HarFok:  IExCor=  402 AccDes= 0.00D+00 IRadAn=         5 IDoV= 1 UseB2=F ITyADJ=14
 ICtDFT=  3500011 ScaDFX=  1.000000  1.000000  1.000000  1.000000
 FoFCou: FMM=F IPFlag=           0 FMFlag=      100000 FMFlg1=           0
         NFxFlg=           0 DoJE=T BraDBF=F KetDBF=T FulRan=T
         wScrn=  0.000000 ICntrl=       500 IOpCl=  0 I1Cent=   200000004 NGrid=           0
         NMat0=    1 NMatS0=      1 NMatT0=    0 NMatD0=    1 NMtDS0=    0 NMtDT0=    0
 Petite list used in FoFCou.
 Requested convergence on RMS density matrix=1.00D-08 within 128 cycles.
 Requested convergence on MAX density matrix=1.00D-06.
 Requested convergence on             energy=1.00D-06.
 No special actions if energy rises.
 Integral accuracy reduced to 1.0D-05 until final iterations.
 EnCoef did     1 forward-backward iterations
 EnCoef did     3 forward-backward iterations
 Initial convergence to 1.0D-05 achieved.  Increase integral accuracy.
 SCF Done:  E(RB3LYP) =  -432.593178982     A.U. after   21 cycles
            NFock= 21  Conv=0.78D-08     -V/T= 2.0060

 **********************************************************************

            Population analysis using the SCF density.

 **********************************************************************

 Orbital symmetries:
       Occupied  (A) (A) (A) (A) (A) (A) (A) (A) (A) (A) (A) (A)
                 (A) (A) (A) (A) (A) (A) (A) (A) (A) (A) (A) (A)
                 (A) (A) (A) (A) (A) (A) (A) (A)
       Virtual   (A) (A) (A) (A) (A) (A) (A) (A) (A) (A) (A) (A)
                 (A) (A) (A) (A) (A) (A) (A) (A) (A) (A) (A) (A)
                 (A) (A) (A) (A) (A) (A) (A) (A) (A) (A) (A) (A)
                 (A) (A) (A) (A) (A) (A) (A) (A) (A) (A) (A) (A)
                 (A) (A) (A) (A) (A) (A) (A) (A) (A) (A) (A) (A)
                 (A) (A) (A) (A) (A) (A) (A) (A) (A) (A) (A) (A)
                 (A) (A) (A) (A) (A) (A) (A) (A) (A) (A) (A) (A)
                 (A) (A) (A) (A) (A) (A) (A) (A) (A) (A) (A) (A)
                 (A) (A) (A) (A) (A) (A) (A) (A) (A) (A) (A) (A)
                 (A) (A) (A) (A) (A) (A) (A) (A) (A) (A) (A) (A)
                 (A) (A) (A) (A) (A) (A) (A) (A) (A) (A) (A) (A)
                 (A) (A) (A) (A) (A) (A) (A) (A) (A) (A) (A) (A)
                 (A) (A) (A) (A) (A) (A) (A) (A) (A) (A) (A) (A)
                 (A) (A) (A) (A) (A) (A) (A) (A) (A) (A) (A) (A)
                 (A) (A) (A) (A) (A) (A) (A) (A) (A) (A) (A) (A)
                 (A) (A) (A) (A) (A) (A) (A) (A) (A) (A) (A) (A)
                 (A) (A) (A) (A) (A) (A) (A) (A) (A) (A) (A) (A)
                 (A) (A) (A) (A) (A) (A) (A) (A) (A) (A) (A) (A)
                 (A) (A) (A) (A) (A) (A) (A) (A) (A) (A) (A) (A)
                 (A) (A) (A) (A) (A) (A) (A) (A) (A) (A) (A) (A)
                 (A) (A) (A) (A) (A)
 The electronic state is 1-A.
 Alpha  occ. eigenvalues --  -19.14948 -14.37839 -14.37698 -14.37381 -10.30613
 Alpha  occ. eigenvalues --  -10.28846 -10.27911 -10.24310 -10.24227  -1.08735
 Alpha  occ. eigenvalues --   -1.04453  -0.98732  -0.89975  -0.71113  -0.70997
 Alpha  occ. eigenvalues --   -0.61675  -0.57877  -0.55910  -0.54834  -0.49746
 Alpha  occ. eigenvalues --   -0.46632  -0.44616  -0.43190  -0.42029  -0.40944
 Alpha  occ. eigenvalues --   -0.38910  -0.36822  -0.35646  -0.27831  -0.25851
 Alpha  occ. eigenvalues --   -0.24613  -0.20554
 Alpha virt. eigenvalues --   -0.13828  -0.05242  -0.03279   0.02062   0.04342
 Alpha virt. eigenvalues --    0.07739   0.09152   0.12422   0.13736   0.14778
 Alpha virt. eigenvalues --    0.16594   0.20597   0.23874   0.24487   0.29176
 Alpha virt. eigenvalues --    0.30580   0.35014   0.36511   0.40146   0.44463
 Alpha virt. eigenvalues --    0.44883   0.47741   0.48091   0.48784   0.50914
 Alpha virt. eigenvalues --    0.51775   0.53360   0.54455   0.55119   0.56613
 Alpha virt. eigenvalues --    0.59735   0.61421   0.63761   0.65110   0.66313
 Alpha virt. eigenvalues --    0.67229   0.69348   0.70852   0.72563   0.73526
 Alpha virt. eigenvalues --    0.73673   0.75831   0.76656   0.77192   0.79088
 Alpha virt. eigenvalues --    0.79837   0.81909   0.82885   0.83991   0.86199
 Alpha virt. eigenvalues --    0.87805   0.89977   0.90929   0.93086   0.94216
 Alpha virt. eigenvalues --    0.96342   0.98526   0.99941   1.03422   1.04669
 Alpha virt. eigenvalues --    1.06853   1.10714   1.12327   1.14782   1.18643
 Alpha virt. eigenvalues --    1.20505   1.23030   1.25954   1.26346   1.28184
 Alpha virt. eigenvalues --    1.32985   1.34459   1.36204   1.41121   1.41828
 Alpha virt. eigenvalues --    1.42556   1.47127   1.48142   1.49245   1.51653
 Alpha virt. eigenvalues --    1.52170   1.53963   1.55027   1.57902   1.58628
 Alpha virt. eigenvalues --    1.60965   1.63676   1.63740   1.65810   1.67019
 Alpha virt. eigenvalues --    1.71358   1.73824   1.75943   1.78582   1.84309
 Alpha virt. eigenvalues --    1.87333   1.89889   1.94886   1.98399   2.01615
 Alpha virt. eigenvalues --    2.09190   2.17490   2.18601   2.18952   2.22272
 Alpha virt. eigenvalues --    2.26207   2.33175   2.36314   2.41150   2.44054
 Alpha virt. eigenvalues --    2.45268   2.49730   2.60111   2.65559   2.66037
 Alpha virt. eigenvalues --    2.68147   2.70186   2.71319   2.78532   2.83595
 Alpha virt. eigenvalues --    2.84049   2.86621   2.88291   2.93990   2.95185
 Alpha virt. eigenvalues --    2.97207   2.99659   2.99957   3.04868   3.06571
 Alpha virt. eigenvalues --    3.08275   3.09509   3.11508   3.16215   3.18008
 Alpha virt. eigenvalues --    3.19728   3.22530   3.24329   3.26824   3.30295
 Alpha virt. eigenvalues --    3.36069   3.38027   3.41277   3.42059   3.45538
 Alpha virt. eigenvalues --    3.52513   3.53068   3.55498   3.57454   3.59072
 Alpha virt. eigenvalues --    3.62179   3.65787   3.68790   3.74423   3.75537
 Alpha virt. eigenvalues --    3.77445   3.79083   3.83014   3.85087   3.88642
 Alpha virt. eigenvalues --    3.90757   3.91975   3.96004   3.97781   3.98572
 Alpha virt. eigenvalues --    4.03624   4.07595   4.08647   4.12985   4.15560
 Alpha virt. eigenvalues --    4.17538   4.20193   4.20522   4.23181   4.27838
 Alpha virt. eigenvalues --    4.29495   4.30603   4.34215   4.36201   4.36287
 Alpha virt. eigenvalues --    4.38626   4.39836   4.43003   4.45801   4.49360
 Alpha virt. eigenvalues --    4.51123   4.52572   4.53668   4.56462   4.57804
 Alpha virt. eigenvalues --    4.61358   4.62812   4.64707   4.70129   4.70614
 Alpha virt. eigenvalues --    4.73455   4.74908   4.77143   4.77765   4.80301
 Alpha virt. eigenvalues --    4.81098   4.84738   4.87178   4.90161   4.91180
 Alpha virt. eigenvalues --    4.92269   4.95883   4.98650   5.03553   5.07460
 Alpha virt. eigenvalues --    5.07641   5.13700   5.17315   5.20111   5.24233
 Alpha virt. eigenvalues --    5.27446   5.29299   5.35318   5.37146   5.41783
 Alpha virt. eigenvalues --    5.48112   5.53928   5.60062   5.63167   5.65508
 Alpha virt. eigenvalues --    5.67345   5.79321   5.89294   6.00558   6.15424
 Alpha virt. eigenvalues --    6.35034   6.54483   6.78367   8.51819  10.38906
 Alpha virt. eigenvalues --   10.72179  11.06985  11.27221  11.34509  11.36164
 Alpha virt. eigenvalues --   11.79749  12.14206  13.02051  14.94203  17.57206
          Condensed to atoms (all electrons):
               1          2          3          4          5          6
     1  O    7.656752   0.722402  -0.065637   0.000906  -0.000119  -0.000051
     2  C    0.722402   4.623094   0.248595  -0.101006   0.014955   0.002186
     3  C   -0.065637   0.248595   5.145904   0.626093  -0.079423  -0.004280
     4  N    0.000906  -0.101006   0.626093   6.454595   0.182727  -0.158643
     5  N   -0.000119   0.014955  -0.079423   0.182727   6.585095   0.575393
     6  C   -0.000051   0.002186  -0.004280  -0.158643   0.575393   4.889584
     7  N   -0.000001  -0.000960   0.002755   0.006208  -0.079925   0.389748
     8  C    0.000298   0.000412   0.006042  -0.013340  -0.006463  -0.114103
     9  C   -0.038600   0.307660  -0.090280   0.006331  -0.004057  -0.009526
    10  H    0.000678  -0.050465   0.342034  -0.033232  -0.007091  -0.000289
    11  H   -0.000065   0.001217   0.003206  -0.019286  -0.037032   0.373572
    12  H   -0.000002   0.000111  -0.000093   0.000970   0.000675   0.010485
    13  H    0.003886  -0.035492   0.003784   0.005456  -0.000256   0.000082
    14  H    0.000944  -0.017370   0.001664  -0.000631  -0.000079  -0.002244
               7          8          9         10         11         12
     1  O   -0.000001   0.000298  -0.038600   0.000678  -0.000065  -0.000002
     2  C   -0.000960   0.000412   0.307660  -0.050465   0.001217   0.000111
     3  C    0.002755   0.006042  -0.090280   0.342034   0.003206  -0.000093
     4  N    0.006208  -0.013340   0.006331  -0.033232  -0.019286   0.000970
     5  N   -0.079925  -0.006463  -0.004057  -0.007091  -0.037032   0.000675
     6  C    0.389748  -0.114103  -0.009526  -0.000289   0.373572   0.010485
     7  N    6.410847   0.510139  -0.033852   0.000027  -0.101649  -0.043703
     8  C    0.510139   5.177432   0.273083   0.000012  -0.005794   0.334150
     9  C   -0.033852   0.273083   5.293361   0.003027   0.002521  -0.028669
    10  H    0.000027   0.000012   0.003027   0.608427  -0.000049   0.000002
    11  H   -0.101649  -0.005794   0.002521  -0.000049   0.658160   0.002345
    12  H   -0.043703   0.334150  -0.028669   0.000002   0.002345   0.531519
    13  H    0.000950  -0.019869   0.345531   0.000067   0.000029   0.000663
    14  H    0.001545  -0.018541   0.339417  -0.000065   0.001708   0.001420
              13         14
     1  O    0.003886   0.000944
     2  C   -0.035492  -0.017370
     3  C    0.003784   0.001664
     4  N    0.005456  -0.000631
     5  N   -0.000256  -0.000079
     6  C    0.000082  -0.002244
     7  N    0.000950   0.001545
     8  C   -0.019869  -0.018541
     9  C    0.345531   0.339417
    10  H    0.000067  -0.000065
    11  H    0.000029   0.001708
    12  H    0.000663   0.001420
    13  H    0.582204  -0.026685
    14  H   -0.026685   0.564640
 Mulliken charges:
               1
     1  O   -0.281391
     2  C    0.284662
     3  C   -0.140363
     4  N    0.042851
     5  N   -0.144400
     6  C    0.048086
     7  N   -0.062128
     8  C   -0.123459
     9  C   -0.365947
    10  H    0.136916
    11  H    0.121117
    12  H    0.190128
    13  H    0.139649
    14  H    0.154278
 Sum of Mulliken charges =  -0.00000
 Mulliken charges with hydrogens summed into heavy atoms:
               1
     1  O   -0.281391
     2  C    0.284662
     3  C   -0.003446
     4  N    0.042851
     5  N   -0.144400
     6  C    0.169203
     7  N   -0.062128
     8  C    0.066669
     9  C   -0.072019
 Electronic spatial extent (au):  <R**2>=           1038.2963
 Charge=              0.0000 electrons
 Dipole moment (field-independent basis, Debye):
    X=              1.3073    Y=              0.5701    Z=              1.1267  Tot=              1.8176
 Quadrupole moment (field-independent basis, Debye-Ang):
   XX=            -60.4713   YY=            -48.8073   ZZ=            -49.7696
   XY=              5.7148   XZ=              5.3058   YZ=              1.1987
 Traceless Quadrupole moment (field-independent basis, Debye-Ang):
   XX=             -7.4552   YY=              4.2088   ZZ=              3.2465
   XY=              5.7148   XZ=              5.3058   YZ=              1.1987
 Octapole moment (field-independent basis, Debye-Ang**2):
  XXX=             17.6719  YYY=              1.7311  ZZZ=              3.0740  XYY=             -7.3680
  XXY=             -3.9876  XXZ=              3.6916  XZZ=             -4.8178  YZZ=             -1.4092
  YYZ=              0.1010  XYZ=             -0.4254
 Hexadecapole moment (field-independent basis, Debye-Ang**3):
 XXXX=           -984.0769 YYYY=           -378.2437 ZZZZ=            -93.8139 XXXY=             24.4800
 XXXZ=             29.3050 YYYX=             18.7131 YYYZ=              4.9989 ZZZX=              0.5695
 ZZZY=              4.2704 XXYY=           -190.7751 XXZZ=           -158.1355 YYZZ=            -78.4459
 XXYZ=              1.5020 YYXZ=              7.1598 ZZXY=             -1.8175
 N-N= 4.173421707943D+02 E-N=-1.843760591128D+03  KE= 4.300129224515D+02
 PrsmSu:  requested number of processors reduced to:  13 ShMem   1 Linda.
 Calling FoFJK, ICntrl=      2127 FMM=F ISym2X=0 I1Cent= 0 IOpClX= 0 NMat=1 NMatS=1 NMatT=0.
 ***** Axes restored to original set *****
 -------------------------------------------------------------------
 Center     Atomic                   Forces (Hartrees/Bohr)
 Number     Number              X              Y              Z
 -------------------------------------------------------------------
      1        8           0.048189840   -0.002903109   -0.009769554
      2        6          -0.043253128    0.046928046   -0.011786385
      3        6          -0.102261977    0.019977262   -0.045354725
      4        7           0.072176502   -0.054327487    0.070274749
      5        7          -0.030551313   -0.040400199    0.005969887
      6        6           0.034019852    0.038310062    0.007243361
      7        7           0.042177727   -0.000158930    0.000615858
      8        6          -0.000839906    0.020747675    0.012438054
      9        6          -0.016260140   -0.013296024    0.006052723
     10        1           0.015147043    0.006476301    0.003407109
     11        1          -0.018616936   -0.042816480    0.023454130
     12        1          -0.017666558    0.026251249   -0.044960813
     13        1           0.014115888    0.002034056   -0.006090192
     14        1           0.003623107   -0.006822421   -0.011494202
 -------------------------------------------------------------------
 Cartesian Forces:  Max     0.102261977 RMS     0.033537782

 GradGradGradGradGradGradGradGradGradGradGradGradGradGradGradGradGradGrad
 Berny optimization.
 FormGI is forming the generalized inverse of G from B-inverse, IUseBI=4.
 Internal  Forces:  Max     0.203887220 RMS     0.063089493
 Search for a local minimum.
 Step number   1 out of a maximum of   55
 All quantities printed in internal units (Hartrees-Bohrs-Radians)
 Mixed Optimization -- RFO/linear search
 Second derivative matrix not updated -- first step.
 ITU=  0
     Eigenvalues ---    0.00230   0.00789   0.01002   0.02443   0.02470
     Eigenvalues ---    0.02485   0.02539   0.03221   0.04455   0.05184
     Eigenvalues ---    0.07351   0.14310   0.14547   0.15974   0.16000
     Eigenvalues ---    0.16000   0.16000   0.22001   0.22402   0.24297
     Eigenvalues ---    0.25000   0.25000   0.25000   0.25000   0.26046
     Eigenvalues ---    0.31016   0.31506   0.32073   0.34321   0.35285
     Eigenvalues ---    0.56938   0.58121   0.63653   0.71714   0.92292
     Eigenvalues ---    1.09438
 RFO step:  Lambda=-3.38011510D-01 EMin= 2.30000000D-03
 Linear search not attempted -- first point.
 Maximum step size (   0.300) exceeded in Quadratic search.
    -- Step size scaled by   0.502
 Iteration  1 RMS(Cart)=  0.34294961 RMS(Int)=  0.03278473
 Iteration  2 RMS(Cart)=  0.28908975 RMS(Int)=  0.01320781
 Iteration  3 RMS(Cart)=  0.01900843 RMS(Int)=  0.00042577
 Iteration  4 RMS(Cart)=  0.00007609 RMS(Int)=  0.00042169
 Iteration  5 RMS(Cart)=  0.00000002 RMS(Int)=  0.00042169
 Variable       Old X    -DE/DX   Delta X   Delta X   Delta X     New X
                                 (Linear)    (Quad)   (Total)
    R1        2.31894  -0.03914   0.00000  -0.01558  -0.01558   2.30337
    R2        2.80091   0.03314   0.00000   0.02441   0.02441   2.82532
    R3        3.38189  -0.00086   0.00000  -0.00090  -0.00090   3.38099
    R4        2.25081   0.10752   0.00000   0.03766   0.03766   2.28847
    R5        2.11758  -0.01656   0.00000  -0.01272  -0.01272   2.10485
    R6        2.48162   0.00483   0.00000   0.00249   0.00249   2.48410
    R7        2.42720   0.05473   0.00000   0.02602   0.02602   2.45322
    R8        2.53449   0.03680   0.00000   0.02035   0.02035   2.55484
    R9        2.23321  -0.03502   0.00000  -0.02936  -0.02936   2.20385
   R10        2.52459   0.05813   0.00000   0.03173   0.03173   2.55632
   R11        2.12681  -0.01193   0.00000  -0.00923  -0.00923   2.11758
   R12        2.05215   0.00560   0.00000   0.00406   0.00406   2.05621
   R13        2.10711  -0.01257   0.00000  -0.00958  -0.00958   2.09753
    A1        2.04196   0.07095   0.00000   0.06120   0.06121   2.10317
    A2        2.25416   0.00621   0.00000   0.00544   0.00549   2.25964
    A3        1.95701  -0.07617   0.00000  -0.06454  -0.06452   1.89249
    A4        1.66153  -0.07630   0.00000  -0.06837  -0.06884   1.59268
    A5        2.20253   0.04416   0.00000   0.04059   0.04011   2.24264
    A6        2.41747   0.03436   0.00000   0.03086   0.03038   2.44785
    A7        2.47872   0.20389   0.00000   0.17398   0.17398   2.65270
    A8        1.70772  -0.18436   0.00000  -0.15732  -0.15732   1.55040
    A9        1.91574  -0.00060   0.00000  -0.00393  -0.00514   1.91060
   A10        2.30693  -0.04867   0.00000  -0.05477  -0.05562   2.25131
   A11        1.81183   0.00133   0.00000  -0.00293  -0.00453   1.80730
   A12        1.74047  -0.02673   0.00000  -0.02281  -0.02281   1.71766
   A13        1.59530   0.09323   0.00000   0.09394   0.09394   1.68923
   A14        1.73148   0.02810   0.00000   0.02865   0.02858   1.76006
   A15        1.75232   0.01126   0.00000   0.01166   0.01159   1.76391
   A16        1.88312  -0.00220   0.00000  -0.00083  -0.00111   1.88201
    D1       -2.65243  -0.00756   0.00000  -0.01123  -0.01112  -2.66355
    D2        0.43694   0.02761   0.00000   0.03754   0.03755   0.47449
    D3        0.25244  -0.00369   0.00000  -0.00304  -0.00305   0.24939
    D4       -2.94137   0.03149   0.00000   0.04572   0.04561  -2.89576
    D5       -0.88405   0.00170   0.00000   0.00225   0.00217  -0.88189
    D6        1.04029   0.00930   0.00000   0.01151   0.01169   1.05197
    D7        2.53038  -0.01149   0.00000  -0.01473  -0.01492   2.51546
    D8       -1.82847  -0.00389   0.00000  -0.00547  -0.00539  -1.83386
    D9       -3.10043   0.09637   0.00000   0.12811   0.12819  -2.97224
   D10        0.10479   0.05391   0.00000   0.06899   0.06891   0.17370
   D11        3.13698   0.08049   0.00000   0.11142   0.11142  -3.03478
   D12       -1.59732   0.10949   0.00000   0.14797   0.14690  -1.45041
   D13        0.70476   0.04800   0.00000   0.06547   0.06654   0.77129
   D14        1.80108  -0.08696   0.00000  -0.11517  -0.11538   1.68570
   D15       -0.73642  -0.01822   0.00000  -0.03033  -0.03012  -0.76655
   D16        2.06077   0.06583   0.00000   0.09090   0.09090   2.15167
         Item               Value     Threshold  Converged?
 Maximum Force            0.203887     0.000450     NO 
 RMS     Force            0.063089     0.000300     NO 
 Maximum Displacement     1.710960     0.001800     NO 
 RMS     Displacement     0.621056     0.001200     NO 
 Predicted change in Energy=-1.566668D-01
 GradGradGradGradGradGradGradGradGradGradGradGradGradGradGradGradGradGrad

                          Input orientation:                          
 ---------------------------------------------------------------------
 Center     Atomic      Atomic             Coordinates (Angstroms)
 Number     Number       Type             X           Y           Z
 ---------------------------------------------------------------------
      1          8           0        2.673649    0.482304   -0.152955
      2          6           0        3.359254   -0.521872   -0.238230
      3          6           0        2.802024   -1.855842    0.142989
      4          7           0        3.906111   -2.266471    0.423898
      5          7           0        4.737726   -3.231747    0.747396
      6          6           0        5.665889   -2.339778    0.915314
      7          7           0        6.223204   -2.039009   -0.279149
      8          6           0        5.502297   -0.929392   -0.560162
      9          6           0        5.133992   -0.676535   -0.403824
     10          1           0        1.741154   -2.194785    0.125273
     11          1           0        5.602898   -1.307882    1.455040
     12          1           0        6.372339   -0.234280   -0.684800
     13          1           0        5.321914    0.000926   -1.234300
     14          1           0        5.478930   -0.178198    0.526070
 ---------------------------------------------------------------------
                    Distance matrix (angstroms):
                    1          2          3          4          5
     1  O    0.000000
     2  C    1.218891   0.000000
     3  C    2.360294   1.495095   0.000000
     4  N    3.067162   1.944503   1.211005   0.000000
     5  N    4.343411   3.196102   2.450585   1.314531   0.000000
     6  C    4.249570   3.155315   3.005396   1.828574   1.298188
     7  N    4.355718   3.241232   3.451988   2.432064   2.164039
     8  C    3.187468   2.205073   2.940104   2.303035   2.755924
     9  C    2.731141   1.789144   2.669802   2.172720   2.830449
    10  H    2.848467   2.355636   1.113841   2.186630   3.231373
    11  H    3.790898   2.918717   3.141120   2.204821   2.224981
    12  H    3.804820   3.059545   4.007724   3.382498   3.702425
    13  H    2.900748   2.262192   3.419702   3.145666   3.836479
    14  H    2.960901   2.279318   3.182305   2.616312   3.150005
                    6          7          8          9         10
     6  C    0.000000
     7  N    1.351963   0.000000
     8  C    2.047677   1.352747   0.000000
     9  C    2.188473   1.748788   0.473315   0.000000
    10  H    4.006087   4.502954   4.027063   3.754514   0.000000
    11  H    1.166226   1.981600   2.052903   2.018377   4.179467
    12  H    2.737253   1.855758   1.120574   1.344634   5.093886
    13  H    3.196570   2.426102   1.162967   1.088100   4.414910
    14  H    2.204290   2.159847   1.320885   1.109966   4.265938
                   11         12         13         14
    11  H    0.000000
    12  H    2.514671   0.000000
    13  H    3.004077   1.208580   0.000000
    14  H    1.467835   1.505832   1.776413   0.000000
 Stoichiometry    C5H5N3O
 Framework group  C1[X(C5H5N3O)]
 Deg. of freedom    36
 Full point group                 C1      NOp   1
 Largest Abelian subgroup         C1      NOp   1
 Largest concise Abelian subgroup C1      NOp   1
                         Standard orientation:                         
 ---------------------------------------------------------------------
 Center     Atomic      Atomic             Coordinates (Angstroms)
 Number     Number       Type             X           Y           Z
 ---------------------------------------------------------------------
      1          8           0       -2.562354    0.406225    0.287314
      2          6           0       -1.437105    0.115805   -0.080337
      3          6           0       -1.050538   -1.314070   -0.283640
      4          7           0        0.109919   -1.061763   -0.046540
      5          7           0        1.383169   -1.386043   -0.005686
      6          6           0        1.624773   -0.255653    0.585193
      7          7           0        1.736123    0.722447   -0.341481
      8          6           0        0.472424    1.200836   -0.277193
      9          6           0        0.050486    1.109838   -0.082991
     10          1           0       -1.702420   -2.177600   -0.548226
     11          1           0        1.041153    0.257138    1.454971
     12          1           0        0.744218    2.260711   -0.035364
     13          1           0       -0.306070    2.010564   -0.578491
     14          1           0        0.157239    1.336369    0.998357
 ---------------------------------------------------------------------
 Rotational constants (GHZ):           3.7486457           1.9115954           1.3531035
 Standard basis: 6-31G(2df,p) (6D, 7F)
 There are   304 symmetry adapted cartesian basis functions of A   symmetry.
 There are   277 symmetry adapted basis functions of A   symmetry.
   277 basis functions,   431 primitive gaussians,   304 cartesian basis functions
    32 alpha electrons       32 beta electrons
       nuclear repulsion energy       477.2114029472 Hartrees.
 NAtoms=   14 NActive=   14 NUniq=   14 SFac= 1.00D+00 NAtFMM=   60 NAOKFM=F Big=F
 Integral buffers will be    131072 words long.
 Raffenetti 2 integral format.
 Two-electron integral symmetry is turned on.
 One-electron integrals computed using PRISM.
 PrsmSu:  requested number of processors reduced to:  13 ShMem   1 Linda.
 NBasis=   277 RedAO= T EigKep=  1.69D-06  NBF=   277
 NBsUse=   277 1.00D-06 EigRej= -1.00D+00 NBFU=   277
 Initial guess from the checkpoint file:  "OdC1CdNNdCNdCC1.chk"
 B after Tr=     0.000000    0.000000    0.000000
         Rot=    0.998528    0.000254   -0.020719   -0.050134 Ang=   6.22 deg.
 ExpMin= 1.61D-01 ExpMax= 5.48D+03 ExpMxC= 8.25D+02 IAcc=2 IRadAn=         4 AccDes= 0.00D+00
 Harris functional with IExCor=  402 and IRadAn=       4 diagonalized for initial guess.
 HarFok:  IExCor=  402 AccDes= 0.00D+00 IRadAn=         4 IDoV= 1 UseB2=F ITyADJ=14
 ICtDFT=  3500011 ScaDFX=  1.000000  1.000000  1.000000  1.000000
 FoFCou: FMM=F IPFlag=           0 FMFlag=      100000 FMFlg1=           0
         NFxFlg=           0 DoJE=T BraDBF=F KetDBF=T FulRan=T
         wScrn=  0.000000 ICntrl=       500 IOpCl=  0 I1Cent=   200000004 NGrid=           0
         NMat0=    1 NMatS0=      1 NMatT0=    0 NMatD0=    1 NMtDS0=    0 NMtDT0=    0
 Petite list used in FoFCou.
 Requested convergence on RMS density matrix=1.00D-08 within 128 cycles.
 Requested convergence on MAX density matrix=1.00D-06.
 Requested convergence on             energy=1.00D-06.
 No special actions if energy rises.
 Integral accuracy reduced to 1.0D-05 until final iterations.
 EnCoef did     5 forward-backward iterations
 EnCoef did     2 forward-backward iterations
 EnCoef did     3 forward-backward iterations
 Restarting incremental Fock formation.
 Initial convergence to 1.0D-05 achieved.  Increase integral accuracy.
 SCF Done:  E(RB3LYP) =  -426.207549464     A.U. after   35 cycles
            NFock= 35  Conv=0.48D-08     -V/T= 1.9733
 PrsmSu:  requested number of processors reduced to:  13 ShMem   1 Linda.
 Calling FoFJK, ICntrl=      2127 FMM=F ISym2X=0 I1Cent= 0 IOpClX= 0 NMat=1 NMatS=1 NMatT=0.
 ***** Axes restored to original set *****
 -------------------------------------------------------------------
 Center     Atomic                   Forces (Hartrees/Bohr)
 Number     Number              X              Y              Z
 -------------------------------------------------------------------
      1        8           0.013942550   -0.011666884   -0.001987019
      2        6          -0.086121420    0.115174548   -0.011583215
      3        6          -0.061580357    0.051968606   -0.047380782
      4        7           0.108818482   -0.106010807    0.047858853
      5        7          -0.079459165   -0.107673526    0.040994106
      6        6           0.057808145    0.106808914   -0.022507409
      7        7           0.133310795   -0.094215435   -0.041522865
      8        6          11.775192528   -8.274903306   -4.869387154
      9        6         -12.100746931    8.052198874    4.959975551
     10        1           0.014898270   -0.002850706    0.001818063
     11        1           0.005985616   -0.030237732    0.030388335
     12        1           0.177520393    0.080363657   -0.074182146
     13        1           0.038245104    0.154706111   -0.148582777
     14        1           0.002185990    0.066337686    0.136098460
 -------------------------------------------------------------------
 Cartesian Forces:  Max    12.100746931 RMS     3.334316217

 GradGradGradGradGradGradGradGradGradGradGradGradGradGradGradGradGradGrad
 Berny optimization.
 Using GEDIIS/GDIIS optimizer.
 FormGI is forming the generalized inverse of G from B-inverse, IUseBI=4.
 Internal  Forces:  Max    52.914420008 RMS    16.766809923
 Search for a local minimum.
 Step number   2 out of a maximum of   55
 All quantities printed in internal units (Hartrees-Bohrs-Radians)
 Mixed Optimization -- RFO/linear search
 Update second derivatives using D2CorX and points    2    1
 DE=  6.39D+00 DEPred=-1.57D-01 R=-4.08D+01
 Trust test=-4.08D+01 RLast= 4.19D-01 DXMaxT set to 1.50D-01
 ITU= -1  0
 Use linear search instead of GDIIS.
     Eigenvalues ---    0.00230   0.00791   0.01007   0.02321   0.02476
     Eigenvalues ---    0.02510   0.02642   0.03669   0.05069   0.06723
     Eigenvalues ---    0.07198   0.13162   0.14354   0.15577   0.16000
     Eigenvalues ---    0.16000   0.16000   0.21624   0.22609   0.23885
     Eigenvalues ---    0.24621   0.25000   0.25000   0.25958   0.30990
     Eigenvalues ---    0.31455   0.32046   0.34041   0.35279   0.55426
     Eigenvalues ---    0.57256   0.62816   0.70200   0.91189   1.01453
     Eigenvalues ---  334.17114
 RFO step:  Lambda=-2.71286130D+01 EMin= 2.30000766D-03
 Quartic linear search produced a step of -0.50373.
 Maximum step size (   0.150) exceeded in Quadratic search.
    -- Step size scaled by   0.198
 Iteration  1 RMS(Cart)=  0.28002894 RMS(Int)=  0.00925554
 Iteration  2 RMS(Cart)=  0.03698615 RMS(Int)=  0.00024531
 Iteration  3 RMS(Cart)=  0.00032328 RMS(Int)=  0.00021548
 Iteration  4 RMS(Cart)=  0.00000003 RMS(Int)=  0.00021548
 Variable       Old X    -DE/DX   Delta X   Delta X   Delta X     New X
                                 (Linear)    (Quad)   (Total)
    R1        2.30337  -0.01759   0.00785  -0.01210  -0.00425   2.29912
    R2        2.82532   1.69410  -0.01230   0.02314   0.01084   2.83616
    R3        3.38099 -13.13630   0.00045  -0.03283  -0.03238   3.34862
    R4        2.28847  12.82702  -0.01897   0.05940   0.04043   2.32890
    R5        2.10485  -0.01335   0.00641  -0.00995  -0.00354   2.10131
    R6        2.48410  12.53070  -0.00125   0.03203   0.03078   2.51488
    R7        2.45322   2.40045  -0.01311   0.02594   0.01283   2.46605
    R8        2.55484   7.54253  -0.01025   0.03398   0.02373   2.57857
    R9        2.20385  -0.01301   0.01479  -0.02294  -0.00815   2.19570
   R10        2.55632 -12.06463  -0.01598  -0.00438  -0.02036   2.53596
   R11        2.11758   0.19593   0.00465  -0.00672  -0.00207   2.11551
   R12        2.05621   0.21633  -0.00205   0.00369   0.00165   2.05786
   R13        2.09753   0.14448   0.00482  -0.00712  -0.00229   2.09524
    A1        2.10317  -6.42449  -0.03083   0.03212   0.00128   2.10445
    A2        2.25964  -7.86632  -0.00276  -0.01486  -0.01764   2.24200
    A3        1.89249  13.66080   0.03250  -0.01706   0.01543   1.90792
    A4        1.59268  36.31081   0.03468   0.03444   0.06935   1.66203
    A5        2.24264 -18.22177  -0.02020  -0.01350  -0.03347   2.20918
    A6        2.44785 -18.12195  -0.01530  -0.02085  -0.03592   2.41193
    A7        2.65270 -49.84916  -0.08764   0.01433  -0.07330   2.57940
    A8        1.55040  52.91442   0.07925   0.00614   0.08538   1.63578
    A9        1.91060   5.75535   0.00259   0.00913   0.01215   1.92275
   A10        2.25131   2.16498   0.02802  -0.03880  -0.01072   2.24059
   A11        1.80730  12.77360   0.00228   0.02651   0.02944   1.83674
   A12        1.71766  23.92595   0.01149   0.04049   0.05198   1.76963
   A13        1.68923  -0.07768  -0.04732   0.07320   0.02588   1.71512
   A14        1.76006  -0.00387  -0.01440   0.02226   0.00790   1.76796
   A15        1.76391  -0.09270  -0.00584   0.00877   0.00297   1.76687
   A16        1.88201   0.00418   0.00056  -0.00107  -0.00039   1.88162
    D1       -2.66355   1.18879   0.00560  -0.00571  -0.00014  -2.66370
    D2        0.47449  -6.39963  -0.01891   0.01366  -0.00527   0.46922
    D3        0.24939  -2.22824   0.00154  -0.00787  -0.00631   0.24308
    D4       -2.89576  -9.81665  -0.02298   0.01151  -0.01144  -2.90719
    D5       -0.88189  -1.53958  -0.00109  -0.00216  -0.00322  -0.88511
    D6        1.05197  -1.56214  -0.00589   0.00544  -0.00053   1.05145
    D7        2.51546   1.59576   0.00751  -0.00789  -0.00029   2.51517
    D8       -1.83386   1.57320   0.00272  -0.00029   0.00240  -1.83146
    D9       -2.97224 -22.57079  -0.06457   0.04496  -0.01963  -2.99187
   D10        0.17370 -13.31395  -0.03471   0.02118  -0.01352   0.16018
   D11       -3.03478 -25.98594  -0.05613   0.02337  -0.03276  -3.06754
   D12       -1.45041 -42.40725  -0.07400   0.01004  -0.06332  -1.51373
   D13        0.77129 -11.40289  -0.03352   0.02484  -0.00931   0.76198
   D14        1.68570  10.87435   0.05812  -0.06372  -0.00512   1.68058
   D15       -0.76655  -7.49646   0.01517  -0.04185  -0.02716  -0.79371
   D16        2.15167   0.12859  -0.04579   0.07145   0.02567   2.17733
         Item               Value     Threshold  Converged?
 Maximum Force            ********     0.000450     NO 
 RMS     Force            ********     0.000300     NO 
 Maximum Displacement     0.899215     0.001800     NO 
 RMS     Displacement     0.313496     0.001200     NO 
 Predicted change in Energy=-8.499259D+00
 GradGradGradGradGradGradGradGradGradGradGradGradGradGradGradGradGradGrad

                          Input orientation:                          
 ---------------------------------------------------------------------
 Center     Atomic      Atomic             Coordinates (Angstroms)
 Number     Number       Type             X           Y           Z
 ---------------------------------------------------------------------
      1          8           0        2.400342    0.482231   -0.150940
      2          6           0        3.180625   -0.446672   -0.243210
      3          6           0        2.760818   -1.836889    0.135683
      4          7           0        3.893733   -2.218651    0.434967
      5          7           0        4.688396   -3.231912    0.770960
      6          6           0        5.728482   -2.465944    0.956655
      7          7           0        6.392214   -2.280288   -0.221015
      8          6           0        5.885146   -1.106668   -0.628917
      9          6           0        4.943737   -0.392324   -0.412050
     10          1           0        1.727190   -2.246245    0.113136
     11          1           0        5.781589   -1.441306    1.501940
     12          1           0        6.848183   -0.549412   -0.752425
     13          1           0        5.057284    0.305119   -1.240625
     14          1           0        5.233642    0.136401    0.518401
 ---------------------------------------------------------------------
                    Distance matrix (angstroms):
                    1          2          3          4          5
     1  O    0.000000
     2  C    1.216641   0.000000
     3  C    2.364405   1.500834   0.000000
     4  N    3.141380   2.026908   1.232400   0.000000
     5  N    4.458694   3.325579   2.462768   1.330819   0.000000
     6  C    4.582032   3.465358   3.142727   1.923439   1.304978
     7  N    4.855045   3.698234   3.675714   2.583896   2.189200
     8  C    3.859652   2.810479   3.298372   2.516759   2.812211
     9  C    2.702199   1.772011   2.674306   2.270554   3.086742
    10  H    2.822667   2.340495   1.111965   2.190489   3.189516
    11  H    4.226682   3.286314   3.338893   2.303627   2.221638
    12  H    4.605362   3.704165   4.376401   3.595140   3.765792
    13  H    2.877173   2.254302   3.428729   3.245131   4.085724
    14  H    2.931758   2.266033   3.186724   2.710828   3.421493
                    6          7          8          9         10
     6  C    0.000000
     7  N    1.364520   0.000000
     8  C    2.094329   1.341971   0.000000
     9  C    2.605586   2.387255   1.201486   0.000000
    10  H    4.095135   4.677099   4.374685   3.749535   0.000000
    11  H    1.161912   2.011300   2.159458   2.337888   4.360602
    12  H    2.801389   1.867146   1.119477   1.940992   5.463790
    13  H    3.599630   3.083175   1.747193   1.088970   4.408135
    14  H    2.684983   2.780182   1.812737   1.108754   4.258691
                   11         12         13         14
    11  H    0.000000
    12  H    2.648634   0.000000
    13  H    3.331108   2.043497   0.000000
    14  H    1.938235   2.166121   1.775877   0.000000
 Stoichiometry    C5H5N3O
 Framework group  C1[X(C5H5N3O)]
 Deg. of freedom    36
 Full point group                 C1      NOp   1
 Largest Abelian subgroup         C1      NOp   1
 Largest concise Abelian subgroup C1      NOp   1
                         Standard orientation:                         
 ---------------------------------------------------------------------
 Center     Atomic      Atomic             Coordinates (Angstroms)
 Number     Number       Type             X           Y           Z
 ---------------------------------------------------------------------
      1          8           0       -2.759018    0.405447    0.245654
      2          6           0       -1.611543    0.173025   -0.085251
      3          6           0       -1.153970   -1.237844   -0.314551
      4          7           0        0.026263   -1.020027   -0.034525
      5          7           0        1.277707   -1.471609   -0.002262
      6          6           0        1.737486   -0.404736    0.592174
      7          7           0        2.059527    0.546538   -0.331559
      8          6           0        0.950381    1.301973   -0.331854
      9          6           0       -0.199212    1.238832    0.011684
     10          1           0       -1.787214   -2.097697   -0.624586
     11          1           0        1.275848    0.179595    1.484075
     12          1           0        1.428222    2.289643   -0.109581
     13          1           0       -0.577208    2.138364   -0.471861
     14          1           0       -0.150832    1.434705    1.101927
 ---------------------------------------------------------------------
 Rotational constants (GHZ):           3.5929794           1.5816985           1.1657242
 Standard basis: 6-31G(2df,p) (6D, 7F)
 There are   304 symmetry adapted cartesian basis functions of A   symmetry.
 There are   277 symmetry adapted basis functions of A   symmetry.
   277 basis functions,   431 primitive gaussians,   304 cartesian basis functions
    32 alpha electrons       32 beta electrons
       nuclear repulsion energy       430.2608282280 Hartrees.
 NAtoms=   14 NActive=   14 NUniq=   14 SFac= 1.00D+00 NAtFMM=   60 NAOKFM=F Big=F
 Integral buffers will be    131072 words long.
 Raffenetti 2 integral format.
 Two-electron integral symmetry is turned on.
 One-electron integrals computed using PRISM.
 PrsmSu:  requested number of processors reduced to:  13 ShMem   1 Linda.
 NBasis=   277 RedAO= T EigKep=  2.39D-04  NBF=   277
 NBsUse=   277 1.00D-06 EigRej= -1.00D+00 NBFU=   277
 Lowest energy guess from the checkpoint file:  "OdC1CdNNdCNdCC1.chk"
 B after Tr=     0.000000    0.000000    0.000000
         Rot=    0.999600   -0.007557   -0.011115   -0.024887 Ang=  -3.24 deg.
 B after Tr=     0.000000   -0.000000   -0.000000
         Rot=    0.999598   -0.007900    0.007636    0.026147 Ang=  -3.25 deg.
 Requested convergence on RMS density matrix=1.00D-08 within 128 cycles.
 Requested convergence on MAX density matrix=1.00D-06.
 Requested convergence on             energy=1.00D-06.
 No special actions if energy rises.
 Integral accuracy reduced to 1.0D-05 until final iterations.
 Initial convergence to 1.0D-05 achieved.  Increase integral accuracy.
 SCF Done:  E(RB3LYP) =  -432.567594103     A.U. after   21 cycles
            NFock= 21  Conv=0.82D-08     -V/T= 2.0040
 PrsmSu:  requested number of processors reduced to:  13 ShMem   1 Linda.
 Calling FoFJK, ICntrl=      2127 FMM=F ISym2X=0 I1Cent= 0 IOpClX= 0 NMat=1 NMatS=1 NMatT=0.
 ***** Axes restored to original set *****
 -------------------------------------------------------------------
 Center     Atomic                   Forces (Hartrees/Bohr)
 Number     Number              X              Y              Z
 -------------------------------------------------------------------
      1        8           0.042505772   -0.009492038   -0.014136413
      2        6          -0.050950124    0.033436399    0.006131729
      3        6          -0.032294866    0.016501588   -0.029420132
      4        7           0.043078168   -0.062913538    0.055156201
      5        7          -0.061657571   -0.052578650    0.040774558
      6        6           0.012761778    0.037594287   -0.075780564
      7        7           0.030110321    0.014490070    0.045462097
      8        6           0.327061568   -0.212334131   -0.051660616
      9        6          -0.295472115    0.231104052    0.043671100
     10        1           0.013397234    0.002531170   -0.002050166
     11        1           0.002723967   -0.040604375    0.023512389
     12        1          -0.010419265    0.001458277   -0.045866717
     13        1          -0.012129872    0.026972664    0.003249300
     14        1          -0.008714993    0.013834226    0.000957235
 -------------------------------------------------------------------
 Cartesian Forces:  Max     0.327061568 RMS     0.089804937

 GradGradGradGradGradGradGradGradGradGradGradGradGradGradGradGradGradGrad
 Berny optimization.
 Using GEDIIS/GDIIS optimizer.
 FormGI is forming the generalized inverse of G from B-inverse, IUseBI=4.
 Internal  Forces:  Max     1.555465090 RMS     0.489672548
 Search for a local minimum.
 Step number   3 out of a maximum of   55
 All quantities printed in internal units (Hartrees-Bohrs-Radians)
 Mixed Optimization -- RFO/linear search
 Update second derivatives using D2CorX and points    2    3    1
 DE=  2.56D-02 DEPred=-8.50D+00 R=-3.01D-03
 Trust test=-3.01D-03 RLast= 3.53D-01 DXMaxT set to 7.50D-02
 ITU= -1 -1  0
 Use linear search instead of GDIIS.
 Energy rises -- skip Quadratic/GDIIS search.
 Quartic linear search produced a step of -0.41834.
 Iteration  1 RMS(Cart)=  0.13161494 RMS(Int)=  0.00402759
 Iteration  2 RMS(Cart)=  0.00698610 RMS(Int)=  0.00005023
 Iteration  3 RMS(Cart)=  0.00002539 RMS(Int)=  0.00004868
 Iteration  4 RMS(Cart)=  0.00000000 RMS(Int)=  0.00004868
 Variable       Old X    -DE/DX   Delta X   Delta X   Delta X     New X
                                 (Linear)    (Quad)   (Total)
    R1        2.29912  -0.03558   0.00829   0.00000   0.00829   2.30741
    R2        2.83616   0.17314  -0.01475   0.00000  -0.01475   2.82142
    R3        3.34862  -0.31095   0.01392   0.00000   0.01392   3.36254
    R4        2.32890   0.41142  -0.03267   0.00000  -0.03267   2.29623
    R5        2.10131  -0.01334   0.00681   0.00000   0.00681   2.10811
    R6        2.51488   0.35529  -0.01392   0.00000  -0.01392   2.50097
    R7        2.46605   0.15682  -0.01626   0.00000  -0.01626   2.44980
    R8        2.57857   0.18688  -0.01844   0.00000  -0.01844   2.56013
    R9        2.19570  -0.02465   0.01569   0.00000   0.01569   2.21139
   R10        2.53596  -0.27442  -0.00475   0.00000  -0.00475   2.53120
   R11        2.11551  -0.00318   0.00473   0.00000   0.00473   2.12024
   R12        2.05786   0.01354  -0.00239   0.00000  -0.00239   2.05547
   R13        2.09524   0.00512   0.00497   0.00000   0.00497   2.10021
    A1        2.10445  -0.26347  -0.02614   0.00000  -0.02614   2.07831
    A2        2.24200  -0.34544   0.00508   0.00000   0.00507   2.24708
    A3        1.90792   0.60840   0.02054   0.00000   0.02053   1.92845
    A4        1.66203   1.24482  -0.00021   0.00000  -0.00012   1.66192
    A5        2.20918  -0.62452  -0.00278   0.00000  -0.00269   2.20649
    A6        2.41193  -0.62242   0.00232   0.00000   0.00241   2.41434
    A7        2.57940  -1.46571  -0.04212   0.00000  -0.04212   2.53728
    A8        1.63578   1.55547   0.03009   0.00000   0.03009   1.66588
    A9        1.92275   0.30222  -0.00293   0.00000  -0.00286   1.91989
   A10        2.24059   0.02675   0.02775   0.00000   0.02777   2.26836
   A11        1.83674   0.27780  -0.01042   0.00000  -0.01031   1.82642
   A12        1.76963   0.66894  -0.01220   0.00000  -0.01220   1.75743
   A13        1.71512   0.04192  -0.05012   0.00000  -0.05012   1.66499
   A14        1.76796  -0.03241  -0.01526   0.00000  -0.01523   1.75273
   A15        1.76687  -0.02255  -0.00609   0.00000  -0.00606   1.76081
   A16        1.88162  -0.00954   0.00063   0.00000   0.00074   1.88236
    D1       -2.66370   0.05559   0.00471   0.00000   0.00472  -2.65897
    D2        0.46922  -0.14842  -0.01350   0.00000  -0.01355   0.45567
    D3        0.24308   0.01340   0.00392   0.00000   0.00396   0.24704
    D4       -2.90719  -0.19061  -0.01430   0.00000  -0.01431  -2.92150
    D5       -0.88511   0.01026   0.00044   0.00000   0.00048  -0.88463
    D6        1.05145  -0.01577  -0.00467   0.00000  -0.00474   1.04671
    D7        2.51517   0.02551   0.00636   0.00000   0.00643   2.52160
    D8       -1.83146  -0.00051   0.00125   0.00000   0.00122  -1.83025
    D9       -2.99187  -0.53444  -0.04541   0.00000  -0.04537  -3.03724
   D10        0.16018  -0.29109  -0.02317   0.00000  -0.02321   0.13697
   D11       -3.06754  -0.49624  -0.03291   0.00000  -0.03291  -3.10045
   D12       -1.51373  -1.11808  -0.03497   0.00000  -0.03487  -1.54860
   D13        0.76198  -0.20033  -0.02394   0.00000  -0.02404   0.73794
   D14        1.68058   0.37515   0.05041   0.00000   0.05048   1.73106
   D15       -0.79371  -0.19705   0.02397   0.00000   0.02389  -0.76982
   D16        2.17733   0.08911  -0.04876   0.00000  -0.04876   2.12857
         Item               Value     Threshold  Converged?
 Maximum Force            1.555465     0.000450     NO 
 RMS     Force            0.489673     0.000300     NO 
 Maximum Displacement     0.400162     0.001800     NO 
 RMS     Displacement     0.136034     0.001200     NO 
 Predicted change in Energy=-1.128871D-01
 GradGradGradGradGradGradGradGradGradGradGradGradGradGradGradGradGradGrad

                          Input orientation:                          
 ---------------------------------------------------------------------
 Center     Atomic      Atomic             Coordinates (Angstroms)
 Number     Number       Type             X           Y           Z
 ---------------------------------------------------------------------
      1          8           0        2.286783    0.439601   -0.134820
      2          6           0        3.128995   -0.438562   -0.236914
      3          6           0        2.761448   -1.841316    0.118515
      4          7           0        3.887413   -2.174948    0.430591
      5          7           0        4.662211   -3.183128    0.797734
      6          6           0        5.732692   -2.467441    0.947592
      7          7           0        6.409334   -2.394853   -0.223845
      8          6           0        6.011233   -1.195118   -0.666893
      9          6           0        4.894547   -0.276316   -0.387534
     10          1           0        1.738981   -2.286354    0.087078
     11          1           0        5.869221   -1.411924    1.434059
     12          1           0        7.043428   -0.761168   -0.738317
     13          1           0        4.957398    0.442321   -1.201607
     14          1           0        5.137697    0.256647    0.556921
 ---------------------------------------------------------------------
                    Distance matrix (angstroms):
                    1          2          3          4          5
     1  O    0.000000
     2  C    1.221030   0.000000
     3  C    2.343516   1.493029   0.000000
     4  N    3.117302   2.008929   1.215112   0.000000
     5  N    4.431307   3.309666   2.423777   1.323455   0.000000
     6  C    4.636464   3.506942   3.147648   1.938529   1.296377
     7  N    5.003747   3.819407   3.705494   2.614715   2.171967
     8  C    4.102065   3.010740   3.405222   2.583630   2.813747
     9  C    2.716033   1.779378   2.693588   2.299662   3.147760
    10  H    2.789293   2.334833   1.115566   2.178572   3.139190
    11  H    4.327053   3.353866   3.401953   2.348769   2.235831
    12  H    4.942846   3.959579   4.498469   3.650417   3.727671
    13  H    2.875801   2.247142   3.432188   3.264817   4.150708
    14  H    2.939335   2.269003   3.200032   2.737120   3.480823
                    6          7          8          9         10
     6  C    0.000000
     7  N    1.354762   0.000000
     8  C    2.074356   1.339455   0.000000
     9  C    2.699273   2.609516   1.472829   0.000000
    10  H    4.089377   4.681949   4.473411   3.771353   0.000000
    11  H    1.170216   2.001628   2.116877   2.357497   4.431463
    12  H    2.733439   1.826385   1.121980   2.230654   5.580737
    13  H    3.699575   3.333721   2.019330   1.087706   4.411869
    14  H    2.815547   3.042551   2.090074   1.111381   4.270700
                   11         12         13         14
    11  H    0.000000
    12  H    2.553715   0.000000
    13  H    3.349086   2.452456   0.000000
    14  H    2.022036   2.519008   1.777471   0.000000
 Stoichiometry    C5H5N3O
 Framework group  C1[X(C5H5N3O)]
 Deg. of freedom    36
 Full point group                 C1      NOp   1
 Largest Abelian subgroup         C1      NOp   1
 Largest concise Abelian subgroup C1      NOp   1
                         Standard orientation:                         
 ---------------------------------------------------------------------
 Center     Atomic      Atomic             Coordinates (Angstroms)
 Number     Number       Type             X           Y           Z
 ---------------------------------------------------------------------
      1          8           0       -2.812355    0.395779    0.211568
      2          6           0       -1.645253    0.205678   -0.092816
      3          6           0       -1.177897   -1.190686   -0.339561
      4          7           0       -0.024306   -0.978933   -0.021935
      5          7           0        1.196787   -1.484663    0.046638
      6          6           0        1.731621   -0.440567    0.598371
      7          7           0        2.158998    0.420380   -0.356354
      8          6           0        1.146718    1.297424   -0.371285
      9          6           0       -0.257459    1.306907    0.073037
     10          1           0       -1.805580   -2.049659   -0.675222
     11          1           0        1.328970    0.245466    1.456647
     12          1           0        1.779348    2.192830   -0.132816
     13          1           0       -0.658724    2.201506   -0.397903
     14          1           0       -0.251910    1.473605    1.171832
 ---------------------------------------------------------------------
 Rotational constants (GHZ):           3.6135822           1.5014114           1.1274211
 Standard basis: 6-31G(2df,p) (6D, 7F)
 There are   304 symmetry adapted cartesian basis functions of A   symmetry.
 There are   277 symmetry adapted basis functions of A   symmetry.
   277 basis functions,   431 primitive gaussians,   304 cartesian basis functions
    32 alpha electrons       32 beta electrons
       nuclear repulsion energy       423.8741888635 Hartrees.
 NAtoms=   14 NActive=   14 NUniq=   14 SFac= 1.00D+00 NAtFMM=   60 NAOKFM=F Big=F
 Integral buffers will be    131072 words long.
 Raffenetti 2 integral format.
 Two-electron integral symmetry is turned on.
 One-electron integrals computed using PRISM.
 PrsmSu:  requested number of processors reduced to:  13 ShMem   1 Linda.
 NBasis=   277 RedAO= T EigKep=  2.41D-04  NBF=   277
 NBsUse=   277 1.00D-06 EigRej= -1.00D+00 NBFU=   277
 Lowest energy guess from the checkpoint file:  "OdC1CdNNdCNdCC1.chk"
 B after Tr=     0.000000    0.000000    0.000000
         Rot=    0.999895   -0.005692   -0.006651   -0.011588 Ang=  -1.66 deg.
 B after Tr=     0.000000    0.000000    0.000000
         Rot=    0.999899    0.001995    0.004458    0.013381 Ang=   1.63 deg.
 Requested convergence on RMS density matrix=1.00D-08 within 128 cycles.
 Requested convergence on MAX density matrix=1.00D-06.
 Requested convergence on             energy=1.00D-06.
 No special actions if energy rises.
 Integral accuracy reduced to 1.0D-05 until final iterations.
 Initial convergence to 1.0D-05 achieved.  Increase integral accuracy.
 SCF Done:  E(RB3LYP) =  -432.642878636     A.U. after   17 cycles
            NFock= 17  Conv=0.61D-08     -V/T= 2.0057
 PrsmSu:  requested number of processors reduced to:  13 ShMem   1 Linda.
 Calling FoFJK, ICntrl=      2127 FMM=F ISym2X=0 I1Cent= 0 IOpClX= 0 NMat=1 NMatS=1 NMatT=0.
 ***** Axes restored to original set *****
 -------------------------------------------------------------------
 Center     Atomic                   Forces (Hartrees/Bohr)
 Number     Number              X              Y              Z
 -------------------------------------------------------------------
      1        8           0.044301397   -0.007955386   -0.011011578
      2        6          -0.041916320    0.040750700   -0.005769608
      3        6          -0.057776261    0.014844299   -0.033579606
      4        7           0.042332921   -0.056828628    0.060345119
      5        7          -0.041624740   -0.042760905    0.022410794
      6        6           0.021155554    0.032569424   -0.036856631
      7        7           0.036842956    0.010667170    0.027597808
      8        6           0.057998046   -0.019329482    0.004656408
      9        6          -0.045986272    0.036007859    0.003114604
     10        1           0.013839607    0.004567993    0.000886378
     11        1          -0.006894034   -0.043136232    0.022481964
     12        1          -0.021354762    0.014350277   -0.047808900
     13        1           0.002416376    0.012849079    0.000436079
     14        1          -0.003334467    0.003403832   -0.006902831
 -------------------------------------------------------------------
 Cartesian Forces:  Max     0.060345119 RMS     0.031284491

 GradGradGradGradGradGradGradGradGradGradGradGradGradGradGradGradGradGrad
 Berny optimization.
 Using GEDIIS/GDIIS optimizer.
 FormGI is forming the generalized inverse of G from B-inverse, IUseBI=4.
 Internal  Forces:  Max     0.203330864 RMS     0.068005986
 Search for a local minimum.
 Step number   4 out of a maximum of   55
 All quantities printed in internal units (Hartrees-Bohrs-Radians)
 Mixed Optimization -- RFO/linear search
 Update second derivatives using D2CorX and points    2    3    1    4
 ITU=  0 -1 -1  0
 Use linear search instead of GDIIS.
     Eigenvalues ---    0.00230   0.00791   0.01000   0.02355   0.02467
     Eigenvalues ---    0.02540   0.02724   0.03477   0.04631   0.06106
     Eigenvalues ---    0.07260   0.13868   0.14830   0.15019   0.15993
     Eigenvalues ---    0.16000   0.16205   0.20232   0.22523   0.23904
     Eigenvalues ---    0.24709   0.24999   0.25893   0.28901   0.31009
     Eigenvalues ---    0.31507   0.32119   0.33459   0.35282   0.56292
     Eigenvalues ---    0.58883   0.65196   0.70249   0.91506   1.11043
     Eigenvalues ---    7.88560
 RFO step:  Lambda=-1.74250571D-01 EMin= 2.30020089D-03
 Quartic linear search produced a step of -0.00415.
 Maximum step size (   0.075) exceeded in Quadratic search.
    -- Step size scaled by   0.136
 Iteration  1 RMS(Cart)=  0.04353243 RMS(Int)=  0.00064978
 Iteration  2 RMS(Cart)=  0.00074178 RMS(Int)=  0.00003497
 Iteration  3 RMS(Cart)=  0.00000028 RMS(Int)=  0.00003497
 Variable       Old X    -DE/DX   Delta X   Delta X   Delta X     New X
                                 (Linear)    (Quad)   (Total)
    R1        2.30741  -0.03720   0.00005  -0.00643  -0.00638   2.30103
    R2        2.82142   0.07375  -0.00009   0.01916   0.01908   2.84049
    R3        3.36254  -0.04149   0.00008  -0.00586  -0.00578   3.35675
    R4        2.29623   0.12422  -0.00019   0.01642   0.01623   2.31246
    R5        2.10811  -0.01453   0.00004  -0.00528  -0.00524   2.10287
    R6        2.50097   0.06121  -0.00008   0.00634   0.00626   2.50723
    R7        2.44980   0.06630  -0.00009   0.01244   0.01235   2.46214
    R8        2.56013   0.05046  -0.00011   0.00913   0.00903   2.56916
    R9        2.21139  -0.03037   0.00009  -0.01221  -0.01212   2.19927
   R10        2.53120  -0.00108  -0.00003   0.00783   0.00781   2.53901
   R11        2.12024  -0.01105   0.00003  -0.00400  -0.00397   2.11626
   R12        2.05547   0.00830  -0.00001   0.00229   0.00227   2.05774
   R13        2.10021  -0.00496   0.00003  -0.00270  -0.00267   2.09754
    A1        2.07831  -0.02175  -0.00015   0.00694   0.00679   2.08510
    A2        2.24708  -0.08443   0.00003  -0.01747  -0.01747   2.22961
    A3        1.92845   0.10776   0.00012   0.01245   0.01256   1.94102
    A4        1.66192   0.20333  -0.00000   0.02901   0.02900   1.69092
    A5        2.20649  -0.10120  -0.00002  -0.01336  -0.01338   2.19311
    A6        2.41434  -0.10268   0.00001  -0.01549  -0.01548   2.39886
    A7        2.53728  -0.12979  -0.00024   0.01522   0.01498   2.55226
    A8        1.66588   0.14121   0.00017  -0.01063  -0.01045   1.65542
    A9        1.91989   0.04722  -0.00002   0.01260   0.01259   1.93248
   A10        2.26836  -0.02395   0.00016  -0.01459  -0.01449   2.25386
   A11        1.82642   0.04973  -0.00006   0.01092   0.01088   1.83730
   A12        1.75743   0.10903  -0.00007   0.01345   0.01338   1.77082
   A13        1.66499   0.07678  -0.00029   0.03869   0.03840   1.70339
   A14        1.75273   0.00216  -0.00009   0.00456   0.00447   1.75720
   A15        1.76081  -0.00520  -0.00004  -0.00015  -0.00018   1.76063
   A16        1.88236  -0.00799   0.00000  -0.00371  -0.00371   1.87865
    D1       -2.65897   0.00601   0.00003   0.00006   0.00002  -2.65895
    D2        0.45567  -0.01153  -0.00008   0.00472   0.00460   0.46027
    D3        0.24704   0.00071   0.00002   0.00498   0.00505   0.25208
    D4       -2.92150  -0.01684  -0.00008   0.00964   0.00962  -2.91188
    D5       -0.88463   0.01076   0.00000   0.00734   0.00730  -0.87733
    D6        1.04671   0.00154  -0.00003   0.00465   0.00457   1.05129
    D7        2.52160   0.00166   0.00004  -0.00307  -0.00298   2.51861
    D8       -1.83025  -0.00756   0.00001  -0.00576  -0.00571  -1.83596
    D9       -3.03724  -0.04608  -0.00026   0.01642   0.01614  -3.02110
   D10        0.13697  -0.02617  -0.00013   0.01053   0.01041   0.14738
   D11       -3.10045  -0.06609  -0.00019   0.01058   0.01039  -3.09006
   D12       -1.54860  -0.11737  -0.00020   0.00300   0.00287  -1.54573
   D13        0.73794   0.00953  -0.00014   0.02275   0.02254   0.76048
   D14        1.73106   0.00954   0.00029  -0.01912  -0.01872   1.71234
   D15       -0.76982  -0.04808   0.00014  -0.02067  -0.02064  -0.79046
   D16        2.12857   0.08213  -0.00028   0.05523   0.05495   2.18352
         Item               Value     Threshold  Converged?
 Maximum Force            0.203331     0.000450     NO 
 RMS     Force            0.068006     0.000300     NO 
 Maximum Displacement     0.114402     0.001800     NO 
 RMS     Displacement     0.043704     0.001200     NO 
 Predicted change in Energy=-2.282899D-02
 GradGradGradGradGradGradGradGradGradGradGradGradGradGradGradGradGradGrad

                          Input orientation:                          
 ---------------------------------------------------------------------
 Center     Atomic      Atomic             Coordinates (Angstroms)
 Number     Number       Type             X           Y           Z
 ---------------------------------------------------------------------
      1          8           0        2.297868    0.452239   -0.133150
      2          6           0        3.132522   -0.428065   -0.238475
      3          6           0        2.768151   -1.839989    0.126335
      4          7           0        3.893489   -2.206000    0.437936
      5          7           0        4.662654   -3.227559    0.791657
      6          6           0        5.733484   -2.505228    0.962344
      7          7           0        6.429790   -2.395043   -0.200138
      8          6           0        6.018235   -1.195977   -0.645207
      9          6           0        4.889981   -0.244199   -0.419673
     10          1           0        1.743740   -2.273640    0.097473
     11          1           0        5.847016   -1.472463    1.486698
     12          1           0        7.028325   -0.726673   -0.761817
     13          1           0        4.934560    0.473157   -1.237680
     14          1           0        5.141564    0.296882    0.516259
 ---------------------------------------------------------------------
                    Distance matrix (angstroms):
                    1          2          3          4          5
     1  O    0.000000
     2  C    1.217652   0.000000
     3  C    2.354317   1.503124   0.000000
     4  N    3.152520   2.048818   1.223701   0.000000
     5  N    4.470838   3.352557   2.440727   1.326769   0.000000
     6  C    4.663709   3.538584   3.151929   1.936524   1.302910
     7  N    5.018394   3.839589   3.717831   2.622155   2.190778
     8  C    4.101213   3.013712   3.401922   2.589960   2.833638
     9  C    2.699291   1.776317   2.710505   2.361600   3.227916
    10  H    2.791175   2.334035   1.112791   2.177593   3.148319
    11  H    4.350268   3.381636   3.386011   2.335433   2.228488
    12  H    4.915514   3.942123   4.491923   3.668108   3.776786
    13  H    2.858770   2.248989   3.450291   3.327071   4.229355
    14  H    2.921040   2.265265   3.217352   2.797901   3.567477
                    6          7          8          9         10
     6  C    0.000000
     7  N    1.359538   0.000000
     8  C    2.092712   1.343586   0.000000
     9  C    2.780957   2.654306   1.493219   0.000000
    10  H    4.088972   4.697060   4.470373   3.779538   0.000000
    11  H    1.163804   2.009028   2.156566   2.461463   4.405531
    12  H    2.795103   1.859351   1.119878   2.218639   5.573000
    13  H    3.788029   3.396878   2.076387   1.088908   4.416883
    14  H    2.898480   3.069074   2.084750   1.109969   4.281142
                   11         12         13         14
    11  H    0.000000
    12  H    2.647171   0.000000
    13  H    3.469906   2.459653   0.000000
    14  H    2.137755   2.498201   1.774887   0.000000
 Stoichiometry    C5H5N3O
 Framework group  C1[X(C5H5N3O)]
 Deg. of freedom    36
 Full point group                 C1      NOp   1
 Largest Abelian subgroup         C1      NOp   1
 Largest concise Abelian subgroup C1      NOp   1
                         Standard orientation:                         
 ---------------------------------------------------------------------
 Center     Atomic      Atomic             Coordinates (Angstroms)
 Number     Number       Type             X           Y           Z
 ---------------------------------------------------------------------
      1          8           0       -2.824662    0.353892    0.219623
      2          6           0       -1.659468    0.183950   -0.090406
      3          6           0       -1.154372   -1.211077   -0.331567
      4          7           0        0.011880   -0.999387   -0.027449
      5          7           0        1.244747   -1.487125    0.022231
      6          6           0        1.756542   -0.434692    0.594965
      7          7           0        2.161595    0.470177   -0.335351
      8          6           0        1.120011    1.318700   -0.353658
      9          6           0       -0.316633    1.337868    0.053025
     10          1           0       -1.771641   -2.076680   -0.660221
     11          1           0        1.337186    0.198879    1.476537
     12          1           0        1.691659    2.259296   -0.147205
     13          1           0       -0.751912    2.214403   -0.424405
     14          1           0       -0.312034    1.518813    1.148136
 ---------------------------------------------------------------------
 Rotational constants (GHZ):           3.5373937           1.4889772           1.1107598
 Standard basis: 6-31G(2df,p) (6D, 7F)
 There are   304 symmetry adapted cartesian basis functions of A   symmetry.
 There are   277 symmetry adapted basis functions of A   symmetry.
[...]
 ! A4    A(2,3,4)              116.9857         -DE/DX =    0.0                 !
 ! A5    A(2,3,10)             122.2014         -DE/DX =    0.0                 !
 ! A6    A(4,3,10)             119.9466         -DE/DX =    0.0001              !
 ! A7    A(3,4,5)              150.8895         -DE/DX =    0.0001              !
 ! A8    A(4,5,6)               60.6019         -DE/DX =   -0.0001              !
 ! A9    A(5,6,7)              122.5277         -DE/DX =    0.0001              !
 ! A10   A(5,6,11)             117.2441         -DE/DX =    0.0                 !
 ! A11   A(7,6,11)             115.3832         -DE/DX =    0.0                 !
 ! A12   A(6,7,8)              113.4077         -DE/DX =   -0.0001              !
 ! A13   A(7,8,12)             116.8009         -DE/DX =    0.0                 !
 ! A14   A(2,9,13)             105.1364         -DE/DX =    0.0                 !
 ! A15   A(2,9,14)             107.4829         -DE/DX =    0.0                 !
 ! A16   A(13,9,14)            107.1268         -DE/DX =    0.0                 !
 ! D1    D(1,2,3,4)            177.4217         -DE/DX =    0.0                 !
 ! D2    D(1,2,3,10)             8.0943         -DE/DX =    0.0                 !
 ! D3    D(9,2,3,4)             -0.3548         -DE/DX =    0.0                 !
 ! D4    D(9,2,3,10)          -169.6822         -DE/DX =    0.0001              !
 ! D5    D(1,2,9,13)            -8.7194         -DE/DX =    0.0                 !
 ! D6    D(1,2,9,14)           105.1747         -DE/DX =    0.0                 !
 ! D7    D(3,2,9,13)           169.1169         -DE/DX =    0.0                 !
 ! D8    D(3,2,9,14)           -76.989          -DE/DX =    0.0                 !
 ! D9    D(2,3,4,5)           -154.014          -DE/DX =    0.0001              !
 ! D10   D(10,3,4,5)            15.5664         -DE/DX =    0.0001              !
 ! D11   D(3,4,5,6)            165.0441         -DE/DX =    0.0001              !
 ! D12   D(4,5,6,7)            -99.8719         -DE/DX =    0.0001              !
 ! D13   D(4,5,6,11)           105.9375         -DE/DX =    0.0                 !
 ! D14   D(5,6,7,8)            118.6011         -DE/DX =    0.0                 !
 ! D15   D(11,6,7,8)           -86.7676         -DE/DX =    0.0001              !
 ! D16   D(6,7,8,12)          -179.6619         -DE/DX =    0.0                 !
 --------------------------------------------------------------------------------
 GradGradGradGradGradGradGradGradGradGradGradGradGradGradGradGradGradGrad


 ----------------------------------------------------------------------

 Electric dipole moment (input orientation):
 (Debye = 10**-18 statcoulomb cm , SI units = C m)
                  (au)            (Debye)         (10**-30 SI)
   Tot        0.882562D+00      0.224325D+01      0.748267D+01
   x          0.532723D+00      0.135405D+01      0.451661D+01
   y          0.571304D+00      0.145211D+01      0.484372D+01
   z          0.410772D+00      0.104408D+01      0.348267D+01

 Dipole polarizability, Alpha (input orientation).
 (esu units = cm**3 , SI units = C**2 m**2 J**-1)
 Alpha(0;0):
               (au)            (10**-24 esu)      (10**-40 SI)
   iso        0.739979D+02      0.109654D+02      0.122006D+02
   aniso      0.511833D+02      0.758459D+01      0.843899D+01
   xx         0.797430D+02      0.118167D+02      0.131479D+02
   yx        -0.123892D+02     -0.183589D+01     -0.204270D+01
   yy         0.856831D+02      0.126969D+02      0.141272D+02
   zx         0.611754D+01      0.906526D+00      0.100865D+01
   zy        -0.211102D+02     -0.312821D+01     -0.348061D+01
   zz         0.565675D+02      0.838243D+01      0.932671D+01

 ----------------------------------------------------------------------

 Dipole orientation:
     8          4.49901887          0.12809572          2.52788495
     6          5.43665224         -1.90464626          3.03478490
     6          4.97184003         -4.14906338          1.51938650
     7          6.15739368         -6.21623649          2.18227503
     7          7.11611781         -8.40119366          1.63475967
     6          7.79384803         -7.17058406          4.05771093
     7         10.10395214         -5.82706686          4.40411468
     6          9.78643630         -3.49792041          4.93716469
     6          7.27888796         -2.12500054          5.32130568
     1          3.97081014         -4.07296385         -0.26232320
     1          6.95342541         -7.94219951          5.77625024
     1         11.48952457         -2.36627524          5.21399662
     1          7.62246883         -0.18489221          5.92433775
     1          6.25339152         -3.07130687          6.85996585

 Electric dipole moment (dipole orientation):
 (Debye = 10**-18 statcoulomb cm , SI units = C m)
                  (au)            (Debye)         (10**-30 SI)
   Tot        0.882562D+00      0.224325D+01      0.748267D+01
   x          0.000000D+00      0.000000D+00      0.000000D+00
   y          0.000000D+00      0.000000D+00      0.000000D+00
   z          0.882562D+00      0.224325D+01      0.748267D+01

 Dipole polarizability, Alpha (dipole orientation).
 (esu units = cm**3 , SI units = C**2 m**2 J**-1)
 Alpha(0;0):
               (au)            (10**-24 esu)      (10**-40 SI)
   iso        0.739979D+02      0.109654D+02      0.122006D+02
   aniso      0.511833D+02      0.758459D+01      0.843899D+01
   xx         0.643415D+02      0.953442D+01      0.106085D+02
   yx        -0.142500D+02     -0.211163D+01     -0.234950D+01
   yy         0.994053D+02      0.147303D+02      0.163897D+02
   zx         0.122324D+02      0.181265D+01      0.201685D+01
   zy         0.520701D+01      0.771599D+00      0.858520D+00
   zz         0.582469D+02      0.863130D+01      0.960361D+01

 ----------------------------------------------------------------------
 1\1\GINC-LEWIS4-R630-HPC4RC-NODE367\Freq\RB3LYP\6-31G(2df,p)\C5H5N3O1\
 YXIE\03-Aug-2022\0\\#N Geom=AllCheck Guess=TCheck SCRF=Check GenChk RB
 3LYP/6-31G(2df,p) Freq\\Title Card Required\\0,1\O,2.5782290221,0.2795
 360865,-0.8583318388\C,3.3997646802,-0.4472195407,-0.3366653237\C,3.04
 75852259,-1.7488175069,0.2073908717\N,4.0223798579,-2.4701300674,0.700
 0812926\N,4.536980846,-3.6185673556,1.0074542614\C,5.4067496981,-2.419
 209792,0.9661942088\N,6.2463528124,-2.1188296905,-0.1465940562\C,5.961
 7377222,-1.0113354253,-0.7117341346\C,4.8936992029,-0.0071683578,-0.28
 64628512\H,2.0697212055,-2.189144976,0.0622407357\H,5.7303903635,-2.00
 35100239,1.9222243364\H,6.5676571019,-0.7291983995,-1.5751902229\H,4.9
 491878063,0.8840172382,-0.9122669483\H,5.1109444551,0.307017811,0.7442
 19669\\Version=ES64L-G16RevA.03\State=1-A\HF=-432.8985833\RMSD=3.788e-
 09\RMSF=3.703e-05\ZeroPoint=0.1014736\Thermal=0.1083624\Dipole=0.53272
 26,0.571304,0.4107721\DipoleDeriv=-0.8653476,0.361779,-0.2147811,0.388
 0161,-0.877596,0.2933872,-0.2963139,0.3447547,-0.5087182,0.9653717,-0.
 0490002,0.102677,-0.3894843,1.347851,-0.6009665,0.2765866,-0.5207915,0
 .4812809,-0.1517238,0.3111962,-0.0431524,0.3746611,-0.7816601,0.314359
 ,-0.0600306,0.3518434,-0.3083096,0.1990574,-0.7489327,0.3611137,-0.541
 2477,0.874342,-0.3775591,0.1908415,-0.2836555,0.1273259,-0.4155485,0.2
 347821,-0.1226534,0.2815025,-0.7298437,0.2881332,-0.1435546,0.1917366,
 -0.374892,0.8139695,0.1313885,-0.0310718,0.2932823,0.1205205,0.080758,
 -0.1299799,-0.1050616,0.6560129,-0.6312645,0.0329559,0.0043295,-0.0349
 428,-0.512293,0.0856247,0.2425111,0.1444262,-0.5161521,0.3867876,-0.19
 82329,-0.1980361,-0.2316215,0.4540147,-0.1379547,-0.2326567,-0.0917781
 ,0.3282434,-0.4240261,0.0353633,0.064865,-0.0195809,-0.0429135,-0.0039
 547,0.1123001,-0.1217197,0.0700066,0.0248906,-0.0310053,-0.0208465,-0.
 0486358,0.0161633,0.048297,-0.0531981,0.0082238,0.1469882,-0.0007616,-
 0.0732571,0.0174443,-0.0976267,0.0648986,-0.0910739,-0.0217891,-0.0125
 419,-0.0654073,0.0060097,-0.0063067,0.0893469,-0.0006409,0.037504,0.03
 96794,0.1113749,0.0490605,-0.0276708,0.0465118,0.0021238,0.0070503,-0.
 0030932,-0.0145245,0.0459687,0.022049,0.0726135,0.0327103,0.0460738,-0
 .002854,-0.0162854,0.0294119,0.0435365,0.0153016,-0.0181402,-0.0271104
 ,-0.0414182\Polar=79.7430415,-12.3892025,85.6831206,6.117544,-21.11022
 99,56.5674526\Quadrupole=-0.1998108,-3.6600071,3.8598179,6.6574061,-1.
 3615581,2.023212\PG=C01 [X(C5H5N3O1)]\NImag=0\\0.41864625,-0.29022997,
 0.34101049,0.21730747,-0.21280026,0.17576301,-0.37826021,0.24795328,-0
 .18147139,0.62561070,0.23877747,-0.30590702,0.16580795,-0.15736637,0.6
 1753011,-0.17827230,0.16881817,-0.18724177,0.16539347,-0.22861846,0.35
 212467,0.01167500,0.04001634,-0.02103711,-0.11997632,-0.07250142,0.016
 61307,0.73110563,0.02874692,-0.04824226,0.03664645,-0.07871028,-0.1760
 1878,0.04592361,0.02590666,0.55190734,-0.01710137,0.04326714,-0.006939
 13,0.01747766,0.03030773,-0.07201307,0.15838836,-0.17035584,0.19140222
 ,0.00675399,-0.01181291,0.00417113,0.00258277,0.04456150,-0.01192243,-
 0.30341181,0.10766675,-0.10645490,0.72252547,-0.00478703,-0.00028881,0
 .00396038,0.03641245,-0.05786027,0.02315398,0.10539146,-0.18792612,0.0
 8304587,-0.23679073,0.61533741,0.00297135,0.00106049,0.00875476,-0.010
 86949,0.02497718,-0.02576346,-0.10376616,0.07252215,-0.09358629,0.1995
 1071,-0.18721214,0.24228843,0.00020159,0.00672241,-0.00208415,-0.00764
 743,-0.02087344,0.00367229,-0.01327904,0.04181925,-0.01455225,-0.06323
 982,0.12481293,-0.03017530,0.16755016,-0.00209029,-0.00339112,0.000796
 48,0.00731863,0.01778488,-0.00430809,0.02720554,-0.01793663,0.00588065
 ,0.13090952,-0.37158114,0.09800058,-0.04967842,0.53680263,-0.00008405,
 0.00153165,-0.00503032,-0.00523134,-0.00251172,0.01549630,-0.01373115,
 0.02152990,0.00007333,-0.02570804,0.07934245,-0.06615218,0.03700544,-0
 .09197386,0.09091881,-0.00231378,-0.00621583,0.00300535,0.01118737,0.0
 1540059,-0.00466277,-0.01071500,-0.00510896,0.00032790,-0.28514220,0.0
 1600961,-0.06789663,-0.06449774,-0.10083934,0.00894872,0.53259294,-0.0
 0008712,-0.00545411,0.00202664,0.00620744,0.01573784,-0.00411811,0.024
 85968,-0.01688910,0.01556185,-0.06520004,0.00324446,-0.02542617,-0.062
 22130,-0.15913196,-0.00462605,0.13906298,0.34087129,0.00141106,0.00195
 825,-0.00017723,-0.00489198,-0.00818616,-0.00013321,-0.01065271,0.0007
 3582,-0.00003833,-0.05027755,0.00587201,-0.06627971,-0.00048995,-0.016
 19038,-0.03772248,0.04852448,0.05418734,0.57000731,-0.00071318,0.00222
 141,-0.00169697,0.00271570,-0.00576363,0.00209248,-0.00020260,0.000858
 36,-0.00016260,-0.03857388,-0.01034863,0.03792929,-0.00723617,-0.00744
 912,-0.00205698,-0.12145296,-0.00068839,0.05547939,0.25121527,0.005881
 46,0.00416534,0.00020020,-0.01298938,-0.01736106,0.00349109,-0.0013551
 6,0.01009527,-0.00671702,0.00678064,-0.01541197,0.00538881,-0.02659617
 ,0.01012392,0.02179636,-0.03147528,-0.07280981,0.02801872,-0.08554573,
 0.57931554,0.00048996,-0.00234311,0.00209939,0.00680288,0.00476700,-0.
 00371842,0.00241477,-0.00127925,0.00332524,0.01450375,-0.00482446,-0.0
 0179876,0.00395731,0.00988246,0.00498272,0.07012857,-0.00529283,-0.177
 04889,-0.07033532,-0.27200835,0.38073883,-0.00049393,-0.00149545,-0.00
 083130,-0.02682763,0.01384217,0.00914245,0.00049186,0.00301574,-0.0030
 0213,0.00181911,-0.00954891,0.00706814,-0.00795057,0.00251742,0.001965
 08,0.00309723,-0.01852862,0.01660553,-0.10216937,0.11313752,-0.0367400
 1,0.39085882,-0.01144196,-0.00222653,-0.00436552,0.02107496,0.02766774
 ,0.00400368,-0.00000788,-0.00824541,0.00265538,-0.00190811,0.00899871,
 -0.00644034,0.00680152,-0.00349511,0.00324837,-0.00980080,-0.02914363,
 0.02264286,0.08786475,-0.46002542,0.22620949,-0.10867070,0.67409761,-0
 .00582302,-0.00060656,-0.00066267,0.00393512,0.00486912,-0.00463268,0.
 00128441,-0.00154538,0.00084336,-0.00576600,0.00432151,0.00284571,0.00
 193252,-0.00291575,-0.00382223,0.00698038,0.04550895,-0.03808552,-0.01
 595499,0.19817319,-0.18854421,-0.15070523,-0.26920308,0.54336613,-0.05
 615869,0.00965762,-0.02037873,-0.09415012,-0.01969144,0.00838863,-0.00
 708843,-0.01231743,0.00338587,-0.00583328,0.00398026,-0.00303527,0.003
 06495,-0.00404892,0.00163077,-0.00743969,-0.00847634,-0.00139774,0.006
 91717,0.03076242,0.00342939,-0.11930973,0.01747042,0.02940662,0.372694
 92,0.02805872,0.01423132,0.00945921,-0.03807336,-0.09779170,0.00335757
 ,-0.02545522,-0.00582838,0.00232742,-0.00528328,0.00057790,-0.00135922
 ,0.00048680,-0.00084596,0.00052540,0.00176562,-0.00385488,-0.00589214,
 0.03025634,-0.02216063,0.00528530,0.04443291,-0.12129934,-0.01484987,-
 0.00902059,0.52520027,-0.02149029,0.00446143,0.01328818,0.00320167,0.0
 0491648,-0.07562452,0.01060020,0.00513406,0.01210772,-0.00095126,-0.00
 198943,0.00021366,-0.00148994,-0.00018195,0.00038551,-0.00391314,0.000
 03313,-0.00394444,-0.00543974,0.01402787,0.01816514,0.03134657,-0.0070
 1464,-0.09294450,0.01184167,-0.07319642,0.53634685,0.00071467,0.000382
 79,0.00066336,-0.00208379,0.00014153,-0.00100665,-0.28392613,-0.111554
 97,-0.03868679,-0.02827936,-0.00505587,-0.00750823,0.00231311,0.000287
 79,0.00283866,0.00457060,-0.00179894,-0.00265217,-0.00062974,0.0001151
 3,0.00099106,0.00015219,0.00049027,-0.00016792,0.00087079,-0.00037041,
 -0.00053220,0.30670257,0.00289908,0.00202507,-0.00071156,-0.02313504,-
 0.00217440,-0.00708662,-0.12046287,-0.10734189,-0.00658993,0.02649538,
 0.01161033,0.00478281,-0.00162575,0.00012707,-0.00295688,-0.00033857,-
 0.00014915,0.00417457,-0.00039845,0.00034003,-0.00068228,0.00068647,-0
 .00093637,-0.00003693,-0.00020740,-0.00280727,0.00374209,0.11718600,0.
 09949732,0.00102921,-0.00313054,-0.00085829,0.00927902,0.00594218,0.00
 213836,-0.03920992,-0.01027744,-0.03437504,-0.01813961,-0.00320960,-0.
 00115001,0.00213558,-0.00073809,-0.00609709,0.00094024,0.00221957,0.00
 639798,-0.00179122,-0.00101220,0.00129700,-0.00101915,0.00084828,0.000
 06304,0.00018536,0.00307276,0.00100695,0.04617302,0.00579243,0.0316187
 4,0.00044755,0.00082152,-0.00038597,-0.00160785,-0.00233140,0.00096280
 ,0.00121418,0.00050982,-0.00071515,-0.01023595,-0.02340454,-0.02165851
 ,-0.01205282,-0.00287421,-0.00450308,-0.06499163,-0.01929927,-0.061450
 29,0.00818121,0.00193033,0.01774873,-0.00164833,0.00280556,0.00242237,
 0.00158167,0.00095838,0.00045770,-0.00021132,0.00021002,-0.00046683,0.
 08021052,-0.00039623,0.00108991,-0.00039566,-0.00116465,-0.00223754,0.
 00015471,-0.00099054,0.00511922,-0.00026013,0.00393650,-0.00633477,0.0
 1417544,-0.01860363,-0.00858345,-0.02576022,-0.02601455,-0.07395006,-0
 .09040033,0.00151664,0.00385760,0.00826331,-0.00076698,0.00092156,0.00
 080103,0.00054744,0.00008625,0.00048832,0.00055473,-0.00020673,0.00002
 962,0.04183116,0.08094616,-0.00058633,-0.00002631,-0.00013649,0.000899
 36,0.00076413,0.00012573,-0.00029414,-0.00004931,-0.00077393,0.0003326
 0,-0.00291779,0.00097061,-0.00126827,0.00097233,0.00834841,-0.06677680
 ,-0.08654136,-0.26090941,-0.00356141,-0.00227274,-0.02341927,0.0037026
 3,-0.00533117,-0.00123805,-0.00248288,-0.00080334,-0.00026857,0.000062
 42,-0.00017831,-0.00022702,0.06896787,0.09378125,0.27626133,-0.0006591
 4,-0.00047950,-0.00049687,0.00082546,0.00204418,0.00105491,-0.00007529
 ,-0.00041743,-0.00008128,0.00141154,0.00198425,-0.00117249,0.00172693,
 -0.00094564,-0.00114800,0.00628977,0.00634945,0.00645420,0.00542760,-0
 .00169088,-0.01203401,-0.14058079,-0.03385975,0.12456568,-0.00473855,-
 0.00187046,0.01799693,-0.00001683,-0.00010947,-0.00001621,-0.00101373,
 -0.00051750,0.00100265,0.13387177,0.00126009,0.00050402,0.00079052,-0.
 00184278,-0.00409106,-0.00218223,-0.00016169,0.00105527,-0.00035904,0.
 00154223,-0.00054113,-0.00000312,-0.00077061,0.00020148,-0.00075057,0.
 00621097,0.00219087,0.00758119,-0.01835391,-0.01988426,0.02906621,-0.0
 3103419,-0.06160639,0.04440785,0.01625508,0.00607498,-0.01039011,-0.00
 006972,0.00019203,-0.00005033,-0.00145915,-0.00053372,0.00172098,0.027
 97553,0.07617127,0.00097349,-0.00013423,0.00044195,-0.00121969,-0.0017
 8579,-0.00074341,0.00025644,-0.00007279,-0.00008506,0.00063213,0.00116
 709,-0.00058572,0.00154790,-0.00024870,-0.00150582,0.00422640,0.006394
 40,0.00824796,0.00214242,0.01016032,-0.01719678,0.12198357,0.04879347,
 -0.21475810,0.00729140,0.00534997,0.00044731,0.00000093,-0.00000274,0.
 00001169,-0.00108871,-0.00063782,0.00082605,-0.13619918,-0.06842823,0.
 22424735,0.00384957,0.00231720,-0.00113004,-0.00549433,-0.02952473,0.0
 2051940,-0.00532925,-0.00048213,-0.00136032,-0.00070585,0.00090718,-0.
 00059032,0.00048023,-0.00025033,0.00009555,-0.00165135,-0.00014601,0.0
 0131792,-0.00279770,0.00372557,0.00125010,0.00105856,0.01911811,-0.015
 18794,-0.04516549,-0.01022370,0.00954397,0.00005520,-0.00145187,0.0004
 5438,0.00013887,-0.00002422,0.00005888,0.00048642,-0.00021003,-0.00026
 071,0.05488363,0.00325301,0.00244736,-0.00180312,-0.00292619,-0.012453
 44,0.00813775,-0.00209784,0.00043731,-0.00020929,0.00025455,0.00077020
 ,-0.00038862,-0.00006048,0.00025192,0.00016348,0.00091166,0.00041143,-
 0.00172539,0.00405002,-0.00232548,-0.00075833,-0.00402162,-0.01671169,
 0.01353040,-0.01022268,-0.22740748,0.12895072,-0.00014220,-0.00041607,
 0.00019133,0.00000040,0.00006014,0.00009725,-0.00014226,0.00086266,-0.
 00043113,0.01056230,0.24533734,0.00012712,-0.00146282,0.00008713,-0.00
 206603,-0.00161784,0.00052928,-0.00060029,0.00023304,0.00053785,-0.000
 17525,-0.00028916,-0.00011620,-0.00013407,0.00023104,0.00024599,0.0008
 4006,0.00017495,-0.00114169,0.00245994,-0.00172740,0.00078310,-0.00096
 074,-0.01189660,0.00670046,0.00992832,0.13159226,-0.14120051,-0.000142
 81,-0.00005906,0.00020326,0.00000630,-0.00002784,0.00035059,-0.0005566
 4,-0.00002871,0.00065725,-0.01101101,-0.13958187,0.14905559,-0.0036896
 7,0.00014109,0.00436521,-0.00687433,-0.00671500,-0.03197536,-0.0004828
 0,0.00006770,0.00253700,0.00032926,0.00043757,-0.00080710,0.00056662,-
 0.00006263,-0.00002158,0.00046644,-0.00003352,0.00201979,-0.00068135,-
 0.00268047,-0.00260718,0.00150257,0.01006360,0.02307801,-0.04524552,-0
 .01566177,-0.05117215,-0.00023196,0.00025246,0.00044612,-0.00001236,0.
 00009184,-0.00005659,-0.00295516,0.00065817,-0.00028638,0.00019149,0.0
 0058134,0.00228510,0.05711677,0.00015583,0.00003634,0.00038829,-0.0027
 5872,-0.00282530,-0.01072706,-0.00034706,-0.00018584,0.00144520,-0.001
 15200,-0.00059480,-0.00007783,-0.00021311,-0.00032652,0.00044171,0.000
 43191,-0.00107318,-0.00277637,0.00178035,0.00208094,0.00371485,-0.0035
 6575,-0.00799574,-0.02245449,-0.01468845,-0.06417506,-0.06898154,-0.00
 016614,0.00024004,0.00032202,0.00030139,-0.00023457,0.00078441,0.00167
 947,-0.00059601,-0.00012382,0.00568267,0.00873580,0.02446001,0.0128596
 2,0.06691390,-0.00095231,-0.00059329,0.00061147,-0.00123925,0.00036820
 ,-0.00054382,-0.00026578,0.00085499,-0.00047887,0.00024472,-0.00042070
 ,0.00035914,-0.00005709,0.00079326,-0.00012095,-0.00067275,-0.00010230
 ,0.00082767,0.00089569,0.00248113,0.00033490,0.00144458,-0.00415018,-0
 .00913074,-0.04819343,-0.06486892,-0.26797878,-0.00003267,-0.00018757,
 -0.00002957,-0.00029725,-0.00021167,0.00009005,0.00063031,-0.00137440,
 -0.00000467,-0.00369987,-0.00617317,-0.01669209,0.05219510,0.07358462,
 0.29275625\\-0.00002592,0.00002456,-0.00001988,0.00001815,-0.00004270,
 0.00000372,-0.00007547,0.00003453,-0.00000532,0.00010689,-0.00005806,0
 .00000026,-0.00005636,-0.00002367,-0.00000579,0.00002348,0.00011984,-0
 .00005164,-0.00001049,-0.00003923,0.00005125,0.00001544,-0.00001068,-0
 .00002874,-0.00001279,0.00005187,0.00003709,0.00000548,-0.00001348,0.0
 0001345,0.00000093,-0.00001558,0.00000740,0.00000384,-0.00001063,0.000
 00163,0.00000475,-0.00000814,-0.00000360,0.00000207,-0.00000863,0.0000
 0017\\\@


 Fatherhood is pretending the present you love most is soap-on-a-rope.
 -- Bill Cosby
 Job cpu time:       0 days  1 hours 40 minutes 13.5 seconds.
 Elapsed time:       0 days  0 hours 25 minutes 36.5 seconds.
 File lengths (MBytes):  RWF=     96 Int=      0 D2E=      0 Chk=      7 Scr=      1
 Normal termination of Gaussian 16 at Wed Aug  3 10:59:33 2022.
### All Done ###
